default_name
127028
  76.2765662  33.1020992  48.1099807  75.8034474  33.2505081  47.2300748
  75.6722126  33.4080594  48.8591438  76.6588854  32.1673030  48.1193447
  77.4827982  34.0307709  48.1612076  77.3758271  34.7749570  48.9504119
  78.8569608  33.3166540  48.3052987  79.6416319  34.0399175  48.0833046
  79.0649814  32.7566075  49.7049359  78.2809014  32.0328745  49.9274885
  80.0371486  32.2667567  49.7600516  79.0261000  33.5684854  50.4311878
  79.0158988  32.2541766  47.2212499  78.1113820  32.2662393  46.6131354
  79.1064296  31.2880524  47.7177466  80.2069853  32.4779498  46.3464674
  81.1119877  32.4655561  46.9538528  80.2618792  31.6879730  45.5974530
  80.1169410  33.4437447  45.8492431  77.6556332  34.9212455  46.9614359
  77.1664621  34.6788155  45.8514659  78.4560119  35.9247656  47.2048394
  79.0237139  35.9142972  48.0401263  78.5631879  37.0277258  46.3400197
  78.6829970  36.7005749  45.3071996  77.2681378  37.8567105  46.4470174
  76.4677482  37.1641377  46.7074374  77.4118431  38.5676052  47.2606989
  76.9000385  38.5983111  45.1939199  76.8501533  39.6641236  45.4167561
  77.6676542  38.4206685  44.4407192  75.5770293  38.1357362  44.6751175
  74.7969317  38.3891704  45.3929739  75.3683909  38.6262152  43.7243284
  75.5701122  36.7110580  44.4703608  76.3392135  36.1668522  44.8342600
  74.5811003  36.0795214  43.8713792  73.5518618  36.7710663  43.3849990
  73.5341985  37.7766605  43.4775636  72.7937984  36.2866824  42.9258566
  74.6386306  34.7652604  43.7112723  75.4408197  34.2530658  44.0492804
  73.8800236  34.2818730  43.2519784  79.7885547  37.8759276  46.7824492
  79.7943318  38.4341992  47.8813134  80.7844515  37.9916643  45.8982271
  80.7035517  37.5214180  45.0080457  81.9612870  38.7695995  46.1512568
  81.8303268  39.4051225  47.0270759  83.1026684  37.8131889  46.4145313
  82.8510114  37.3932495  47.3883993  83.0595889  37.0286742  45.6590310
  84.5177172  38.3993282  46.4616320  84.8708559  38.4685642  45.4327490
  84.6023483  39.7730444  47.1217922  84.2497862  39.7045075  48.1509188
  85.6366280  40.1170161  47.1147495  83.9811479  40.4799376  46.5717808
  85.4298051  37.4133600  47.1873293  85.4393508  36.4643017  46.6513288
  86.4415879  37.8166653  47.2290612  85.0606143  37.2541502  48.2004677
  82.2543131  39.6044061  44.9262822  82.7167928  39.0706103  43.9457291
  81.9234203  40.9119327  44.9625603  80.7957758  41.5266012  45.6823141
  81.1317044  41.8416587  46.6702366  79.9966693  40.7928349  45.7877415
  80.3937907  42.6993010  44.8003974  79.9697787  43.5054666  45.3990708
  79.6695004  42.3862426  44.0484004  81.6500853  43.1023165  44.1774661
  82.2348455  43.7046484  44.8727005  81.5130212  43.6529872  43.2468347
  82.3715182  41.7790030  43.9005115  82.0653524  41.3331207  42.9541766
  83.8508257  41.9771192  43.9007829  84.4321530  42.4967876  44.8969984
  84.4292817  41.5319603  42.7728289  83.8086186  41.2756097  42.0184013
  85.8481348  41.4511355  42.5463800  86.3649446  41.0614104  43.4233755
  86.1327670  40.5488553  41.3443870  85.5024767  40.8589198  40.5109036
  87.6000114  40.6493257  40.9370007  88.2309524  40.3389579  41.7698788
  87.7850159  40.0010822  40.0804644  87.8335481  41.6798008  40.6692677
  85.7637835  39.1023802  41.6850538  86.4658003  38.7672759  42.4485839
  84.7566551  39.1215203  42.1014978  85.8055747  38.1411313  40.4981924
  86.8125747  38.1211036  40.0814792  85.5305760  37.1402012  40.8307790
  85.1034306  38.4753497  39.7343917  86.3149916  42.8260584  42.2135950
  85.8221823  43.4038151  41.2390304  87.3333221  43.3041784  42.9382061
  87.7587736  42.7399077  43.6597939  87.8938748  44.6200351  42.6711879
  87.1056230  45.2671793  42.2865287  88.5220006  45.2844541  43.8594767
  89.4971089  44.8443198  44.0681507  88.6925239  46.7651557  43.5295836
  87.7177199  47.2061174  43.3212309  89.1484008  47.2766463  44.3773183
  89.3333822  46.8714649  42.6543118  87.6637394  45.1006015  45.0882008
  87.5514911  44.0368439  45.2977770  88.1371816  45.5900890  45.9392908
  86.6821317  45.5419681  44.9157405  88.9921760  44.5650311  41.6941546
  89.0574030  45.3869418  40.8072560  89.9520970  43.6865905  41.9372592
  90.0431044  43.2555050  42.8460948  90.9977894  43.4378836  40.9432409
  90.5717633  43.4563194  39.9401152  92.0968040  44.5400070  41.0381823
  91.6771116  45.3791369  41.5929963  92.9324909  44.1177301  41.5962232
  92.5932081  45.0305177  39.6620532  91.7878905  44.9753230  38.7055183
  93.7837899  45.4697333  39.5571079  91.6082977  41.9891691  40.9958790
  91.5738474  41.2704902  42.0302362  92.1724097  41.6100078  39.8534831
  92.1027624  42.2398048  39.0669691  92.8669800  40.3514518  39.6666942
  92.7079558  39.6961673  40.5230894  92.3195109  39.6605364  38.4130645
  92.7806807  38.6733741  38.3825327  91.2456589  39.5547129  38.5671531
  92.5781730  40.3911023  37.0761436  93.6257448  40.6922131  37.0709951
  92.4036808  39.6711337  36.2765814  91.6919313  41.6223413  36.8569265
  90.7067788  41.2840735  36.5357591  91.6019474  42.1542321  37.8040772
  92.2728522  42.5506824  35.8100078  91.6082193  43.4064297  35.6914318
  93.2501927  42.8945417  36.1486307  92.4185289  41.8505936  34.5029956
  91.5129531  41.5322624  34.1888342  92.8066903  42.4870828  33.8215910
  93.0346949  41.0578546  34.6125562  94.3616533  40.6569322  39.5150023
  94.7494831  41.4864592  38.6586554  95.1863121  40.1161098  40.4128809
  94.8379944  39.5846138  41.1979198  96.6233335  40.3828247  40.3384320
  96.8077496  41.0247325  39.4770121  97.1848871  41.0704882  41.5922939
  98.1591441  41.3330427  41.1799984  96.6481326  41.9799413  41.8622747
  97.3737636  40.2111435  42.8253776  96.2775399  39.7782902  43.5709180
  95.2759075  39.9588242  43.1807393  96.4435963  39.1237592  44.7973223
  95.5693892  38.7987107  45.3614209  97.7334780  38.8839185  45.3005078
  97.9146654  38.2182331  46.5209429  97.0871484  37.9659238  46.9370623
  98.8299319  39.3180241  44.5714712  99.8384754  39.1159079  44.9321504
  98.6414263  40.0181339  43.3683395  99.4999499  40.4263811  42.8350744
  97.3173227  39.1167185  40.0466734  97.7260663  38.4214745  40.9521316
  97.3969051  38.7787507  38.7719399  97.1351218  39.3944552  38.0153179
  97.9065482  37.4877119  38.4471372  97.1733216  36.7177348  38.6871647
  98.2040226  37.4275436  36.9591796  97.3379400  37.8433130  36.4442661
  99.0713330  38.0635043  36.7819039  98.4831131  36.0366128  36.4334639
  99.1451965  35.5317658  37.1369381  97.5376358  35.4974773  36.3742393
  99.1373059  36.0699738  35.0531042  99.5135221  37.0805558  34.8940936
  99.9729226  35.3703009  35.0704824  98.1874200  35.6980932  33.9213291
  98.7703795  35.1475687  33.1829650  97.4267521  35.0424802  34.3451864
  97.5299303  36.8618962  33.2664459  98.2345920  37.4693073  32.8732497
  96.9197412  36.5341084  32.5313782  96.9893504  37.3719153  33.9503706
  99.1565367  37.3672902  39.2398682 100.0723074  38.1581917  39.1143110
  99.1692978  36.3433628  40.0692071  98.3884229  35.7041170  40.0279937
 100.2707387  36.0216687  40.9424183 101.2118655  36.2624558  40.4480488
 100.1857720  36.8102177  42.2304805 100.5653139  37.8095070  42.0172484
  99.1409235  36.8760571  42.5338894 100.9959447  36.1914530  43.3461828
 100.7332388  35.0387030  43.7528165 101.9006532  36.8783174  43.8430136
  99.9448366  34.6039592  41.2217702  98.8122566  34.2059641  41.0170937
 100.9169596  33.8105441  41.6657796 101.8403178  34.1959328  41.8035637
 100.7027046  32.3917971  41.9715861 101.6158661  31.8207335  42.1392807
  99.7961172  32.2261862  43.1829372 100.3027171  32.6042079  44.0709436
  98.8735176  32.7850171  43.0260363  99.4689534  30.7491064  43.3748314
  98.9618906  30.3704666  42.4873518 100.3910888  30.1896566  43.5322617
  98.3906273  30.5356186  44.8127932  98.1863904  28.7675742  44.7862090
  99.1596342  28.2873156  44.8874383  97.5438541  28.4630647  45.6123577
  97.7304376  28.4681230  43.8425262 100.0518217  31.8336233  40.7230804
 100.4206143  32.2523479  39.6221749  99.0550685  30.9694949  40.8721677
  98.7644161  30.6005736  41.7663252  98.3486220  30.5342039  39.6890950
  99.0208191  30.2225806  38.8896320  97.6359012  29.7358054  39.8957060
  97.5865540  31.7754987  39.2406492  97.6249795  32.1815977  38.0836258
  96.9019827  32.3881270  40.2056537  96.9337110  31.9891607  41.1329716
  96.1244501  33.6045782  40.0028268  96.7622159  34.3503979  39.5283724
  94.9069539  33.3598265  39.1060494  94.3114796  32.5507744  39.5290686
  94.0657214  34.6041302  39.0098506  94.6604227  35.4135543  38.5864566
  93.2049799  34.4127716  38.3690658  93.7216575  34.8884993  40.0042624
  95.3460694  33.0081388  37.7949879  94.5833963  32.8546321  37.2325239
  95.6213893  34.1060169  41.3423774  95.6536300  33.3738440  42.3242350
  95.1276120  35.3355069  41.3888475  95.1724908  35.9672573  40.6020968
  94.5446494  35.8336614  42.6581421  93.8571586  35.0803321  43.0427856
  95.6199585  36.1495033  43.7694562  95.9993139  37.1550935  43.5878599
  95.0526960  36.0666623  45.1917429  94.6735414  35.0611607  45.3742514
  95.8394912  36.2938503  45.9110755  94.2412664  36.7860087  45.3023070
  96.7694786  35.1768673  43.6821134  97.2394220  35.2560600  42.7018156
  97.5018715  35.4087696  44.4553674  96.3990308  34.1618887  43.8259457
  93.7180617  37.0760620  42.3876822  93.9889839  37.8519532  41.4372407
  92.7737358  37.2780303  43.3098511  92.8363112  36.7380285  44.1610747
  91.6656949  38.1535386  43.1470765  91.8598834  38.9938727  42.4805716
  90.4951066  37.3459682  42.5866453  90.7354127  36.2878473  42.6902425
  89.1943934  37.6404981  43.3042623  88.9531724  38.6984159  43.2007088
  88.3946863  37.0416694  42.8684032  89.2978267  37.3936939  44.3609037
  90.3603363  37.6087364  41.0947526  91.2791111  37.3124000  40.5886502
  89.5251057  37.0318277  40.6976812  90.1800664  38.6705807  40.9271506
  91.3195532  38.8159900  44.4757966  91.3243747  38.1910657  45.5306673
  90.9042904  40.0636079  44.3763152  90.7618528  40.4454929  43.4522077
  90.5956235  40.9092753  45.5327084  90.9340045  40.4547193  46.4638241
  91.3348047  42.2062849  45.3338860  91.3602114  42.3341954  44.2517156
  90.7839660  43.0321574  45.7840097  92.7363750  42.1904025  45.8682056
  92.9429221  41.2145766  46.3077542  93.7252591  42.4585103  44.7396049
  93.5196201  43.4344289  44.2998389  94.7409265  42.4454756  45.1350169
  93.6233660  41.6876170  43.9757713  92.8005817  43.2235352  47.0069927
  92.0899255  42.9500195  47.7869006  93.8073921  43.2430886  47.4241879
  92.5499681  44.2102876  46.6176194  89.1090632  41.2847458  45.7065393
  88.4294626  41.6141548  44.7373062  88.6878519  41.5099270  46.9333361
  89.1922895  41.2184770  47.7583810  87.4439139  42.2076831  47.1065350
  87.5535868  43.1843487  46.6351589  86.6777873  41.6360067  46.5827645
  87.0231521  42.3977050  48.5243125  87.8134360  42.1876009  49.4421107
  85.8117655  42.9398435  48.6823264  85.4287660  43.5082680  47.9405014
  85.0030433  42.7316642  49.8859088  85.6452299  42.3684631  50.6882682
  84.3265302  44.0188710  50.3477215  85.1052208  44.7559833  50.5436948
  83.6881413  44.3720647  49.5378982  83.4868828  43.8191044  51.6069624
  82.5163342  43.4252477  51.3052784  83.9945092  43.0892356  52.2376041
  83.2892548  45.1142169  52.3870572  82.9576320  45.8833427  51.6895110
  82.5150225  44.9448986  53.1353854  84.5787143  45.5746521  53.0806304
  84.9596584  44.7194961  53.6389228  85.2846591  45.8371818  52.2927097
  84.4087757  46.7396603  54.0068457  83.7549955  46.4964545  54.7372717
  85.3005626  46.9756689  54.4180829  84.0561964  47.5322999  53.4896325
  83.9262308  41.7349901  49.6066375  83.2393406  41.8244065  48.5824004
  83.6670008  40.9090219  50.6151271  84.0614285  41.1219865  51.5202084
  82.8571709  39.7016058  50.4796687  82.7810695  39.3988722  49.4353219
  83.5402975  38.5750731  51.2686066  84.5407196  38.6587670  50.8440477
  83.5617185  38.8885087  52.3123496  83.0680602  37.1155496  51.1821079
  83.9171529  36.4868225  50.9140692  82.4948281  36.6524712  52.5120859
  81.6453475  37.2804769  52.7805824  82.1672658  35.6164134  52.4261331
  83.2603506  36.7280822  53.2843285  82.0893479  36.8635553  50.0497572
  82.5614727  37.1108928  49.0989566  81.7978676  35.8132523  50.0477336
  81.2048286  37.4852907  50.1882116  81.4484039  39.9493262  51.0148734
  81.2490756  39.9714175  52.2350821  80.4907090  40.1545340  50.1055372
  80.6878319  39.9965489  49.1276402  79.1939143  40.7710827  50.4698944
  79.2720955  41.1871949  51.4743035  78.7827584  41.9041785  49.4948305
  78.2873557  41.4166132  48.6552142  78.0625456  42.5205496  50.0328642
  79.9328605  42.7963074  48.9676293  80.8035490  42.1478509  49.0651311
  79.7610201  43.0170323  47.9141348  80.1847789  44.1195604  49.7387147
  79.3214166  44.5926515  50.5288446  81.2453531  44.7439892  49.4846516
  78.0066821  39.7692474  50.6705625  77.1533439  40.0020549  51.5099292
  77.9910435  38.6420471  49.9670435  78.5690184  38.5255778  49.1469952
  77.0704561  37.5542866  50.3315664  76.4381244  37.8904872  51.1532871
  76.1692754  37.1273508  49.1609361  75.6146457  38.0037106  48.8255580
  76.8104639  36.7730088  48.3538307  75.2432128  36.0854975  49.5315043
  74.7036612  35.8521488  48.7725364  77.8420935  36.3427177  50.8527569
  78.5565441  35.6844204  50.1059624  77.6599952  36.0334159  52.1318025
  77.3934728  36.7534561  52.7880093  77.8346897  34.6619574  52.6342460
  77.1603900  34.5470103  53.4828956  77.5277175  33.9894414  51.8332531
  79.2473241  34.2995876  53.0712771  80.1018842  35.1630035  53.2340320
  79.4386152  33.0138159  53.3621872  78.6752193  32.3652231  53.2331391
  80.6911490  32.5060380  53.8942829  81.3468509  33.3410570  54.1410573
  80.4546581  31.6712386  55.1699110  79.6932004  32.1679277  55.7712274
  80.0976807  30.6843757  54.8753458  81.6421035  31.5359226  55.9301069
  81.4618790  31.0129672  56.7147321  81.3619327  31.6673557  52.8262276
  80.7107054  31.1071772  51.9453071  82.6753218  31.5873750  52.9148686
  83.1624950  31.9935335  53.7008692  83.4600876  31.0610856  51.8188539
  82.9183048  30.3597371  51.1842826  84.0229607  32.2015296  50.9568936
  83.1913209  32.7643470  50.5329689  84.8930289  33.1322286  51.7889553
  85.7252011  32.5701844  52.2128615  85.2796914  33.9312213  51.1563389
  84.2983194  33.5628951  52.5945272  84.7426504  31.6368630  49.7306089
  85.8156256  31.6688187  49.9198279  84.4284549  30.6017043  49.5970900
  84.4289317  32.4226515  48.4808529  84.7432889  33.4578795  48.6134522
  84.9604897  31.9876317  47.6345060  83.3561172  32.3907669  48.2907155
  84.5479864  30.0762381  52.2880142  85.5430827  30.4585672  52.9253311
  84.2869513  28.7915630  52.0203120  83.5162385  28.5724162  51.4054332
  85.0635884  27.6875531  52.5775033  85.4099641  27.9535211  53.5761945
  84.2065324  26.3969240  52.6770241  83.9776130  26.0520793  51.6686704
  84.7845451  25.6342180  53.1988296  82.5919807  26.5065735  53.5584053
  82.2539512  25.2315217  53.3884728  86.2400873  27.4685681  51.6365439
  86.1259914  27.8014448  50.4453343  87.3869676  27.0218868  52.1934096
  87.4124639  26.8772186  53.1926695  88.6393396  26.7807584  51.4090962
  88.8952855  27.6883311  50.8623762  89.8262459  26.4004295  52.3150124
  90.0180312  27.2079289  53.0215975  89.5885651  25.4882434  52.8623007
  91.0664371  26.1700971  51.4579844  90.8755587  25.3623704  50.7514125
  91.3050272  27.0820557  50.9107108  92.2411684  25.7936675  52.3546070
  92.4329533  26.6011654  53.0611937  92.0034872  24.8814807  52.9018933
  93.4813600  25.5633374  51.4975780  93.2904821  24.7556115  50.7910052
  93.7199499  26.4752966  50.9503081  94.6137228  25.2004821  52.3618636
  94.3930131  24.3552253  52.8687441  95.4350962  25.0479366  51.7942584
  94.7910327  25.9489894  53.0163842  88.3887092  25.6806828  50.3822057
  87.6749761  24.7163440  50.6732209  88.8699247  25.8884916  49.1551034
  89.4477721  26.6999195  48.9884405  88.5938479  24.9789865  48.0210385
  89.2100385  25.3620251  47.2075954  88.9807204  24.0129427  48.3453663
  87.1477017  24.7959628  47.5125521  86.8972251  23.8753168  46.7196830
  86.2186038  25.6923326  47.9034464  86.5323596  26.5142291  48.3995741
  84.7471869  25.5332416  47.6480422  84.4663981  24.4962539  47.8321980
  83.9327662  26.4437061  48.6018312  84.1607456  26.1840257  49.6356062
  84.1963201  27.4861383  48.4230173  82.4427220  26.2451975  48.3449518
  82.2138817  26.5051383  47.3114317  82.1783054  25.2030269  48.5240227
  81.6064192  27.1239895  49.2640856  82.1481779  27.8678259  50.0787294
  80.2809069  27.0366274  49.1313878  79.6797086  27.5984587  49.7170564
  79.8853490  26.4091036  48.4459324  84.3597815  25.8988291  46.2103413
  84.1747921  27.0631824  45.9297682  84.1888687  24.9201374  45.3124898
  84.2377592  23.9515485  45.5945262  83.9285475  25.2256621  43.8781197
  84.8600631  25.5108274  43.3891836  83.3548390  24.0095371  43.1613181
  82.6759734  23.5172505  43.8576618  82.7910100  24.3784296  42.3045129
  84.4063822  23.0123153  42.6862692  85.2904195  23.1101004  43.3163619
  84.0005864  22.0054223  42.7842404  84.8138812  23.2322190  41.2419950
  86.0160398  23.2934706  40.9209589  83.8143813  23.3530094  40.3510990
  84.0272335  23.5008966  39.3749204  82.8551570  23.2953201  40.6620041
  82.9435665  26.3661732  43.7306033  81.9819060  26.4273123  44.4898621
  83.1959404  27.2633549  42.7658243  83.9784971  27.1030470  42.1477582
  82.3765748  28.4773373  42.5594054  81.3701595  28.2973366  42.9373303
  82.9632229  29.6924900  43.2873705  83.9619104  29.7544785  42.8550743
  82.3899118  30.5752622  43.0043024  83.0707957  29.6225297  44.8053664
  83.6837088  28.7648287  45.0824717  83.7071480  30.8931519  45.3408980
  83.0945154  31.7513019  45.0645675  83.7798574  30.8339046  46.4268556
  84.7044666  31.0075424  44.9161971  81.7277303  29.3588094  45.5062506
  81.3199215  28.4072987  45.1650485  81.8812139  29.3219088  46.5847600
  81.0286861  30.1600196  45.2664624  82.2964847  28.8242680  41.1086557
  82.8963566  28.1534035  40.2580739  81.5959310  29.9132715  40.8254774
  81.0949514  30.4004440  41.5547111  81.5186010  30.4331088  39.4712403
  82.3224431  30.0450292  38.8456754  80.1740820  30.0932160  38.8098846
  79.3756972  30.4538723  39.4584276  80.0345487  30.7326106  37.4250240
  80.8323730  30.3720540  36.7757350  79.0688769  30.4648008  36.9962392
  80.1029614  31.8166351  37.5161958  80.0170825  28.5791890  38.7139767
  80.0475043  28.1461711  39.7138128  79.0625492  28.3413835  38.2444935
  80.8288335  28.1664302  38.1149848  81.6790714  31.9254465  39.5179697
  81.5790958  32.5374226  40.5871489  81.9725652  32.5006994  38.3548552
  81.9927315  31.9423893  37.5134382  82.2931420  33.9055163  38.2524537
  81.8323850  34.4666912  39.0654019  83.7872661  34.0651602  38.3440834
  84.1386593  33.4088592  39.1402562  84.2103209  33.7408509  37.3933215
  84.2213990  35.4772263  38.6302440  83.5970562  36.1881190  38.0890153
  84.1671770  35.6866583  39.6985605  85.8905121  35.6446216  38.0911758
  85.6483738  35.4401133  36.3092232  84.9794137  36.2180651  35.9412795
  86.6091596  35.5172210  35.8002579  85.2105148  34.4617136  36.1114483
  81.7930742  34.5081341  36.9508474  82.0971078  34.0230935  35.8461058
  81.0427843  35.5880199  37.0891975  81.1901064  36.2438143  37.8430737
  79.9349039  35.7794751  36.2468626  79.5941781  34.8211241  35.8549845
  78.7871213  36.4247259  37.0272891  79.0200471  36.3187537  38.0868242
  78.7737176  37.4820501  36.7627404  77.4099204  35.8087091  36.7422875
  76.8827933  35.8071358  37.6963500  76.9147280  36.4949690  36.0553131
  77.3777615  34.1210038  36.0342679  76.0003946  34.2823934  34.8894994
  76.2221664  35.0623365  34.1610730  75.8448476  33.3359473  34.3716718
  75.0980933  34.5468622  35.4408703  80.3657223  36.5650334  35.0353373
  81.5280516  36.6468309  34.7478349  79.4293514  37.2449080  34.4027640
  79.6497139  38.6818387  34.5971314  80.7197282  38.8721684  34.6804638
  79.1521895  38.9999388  35.5133087  79.0428786  39.3100286  33.3640875
  79.6538772  40.1565969  33.0508755  78.0344671  39.6551428  33.5923501
  79.0174985  38.2532381  32.3339226  79.9468484  38.1565526  31.7726208
  78.1947455  38.4406667  31.6439605  78.7540540  36.9781408  33.1219441
  77.6961038  36.8814895  33.3658663  79.2142661  35.7345387  32.3210098
  78.4621416  35.2352258  31.4530556  80.4114419  35.2271238  32.6156031
  80.9118810  35.5579805  33.4281263  81.0612731  34.2394010  31.7561934
  80.6400624  34.2644339  30.7511789  82.5444618  34.5742847  31.6707173
  83.0088407  34.3981775  32.6409945  83.0038518  33.9249834  30.9254196
  82.7877636  36.0205021  31.2711096  81.8956396  36.6921532  30.7508198
  83.9967406  36.5087876  31.5214933  84.2127626  37.4644674  31.2763194
  84.6948516  35.9223107  31.9559891  80.8804702  32.7802552  32.2191079
  81.4057831  31.8418122  31.6053334  80.1634868  32.6090425  33.3241437
  79.7980298  33.4206936  33.8013889  79.8547042  31.3039931  33.8587064
  79.3393826  31.4165976  34.8125739  78.9440395  30.5008512  32.8956213
  79.2038141  30.8390986  31.8925236  79.2364965  29.4574877  33.0137809
  77.4488043  30.6322080  33.1010629  76.9441393  30.0648379  32.3190749
  77.1981289  30.2105926  34.0744613  76.9995961  32.0748707  33.0462713
  75.9105789  32.0641432  33.0012673  77.3196250  32.5400049  33.9786507
  77.5524210  32.8755371  31.8594677  77.3372758  33.9216797  32.0771806
  78.6308940  32.7176410  31.8674670  77.0112064  32.5272731  30.5204920
  76.0119401  32.6739239  30.5127360  77.4429193  33.1130930  29.8201071
  77.2108338  31.5580474  30.3183790  81.1204095  30.5155789  34.0327298
  81.1131289  29.3481323  33.7358709  82.2387483  31.1291115  34.3946030
  82.3199712  32.1332029  34.4674223  83.4448505  30.3185147  34.5873187
  83.4265404  29.4942932  33.8742809  84.7344645  31.1113494  34.3838738
  84.4234721  32.1533078  34.4594098  85.5393599  30.9205849  35.0936993
  85.3139679  30.9382904  33.0280348  86.1529271  29.8940822  32.7180838
  86.4882312  29.2073169  33.3784053  86.4430932  29.9391268  31.4286201
  87.1045610  29.1954407  30.9842213  85.8137157  30.9720777  30.8923390
  85.0733094  31.5937565  31.8652516  84.4475831  32.4492115  31.6107630
  83.4468787  29.6389974  35.9472088  83.4023502  30.3059513  36.9898725
  83.4863852  28.3046520  35.9186646  83.2573083  27.8198904  35.0627269
  83.8486741  27.5120253  37.0851909  83.0856192  27.6319906  37.8542519
  83.9629650  26.0305299  36.7386654  84.3227835  25.9334158  35.7143614
  84.6791044  25.5709827  37.4198854  82.6661804  25.3121847  36.8569405
  81.6034141  25.9154001  37.0984688  82.7283738  24.0069326  36.6822701
  81.8875812  23.4511447  36.7475961  83.6165250  23.5688095  36.4839362
  85.1633022  27.9624790  37.6325386  85.9938426  28.5190989  36.9019732
  85.3904091  27.6206199  38.8887778  84.6922973  27.1099111  39.4102332
  86.6175906  27.9547115  39.5448175  87.4856972  27.5366980  39.0351561
  86.7828647  29.4797960  39.6252896  86.6509036  29.8917390  38.6247955
  85.7725034  30.1082053  40.5682514  85.9041605  29.6970681  41.5691178
  85.9233820  31.1873413  40.5965648  84.7635344  29.8920195  40.2170438
  88.1828032  29.8275610  40.0542390  88.8944826  29.4290276  39.3311998
  88.2883456  30.9111144  40.1078337  88.3809931  29.3947800  41.0348114
  86.5780451  27.3778710  40.9324577  85.5444651  27.4250576  41.5778661
  87.6656070  26.7753393  41.3844284  88.4471941  26.5710997  40.7782047
  87.7278948  26.3159802  42.7840320  86.7335147  26.3600985  43.2282854
  88.2720400  24.8632102  42.9249735  87.6095631  24.1741208  42.4011612
  89.2709952  24.8053049  42.4927288  88.3338539  24.4884833  44.3864314
  88.9965541  25.1768971  44.9108508  87.3351228  24.5457106  44.8192829
  88.8672694  23.0643673  44.5245939  90.1146837  22.9246937  44.6343675
  88.0222363  22.1297612  44.5190419  88.5845715  27.3122449  43.5335056
  89.5833114  27.8279699  42.9882603  88.1560772  27.6514648  44.7492060
  87.2277197  27.4070496  45.0630735  89.0487477  28.3213706  45.6871450
  89.3510259  29.2869910  45.2818005  88.4406299  28.5431693  47.0882792
  88.0438620  27.5986306  47.4604632  89.5128009  29.0601653  48.0502842
  89.9097413  30.0049789  47.6789805  89.0737345  29.2134725  49.0360926
  90.3196242  28.3307758  48.1219006  87.2744904  29.5166131  47.0364921
  86.4988558  29.1206762  46.3809565  86.8682916  29.6514479  48.0389499
  87.6188445  30.4768082  46.6523743  90.2191868  27.4075911  45.8830976
  90.0317952  26.2061626  46.1387143  91.4187400  27.9578486  45.6908928
  91.5242412  28.7465134  45.0688184  92.6081206  27.4137976  46.3199933
  92.4572080  26.3542932  46.5268144  93.8368707  27.5662969  45.4096791
  94.1416396  28.5905064  45.6246448  94.5885824  26.8761121  45.7926602
  93.6991209  27.3816691  43.8922143  93.2396223  28.2664363  43.4515908
  95.0888082  27.1797279  43.2949673  95.5487864  26.2948163  43.7347972
  95.0054975  27.0471783  42.2162687  95.7061790  28.0527417  43.5066287
  92.7816724  26.2314644  43.5189405  91.7859552  26.4144320  43.9228829
  92.7235372  26.1499102  42.4335509  93.1757696  25.3029163  43.9319598
  92.8303554  28.1253879  47.6639624  92.6603472  27.5209827  48.7321958
  93.0973878  29.4321403  47.6013774  92.7979286  29.9656753  46.7977830
  93.8183320  30.1301946  48.6694231  93.8884431  29.4530759  49.5207127
  94.8194052  30.3560942  48.3021067  93.1540257  31.4191340  49.1170586
  92.9192153  32.3313590  48.3143790  92.9735099  31.5361772  50.4226266
  93.3440839  30.8382785  51.0516827  92.2322630  32.6200341  50.9768751
  91.9673745  33.3685205  50.2300810  90.9757596  32.1010042  51.6371510
  91.2453649  31.3738577  52.4030958  90.2100321  33.2586276  52.2804848
  89.9396624  33.9860087  51.5150323  89.3055030  32.8776580  52.7546052
  90.8385669  33.7382075  53.0308489  90.1632548  31.3519105  50.5803140
  90.0568118  32.0209165  49.7263809  90.7479142  30.4798726  50.2873588
  88.8005286  30.9095261  51.0438765  88.2150832  31.7811211  51.3365806
  88.2925203  30.3867088  50.2335130  88.9061858  30.2400786  51.8975605
  93.0709889  33.3597849  51.9747361  93.1575332  32.9688669  53.1414075
  93.6974540  34.4329325  51.4896953  93.4748673  34.7326965  50.5512412
  94.7309783  35.1861139  52.2422419  95.1465082  34.5347752  53.0111320
  95.9283416  35.7029595  51.3056279  95.3416520  36.4832227  50.8207735
  96.5909740  36.1535277  52.0445506  96.8000475  34.9319318  50.2080063
  97.3361607  34.1452866  50.7389233  96.0070420  34.3152289  49.0429961
  95.4709944  35.1013802  48.5112839  96.6939286  33.8175526  48.3584481
  95.2935065  33.5891581  49.4325967  97.9179321  35.8089479  49.6059344
  98.5927841  36.1328784  50.3982368  98.4752873  35.2320766  48.8679127
  97.4764627  36.6822480  49.1257774  94.0756287  36.4002664  52.9468223
  94.7358009  37.4393024  53.0921149  92.8697993  36.1930505  53.4532470
  92.4780803  35.2621315  53.4465155  92.0896290  37.2577220  54.0282774
  91.6708155  37.8874604  53.2433417  90.9412423  36.6625085  54.8414580
  90.1457197  36.3891666  54.1482573  91.3119922  35.7667390  55.3396963
  90.4339576  37.5666199  55.8103512  89.7173328  37.1488620  56.2935976
  92.9144175  38.1043563  54.9351513  93.6005901  37.6366903  55.8304399
  92.8476201  39.3891150  54.6196179  92.2679681  39.6621647  53.8388831
  93.5356640  40.4137831  55.3452326  93.3170006  41.3940567  54.9217362
  93.0731295  40.3952093  56.7845709  92.0639858  39.9852840  56.8256736
  93.7523396  39.7429153  57.3334664  93.0830327  41.7580430  57.4021245
  94.1833805  42.3294116  57.5411984  91.9918221  42.2654132  57.7295459
  94.9881639  40.0445370  55.2444780  95.4007093  39.4048654  54.2854397
  95.7660212  40.4073749  56.2492474  95.4347006  40.9718470  57.0184661
  97.1437090  40.0175145  56.2374434  97.6243594  40.2206588  55.2804654
  97.9460620  40.7052120  57.3430702  97.9620049  41.7806024  57.1659245
  97.4821741  40.5033885  58.3085625  99.3756409  40.1685248  57.3435017
 100.2169974  40.7703789  56.6241322  99.6126842  39.1618223  58.0631963
  97.1283404  38.5034604  56.4091353  97.8934820  37.7816346  55.7849113
  96.2334657  38.0320226  57.2694356  95.6257585  38.6735334  57.7585728
  96.1434167  36.5892177  57.5984818  97.1118286  36.1117611  57.7478558
  95.2883158  36.3940284  58.8858872  95.7426580  36.9692591  59.6925978
  93.8496097  36.8584986  58.6781437  93.3944265  36.2833639  57.8718377
  93.2823179  36.7075229  59.5965590  93.8429944  37.9168412  58.4174354
  95.3209812  34.9546486  59.3733488  96.3486556  34.6703215  59.5995025
  94.7123744  34.8611980  60.2727732  94.9253734  34.2987911  58.5978192
  95.5675788  35.7452433  56.4388423  94.9429119  36.2799963  55.5258508
  95.8346649  34.4399284  56.4450944  96.6576470  34.0918045  56.9158486
  94.9898778  33.4863495  55.7316007  94.3862167  34.0095331  54.9900001
  95.8572428  32.4348093  55.0084532  95.5478712  32.4583531  53.9635445
  96.8855768  32.7868252  55.0903917  95.7662336  31.0070077  55.5326917
  96.7769063  30.6154529  55.6481318  95.2866919  31.0672593  56.5096813
  94.9610213  30.0776712  54.6272758  95.4362909  28.9512286  54.3644455
  93.8460374  30.4547569  54.1972173  94.0616538  32.8693724  56.7746416
  94.4231641  32.8029410  57.9433349  92.8361585  32.5196530  56.3789150
  92.4311044  32.9480075  55.5588277  92.0199542  31.5577214  57.1397928
  92.6512341  30.9824472  57.8170257  90.9091725  32.2547951  57.9692735
  90.4124253  31.5041388  58.5839748  91.4946082  33.3572954  58.8770356
  91.9911485  34.1086076  58.2629694  90.6908144  33.8261063  59.4446897
  92.2158895  32.9168707  59.5654250  89.9342937  32.8227569  57.0886988
  89.2488305  33.2530429  57.6050267  91.3905327  30.5312176  56.1745262
  91.4877137  30.6771496  54.9546865  90.8264831  29.4596822  56.7291637
  90.8168754  29.3670303  57.7348588  90.2513712  28.3655225  55.9192681
  90.8891508  28.1813179  55.0547422  90.1404107  27.0643132  56.7350170
  90.3019598  27.3170003  57.7829437  89.1327561  26.6684492  56.6084315
  91.1429677  26.0275905  56.3094557  92.3514289  26.3558985  56.3058061
  90.7235141  24.8939470  55.9744554  88.8776471  28.7366218  55.3760872
  88.5658145  28.4552051  54.2209166  88.0335997  29.2843738  56.2426873
  88.2763055  29.3235041  57.2223107  86.7566768  29.8387276  55.8267632
  86.7189444  29.9238415  54.7407471  85.5643727  28.9697581  56.2966876
  84.6919427  29.2280165  55.6964636  85.8638649  27.4700726  56.1457013
  86.7359537  27.2109513  56.7460485  85.0047562  26.8914852  56.4852128
  86.0636179  27.2425464  55.0985952  85.2583935  29.2570128  57.6694346
  84.5187236  28.7145550  57.9526807  86.6271663  31.2124703  56.4315575
  87.2461854  31.5072591  57.4443111  85.7980479  32.0480683  55.8326311
  85.2708804  31.7662158  55.0185347  85.6586439  33.4146373  56.3039575
  85.6412593  33.4913161  57.3911177  86.7991356  34.3096960  55.7633379
  87.7563607  33.8449952  55.9997118  86.6765079  34.4786802  54.2585180
  85.7196627  34.9437773  54.0213833  87.4869993  35.1110495  53.8961464
  86.7347537  33.5026244  53.7768291  86.8318488  35.6548835  56.4728606
  86.9904082  35.4996035  57.5400293  87.6442919  36.2593265  56.0695189
  85.8843171  36.1709778  56.3181637  84.3109024  33.9495133  55.8712307
  83.8179282  33.5962359  54.8004447  83.7202155  34.7907920  56.7209931
  84.2520453  35.1381139  57.5062472  82.3199712  35.2069120  56.5910311
  81.7683913  34.5557427  55.9129181  81.6572642  35.1559405  57.9612727
  82.1929844  35.8101523  58.6491033  80.6222148  35.4872078  57.8773978
  81.6816055  34.1339287  58.3394245  82.2651192  36.6241155  55.9974659
  83.3026317  37.2693583  55.8790823  81.0605076  37.1088194  55.6118729
  79.7519221  36.5997450  56.0478091  79.6443814  36.7481451  57.1222916
  79.6818947  35.5361979  55.8196365  78.7776119  37.4224527  55.2508420
  77.8418280  37.5149220  55.8020742  78.5882388  36.9372911  54.2933153
  79.4194061  38.7326092  55.0580148  79.2015827  39.3648855  55.9187579
  79.0994076  39.2376277  54.1466110  80.9300896  38.4386505  54.9932110
  81.3218093  38.3720164  53.9782165  81.6663309  39.5099259  55.7435194
  81.9304096  39.3717263  56.9375581  81.9034865  40.6221896  55.0706808
  81.6487777  40.6930882  54.0959008  82.5358839  41.7758857  55.7072998
  82.0637973  42.6896285  55.3463184  82.4097093  41.7046908  56.7876288
  84.0069470  41.8250633  55.3878537  84.4953421  42.7925703  54.8041736
  84.6953461  40.7331661  55.6700880  84.2384179  39.9266584  56.0711631
  86.1197021  40.7169536  55.5539657  86.5471730  41.5279658  56.1435647
  86.6849969  39.3896281  56.0656098  86.1470008  38.5836750  55.5665115
  87.7387124  39.3476729  55.7898861  86.5471493  39.2305845  57.5918483
  86.7187995  40.2292839  57.9933910  85.5311433  38.9142705  57.8280190
  87.5441575  38.2515716  58.2165845  87.0894257  37.3876431  59.0143681
  88.7746648  38.3756851  57.9564889  86.6000671  41.0544050  54.1268406
  85.8079622  41.2424367  53.1783260  87.9092637  41.2368893  54.0326932
  88.4757547  41.0176828  54.8396231  88.5702297  41.7290326  52.8441614
  87.8352119  41.9929525  52.0837704  89.3844834  42.9817368  53.1948579
  89.7100314  42.8522695  54.2270187  90.2568468  43.0839757  52.5493895
  88.5641913  44.2478091  53.1023503  87.8609355  44.4611363  52.1145042
  88.6987283  45.1303031  54.0971388  88.1709117  45.9912255  54.0791963
  89.3275919  44.9322001  54.8622445  89.4961967  40.6510998  52.3096702
  90.6773905  40.6140951  52.6466526  88.9847440  39.8501411  51.3915078
  88.0896845  40.0562962  50.9714270  89.6955431  38.6964261  50.9392043
  90.3393212  38.3128934  51.7307545  88.7178400  37.6294759  50.5589992
  88.1436111  38.1101373  49.7669606  89.2786240  36.7921771  50.1436055
  87.7754164  37.1235710  51.6287109  88.2018445  36.1991124  52.0181158
  87.5454405  38.1007309  52.7777255  87.1185647  39.0253241  52.3891342
  86.8580866  37.6588445  53.4991004  88.4951440  38.3170959  53.2669595
  86.4558944  36.7571688  50.9661704  86.6264779  35.9808384  50.2203072
  85.7599852  36.3892845  51.7201417  86.0344470  37.6384853  50.4826806
  90.5186443  39.0062132  49.7093522  90.0220130  39.5912705  48.7372559
  91.7475160  38.5213746  49.7067088  92.3056910  38.5032433  50.5482617
  92.3416459  38.0430130  48.4808369  91.8513058  38.5138848  47.6288125
  93.8409082  38.3774959  48.4311587  94.3031535  37.8163142  49.2432569
  94.2039135  37.9986297  47.4757595  94.2035456  39.8563788  48.5633422
  93.7789216  40.3834758  47.7089629  93.7523289  40.2315300  49.4819101
  95.7364413  40.0925435  48.6065743  96.1603462  39.4415701  49.3711900
  96.1500121  39.8267035  47.6337497  96.0839308  41.5528621  48.9282121
  95.5196723  42.1718034  48.2306273  95.7371849  41.7426702  49.9440070
  97.5300610  41.8857876  48.8280110  97.8514607  41.7103851  47.8867162
  97.6676372  42.8603704  49.0546410  98.0530470  41.3126725  49.4746359
  92.1162313  36.5161707  48.3845529  92.1415181  35.7860219  49.4031330
  91.8541066  36.0477394  47.1679277  91.9518271  36.6570750  46.3683902
  91.4925731  34.6544036  46.9351386  91.7558117  34.0156007  47.7781899
  89.9797038  34.4903149  46.6133136  89.7666280  34.9870930  45.6667881
  89.5996853  33.0092070  46.5094135  89.8120584  32.5118264  47.4557807
  88.5369318  32.9212114  46.2837754  90.1794103  32.5397108  45.7146862
  89.0735911  35.2271301  47.6348782  89.6401939  36.0938969  47.9751390
  88.1974787  35.5616663  47.0793495  88.6294209  34.4094510  48.8360604
  89.5050359  34.0749305  49.3923824  88.0018196  35.0233126  49.4821175
  88.0623224  33.5426980  48.4965923  92.2324127  34.1640754  45.7215338
  92.0222496  34.6829812  44.6164944  93.0705076  33.1474242  45.9060532
  93.3987823  32.8950320  46.8272661  93.6307740  32.4469844  44.7567027
  93.8413985  33.1752684  43.9735431  94.9323747  31.6948863  45.0924006
  95.4685231  32.2924184  45.8296927  94.6477069  30.7408865  45.5361896
  95.8474978  31.4421279  43.8692923  95.5576297  30.4810811  43.4444789
  95.6450718  32.2336314  43.1477329  97.3414782  31.4235474  44.1997882
  97.6005053  30.4229246  44.5458490  97.8941835  31.6461873  43.2870737
  97.7286134  32.3942071  45.2333834  97.9722126  33.3168044  44.9023652
  97.8055313  32.1460082  46.5452016  97.5144180  30.9396548  47.0327656
  97.2313671  30.1998992  46.4060729  97.5782815  30.7711219  48.0265552
  98.1513347  33.1228852  47.3821601  98.3532955  34.0445550  47.0218317
  98.2099870  32.9374287  48.3732527  92.6131171  31.5091166  44.1244690
  92.0326616  30.6512400  44.7862454  92.4490541  31.6823924  42.8158549
  93.0756265  32.3251519  42.3528575  91.4574533  30.9743772  42.0047640
  90.7601259  30.4329930  42.6440892  90.6655520  31.9939873  41.1655307
  91.4054388  32.7817907  41.0239938  90.4311814  31.5391985  40.2030664
  89.3914843  32.5930181  41.7708435  88.6562969  31.7978699  41.8946972
  89.6771832  33.2363686  43.1244378  90.4119923  34.0319775  43.0013088
  88.7557184  33.6532536  43.5308985  90.0682418  32.4841563  43.8095291
  88.7557045  33.5828258  40.7903342  88.5020525  33.0659965  39.8647817
  87.8513240  34.0018667  41.2314714  89.4605807  34.3861064  40.5758842
  92.1624107  30.0284287  41.0395005  93.2147510  30.3903299  40.5108150
  91.5829619  28.8449060  40.7744402  90.8150194  28.5183970  41.3434354
  92.0286682  27.9975693  39.6415295  92.8498189  28.4863792  39.1172438
  92.5059767  26.6506684  40.1384354  93.4534601  26.8112438  40.6528185
  91.7647061  26.2852066  40.8491080  92.6976756  25.6220142  39.0310045
  92.5975685  26.1330426  38.0734403  93.7038057  25.2123134  39.1201654
  91.6806614  24.4914864  39.1113975  90.6961141  24.9059473  38.8946309
  91.9373422  23.7508983  38.3539388  91.6615001  23.8273482  40.4861699
  92.2961761  24.4122006  41.1519286  90.6358236  23.8447528  40.8546587
  92.1522731  22.4135481  40.4437899  93.1028212  22.3972379  40.1027737
  92.1210153  22.0183550  41.3727385  91.5640457  21.8713405  39.8272687
  90.9234783  27.7360965  38.6751987  89.9525506  27.1110375  39.0513032
  91.1152603  28.0861935  37.4059498  92.0168155  28.4058729  37.0817546
  90.0139204  28.0157783  36.4399735  89.5124643  27.0545265  36.5523826
  89.3097986  28.8196254  36.6547801  90.4960614  28.1533943  35.0220490
  91.6897370  28.3288916  34.8000733  89.5897975  28.0038118  34.0518465
  88.6606780  27.6721172  34.2682143  89.9530983  28.1950288  32.6300577
  90.9544014  27.8182389  32.4214416  88.9157990  27.5353753  31.6161029
  87.9074123  27.7692827  31.9574885  89.1057278  28.0590831  30.1817423
  90.1138024  27.8251219  29.8394727  88.3793008  27.5846087  29.5219860
  88.9588134  29.1390256  30.1662637  88.9778489  25.9719985  31.6508545
  89.4479269  25.7130029  32.5995635  87.9421634  25.6322306  31.6544247
  89.7297812  25.2963515  30.5106440  90.7657353  25.6352961  30.5067177
  89.7022690  24.2152473  30.6468648  89.2599728  25.5545258  29.5615782
  90.1436653  29.7100157  32.3914431  90.8449173  30.1012885  31.4595202
  89.6245913  30.5477823  33.3013076  89.0884512  30.1837405  34.0759860
  89.7343370  32.0174078  33.1523327  90.3391241  32.2607467  32.2787664
  88.3388238  32.6310473  32.9693260  87.7110227  31.8687011  32.5080308
  87.9570945  32.8624437  33.9637296  88.3197080  33.8964438  32.1087261
  87.5083592  34.5471426  32.4349238  89.2756761  34.3804142  32.3087182
  88.1877721  33.6308522  30.6120474  87.0512938  33.3588642  30.1518010
  89.2050493  33.7523222  29.8894174  90.4765892  32.7099858  34.3198066
  89.9019142  32.8592820  35.4288947  91.7084530  33.2006284  34.0330920
  91.9563554  33.3241361  33.0618096  92.7705234  33.3975679  35.0659973
  92.3250086  33.5206479  36.0531482  93.6693108  32.1799328  35.0893866
  94.2178919  32.1506231  34.1479521  94.3713176  32.2978125  35.9148506
  92.8909050  30.8774698  35.2654784  92.4096326  30.7037211  34.3030393
  93.5946026  30.0706137  35.4701537  91.8143293  30.9196301  36.3813930
  92.1789026  30.9894133  37.5708520  90.5922677  30.8354405  36.0766562
  93.5993307  34.7224874  35.0068644  94.2780230  35.0943626  35.9387118
  93.4958272  35.4381244  33.9169783  93.6013879  34.9772909  33.0244600
  93.2746838  36.8742201  33.9288825  92.7449974  37.1618167  34.8370784
  94.6183144  37.6168148  33.8883982  94.4749372  38.5068939  34.5010166
  95.3307782  36.9515533  34.3761713  95.1635879  38.0280462  32.5031825
  94.5371361  38.7552182  31.9865785  96.0685182  38.5185570  32.8617901
  95.5548962  36.8654852  31.5041356  94.8012505  36.6478953  30.5050941
  96.7000280  36.3158025  31.5814414  92.4103245  36.8142209  32.6317981
  92.0657133  35.7106201  32.2347006  91.9428600  37.9477066  32.1708228
  92.3062952  38.8300054  32.5018256  90.8994098  37.9682256  31.1892018
  91.0065546  38.8680081  30.5833878  90.9357804  36.7605417  30.2735404
  91.8523422  36.8216188  29.6867840  90.9671868  35.8719977  30.9040983
  89.7335229  36.6752075  29.3327647  90.0728086  36.1258315  28.4546007
  88.9410635  36.1140688  29.8279724  89.2001889  38.0365449  28.9049221
  90.0074471  38.9741390  28.7766545  87.9724961  38.1714064  28.7279113
  89.5637735  37.9910437  32.0114185  88.4936535  37.7245822  31.4880845
  89.6567562  38.2912832  33.3112694  90.5913716  38.4266461  33.6694177
  88.5376834  38.4421377  34.2290892  87.6163670  38.2156963  33.6924333
  88.6658673  37.5096393  35.4403342  87.6878141  37.3671220  35.8999004
  89.2030156  36.1799452  34.9815680  90.1813233  36.3216016  34.5222771
  89.2972108  35.5108866  35.8368975  88.5199220  35.7433802  34.2529438
  89.5991025  38.0409428  36.5244955  90.5743099  38.2084871  36.0673300
  89.1934956  38.9909398  36.8724729  89.7465210  37.1046453  37.6872267
  90.1525409  36.1545207  37.3400799  90.4225627  37.5411476  38.4224358
  88.7717256  36.9369715  38.1452215  88.6531217  39.9017109  34.6234572
  89.7397134  40.3400447  34.9353850  87.5702346  40.6530661  34.6286240
  86.6570212  40.2651414  34.4397988  87.6670865  42.0692602  34.9312926
  88.7032966  42.3500734  35.1197384  87.1581514  42.8633979  33.7447016
  86.1420600  42.4878077  33.6239144  87.1243380  43.9028771  34.0709527
  87.8894192  42.7734696  32.4225498  88.8033400  43.3635852  32.4904711
  88.2387236  41.3401773  32.0834500  87.3252130  40.7495016  32.0148973
  88.7630428  41.3096622  31.1283275  88.8798009  40.9278093  32.8625989
  87.0137401  43.3855101  31.3488676  86.8134322  44.4286302  31.5935647
  87.5243533  43.3299664  30.3874675  86.0723709  42.8390047  31.2918156
  86.8627071  42.5155035  36.1089095  85.9288363  41.8581180  36.5063396
  87.2163772  43.6510249  36.6792352  88.6023554  44.2004111  36.7260156
  88.7333382  44.9181460  35.9162007  89.3172865  43.3860962  36.6082710
  88.6816112  44.8396548  38.0808005  89.3553287  45.6961136  38.0546816
  89.0387429  44.1194217  38.8168864  87.2552848  45.2648882  38.3858622
  86.9576522  46.2172509  37.9470923  87.1289570  45.3085484  39.4676360
  86.4007548  44.1346892  37.8053324  86.3710257  43.3119529  38.5196989
  84.9590920  44.5909890  37.4859130  84.6665572  45.2751832  36.4612767
  84.0793302  44.2365569  38.4221950  84.4160300  43.9036120  39.3143162
  82.6454991  44.3095809  38.2117907  82.1360051  44.3343906  39.1750661
  82.4044368  45.2123179  37.6504937  82.1763950  43.1248669  37.4469757
  81.2944491  43.2424073  36.5937689  82.9555881  42.0557967  37.5717637
  83.9563169  42.1356736  37.4610347  82.4020863  40.7582557  37.8571073
  81.3694267  40.7411209  37.5086538  83.1771156  39.5931857  37.1740365
  84.1902555  39.5035263  37.5659649  82.6287566  38.6721631  37.3718237
  83.3032659  39.7076957  35.6690330  82.5566160  40.6377414  34.9306091
  81.8203446  41.2539424  35.4466524  82.7463777  40.7814739  33.5466537
  82.1788622  41.5326589  32.9973379  83.6540034  39.9699754  32.8775620
  83.7846612  40.0569457  31.7989218  84.4028437  39.0362215  33.5991499
  85.1281362  38.4088664  33.0810028  84.2244614  38.9045497  34.9828797
  84.8061199  38.1700599  35.5399238  82.4524598  40.5765412  39.3630523
  83.0301842  41.4005027  40.1063436  81.9734760  39.3889921  39.7394719
  81.8828254  38.7140548  38.9935890  81.6472555  38.9641600  41.1054572
  82.2889707  39.4999828  41.8048817  80.1618769  39.2527646  41.4424319
  79.7823675  38.4388303  42.0601567  80.0085198  40.5631963  42.1849979
  80.3874158  41.3777191  41.5676722  78.9550707  40.7351181  42.4058796
  80.5725065  40.5215461  43.1168152  79.3364532  39.3249625  40.1561624
  79.6873624  40.1974042  39.6049737  79.5597462  38.4224296  39.5872387
  77.8428980  39.4302290  40.3680441  77.6187751  40.3328266  40.9365388
  77.3406518  39.4759928  39.4017348  77.4911593  38.5578525  40.9188062
  81.8420072  37.4325837  41.1074069  81.7766164  36.7979794  40.0662448
  82.1119645  36.8361617  42.2458514  82.4135209  37.3395999  43.0678691
  81.9761258  35.4053427  42.3332291  82.2829244  34.9443143  41.3943859
  82.8418427  34.8699866  43.4357082  82.6211756  35.4885123  44.3056686
  82.6016615  33.8305396  43.6592321  84.3095328  34.9854659  43.0952214
  84.5030253  35.9798162  42.6928174  85.1639804  34.7654859  44.3368583
  84.9713657  33.7710997  44.7395921  86.2180523  34.8522356  44.0732152
  84.9148342  35.5154811  45.0875472  84.6924449  34.0136824  41.9912914
  84.1089217  34.2310236  41.0966614  85.7538594  34.1183102  41.7664502
  84.4895767  32.9937374  42.3178731  80.5175272  35.1238749  42.6184427
  79.7958762  36.0148200  43.0678720  80.0464679  33.9222207  42.3078636
  80.5920799  33.2660127  41.7676802  78.6938729  33.5371049  42.7048328
  78.4309249  34.0760096  43.6150741  77.6405340  33.8538630  41.6225263
  77.7615339  33.1468568  40.8017947  76.6481912  33.7375961  42.0582300
  77.6705549  35.5253510  40.8632445  76.6411445  35.3249898  40.0452787
  78.6546749  32.0712803  43.0206777  79.1648126  31.2429972  42.2646059
  78.0478359  31.7661166  44.1605174  78.0068880  32.4708311  44.8828747
  77.4661902  30.4369773  44.4442885  78.2544448  29.7298442  44.7025844
  76.4819624  30.5379400  45.6358283  77.0565537  30.5102269  46.5616664
  75.9788862  31.5010606  45.5497296  75.4368038  29.4148033  45.6491596
  75.8071906  28.2742520  45.9908411  74.2416809  29.6749435  45.3371879
  76.7353131  29.8621036  43.2059817  75.8774325  30.5284726  42.6190249
  77.0447117  28.6091269  42.8385476  78.1306508  27.7825663  43.3996394
  77.9589444  27.6406329  44.4666315  79.0829280  28.2913423  43.2499262
  78.0398321  26.5086702  42.6307424  77.4421787  25.7945065  43.1972049
  79.0435735  26.1086416  42.4872797  77.4038250  26.8334466  41.3209698
  76.7887227  26.0164120  40.9438723  78.1830003  27.0659165  40.5950613
  76.5278438  28.0775868  41.5688836  76.7412370  28.8316098  40.8112486
  75.0071716  27.7379545  41.5487830  74.4053339  27.6539735  40.4694422
  74.3819266  27.6121039  42.7159909  74.8873913  27.7172857  43.5840586
  72.9689633  27.2170470  42.7766361  72.7613876  26.4738854  42.0067514
  72.6368153  26.6143178  44.1382070  72.5330800  27.3784086  44.9085987
  71.6870878  26.0943492  44.0127063  73.6748091  25.6192447  44.5842388
  74.6093237  25.3080281  43.8383355  73.5673983  25.1691037  45.8291219
  74.2372509  24.4997740  46.1803984  72.8163572  25.4981851  46.4188197
  72.0429272  28.3868766  42.4444797  71.5799343  28.5017728  41.3099395
  71.7825794  29.2593154  43.4178468  71.8754768  28.9948638  44.3881740
  71.2932788  30.5939679  43.1107808  70.7098156  30.5598614  42.1907229
  70.4049416  31.1422975  44.2344394  70.5788071  30.5497045  45.1326062
  70.6735395  32.1809130  44.4273977  68.9161866  31.0786922  43.8873244
  68.2891421  29.9973850  43.8624465  68.3435303  32.2385588  43.6088011
  67.3623936  32.2696853  43.3711000  68.8901955  33.0874178  43.6351893
  72.4926511  31.4822994  42.8623269  73.2234165  31.8222798  43.7892639
  72.8059129  31.6581062  41.5812207  72.3214058  31.1120746  40.8832223
  73.8811632  32.5475594  41.1425184  74.5419338  32.7631870  41.9821529
  74.7134472  31.8950559  40.0133069  75.4335375  32.6833438  39.7938271
  75.2275292  31.0525925  40.4759894  74.0464969  31.4336628  38.7089052
  73.3262087  30.6537989  38.9560856  73.3356858  32.5702435  37.9871506
  74.0554648  33.3503367  37.7392161  72.8809618  32.1918816  37.0716348
  72.5610164  32.9833818  38.6331417  75.0843582  30.8008894  37.7938845
  75.5329759  29.9414439  38.2920763  74.6052790  30.4756553  36.8704089
  75.8594224  31.5315924  37.5626972  73.2881924  33.8967077  40.7074041
  72.1038891  34.1469779  40.9145745  74.1129973  34.7626919  40.1224953
  75.0103340  34.4471265  39.7829296  73.7920393  36.1796554  40.0121211
  73.1065365  36.4732190  40.8071089  75.0687491  37.0080704  40.1380173
  75.7232326  36.8597003  39.2791012  74.8432904  38.0692854  40.2433316
  76.0443548  36.5538212  41.5981779  77.0222966  37.4309355  41.3903356
  73.0763116  36.4760484  38.7045838  73.3304523  35.8217300  37.6870014
  72.0921409  37.3761060  38.7752541  71.8537370  37.7853471  39.6673217
  71.3623858  37.8265976  37.5869764  71.1186986  36.9604997  36.9716795
  70.0508308  38.5590389  37.9503196  70.2320379  39.4953666  38.4781015
  69.5262746  38.7642097  37.0171284  69.1139628  37.7623950  38.8015868
  68.7065349  36.4878445  38.4640229  68.9978673  35.9917010  37.6339224
  67.8849451  36.0321218  39.3929406  67.4621117  35.0303203  39.3174118
  67.7293936  36.9731132  40.3100202  68.4588099  38.0774414  39.9472693
  68.4255446  38.9780499  40.5603752  72.2830772  38.7893033  36.9074119
  73.1736722  39.3366892  37.5558987  72.0636000  39.0164974  35.6152321
  71.3599629  38.4896807  35.1177802  72.8865507  39.9582414  34.8600940
  72.9567670  40.9059131  35.3940296  74.2915264  39.3936935  34.6828431
  75.0151874  40.2022578  34.7859825  74.4731176  38.6438543  35.4528209
  74.4244718  38.8107437  33.4285600  75.3128208  38.4600874  33.3312143
  72.2475191  40.3113207  33.5056806  71.0145217  40.3002721  33.3813206
  73.0715329  40.6325976  32.5106457  74.0595178  40.4399273  32.5934915
  72.5880488  41.2654400  31.2810427  73.1745307  40.9494041  30.4183379
  71.5362820  41.0376086  31.1078987  72.7436314  42.7479668  31.4610382
  73.3680431  43.1482292  32.4136650  72.1361341  43.5584195  30.5856614
  71.4004025  43.1777994  30.0077975  72.6275701  44.9387774  30.2894459
  73.2009233  45.3102749  31.1387721  73.5419007  44.9519433  29.0272659
  74.1666237  45.8360498  29.1544515  74.1554379  44.0566402  29.1277866
  72.8929398  44.9770694  27.6227420  72.2012199  45.8181981  27.5766244
  73.6797850  45.1133090  26.8808421  72.1323481  43.6709151  27.3297038
  72.4177529  43.3122813  26.3407523  72.4078338  42.9282058  28.0784292
  70.6560786  43.8557654  27.3621344  70.3057615  44.6347903  26.8231563
  69.7702410  43.0789690  28.0230468  70.1570643  42.0267326  28.7467968
  71.1379012  41.7942030  28.8099562  69.4672387  41.4676541  29.2281194
  68.4704760  43.3700861  27.9719399  68.1555308  44.1688262  27.4400341
  67.8065238  42.7905980  28.4653564  71.5827825  46.0766130  30.2136163
  71.9430998  47.2355781  30.0629071  70.2953081  45.7308940  30.2699799
  70.0297963  44.7621129  30.1647847  69.2397316  46.7182673  30.5114636
  69.6981903  47.7002925  30.3950962  67.9883154  46.6303061  29.5570306
  67.3465628  45.8098506  29.8781328  67.2085283  47.9330046  29.6093258
  67.8495324  48.7539157  29.2878943  66.3446995  47.8667826  28.9478778
  66.8710574  48.1143388  30.6297825  68.3571861  46.4079380  28.1809067
  67.5649388  46.3618438  27.6407032  68.7589244  46.4670440  31.8939397
  68.7932764  45.3310282  32.3545415  68.2683309  47.5289670  32.5402141
  68.4868137  48.4439564  32.1725744  67.5223248  47.4438915  33.8385865
  66.7145356  46.7194350  33.7349600  68.4416812  47.0008984  35.0223791
  67.9101979  46.7538963  35.9414084  68.9769812  46.1211423  34.6651911
  69.4782196  48.0131218  35.3869513  70.6456051  48.0915259  34.6676168
  70.8235556  47.3849253  33.8569694  71.5765410  49.0412569  34.9595128
  72.5094196  49.0715091  34.3965536  71.3459218  49.9577252  35.9564514
  72.0873562  50.7216524  36.1905241  70.1824304  49.9058856  36.6522664
  69.9940746  50.6276141  37.4470810  69.2402507  48.9447262  36.3569105
  68.2949987  48.9233197  36.8992575  66.7636546  48.7548951  34.2121840
  67.0940216  49.8619455  33.7513606  65.7713442  48.5749842  35.0912279
  65.6319093  47.6383132  35.4423755  64.9146570  49.6340799  35.5954623
  64.9159257  50.4866227  34.9162950  63.4882627  49.0994651  35.7049360
  63.6036838  48.2272090  36.3483227  62.8155720  49.8138756  36.1794935
  62.9021903  48.6646194  34.3540691  63.1112355  49.3956658  33.3505128
  62.1373427  47.6500676  34.3247143  65.3767418  50.0465595  36.9788998
  65.7400370  49.1965596  37.8062104  65.3025759  51.3255878  37.2843027
  65.0495997  52.0511478  36.6288142  65.6699170  51.7071852  38.6030570
  65.1688137  51.0363262  39.3008699  67.1550045  51.5787535  38.7958044
  67.6704076  52.2513144  38.1101504  67.4126041  51.8397786  39.8222588
  67.4605145  50.5518975  38.5949820  65.2352172  53.0699432  38.9136170
  64.9314117  53.8673377  38.0176068  65.2890377  53.3379703  40.2083995
  65.8532299  52.7257223  40.7801851  64.6520507  54.4654935  40.8382861
  63.9264173  54.9157802  40.1609404  63.9211010  54.0027039  42.1006396
  63.5215053  53.0166208  41.8638641  64.6900879  53.9080394  42.8673193
  62.8081363  54.8873996  42.6108348  63.2563460  55.7164076  43.1585160
  62.2339954  55.2763438  41.7698909  61.8475044  54.1317938  43.5575386
  62.1941504  53.0970389  44.1422521  60.6213608  54.6497443  43.6905092
  59.9493648  54.1999189  44.2956372  60.3731702  55.4882780  43.1851736
  65.7800119  55.3650900  41.2205513  66.6078825  55.0104073  42.0541516
  65.7651402  56.5675718  40.6814396  64.8843546  56.9845601  40.4160402
  66.9723790  57.2873129  40.3940444  67.8467921  56.9219258  40.9325545
  67.2249659  57.1882271  38.8787639  66.3861308  56.6503789  38.4369773
  67.3659783  58.5663893  38.2007835  68.2049586  59.1046801  38.6417548
  67.5425404  58.4306178  37.1337818  66.4502335  59.1392174  38.3469977
  68.4607974  56.3149565  38.6255029  69.3069572  56.8326447  39.0772920
  68.2904299  55.3735973  39.1479177  68.7642464  56.0320296  37.1481238
  68.9351967  56.9729552  36.6251182  69.6547231  55.4079719  37.0726104
  67.9186678  55.5139094  36.6957432  66.8606083  58.7510891  40.8779077
  66.3913535  59.6139746  40.1465894  67.3256741  59.0581369  42.0811057
  67.8003028  58.3888961  42.6701251  67.1162617  60.4122615  42.5979180
  66.7044203  61.3445240  42.2114305  67.1139346  60.4732435  44.1232038
  66.2272005  61.0482928  44.3898874  67.1044696  59.1647715  44.8651967
  67.9911995  58.5893216  44.5993615  67.1037484  59.3550961  45.9384518
  66.2115913  58.6004031  44.5962017  67.4670285  61.7777994  44.8003800
  66.7614534  62.5497876  44.4932969  67.4182991  61.6511976  45.8819054
  68.4762991  62.0744208  44.5149163  68.1774494  61.3823683  42.1046973
  69.3102642  61.3485848  42.5229391  67.7355894  62.3211907  41.3005841
  66.7589000  62.3009386  41.0441331  68.5494084  63.3836002  40.7910238
  69.4778710  63.0203975  40.3504103  67.7569428  64.1533149  39.7420264
  66.7770957  64.3973943  40.1524229  68.4574337  65.4028050  39.3596965
  69.4372435  65.1594906  38.9487567  67.8711261  65.9337535  38.6097379
  68.5796651  66.0350997  40.2391066  67.5247687  63.2538586  38.5404813
  66.5502365  62.7870724  38.6836544  67.4908436  63.9036845  37.6660244
  68.5741073  62.1786888  38.3306497  68.6082941  61.5281463  39.2045637
  68.3202006  61.5895023  37.4494632  69.5489021  62.6447588  38.1869358
  68.9186353  64.3387710  41.8929373  68.0410900  65.0079764  42.4784894
  70.2040945  64.3764768  42.2145563  70.8559443  63.7529858  41.7601886
  70.7005556  65.2433789  43.2644978  69.8324180  65.5641163  43.8403136
  71.6688297  64.5042190  44.1765143  71.8053262  65.0796914  45.0921018
  71.1298607  63.1419206  44.5166783  70.9935284  62.5656547  43.6015654
  71.8331561  62.6250003  45.1695717  70.1717355  63.2464055  45.0257737
  72.9846408  64.2738637  43.4978673  72.8234669  63.6503468  42.6184639
  73.3959695  65.2353313  43.1904780  73.9474299  63.5916441  44.4246049
  73.5369682  62.6298324  44.7320774  74.8962818  63.4339679  43.9118499
  74.1094690  64.2148165  45.3040930  71.3731701  66.5046125  42.7908992
  71.2512113  67.5454543  43.4132137  72.1154271  66.4014698  41.7067529
  72.2074526  65.5353233  41.1954596  72.7968708  67.5643176  41.2060199
  72.4361077  68.4715954  41.6905775  74.2649896  67.4033399  41.5157495
  74.3190505  66.9717516  42.5152034  74.6518510  66.6878242  40.7901632
  75.0922636  68.6658177  41.4675563  75.2692100  68.9198742  40.4224506
  74.5332380  69.4695700  41.9466930  76.4204371  68.4833747  42.1746517
  77.2728531  69.3796336  42.0789444  76.6244390  67.4405388  42.8273457
  72.6771335  67.7386513  39.7429257  73.0798600  66.8754009  39.0045774
  72.1198446  68.8478506  39.3127361  71.5974337  69.4560239  39.9269929
  72.0914707  69.1174535  37.9013672  73.1097940  69.0814750  37.5142981
  71.2659808  68.1333166  37.1570219  71.6615986  67.1291340  37.3093478
  70.2224367  68.1635479  37.4703937  71.2768255  68.3754072  35.6989627
  70.8835194  69.5762351  35.1540438  70.5625384  70.3744948  35.6830547
  70.9948614  69.5099915  33.8418895  70.7189427  70.3603319  33.2182798
  71.4610808  68.3163227  33.5224223  71.6489441  67.5899582  34.6681147
  72.0358095  66.5725182  34.6110873  71.7191524  70.5265068  37.5655145
  70.8100908  71.0788582  38.1290470  72.4341447  71.1026127  36.6316146
  73.2299786  70.6167770  36.2433989  72.1978105  72.4652136  36.2211662
  72.1184563  73.0060800  37.1641751  73.3983764  72.9970806  35.4557513
  74.3032583  72.8385281  36.0423936  73.4856777  72.4713945  34.5048925
  73.2158351  74.4887761  35.1966227  72.3113357  74.6480900  34.6095957
  73.1289186  75.0152251  36.1470958  74.4204269  75.0224276  34.4286385
  75.3253096  74.8638740  35.0152790  74.5077262  74.4967421  33.4777794
  74.2378857  76.5141240  34.1695122  73.3333860  76.6734389  33.5824861
  74.1509724  77.0405710  35.1199852  75.3990322  77.0285279  33.4292242
  75.4794939  76.5411392  32.5482714  75.2781374  78.0164712  33.2576068
  76.2372150  76.8813867  33.9731895  70.9447139  72.7247129  35.4372543
  70.3846688  73.7990578  35.4915733  70.5339032  71.7565763  34.6520420
  70.9988578  70.8606736  34.6163382  69.3998461  71.9769540  33.7784299
  68.8558849  72.8672551  34.0939760  69.8690628  72.1764643  32.3445979
  69.0060477  72.4534234  31.7391246  70.5956066  72.9889407  32.3338164
  70.4678004  70.9953985  31.8077713  70.7495632  71.1613773  30.9051858
  68.4950543  70.7564069  33.9091083  68.0299244  70.4913962  35.0260508
  68.3902112  69.9261669  32.8527422  69.1387600  69.8941282  32.1754331
  67.2549798  68.9915692  32.6883349  66.7945197  68.7464550  33.6454110
  66.1614953  69.5312438  31.7065549  66.1085396  68.8599322  30.8494453
  64.7826427  69.6123505  32.3789858  64.8346965  70.2838918  33.2359709
  64.0513682  69.9912707  31.6650126  64.4821296  68.6195198  32.7137665
  66.5469934  70.8709133  31.1077644  66.1133693  71.6538956  31.7298653
  67.6339391  70.9489086  31.1315377  66.0591843  71.0322260  29.6779961
  64.9722136  70.9548058  29.6534842  66.3620826  72.0079500  29.2981085
  66.4927821  70.2498169  29.0551568  67.5923865  67.6631598  32.0590851
  67.0696962  67.3869553  30.9545689  68.0946840  66.7300160  32.8642272
  68.3446217  66.9348989  33.8211250  68.3529580  65.3419298  32.3404036
  68.9748452  65.4008317  31.4471589  68.9948716  64.3705836  33.3495406
  69.7262724  63.7615021  32.8183412  69.6731057  65.0973781  34.4779258
  68.9421959  65.7063565  35.0099190  70.1116495  64.3739159  35.1652267
  70.4577675  65.7394074  34.0776717  67.9529315  63.4071336  33.8796154
  67.0608246  63.9690153  34.1562650  67.7026905  62.6916764  33.0962893
  68.4663209  62.6819724  35.0643641  68.7163578  63.3967882  35.8483411
  67.7027949  61.9951722  35.4296487  69.3582255  62.1194508  34.7883655
  67.1125838  64.5765757  31.8022818  66.0797927  64.5369080  32.4453020
  67.3198589  63.7913244  30.7428761  68.2502607  63.4426763  30.5615029
  66.2930247  63.5726538  29.7360316  65.4196754  63.0668122  30.1477165
  65.8691240  64.9681377  29.2510544  64.9620084  65.2622847  29.7789919
  66.6666639  65.6755590  29.4781785  65.5195675  65.1603809  27.5342904
  65.2171912  66.4539842  27.5979884  66.7371755  62.5364722  28.6151695
  67.8694811  62.5554500  28.1578635  65.8434316  61.5777024  28.2576988
  64.5162668  61.9742789  27.7149045  64.6354058  62.8829102  27.1247389
  63.8399764  62.1684293  28.5473923  64.0771188  60.7905499  26.8780988
  64.3917164  60.9198679  25.8425293  62.9934892  60.6794569  26.9169144
  64.7581073  59.6174102  27.5143370  64.8903065  58.8713596  26.7307358
  64.2451155  59.1651241  28.3630869  66.1290445  60.1594604  27.9573661
  66.5714781  59.6971798  28.8397761  67.0534401  60.0368319  26.8271997
  66.8719174  60.7038919  25.8229774  68.0009562  59.1499654  26.9338157
  67.9513345  58.3782189  27.5834651  69.1787939  59.2660215  26.0905374
  69.6414941  58.2807357  26.0337955  68.8445924  59.5676188  25.0978402
  70.2179594  60.2779233  26.5970637  71.1387446  60.6706229  25.8574404
  70.0608660  60.6823921  27.8629846  69.1397703  60.6292634  28.2739096
  71.1585027  61.2096612  28.6817068  71.6008395  62.0678173  28.1757369
  70.6687731  61.6593453  30.0855904  69.8363065  62.3550445  29.9802286
  70.3042957  60.7165446  30.4934914  71.7059810  62.2499551  31.0252891
  72.2889402  63.4940272  30.7237178  72.0031371  63.9930104  29.7977416
  73.2150635  64.0905618  31.5808387  73.6555768  65.0553522  31.3293842
  73.5380470  63.4637347  32.8066488  74.5011886  64.1028214  33.5948280
  74.8349739  64.9106163  33.1977706  72.9380097  62.2216563  33.1556897
  73.1838836  61.7284055  34.0960886  72.0208696  61.6324347  32.2738337
  71.5383533  60.6913933  32.5378776  72.1820949  60.1278176  28.8333826
  71.8887547  58.9953463  29.3064039  73.4009757  60.5198004  28.4950765
  73.5455679  61.3745425  27.9768021  74.5106959  59.6900113  28.7354909
  74.1920972  58.6624170  28.9105451  75.3953395  59.7164045  27.5385238
  74.8866007  60.5421090  27.0410340  76.4603649  59.9369729  27.6104293
  75.2188457  58.4876845  26.7204955  74.4595574  58.5129743  25.7572117
  75.6370637  57.3449282  27.2825343  75.5451915  56.4745896  26.7783815
  76.0421593  57.3594063  28.2076228  75.2588562  60.0138479  30.0049053
  75.4060546  61.1926220  30.3585154  75.6698616  58.9622075  30.7258492
  75.3876280  58.0316558  30.4528711  76.4747807  59.1173452  31.9521345
  77.2407550  59.8688153  31.7606264  75.6068895  59.5907598  33.1163357
  74.8406812  58.8443877  33.3259870  76.2288395  59.7304934  34.0005036
  75.1308814  60.5357378  32.8545494  77.1778879  57.8309686  32.3222973
  76.9015345  56.7970682  31.7627537  78.0792676  57.9184982  33.2881876
  78.2295208  58.8124542  33.7335707  78.7897145  56.7488297  33.8183826
  78.9471323  55.9793192  33.0626232  80.1687216  57.0967654  34.4728910
  79.9921274  57.5874599  35.4300391  80.9946962  55.8276786  34.6953355
  81.1721030  55.3366447  33.7385108  81.9494717  56.0901633  35.1509734
  80.4516132  55.1510877  35.3551744  80.9751870  58.1509005  33.6818854
  80.4012119  59.0753260  33.6179148  81.9191046  58.3444388  34.1914559
  81.1749844  57.7776507  32.6774620  77.9787411  56.1961932  34.9511262
  77.3009568  56.9381296  35.6357428  78.1807466  54.9296247  35.2443683
  78.9428976  54.4181155  34.8229617  77.3263331  54.2418542  36.1504518
  76.7518525  54.9568068  36.7394459  76.3450890  53.3461919  35.3691483
  75.4682710  53.9779353  35.2270577  76.8096565  53.1477458  34.4032828
  75.9194661  52.0166736  36.0159590  76.7714930  51.3371923  36.0373165
  75.4354617  52.2644129  37.4312689  74.5830946  52.9434898  37.4106869
  75.1355253  51.3192917  37.8839109  76.2393093  52.7088171  38.0181542
  74.8314687  51.3653843  35.1969395  75.2011064  51.1705793  34.1902030
  74.5379121  50.4252387  35.6638997  73.9686550  52.0293871  35.1444807
  78.1558039  53.4162448  37.0574514  78.6655682  52.3940725  36.6664383
  78.2620619  53.8040500  38.3003634  77.8136956  54.6352713  38.6583273
  79.0986931  53.0256306  39.2056819  79.8054194  52.4258774  38.6321550
  79.8794457  53.9447178  40.1290611  79.1886128  54.5731556  40.6911243
  80.4899525  53.3663466  40.8225077  80.7999671  54.8596925  39.4157962
  82.1298139  54.9680838  39.7490044  82.5854063  54.4687418  40.4994662
  82.7044636  55.8287864  38.9276775  83.7628244  56.0671550  39.0332797
  81.7965831  56.2654953  38.0666710  80.5865622  55.7046548  38.3752521
  79.6980067  55.9784927  37.8064085  78.2906819  52.0845922  40.0163026
  77.7420267  52.4868347  41.0223997  78.3341158  50.8200674  39.6807801
  78.8814345  50.4873431  38.8998600  77.6739719  49.8587830  40.5023270
  77.0611536  50.3462913  41.2605411  76.8103733  48.9634264  39.6608283
  77.4431002  48.3643458  39.0059546  76.0001319  48.0522778  40.5473147
  75.3667672  48.6506695  41.2022019  75.3759394  47.4054839  39.9307582
  76.6710065  47.4409339  41.1508751  75.9283422  49.8304866  38.7929217
  75.5295530  50.6295998  39.4178104  76.5522932  50.2599121  38.0090987
  74.7961643  49.0716567  38.1700885  74.1714653  48.6422975  38.9533520
  74.1981243  49.7473168  37.5585897  75.1942059  48.2726078  37.5446417
  78.7550428  49.0001930  41.0780960  79.5115548  48.3993232  40.3456861
  78.8564131  48.9689784  42.3908620  78.3557381  49.6589809  42.9324527
  79.8439943  48.1471641  43.0671805  80.0708623  48.6137261  44.0257993
  79.3918734  46.7106322  43.3185764  80.2499490  46.1924054  43.7466493
  78.5495672  46.6482042  44.0075779  79.0009727  45.9513692  42.0975185
  79.4948695  44.6986574  41.8261957  80.1617662  44.2079763  42.4046250
  78.9637284  44.2509507  40.7057873  79.2413790  43.2742146  40.3095603
  78.1270157  45.1620907  40.2516841  78.1165556  46.2255485  41.1158820
  77.4624469  47.0763596  40.9251898  81.2108180  48.2590541  42.4336543
  81.6582816  49.3493234  42.1373416  81.8584448  47.1320431  42.1906405
  81.4624472  46.2289345  42.4089983  83.1597880  47.1762990  41.5800038
  83.8252600  47.8138578  42.1620390  83.7971538  45.7993692  41.4481355
  84.8357168  45.9219821  41.1408032  83.7460310  45.0604605  42.7454105
  82.7076912  44.9370480  43.0531754  84.2075015  44.0804148  42.6243548
  84.2855437  45.6239949  43.5066304  83.1241100  45.0560104  40.4318782
  83.5270235  44.1885046  40.3500565  83.0510019  47.7414534  40.1973787
  83.8737249  48.5196659  39.7886340  82.0239828  47.3608802  39.4710008
  81.3428834  46.7093714  39.8339600  81.8935414  47.7952968  38.0963561
  82.8111830  47.5787877  37.5494037  80.7537064  47.0732800  37.4285432
  80.9827243  46.0162606  37.2930442  79.8330720  47.1742700  38.0032896
  80.3932919  47.7165483  35.7963459  79.3913554  46.8815522  35.5359558
  81.7207877  49.2658352  37.8690279  81.2562705  49.9706827  38.7201124
  82.1134260  49.6990214  36.6784105  82.5658499  49.0547751  36.0456715
  82.0092163  51.0683721  36.2897232  81.1174391  51.4771330  36.7648516
  83.2767304  51.8748558  36.7696920  84.0700527  51.1716022  37.0230190
  83.7543548  52.7988364  35.6826756  82.9616767  53.5027324  35.4291158
  84.6295402  53.3477837  36.0302502  84.0183782  52.2163720  34.7999944
  82.9679658  52.7802358  38.0017186  83.4360347  53.7404835  37.7850697
  81.8845678  52.8993498  38.0143727  83.4426436  52.2778698  39.3705996
  84.5260732  52.1589488  39.3588613  83.1651346  52.9992513  40.1391676
  82.9746077  51.3178134  39.5881633  81.7937739  51.1678129  34.7852940
  82.7555662  51.2782852  34.0226457  80.5558601  51.0162570  34.3392579
  79.7880471  50.8047317  34.9604017  80.2995223  51.0374627  32.9105311
  81.2440752  51.1890095  32.3880824  79.6658275  49.7431272  32.4071183
  80.2072344  48.9115694  32.8582164  78.6297907  49.7277171  32.7454824
  79.7064881  49.6105008  30.8780091  78.7117450  49.9354307  30.5730376
  80.4531022  50.2836791  30.4567047  79.9618356  48.1602584  30.3588820
  81.0320934  47.5469848  30.6979360  79.1336674  47.6683302  29.5385076
  79.4780625  52.1999931  32.4851892  78.6769346  52.6915526  33.2129429
  79.7480044  52.6796499  31.2912417  80.4560645  52.2440263  30.7176719
  79.0619015  53.8223045  30.7708762  79.0697017  54.6295428  31.5032728
  79.7523778  54.3086671  29.5029358  80.7515912  54.6388800  29.7868919
  79.8300254  53.4542271  28.8306239  79.0305821  55.4346401  28.8036493
  78.2293620  55.7714832  29.4614365  79.7293516  56.2538277  28.6340853
  78.4438794  54.9904696  27.4810074  79.2525843  54.6801257  26.5705284
  77.1884553  54.9671778  27.3439531  77.6690238  53.3630847  30.4888588
  77.4479397  52.1690035  30.3241841  76.7177095  54.2911115  30.5560399
  76.9893434  55.2540932  30.6938105  75.2749491  53.9664771  30.5291704
  75.0517773  53.1513135  29.8408377  74.7476368  53.5795858  31.9496133
  75.3619590  52.7640548  32.3312108  74.8049371  54.7499717  32.9144239
  74.1904394  55.5657820  32.5337047  74.4294780  54.4370794  33.8887079
  75.8361022  55.0887166  33.0146835  73.3459390  53.0401321  31.8713966
  73.3323780  52.1527306  31.2385957  73.0006528  52.7779213  32.8714579
  72.6874519  53.7982162  31.4473636  74.4344190  55.1228427  29.9381773
  74.8963392  56.2856211  29.8192693  73.2255437  54.7639202  29.5208618
  72.9608232  53.7932820  29.6096530  72.2496456  55.7000172  28.9698589
  72.5664779  56.7296476  29.1359243  72.1388294  55.4602245  27.4664443
  73.1002943  55.7528444  27.0444749  72.0004963  54.3860461  27.3435427
  71.0311175  56.1949938  26.7509624  70.0872277  55.9698089  27.2474144
  71.2325385  57.2638534  26.8221528  70.9410794  55.7878392  25.2695309
  71.9746820  55.3391096  24.6968839  69.8275687  55.9117167  24.6750721
  70.9180223  55.4133554  29.6286983  70.5966131  54.2618075  29.9177843
  70.1598214  56.4418452  29.9448962  70.4814358  57.3982710  29.9011577
  68.8399939  56.1888537  30.4588075  68.7604533  55.1413619  30.7495539
  68.4832783  57.0706590  31.6421521  67.6499272  56.6173668  32.1789506
  69.6676820  57.2224771  32.5814646  70.5013337  57.6761616  32.0454645
  69.3870330  57.8584172  33.4210580  69.9656429  56.2419302  32.9527409
  68.0217394  58.4357482  31.1798801  68.7627289  58.8158013  30.4766057
  67.0679593  58.3076220  30.6680338  67.8540002  59.4266717  32.3254072
  68.8075429  59.5556761  32.8374755  67.5215346  60.3866236  31.9303651
  67.1127744  59.0474953  33.0289052  67.9199595  56.3728036  29.2886212
  67.8553799  57.4328390  28.6757588  67.3245934  55.2578555  28.9123621
  67.1180859  54.5589385  29.6116253  66.9307557  54.9980712  27.5475914
  67.6333916  55.4814780  26.8688280  66.9111443  53.4913040  27.2430839
  66.3685001  53.3148774  26.3143691  68.3095727  52.9942433  27.1032177
  68.8527462  53.1699159  28.0317656  68.2961154  51.9259272  26.8873039
  68.8038323  53.5229249  26.2881693  66.2622241  52.7724686  28.2987450
  66.2589393  51.8348861  28.0925205  65.5558351  55.5034346  27.2735066
  65.3329208  56.0881194  26.2094005  64.5897346  55.0986133  28.1157485
  64.3916447  54.1152924  28.2338150  63.6798868  56.0705137  28.7327701
  64.1710235  57.0187174  28.5141526  62.2656256  56.0892100  28.1032244
  61.7577919  55.1497370  28.3213881  61.6924084  56.9169711  28.5207574
  62.3495355  56.2141030  27.0236596  63.6163435  55.9457559  30.2459188
  64.1144848  54.9799194  30.8710972  63.2495787  57.0935563  30.7983342
  63.5094802  57.9400376  30.3125151  62.5919829  57.2131505  32.0767324
  62.8852253  56.3921010  32.7309387  62.9967932  58.5364604  32.7392219
  62.2632909  58.6818029  33.5322850  63.9819756  58.3834584  33.1797967
  63.0272686  59.7763691  31.8383592  63.8851949  59.6682998  31.1747447
  61.7594619  59.9793226  31.0040468  60.9011154  60.0879408  31.6670266
  61.8641013  60.8777728  30.3958209  61.6093890  59.1169324  30.3545380
  63.2368650  60.9763429  32.7007031  64.1817445  60.8795700  33.2354341
  63.2618242  61.8713066  32.0789971  62.4203183  61.0557713  33.4183671
  61.0435483  57.0805562  31.9372730  60.4561033  57.3334704  30.8443471
  60.4346444  56.7336734  33.0875175  60.8127485  57.1452888  33.9287722
  59.2075828  55.8874552  33.2021626  58.8608435  55.5769763  32.2165289
  59.3880980  54.6233990  34.1150642  59.6194713  54.9294908  35.1352968
  58.0918583  53.8373899  34.1053460  57.8600483  53.5305344  33.0854418
  58.1973497  52.9538828  34.7349390  57.2848337  54.4617956  34.4886579
  60.5777553  53.7596405  33.7078829  61.1804200  54.3578007  33.0244354
  61.1474084  53.5620883  34.6159401  60.2128203  52.4389026  33.0399766
  59.6435098  52.6356728  32.1315346  61.1231300  51.8953214  32.7870833
  59.6104959  51.8399611  33.7230390  58.0960370  56.6640274  33.9079526
  57.1395431  57.1060979  33.2973397  58.2411599  56.7753925  35.2139554
  59.0950352  56.4580228  35.6501579  57.2685928  57.3653778  36.0179452
  56.5686878  57.9314157  35.4032638  56.5101743  56.3124774  36.7585625
  56.5168862  55.3577468  36.2326882  56.8889303  56.1717510  37.7709063
  54.7905428  56.7710354  36.9318228  54.4222807  55.6804197  37.5980350
  57.9663312  58.2067580  36.9952156  58.6689964  57.7083637  37.8464955
  57.6766717  59.4840369  36.9534752  57.2000188  59.8640684  36.1481943
  58.0403532  60.3893002  38.0287147  59.1164711  60.5606053  38.0556262
  57.3487319  61.7052874  37.7641800  57.1831267  61.6805754  36.6871176
  56.3950075  61.8380512  38.2749476  58.2630548  62.8503615  38.1044400
  58.7887983  62.6039874  39.0269336  59.2942627  63.1246279  36.9798110
  58.7692393  63.3715425  36.0570530  59.9335543  63.9591256  37.2679440
  59.9060617  62.2363238  36.8225909  57.3767446  64.0407043  38.4881852
  56.7611809  63.7739644  39.3472722  58.0045293  64.8946103  38.7428066
  56.7333896  64.3011702  37.6477384  57.6261995  59.8411758  39.4186115
  56.8484157  58.9370763  39.4598253  58.1913311  60.3320793  40.5335716
  59.1077877  60.7543470  40.4900215  57.5719334  60.1317576  41.8664927
  56.4942973  60.2797792  41.9364170  57.9281856  58.7680046  42.5150574
  57.0090000  58.1898535  42.6096001  58.9351402  57.9847374  41.6987149
  59.8548214  58.5620933  41.6041234  59.1500251  57.0389749  42.1961667
  58.5262934  57.7886385  40.7075080  58.2792502  58.8747905  44.0129143
  57.4282916  59.2834895  44.5578333  58.5178748  57.8850197  44.4021594
  59.1400714  59.5314504  44.1389516  57.8103329  61.2290610  42.8729205
  58.9562852  61.6469706  43.0880178  56.7297480  61.6613043  43.5321808
  55.8246299  61.2710917  43.3117389  56.7938536  62.7714977  44.4858312
  57.5581682  63.4780604  44.1622705  55.4468501  63.5149950  44.5873764
  55.3841541  64.2972192  43.8308755  54.7014199  62.7476619  44.3784892
  55.1772005  64.1331333  46.0003124  56.0867915  64.7843518  46.5975749
  54.0049566  64.0259268  46.4817145  57.2827406  62.2676852  45.8425056
  57.0015986  61.1251717  46.2920033  58.1076105  63.1187438  46.4402671
  58.1916748  64.0577091  46.0778079  58.9485281  62.7353277  47.5573144
  59.3223140  61.7218958  47.4112354  60.1572122  63.6971658  47.6702178
  59.7644671  64.7137752  47.6513544  60.6312991  63.5091874  48.6335483
  61.1749213  63.5307958  46.5680026  61.3886249  62.4697711  46.4389354
  60.7647221  63.9335504  45.6419209  62.4510595  64.2629533  46.9137058
  62.1968270  65.3051864  47.1066177  62.8584413  63.8151121  47.8201151
  63.4974524  64.1908907  45.7929071  63.3898967  63.2074124  45.3354108
  63.2255117  64.9593535  45.0692965  64.9314179  64.3910198  46.2246469
  65.1837379  63.6787868  46.8948398  65.5376665  64.3256040  45.4194865
  65.0313892  65.3024451  46.6482135  58.1328177  62.7153006  48.8482693
  58.2450402  61.8132372  49.6579462  57.2968277  63.7107258  49.0227012
  57.2248686  64.4695405  48.3600389  56.5030098  63.7673587  50.2014378
  57.1350415  63.9042438  51.0788759  55.5490752  64.9371705  50.1056765
  55.2014579  64.9846620  49.0736852  54.7068888  64.7196130  50.7625561
  56.1636637  66.2728595  50.4952744  56.6962159  66.1585601  51.4394273
  56.8633765  66.5833685  49.7193309  55.0708203  67.3344240  50.6512429
  55.1428877  68.0141151  49.8021697  54.1068455  66.8261656  50.6283211
  55.1970661  68.1290615  51.9521973  56.0608335  67.7415359  52.4924105
  55.3733547  69.1712158  51.6858593  53.9728210  68.0345177  52.8281187
  53.8095411  67.0689603  53.0753804  54.1167759  68.5773332  53.6675997
  53.1724006  68.3939530  52.3278863  55.7268448  62.4503189  50.4293803
  55.7653334  61.8848218  51.5190205  55.0804998  61.9404118  49.3749203
  55.1743753  62.3866537  48.4737239  54.1308901  60.8239943  49.5049874
  53.7563661  60.7908050  50.5280853  52.9152273  60.9781475  48.5323510
  52.4773521  59.9884083  48.4028101  52.1929490  61.6335650  49.0190152
  53.2595311  61.5138824  47.2609467  52.4708310  61.5809925  46.7177632
  54.8120360  59.4586940  49.3352106  54.9409537  58.7072588  50.3029427
  55.3168594  59.1889929  48.1195936  55.6685708  59.9561249  47.5646999
  55.3844459  57.8110062  47.5465231  56.4289242  57.5335274  47.4045032
  54.9143183  57.1123591  48.2386009  54.6594703  57.7387604  46.1935888
  54.6372421  56.6772661  45.4921441  54.0360863  58.8645905  45.8452213
  54.2766319  59.7461749  46.2753911  53.0095271  58.8527461  44.8586707
  52.3493775  58.0064080  45.0484426  52.1680948  60.1461367  44.8677545
  51.5339307  60.1201526  45.7539035  52.8577824  60.9871207  44.9397059
  51.2908288  60.3085740  43.6143211  51.9419397  60.6747143  42.8205349
  50.9317611  59.3117880  43.3582209  50.1035879  61.2507912  43.7721184
  49.5102788  61.5647915  42.7146903  49.7580231  61.6723987  44.9227882
  53.7127791  58.7055123  43.5633739  54.3073328  59.6522622  43.0758265
  53.6738657  57.5170982  42.9923093  53.4337189  56.6749226  43.4954684
  54.0230976  57.4041912  41.5970652  55.0780867  57.6407239  41.4586838
  53.7759925  56.0004008  41.1072920  53.1668714  55.4965490  41.8577613
  53.2154736  56.0749465  40.1754329  55.0444653  55.2066785  40.8710495
  54.8457816  54.4813906  40.0820101  55.8184724  55.8993773  40.5406201
  55.5197852  54.4727634  42.1321271  55.8346551  55.2100102  42.8706547
  54.6911442  53.8888852  42.5328012  56.6983528  53.5355362  41.8079902
  57.5473723  54.1710137  41.5561274  56.9192734  52.9790602  42.7188292
  56.4411293  52.5676686  40.6768185  56.2368221  53.0831152  39.8326188
  57.2599019  51.9944428  40.5314791  55.6547127  51.9784411  40.9101832
  53.2313036  58.3776325  40.7507301  52.3332970  59.0362540  41.2232764
  53.6189449  58.5224205  39.5063867  54.2704892  57.8954750  39.0563546
  53.1017734  59.6011461  38.7568744  52.5870787  60.2911959  39.4254698
  54.1874296  60.3435639  38.0480383  54.9042686  60.7409060  38.7666205
  54.7018441  59.6837671  37.3493639  53.5942808  61.4079180  37.3388488
  54.2742775  61.9009562  36.8739641  52.1547570  59.1263150  37.7448447
  52.1574291  57.9729649  37.3560715  51.4488566  60.0736441  37.1755916
  51.7765617  61.0289791  37.1822009  50.2054795  59.7822924  36.5070216
  49.7129568  58.9258669  36.9675168  49.2875213  60.9950707  36.6267193
  49.7117983  61.7940483  36.0186708  48.3126582  60.7143687  36.2280359
  49.1266327  61.4848444  38.0772660  48.2052450  62.0651035  38.1267123
  49.0349517  60.6036244  38.7122055  50.2932592  62.3411606  38.5615254
  50.9243490  61.7440774  39.2197930  50.8754806  62.6697632  37.7006317
  49.7809952  63.5489755  39.3139738  48.8169539  63.3139255  39.7650576
  50.4913569  63.8181146  40.0956704  49.6223408  64.6945738  38.3704319
  48.9638158  64.4455438  37.6462575  49.2802410  65.5005166  38.8739436
  50.5156141  64.9128134  37.9526599  50.5439992  59.5329094  35.1034386
  50.5102858  58.4048889  34.6235144  51.1361325  60.5618631  34.5444301
  51.1165414  61.4586566  35.0086250  51.7317432  60.4827346  33.2557669
  51.2372357  59.7409261  32.6286452  51.6402664  61.8714820  32.5515045
  52.6051554  62.1074544  32.1027213  50.5257252  61.8449127  31.4240592
  49.5604061  61.6094453  31.8721817  50.4732410  62.8207397  30.9412484
  50.7762479  61.0862599  30.6825844  51.3422972  62.8967237  33.5239205
  51.2873806  63.7484047  33.0843481  53.1994407  59.9700837  33.3385501
  53.7652399  59.7677146  34.4238827  53.7395691  59.6602812  32.1588697
  53.1071503  59.5327465  31.3817721  55.1915743  59.6014865  31.8967190
  55.6508154  58.8490225  32.5378077  55.4647077  59.2278447  30.4235558
  54.4841406  59.0876631  29.9686531  55.9476020  60.1001869  29.9831784
  56.3183049  57.9976673  30.1742281  57.3521872  58.2387915  30.4213058
  55.9673607  57.1962069  30.8243062  56.2346555  57.5394567  28.7013684
  55.2943119  57.8910975  28.2768667  57.0673904  57.9758372  28.1498035
  56.2941066  56.0948596  28.5675448  55.6424364  55.6697488  27.9235680
  57.1168490  55.2963488  29.2672972  58.0421293  55.7932876  30.0899364
  58.1342555  56.7934527  30.1961560  58.6462614  55.1670610  30.6027367
  57.0518130  53.9735692  29.1139688  56.3827330  53.5751097  28.4708032
  57.6719204  53.3760040  29.6416821  55.7104997  60.9582242  32.0658028
  54.9883100  61.9107575  31.7909789  57.0083689  61.0580558  32.3496940
  57.8531835  60.1254162  33.1181508  58.6304204  59.7066115  32.4789281
  57.2466621  59.3179768  33.5283611  58.4058495  61.0228229  34.1835350
  59.4524161  60.7636515  34.3436210  57.8452626  60.8527782  35.1027349
  58.2552759  62.4641641  33.7135042  59.2700917  62.8450787  33.5988223
  57.6912883  63.1262947  34.3704674  57.5756454  62.3809529  32.3505904
  56.7852290  63.1161473  32.1994964  58.5769268  62.4940021  31.2484881
  59.3244070  61.5504884  31.0026403  58.5371568  63.6158958  30.5396984
  57.7811228  64.2669742  30.6965702  59.4793172  63.8909935  29.4404241
  59.4254281  63.0308066  28.7731358  59.0101643  65.1491366  28.6656612
  57.9808422  65.0100874  28.3351153  59.0671525  66.0204670  29.3180688
  59.9087946  65.3633774  27.4523233  60.9382819  65.5029704  27.7821270
  59.8519707  64.4925928  26.7991715  59.4472861  66.6010264  26.6901818
  58.4179635  66.4619791  26.3596370  59.5042764  67.4723562  27.3425896
  60.2981722  66.8409223  25.5032344  61.0588576  66.2026612  25.3186276
  60.1068846  67.8585931  24.6685753  59.1269741  68.7403459  24.8451764
  58.5022897  68.6454195  25.6331221  59.0120178  69.5008205  24.1905292
  60.9317783  67.9797987  23.6323512  61.6748918  67.3084820  23.5011404
  60.8112992  68.7426022  22.9814178  61.0114088  64.0120024  29.9137602
  61.9389402  63.9426377  29.0810130  61.2379790  64.0852121  31.2403665
  60.4716677  63.8975745  31.8709682  62.5516224  64.3717259  31.8124677
  63.2422872  63.5501400  31.6225255  63.0883534  65.5983559  31.1765198
  64.0597838  65.8719043  31.5883371  63.1825950  65.4339557  30.1031181
  62.2211715  66.7591065  31.3464159  62.2341232  67.4728750  32.5340845
  62.8626218  67.1243891  33.3536253  61.4751937  68.5969112  32.6864736
  61.5028880  69.1578799  33.6206299  60.6806133  69.0164792  31.6638927
  60.0629176  69.9075480  31.7759118  60.6598186  68.3026802  30.4734879
  60.0360770  68.6516850  29.6505407  61.4160404  67.1661458  30.3275382
  61.3692960  66.5958276  29.3998249  62.5270219  64.6613870  33.3091391
  61.5368208  65.0623254  33.8529360  63.6580839  64.6201333  33.9444665
  64.5449696  64.5166743  33.4724184  63.6628885  64.8165757  35.3450982
  63.1326310  65.4296239  36.0738629  64.1584463  63.5272241  36.0492721
  63.3927359  63.3007190  36.7912170  64.4111004  62.3302126  35.2218240
  65.1770882  62.5558214  34.4798912  64.7516841  61.5133406  35.8580812
  63.4912549  62.0368069  34.7159593  64.7691921  63.6224824  37.4052037
  64.0459157  64.0477634  38.1009834  65.0579109  62.6278263  37.7449101
  65.6511187  64.2616377  37.3629335  64.6715464  65.8908631  35.5955575
  65.8315741  65.6636490  35.2457368  64.3109619  66.9615057  36.3419999
  63.3279007  67.1181130  36.5127749  65.3074450  67.9755223  36.8831346
  66.1563168  68.0497022  36.2034191  64.6694517  69.3546040  37.0186051
  64.1273233  69.3531161  37.9642233  65.4893374  70.0709019  37.0715666
  63.7259415  69.7477201  35.8951025  64.2651103  70.4082572  35.2160673
  63.4352111  68.8409869  35.3646191  62.4527831  70.4716706  36.4203951
  61.6334749  70.2063753  35.7522248  62.2490451  70.0807785  37.4172870
  62.5844174  72.0069365  36.4875364  61.7002729  72.3895879  36.9974059
  63.4712323  72.2341695  37.0791643  62.7039457  72.6571256  35.1344177
  61.8821062  72.4470459  34.5861969  62.7864988  73.6573567  35.2476554
  63.5233900  72.3030059  34.6619674  65.9459650  67.6065348  38.2611206
  65.9318779  66.4629743  38.7075195  66.5249855  68.5858528  38.9309837
  66.4863638  69.5490614  38.6295920  67.3142843  68.2611150  40.1291873
  68.0187439  67.4640006  39.8916068  68.1154037  69.4989933  40.6383063
  68.3910258  70.0534798  39.7412687  67.4039589  70.0833683  41.2217890
  69.3835439  69.2297866  41.4892142  69.1521030  68.9498994  42.5169297
  69.9015978  68.4067543  40.9969339  70.3203673  70.4612705  41.5111017
  71.0301941  70.7437748  40.5426564  70.2482658  71.2258562  42.5703119
  70.8363622  72.0440395  42.6397398  69.6048443  70.9943478  43.3136248
  66.3895808  67.7468033  41.1734171  65.1921277  67.8128530  41.0150210
  66.9369781  67.3767860  42.3104455  67.8659717  66.9822984  42.3485209
  66.1910853  67.5342376  43.5747204  66.7620875  67.1032347  44.3970902
  65.9437400  69.0476748  43.8775967  66.2458729  69.5457603  42.9563335
  64.8892917  69.2469052  44.0687668  66.7941169  69.5859314  45.0592113
  66.6844988  68.9788040  46.1601346  67.4879913  70.6657012  44.9020441
  64.8239024  66.8393610  43.5242967  63.9419000  67.1888693  44.3516936
  64.7478543  65.7676954  42.6804688  65.6380124  65.3372976  42.4743724
  63.5012507  65.1657156  42.0692030  62.6438122  65.3190128  42.7244879
  63.2229130  65.8377027  40.7445176  63.1620488  66.9029087  40.9675223
  64.1034623  65.6450655  40.1316361  61.9730775  65.4053583  39.9874869
  62.0415065  64.3660345  39.6662013  61.1164802  65.5243688  40.6509473
  61.7611956  66.2892063  38.7488050  62.6369900  67.0583624  38.3963579
  60.6478274  66.1579793  38.0785723  60.4843288  66.7273157  37.2605102
  59.9556046  65.4877824  38.3814997  63.7142013  63.6676635  41.8113856
  64.8133208  63.2512879  41.6455761  62.6802914  62.8511250  41.8014774
  61.7355904  63.1977314  41.8880987  62.8824636  61.3835887  41.6429253
  63.9387390  61.1616968  41.4907893  62.3775458  60.5704312  42.8497011
  61.2906017  60.6408699  42.8908139  62.7889435  59.1014276  42.7273641
  63.8758486  59.0301449  42.6866594  62.4211036  58.5474268  43.5910061
  62.3633025  58.6789634  41.8171689  62.9005259  61.1391132  44.1482116
  62.5616214  62.1693729  44.2568891  62.5275360  60.5445897  44.9821901
  63.9902320  61.1142054  44.1436201  62.1251397  60.8789009  40.4335930
  61.1152318  61.4583894  40.0735998  62.6253026  59.8221268  39.7828560
  63.4926149  59.4190936  40.1075604  61.9408318  59.1851347  38.6194473
  60.8725104  59.3942238  38.6748565  62.4747746  59.7151342  37.2851210
  61.9545705  59.2413565  36.4526418  62.3449573  60.7957753  37.2262793
  64.2923938  59.3965000  37.0081412  64.3545099  59.9759237  35.8126045
  62.2361173  57.7230961  38.6953663  62.9923274  57.2837768  39.5723189
  61.6134672  56.9595204  37.8104550  60.8766356  57.3438927  37.2364895
  61.9719598  55.5340583  37.6309587  62.8742395  55.3191913  38.2035167
  60.8519702  54.5351062  38.0353916  60.6626239  53.8463136  37.2120976
  61.2969073  53.7467971  39.2664829  61.4860083  54.4349230  40.0903908
  60.5130593  53.0453524  39.5522421  62.2094891  53.1970002  39.0362289
  59.5634244  55.3114611  38.2898946  59.8373252  56.1329816  38.9518487
  59.2610775  55.7109070  37.3218405  58.4221017  54.5423864  38.8925251
  58.7235631  54.1429965  39.8608787  57.5662215  55.2044842  39.0236543
  58.1473169  53.7209201  38.2308709  62.2615245  55.3832000  36.1838636
  61.6840531  56.0982887  35.3773503  63.3148669  54.6518668  35.8695412
  63.7997771  54.0710461  36.5385769  63.8180654  54.7233032  34.5645009
  63.0070141  54.7918365  33.8395194  64.6769959  55.9321356  34.4331090
  65.4989978  55.8737086  35.1465507  65.0781143  55.9852070  33.4209886
  64.0836542  56.8238210  34.6354503  64.5600631  53.5025641  34.2570574
  64.9760738  52.7839168  35.1777626  64.5920428  53.1992569  32.9572116
  64.0964417  53.7938852  32.3084466  65.2727893  52.0403985  32.4383395
  65.5403150  51.3746370  33.2588825  64.3829224  51.2809029  31.4666840
  63.4143328  51.1510287  31.9494533  64.2658810  51.9046665  30.5805010
  64.9404310  49.9037823  31.0553434  65.9188636  50.0858004  30.6107764
  65.0606073  49.3309060  31.9748392  64.0593286  49.1019416  30.0572101
  64.6296470  48.9694030  29.1378247  63.8529540  48.1274623  30.4998149
  62.7811575  49.7506574  29.7293329  62.8406532  50.6153798  29.2108595
  61.5784114  49.3053211  30.0859439  61.4566496  48.1456991  30.7275021
  62.2804192  47.6028391  30.9438506  60.5410325  47.8138270  30.9950950
  60.4846219  50.0113513  29.7687184  60.5772802  50.8789838  29.2600650
  59.5725032  49.6726743  30.0397094  66.5591758  52.4450312  31.7397322
  66.6617214  53.5375367  31.1773959  67.5394888  51.5444694  31.7711298
  67.3042174  50.5664407  31.8617206  68.9475273  51.9099768  31.6642614
  69.0569393  52.8641495  31.1488172  69.5377414  52.0442246  33.0760524
  68.8622739  51.4767408  33.7162125  70.5018478  51.5380806  33.0268871
  69.7273900  53.4433031  33.6516309  70.1682425  54.0823428  32.8865308
  68.4270400  54.0145647  34.0840648  67.9857676  53.3762729  34.8495458
  68.5857397  55.0130270  34.4914815  67.7535769  54.0743929  33.2290980
  70.6535140  53.4259742  34.8565932  71.6285082  53.0388490  34.5605869
  70.7673088  54.4389529  35.2426325  70.2298644  52.7876748  35.6319601
  69.7079025  50.7965278  30.8961639  69.6471207  49.6349487  31.3041058
  70.4040461  51.1472966  29.7929421  70.2624744  52.0704543  29.4084468
  71.3054253  50.1953160  29.0512229  71.2190398  49.2058212  29.5001514
  70.9422861  50.0905177  27.5470214  70.9397893  51.1031121  27.1436041
  71.7281626  49.5095900  27.0642986  69.5768334  49.4282654  27.2800274
  69.3196108  48.8752408  28.1834106  68.8629918  50.2392086  27.1354471
  69.5291657  48.4836041  26.0712811  69.8575791  47.4960828  26.3953881
  68.4982827  48.4265407  25.7218194  70.3803860  48.9203363  24.9567687
  71.1992456  48.3591469  24.7706641  70.1627124  49.9993649  24.2017851
  69.1066296  50.7851336  24.4067674  68.4540190  50.5662098  25.1458694
  68.9634218  51.5961765  23.8221303  71.0013189  50.2810628  23.2143367
  71.7942988  49.6796597  23.0422982  70.8433430  51.0957711  22.6386694
  72.7877882  50.5442182  29.1993058  73.2568329  51.5908292  28.7568281
  73.5217620  49.6125730  29.7668562  73.0733426  48.7822547  30.1268437
  74.9629299  49.7143638  29.8702187  75.2611374  50.7335648  30.1159842
  75.5010646  48.7632283  30.9671878  76.4879218  49.1057211  31.2784945
  74.5808709  48.7474298  32.1519101  73.5938714  48.4045752  31.8414550
  74.9769145  48.0731734  32.9112695  74.5022850  49.7530475  32.5650179
  75.6386726  47.4244758  30.4517251  75.9727449  46.8481880  31.1430199
  75.5982447  49.2999093  28.5442185  75.5026211  48.1389591  28.1456378
  76.3338636  50.2016961  27.9057277  76.4975970  51.1152821  28.3040384
  76.8324741  49.9329244  26.5416165  75.9393301  49.7323128  25.9498835
  77.5393936  51.1603477  25.9598280  78.4407701  51.3683836  26.5363187
  77.8093073  50.9667375  24.9216749  76.8720255  52.0208799  26.0067685
  77.7458454  48.6946819  26.4382752  78.3448270  48.4517055  25.3680096
  77.8552905  47.9276972  27.5296116  77.6427495  48.3115794  28.4393149
  78.2789283  46.5303329  27.4485054  78.3172382  46.2525427  26.3951944
  79.2774538  46.4574986  27.8794827  77.3524593  45.5703263  28.1804182
  76.2684270  45.2212412  27.6668196  77.8290267  45.0695887  29.3282319
  78.7166990  45.4056812  29.6734549  77.1256620  44.0410837  30.1030097
  76.0514977  44.2258250  30.0911363  77.3891061  42.6158193  29.5545476
  77.9782384  42.7159200  28.6429537  78.1466909  41.7030021  30.5644169
  77.5579173  41.6020476  31.4761479  78.3005154  40.7191971  30.1210607
  79.1124509  42.1481872  30.8036207  76.1414680  42.0161687  29.2195996
  76.2928978  41.1317430  28.8783364  77.5780822  44.1023041  31.5202637
  78.7505716  44.3495634  31.8055625  76.6687689  43.8088117  32.4108284
  75.7722500  43.4342283  32.1350740  76.9011220  44.0557547  33.7956696
  77.9230822  44.4052102  33.9425623  75.9129940  45.1424581  34.2699520
  74.9296600  44.9018602  33.8658884  75.8303764  45.2316687  35.7721600
  76.8133050  45.4727111  36.1769446  75.1216754  46.0111365  36.0519342
  75.4963137  44.2757705  36.1755952  76.3289275  46.5127049  33.7692416
  76.1979106  46.5205402  32.6871724  75.6593371  47.2445401  34.2210883
  77.7643224  46.8654366  34.1067351  78.4345770  46.1342571  33.6548112
  77.9958047  47.8577464  33.7196479  77.8960040  46.8582547  35.1887278
  76.7219310  42.7360461  34.5159179  76.5679382  41.7102993  33.8664945
  76.8379554  42.7329585  35.8419175  77.5557185  43.2842084  36.2902912
  76.0511546  41.7970025  36.6731850  75.2264424  41.3875997  36.0897997
  76.9262724  40.6476764  37.1510670  76.8068877  40.4681971  38.2195396
  76.7181230  39.7285876  36.6032991  78.6753285  40.9964238  36.8954165
  79.1208102  39.8478173  37.3965627  75.2471761  42.4454034  37.8583604
  75.7582094  42.6119031  38.9905710  73.9580654  42.7121376  37.5774342
  73.6099715  42.4321149  36.6716101  73.0364405  43.3563899  38.5019603
  73.5174659  44.1989845  38.9986976  71.8443102  43.8696753  37.7250257
  71.5432845  43.0178121  37.1152619  71.0265840  44.1465916  38.3904138
  72.1811115  45.0408742  36.8247417  73.2605973  45.0922864  36.6827275
  71.4982717  44.8546571  35.4714458  70.4186575  44.8036179  35.6126085
  71.7399799  45.6967926  34.8229971  71.8481264  43.9304632  35.0114808
  71.8045647  46.3673925  37.5018817  72.3575892  46.4690880  38.4356490
  72.0537364  47.1971423  36.8404212  70.7348149  46.3784984  37.7107142
  72.5053979  42.4257580  39.5619905  72.4726223  41.2158019  39.3635387
  72.0503713  43.0221481  40.6699619  72.5178456  43.8587083  40.9889198
  70.9159915  42.5182692  41.4518408  70.4327645  41.7040134  40.9118609
  71.3794897  41.9956666  42.8105979  71.8629181  42.8279390  43.3221825
  70.4845540  41.7028416  43.3596367  72.3422589  40.8138366  42.7404601
  73.1355380  41.0963862  42.0483800  72.7614389  40.6799299  43.7376844
  71.7048798  39.5063952  42.2769929  70.4788176  39.2944001  42.5267899
  72.4711397  38.6981162  41.6618581  69.9018402  43.6251043  41.6719274
  70.2338961  44.7934915  41.6189348  68.6682938  43.2534001  41.9822389
  68.3988257  42.2812066  41.9340098  67.6508377  44.2405801  42.3765028
  67.7783087  45.1410416  41.7756539  66.2126513  43.7140611  42.1775993
  65.5172272  44.5501692  42.2511434  66.0653619  43.0449082  40.8010688
  66.7601936  42.2083588  40.7269497  65.0450301  42.6808237  40.6807997
  66.2863045  43.7705156  40.0182669  65.9002946  42.7580840  43.1881513
  65.0054895  42.4356288  43.0579719  67.8619840  44.5919208  43.8224291
  68.2536556  43.7535805  44.6077417  67.5897628  45.8320291  44.1404542
  67.1579388  46.4598500  43.4775301  67.7704558  46.2808004  45.4690141
  68.8173526  46.1830916  45.7563454  67.3724894  47.7297137  45.5848719
  67.7603778  48.2649724  44.7181886  66.2888960  47.8407642  45.6247886
  67.9174122  48.4195104  46.7920876  68.5234287  47.7233584  47.7990818
  68.6180109  46.6405359  47.7175371  69.0080751  48.3698542  48.8992377
  69.5052077  47.8049076  49.6877777  68.8702752  49.7245622  49.0123146
  69.2533126  50.2422505  49.8917355  68.2518594  50.4290725  48.0217641
  68.1327346  51.5092602  48.1060487  67.7807704  49.7741516  46.9201195
  67.2863401  50.3316486  46.1246097  66.7168516  45.4143807  46.0456943
  65.9938645  44.7949936  45.2903599  66.6660102  45.2916528  47.3594074
  67.3087951  45.7983491  47.9511723  65.6750798  44.4422308  47.9901531
  65.6012738  44.6009994  49.0659990  64.2924314  44.6371105  47.3721859
  63.9469234  45.6524959  47.5663913  64.3483315  44.4724631  46.2961438
  63.3153560  43.6414734  47.9883472  63.6599792  42.6257863  47.7941429
  63.2585682  43.8058196  49.0643898  61.9344740  43.8361022  47.3711685
  61.5889658  44.8514879  47.5653717  61.9903750  43.6714528  46.2951271
  60.9573986  42.8404659  47.9873322  61.3020214  41.8247785  47.7931292
  60.9006100  43.0048152  49.0633729  59.6263199  43.0280743  47.3924106
  59.6786362  42.8754070  46.3953873  58.9792069  42.3686705  47.8004931
  59.3066179  43.9690392  47.5726181  66.1243951  43.0393165  47.7638717
  66.3399739  42.3039369  48.7085153  66.2965981  42.6587074  46.5099264
  66.1233990  43.2750441  45.7287539  66.7674651  41.3170436  46.2347072
  66.0827580  40.5931255  46.6765421  66.8452928  41.0620754  44.7429622
  65.9440005  41.4633437  44.2795454  67.7173246  41.5908827  44.3582240
  66.9646429  39.6009017  44.4215451  67.2393284  38.8120597  45.3431851
  66.7793128  39.2356904  43.2482470  68.1444841  41.2546884  46.8494228
  68.5250614  40.2787105  47.4696178  68.8742811  42.3422275  46.6677768
  68.4617785  43.0997792  46.1423661  70.2065157  42.5254135  47.2060144
  70.2826030  41.9945993  48.1549855  71.2708840  42.0009592  46.2733768
  70.8639187  41.7681897  45.2893560  72.0629811  42.7428760  46.1721757
  71.9088339  40.7678628  46.7683144  72.5187116  40.7607167  47.9959394
  72.5352762  41.6760127  48.5875970  73.1038562  39.6193124  48.4818685
  73.5878279  39.6244960  49.4585185  73.0787159  38.4668239  47.7335029
  73.5434569  37.5565634  48.1123717  72.4646453  38.4645234  46.5030176
  72.4415767  37.5545647  45.9033985  71.8786370  39.6147724  46.0296990
  71.3841191  39.6145944  45.0583330  70.3444123  44.0062013  47.3362185
  69.5927137  44.7225885  46.6895745  71.3055452  44.4723395  48.2143186
  72.2524416  43.9742236  49.2898151  73.2691946  43.9248737  48.9000995
  71.9458199  42.9850591  49.6298676  72.0932394  45.0210175  50.3554259
  73.0849211  45.3559662  50.6595243  71.5853216  44.5701132  51.2079551
  71.2901224  46.1416402  49.7895269  71.7544066  47.0929412  50.0494608
  70.2466167  46.1491768  50.1043899  71.3768511  45.9183854  48.2967662
  70.5539773  46.3148135  47.7019371  72.6793356  46.5015605  47.8043954
  72.6845495  47.3595724  46.9418304  73.7869133  46.0152627  48.3256123
  73.7513282  45.2904774  49.0281216  75.0802479  46.5731259  47.9778015
  75.0807713  47.6468232  48.1656125  76.1790284  45.9343598  48.8095487
  77.0641798  45.8823630  48.1755909  76.3711597  46.6056264  49.6465593
  75.8540815  44.5543459  49.3349983  75.0167327  44.1520767  48.7647989
  76.7223150  43.9073131  49.2100138  75.4767096  44.5772434  50.7932696
  75.5599372  45.6085451  51.4459242  75.0673243  43.4379194  51.3142969
  74.8020970  43.3978578  52.2880274  75.0207303  42.6101849  50.7374209
  75.4249263  46.4718412  46.5176329  76.2375022  47.2179327  46.0074917
  74.8181067  45.5222483  45.8529306  74.1533626  44.9245224  46.3229714
  75.0894654  45.2785539  44.4597894  76.0104505  45.7795070  44.1615754
  75.2480906  43.8119649  44.2297896  74.2888112  43.4239933  43.8872110
  75.9943485  43.6775361  43.4467647  75.6825707  43.0589798  45.4787658
  76.4136897  43.6722300  46.0055389  74.8053389  42.9176372  46.1101046
  76.4100615  41.4574562  45.1111665  76.0319604  41.2317183  43.3504133
  76.4843335  42.0391852  42.7746921  76.4324795  40.2761747  43.0118553
  74.9516714  41.2440342  43.2057574  74.0009206  45.7962843  43.5558300
  74.0937177  45.6805042  42.3302797  72.9913010  46.4152034  44.1528562
  72.9173490  46.4069751  45.1601113  71.9610002  47.1233121  43.3857243
  72.2440530  47.0300546  42.3372572  71.0288470  46.5855990  43.5590863
  71.7511044  48.6024898  43.7150359  70.7750695  49.2007075  43.2767431
  72.5495629  49.1491333  44.6188643  73.1340643  48.5892153  45.2229746
  72.5743675  50.5770821  44.7792550  71.6376259  50.9794921  44.3936637
  72.7410724  51.0332637  46.2461421  72.3415045  52.0461682  46.2958338
  72.1177568  50.3676568  46.8432561  74.1787915  51.0214001  46.7974061
  74.8406219  50.6639016  46.0085612  74.4483165  52.0440237  47.0614127
  74.3211850  50.1201229  48.0318960  73.7969883  49.1903329  47.8109722
  75.3844989  49.9160827  48.1577157  73.7991669  50.6657602  49.2798328
  73.3512163  51.5704188  49.2477008  73.8741109  50.0337556  50.4524775
  73.3808479  50.6095621  51.5544246  72.9525999  51.5223480  51.4950464
  73.4388938  50.1289318  52.4408358  74.4338411  48.8196771  50.5318275
  74.8008904  48.3808063  49.6995011  74.4863599  48.3484832  51.4236329
  73.7114405  50.9770615  43.9422069  74.5600629  50.1781707  43.6350775
  73.5973859  52.1488495  43.3949919  72.8415431  52.7699030  43.6461761
  74.5436461  52.5961125  42.4556466  75.5572311  52.3744819  42.7897491
  74.2969467  51.8757441  41.1548566  75.1786040  51.9286921  40.5161265
  74.0542369  50.8316387  41.3524321  73.1717418  52.4307922  40.3701844
  73.3337495  53.5361547  39.5981532  74.2932087  54.0524528  39.5669401
  72.2817169  54.0012315  38.8558245  72.4444410  54.8622831  38.2075871
  71.0332557  53.4045730  38.9142648  70.1984606  53.7921966  38.3303426
  70.8589362  52.3306987  39.7069820  69.8795034  51.8617503  39.8013167
  71.9416209  51.8216602  40.4076236  71.8273699  50.9177014  41.0058754
  74.3908439  54.0627911  42.2216075  73.2929219  54.6044755  42.3427487
  75.4203475  54.6630489  41.6789713  76.2169453  54.1429858  41.3397580
  75.4308203  56.0673740  41.5422736  74.4776136  56.5132912  41.8262702
  76.5166565  56.6502826  42.4175908  76.0947634  56.8608928  43.4003164
  77.6932930  55.6808210  42.5646037  78.1160283  55.4700856  41.5822672
  78.4571875  56.1294207  43.1996806  77.3452094  54.7520541  43.0166330
  76.9573641  57.8740238  41.8679688  77.6469815  58.2444701  42.4236645
  75.7131901  56.3194265  40.1105743  76.7598033  55.9673084  39.6409950
  74.7967401  56.9370114  39.3912591  73.8261402  56.9773529  39.6676784
  75.1985865  57.6278732  38.1629654  75.6191800  56.8985344  37.4706756
  74.0423693  58.3215307  37.4883009  73.3009573  58.4920042  38.2689072
  74.3832953  59.2797340  37.0962347  73.4185675  57.5090135  36.3667519
  74.1446688  57.3736365  35.5651592  73.0089363  56.1787656  36.8946352
  72.2824419  56.3133191  37.6960090  72.5605084  55.5916458  36.0931968
  73.8834938  55.6559159  37.2817760  72.2197720  58.1943728  35.7382092
  72.5261591  59.1540658  35.3220172  71.8168379  57.5663509  34.9436440
  71.4538448  58.3557847  36.4967610  76.1886621  58.6739488  38.5167097
  76.1316375  59.1775159  39.6226000  77.0672222  59.0250496  37.5722144
  76.9500691  58.6559373  36.6394064  78.2147514  59.9180079  37.8330422
  77.9167156  60.7243749  38.5031512  79.3433232  59.1347904  38.4867128
  78.8977048  58.2615373  38.9631080  80.0153803  58.8111228  37.6919307
  80.1201414  59.9247453  39.5112569  81.1832360  59.8214200  39.2938757
  79.8333032  60.9731370  39.4293982  79.8443955  59.4371928  40.9079580
  80.2620140  60.1534656  41.6155221  78.7652505  59.3754818  41.0484474
  80.4327565  58.1102376  41.1754918  79.9185669  57.3092570  40.8376478
  81.5772114  57.9007101  41.8459410  82.3160243  58.9327761  42.2786584
  82.0105659  59.8786868  42.0996384  83.1745721  58.7594892  42.7816167
  82.0055526  56.6498165  42.0709741  81.4647212  55.8659283  41.7346396
  82.8669928  56.4974184  42.5757455  78.6610697  60.4969709  36.4916780
  78.6571925  59.8043880  35.5025310  78.8356252  61.8016791  36.4025442
  78.7084759  62.4012375  37.2053282  79.1703185  62.4283349  35.1054097
  79.7259383  61.7159752  34.4955495  77.8916717  62.8580714  34.3277806
  77.2157048  62.0129938  34.1973514  77.4210781  63.6035194  34.9688337
  78.2056762  63.4926107  32.9359950  78.5879123  62.7706130  31.9733861
  77.9952437  64.7095277  32.7858778  80.0678465  63.6161001  35.3869808
  79.8673197  64.3192142  36.3983559  81.0854148  63.8209409  34.5438052
  81.1246479  63.3479460  33.6522695  82.1424350  64.7823880  34.8670462
  82.9715864  64.6684208  34.1687493  81.6089346  66.2238821  34.7666206
  80.7664671  66.2759830  35.4562823  82.4142542  66.8630092  35.1286660
  81.1657667  66.6977206  33.3866800  82.0764277  66.9611005  32.8486945
  80.6649861  65.8774023  32.8724856  80.2271510  67.9213368  33.4382835
  80.2291310  68.6979589  32.4674816  79.5128477  68.1329687  34.4538827
  82.5808966  64.5537941  36.3322978  82.7162873  65.5163029  37.0909361
  82.5980650  63.2996663  36.7882865  82.2095522  62.5474878  36.2374829
  83.1787191  62.9758554  38.0970005  83.2912218  61.8923767  38.1359398
  84.1622538  63.4442884  38.1334627  82.3642894  63.4348946  39.3054761
  82.5128756  62.8638860  40.4012097  81.4152538  64.3574616  39.0803816
  81.4282580  64.8957632  38.2258866  80.3166435  64.5921741  40.0391174
  80.7399971  64.8656174  41.0056058  79.3949092  65.7023214  39.5834599
  79.3031012  65.6203189  38.5004336  78.4234828  65.5237394  40.0444797
  79.8709312  67.0736177  39.9404169  79.0426849  67.6455330  40.3587729
  80.6689885  66.9976455  40.6789525  80.3953875  67.7763961  38.6986028
  81.4843928  67.7319542  38.7124408  80.0218484  67.2485041  37.8211645
  79.9468955  69.2335630  38.6441549  80.5288007  69.7352440  37.8709776
  78.8915342  69.2500430  38.3720517  80.1364803  69.9418214  39.9494474
  81.1143983  69.9270388  40.2015538  79.8259169  70.8988460  39.8613890
  79.5970188  69.4773641  40.6659387  79.4427237  63.3954263  40.2067624
  79.2107524  62.6383372  39.2727702  78.7725991  63.3776564  41.3376745
  79.0912056  63.9286734  42.1218743  77.6044177  62.5145463  41.5245816
  77.6835123  61.6481523  40.8679198  77.5095901  62.0199213  42.9853416
  77.2416195  62.8663864  43.6176303  76.4846737  60.9376110  43.1393799
  76.7522344  60.0905634  42.5076986  76.4481237  60.6166111  44.1803997
  75.5070964  61.3172856  42.8422431  78.7971307  61.4970985  43.3840013
  78.7494614  61.1866155  44.2911552  76.3302612  63.2256186  41.1201763
  75.9599658  64.2410281  41.6863827  75.6473589  62.6284314  40.1736733
  75.9071397  61.6959293  39.8854840  74.5803109  63.2708276  39.4921423
  74.3940857  64.2866336  39.8407934  74.9085150  63.2970948  38.0225855
  75.9763721  63.4777844  37.8995696  74.5389726  61.9630989  37.3709580
  73.4711050  61.7819254  37.4931692  74.7819704  61.9972613  36.3089383
  75.1001875  61.1583582  37.8458574  74.2078416  64.4685866  37.3514218
  73.1332182  64.3380438  37.4788737  74.5240565  65.3837164  37.8520664
  74.5337206  64.5631129  35.8720525  74.2173519  63.6484669  35.3706210
  74.0099846  65.4147133  35.4377984  75.6081913  64.6941373  35.7438138
  73.1906482  62.5897506  39.7238271  72.1473681  63.1593482  39.3503260
  73.1916944  61.3832507  40.3303903  74.0892514  60.9516514  40.4983576
  71.9660225  60.6544765  40.7609974  71.3099854  61.3173442  41.3251969
  71.2107942  60.1373697  39.5563954  71.8517446  59.4648908  38.9862598
  70.3229257  59.5986152  39.8873536  70.9128156  60.9755098  38.9264516
  72.3323042  59.4600990  41.6574175  73.4443192  58.9515144  41.6230621
  71.3685712  58.9559798  42.4080935  70.5588599  59.5012832  42.6671517
  71.5348862  57.6312616  43.0096890  72.1959327  57.0596828  42.3582180
  72.1215229  57.6735670  44.4188723  71.6042164  56.9598707  45.0600680
  73.5869539  57.3079077  44.3376605  74.1050482  58.0214774  43.6969599
  74.0240016  57.3326697  45.3358973  73.6893640  56.3056929  43.9215151
  71.9925576  59.0532244  45.0260579  72.7934818  59.1709122  45.7559694
  72.1213483  59.7816470  44.2254875  70.6814312  59.2739083  45.6899225
  70.5521189  58.5461009  46.4909684  70.6491523  60.2808827  46.1059270
  69.8799848  59.1568333  44.9604864  70.2870305  56.7934800  43.0007403
  69.1701268  57.3068185  43.1269026  70.4910886  55.4923821  42.8235948
  71.3556889  55.0779952  43.1411624  69.5001284  54.6249319  42.1783746
  68.5064913  55.0373562  42.3535625  69.6995570  54.6016054  41.1070280
  69.5496586  53.2060079  42.7217928  70.6415196  52.6345683  42.8186398
  68.3989871  52.6915566  43.1981675  67.6027680  53.2994528  43.3269955
  68.2507979  51.2730965  43.5316910  69.2112385  50.8755986  43.8597891
  67.2170952  51.0683598  44.6659845  66.2799635  51.4647855  44.2751776
  67.1323560  49.9882473  44.7854685  67.5208388  51.7215098  46.0485159
  68.1716694  51.0214928  46.5724401  68.0720767  52.6364349  45.8313734
  66.2807251  52.0595962  46.9519380  66.5248869  51.7230835  47.9595308
  66.1750342  53.1444501  46.9473779  64.9345258  51.4022249  46.4941078
  64.7825211  51.7611548  45.4761862  65.1408402  50.3321091  46.4744710
  63.6967217  51.6582103  47.3048418  63.5051266  52.6497084  47.3228051
  62.9153422  51.1717834  46.8889874  63.8372093  51.3253035  48.2479936
  67.7684422  50.6380708  42.2249239  67.0933117  51.3079496  41.4203549
  68.2110495  49.4035277  41.9513017  68.9075895  48.9574785  42.5309321
  67.7648790  48.7105899  40.7523391  67.3405463  49.3975505  40.0201328
  68.8317448  47.8335156  40.0485572  69.0258231  48.2794589  39.0730740
  70.1332508  47.7172162  40.8189288  69.9400328  47.2708984  41.7944124
  70.8296773  47.0887025  40.2638961  70.5666124  48.7083602  40.9528426
  68.2813764  46.4588200  39.7048314  67.4267102  46.5656695  39.0368263
  69.0551910  45.8697506  39.2125836  67.9670282  45.9539295  40.6182709
  66.5707551  47.8928220  41.1194574  66.4650131  47.3441853  42.2316423
  65.6335989  47.8605485  40.1948322  65.8209384  48.2265092  39.2722944
  64.3107224  47.3362579  40.4705240  64.1832514  47.1688287  41.5400182
  63.2649354  48.3430873  40.0072279  63.4814792  48.4932575  38.9495621
  62.2613465  47.9322505  40.1173300  63.3496407  49.6743066  40.7352630
  64.3919904  49.9884882  40.7890953  62.5402725  50.7274232  39.9906776
  61.4976535  50.4141404  39.9368421  62.6065634  51.6782873  40.5194155
  62.9363937  50.8447826  38.9820076  62.8834505  49.5052026  42.1831054
  63.5197521  48.7781300  42.6876697  62.9464539  50.4628621  42.6998453
  61.8516416  49.1540040  42.1944561  64.1042614  46.0116443  39.7698004
  63.9698645  44.9958230  40.4181949  64.0534068  46.0518077  38.4338379
  64.1221280  46.9474227  37.9720473  63.8819095  44.8538346  37.6055300
  63.6509781  44.0030040  38.2465114  62.7342332  45.0293436  36.5850631
  62.1163790  45.8557648  36.9363230  63.1906061  45.2970578  35.6320925
  61.8582692  43.7764445  36.4002937  62.5196038  42.9106601  36.3663109
  61.2027259  43.6984328  37.2676340  61.0092508  43.8230744  35.1190805
  60.7669414  44.8657683  34.9137159  61.6100174  43.4225824  34.3025114
  59.7159686  43.0143371  35.2447716  59.2474400  42.9489062  34.2627837
  59.9625864  42.0125821  35.5965751  58.7744065  43.6581879  36.2015986
  58.5454205  44.5862883  35.8755698  57.9308889  43.1065049  36.2665911
  59.2082027  43.7185267  37.1116970  65.1817958  44.5940573  36.8778347
  66.2212644  45.1681489  37.2034462  65.1345660  43.6872193  35.9225153
  64.3197641  43.0971573  35.8329384  66.2251967  43.4909859  35.0004767
  66.8181473  44.4021593  34.9212824  67.1450732  42.3411014  35.5075881
  66.5321024  41.4751518  35.2575937  68.0283637  42.3568660  34.8691139
  67.5867176  42.2519985  37.0063823  67.5094134  43.2570654  37.4210694
  66.7480607  41.2753196  37.8632153  66.8252496  40.2698911  37.4493864
  67.1222762  41.2760143  38.8869648  65.7046834  41.5906573  37.8580957
  69.0629577  41.8754162  37.0726623  69.6553555  42.6343185  36.5615542
  69.3758395  41.8119777  38.1148628  69.2143580  40.9103984  36.5890121
  65.5617287  43.1518136  33.6547600  64.7201503  42.2811158  33.5802346
  65.8536832  43.9057967  32.6161331  66.6043631  44.5803302  32.6559283
  65.0092161  43.8820950  31.4304748  64.1123795  43.2776707  31.5663220
  64.5857345  45.3209823  31.0973131  65.4887730  45.9139757  30.9524699
  63.7233780  45.3947966  29.8430649  62.8198703  44.8023766  29.9873326
  63.4500657  46.4321539  29.6499568  64.2824996  45.0027296  28.9934954
  63.8376241  45.8932468  32.2891227  64.4891855  45.8910180  33.1629447
  63.5296566  46.9153566  32.0687882  62.9564631  45.2845732  32.4920326
  65.7357493  43.1415986  30.2896011  66.9887140  43.1849802  30.2240614
  64.9615758  42.4156300  29.4193999  64.4075547  42.9719933  28.1629551
  64.8131684  43.9711507  28.0040139  63.3221550  43.0298033  28.2445919
  64.8605591  41.9754582  27.0904643  65.4524159  42.5084281  26.3463220
  63.9775727  41.5491786  26.6143108  65.6711388  40.9063966  27.7751056
  66.7424416  41.0989307  27.7173128  65.4579691  39.9170156  27.3704038
  65.2033501  40.9867740  29.2393649  64.2448005  40.4864448  29.3770300
  66.2300242  40.3855074  30.1896678  65.8452380  39.8514061  31.2262350
  67.4324499  40.5014469  29.9634523  47.4279559  40.1236774  66.5331119
  48.2057983  39.4805193  66.4955644  46.9635190  40.1240998  65.6362292
  46.8996882  39.9453759  67.3752765  47.9745429  41.5037643  66.6950090
  47.6625521  42.1290037  65.8584467  47.4476531  42.1330282  68.0056822
  47.4912908  41.4016900  68.8127382  48.0900912  42.9795687  68.2480509
  45.9870719  42.6404696  67.8747823  45.7299835  43.7050184  67.3009197
  45.0320349  41.8626624  68.3821061  44.0656682  42.1499722  68.3213747
  45.2786661  40.9891801  68.8251664  49.5093752  41.5414608  66.5759218
  50.1343716  40.5322080  66.1764443  50.0724495  42.7472071  66.7199161
  49.5026060  43.5006947  67.0771753  51.4540775  43.0534079  66.2990824
  52.0168536  42.1265649  66.1879770  51.4641988  43.8089473  64.9353146
  52.2373137  43.3079080  64.3527752  50.5196499  43.7717831  64.3925935
  51.8637303  45.2813445  65.0170029  51.2026724  46.1605296  65.8685057
  50.4005447  45.7844365  66.5035215  51.5543291  47.5049057  65.9156166
  51.0685479  48.1657076  66.6335708  52.5161605  48.0047268  65.0564099
  52.7697284  49.0646660  65.0746312  53.1568276  47.1554491  64.1723838
  53.9259543  47.5408396  63.5030420  52.8179384  45.8079852  64.1387805
  53.2976381  45.1431159  63.4204930  52.1744825  43.8501704  67.4041201
  51.5185903  44.3580182  68.3231729  53.5108696  43.8869336  67.3451298
  53.9927975  43.4869810  66.5527393  54.3144284  44.4069831  68.4586741
  53.8477110  44.1161024  69.3997705  55.7385958  43.8698273  68.4355250
  55.6648026  42.7884300  68.3204866  56.2695326  44.2901586  67.5814011
  56.4994316  44.1933419  69.7153907  55.8940167  44.1221522  70.8156438
  57.6918683  44.5484022  69.6199558  54.3261728  45.9432742  68.4995977
  54.9937878  46.6140089  67.6949642  53.5985186  46.4846092  69.4730363
  53.1360492  45.8881964  70.1442390  53.3558184  47.9489166  69.5467824
  53.1055007  48.3528585  68.5658281  52.2093265  48.3113446  70.5430294
  51.5235321  48.9887532  70.0342033  51.4354593  47.0671605  71.0318335
  52.1205535  46.3894536  71.5412047  50.6498735  47.3751588  71.7218271
  50.9890700  46.5576182  70.1778992  52.7423945  49.0217359  71.6681394
  52.0311838  49.2402756  72.2747860  54.5899470  48.8067107  69.8978378
  54.5463364  50.0274544  69.8030904  55.6815404  48.1613353  70.3105890
  55.6463958  47.1619645  70.4524412  56.9404442  48.8661498  70.6124364
  56.7245745  49.8537353  71.0200814  57.7562194  48.0777674  71.6441660
  58.7920331  48.4143706  71.6007212  57.3509422  48.2780450  72.6360023
  57.7008214  46.6845218  71.3835918  58.2182212  46.2150345  72.0419830
  57.8032599  49.0953201  69.3588212  58.7038267  49.9272297  69.3732396
  57.4680392  48.3812607  68.2875811  56.7059143  47.7214462  68.3501093
  58.2506550  48.4256271  67.0451685  59.2837314  48.2717306  67.3568867
  57.8449794  47.2752103  66.0915771  57.9282058  46.3225587  66.6146714
  56.8156688  47.4203267  65.7636124  58.7688928  47.2709618  64.8783210
  58.6858649  48.2231873  64.3544186  60.2090135  47.0672966  65.3367966
  60.2929325  46.1149941  65.8604151  60.8698345  47.0641819  64.4699594
  60.4950695  47.8769366  66.0081799  58.3693328  46.1378907  63.9391050
  57.3400230  46.2830092  63.6111396  59.0294245  46.1344049  63.0717135
  58.4525570  45.1852388  64.4621988  58.1897372  49.7959865  66.3141848
  59.2191425  50.3108735  65.8480719  56.9885214  50.3836243  66.2038792
  55.6624741  49.8574313  66.5548327  55.4313925  50.1080314  67.5901593
  55.6544770  48.7742629  66.4332547  54.7567100  50.5496696  65.5781877
  53.7649499  50.6623259  66.0161598  54.6849958  49.9593650  64.6646785
  55.3851144  51.8716853  65.3084836  55.0776735  52.5694911  66.0873586
  55.1346745  52.2850882  64.3315099  56.8926783  51.6220479  65.3990499
  57.3585738  51.4334873  64.4318455  57.5826579  52.8086073  66.0738172
  58.1151990  53.6607263  65.3824257  57.5884531  52.8480697  67.4079409
  57.1329245  52.1095783  67.9248775  58.1840960  53.9504724  68.1559695
  57.9351820  54.9082536  67.6990272  57.6655084  53.9483835  69.6128949
  56.5763018  53.9837008  69.5909437  58.1218938  52.6933282  70.3741501
  59.2110686  52.6575621  70.3969222  57.7385819  52.7268740  71.3939765
  57.7401083  51.8043409  69.8721123  58.1417264  55.1081681  70.2947344
  57.8179751  55.1035383  71.1984844  59.7335663  53.9311016  68.1801269
  60.3775147  54.9435734  68.4939251  60.3091280  52.7761143  67.8596537
  59.7261843  51.9612997  67.7317741  61.7645728  52.6067585  67.7957389
  62.2511068  53.3744063  68.3974870  62.1737687  51.2268364  68.3354847
  63.1846385  51.0086243  67.9910650  62.1621648  51.2661841  69.4247125
  61.2968057  50.2131504  67.8921500  61.5804350  49.3671894  68.2464156
  62.3430468  52.8415402  66.3915173  63.5448676  52.6675536  66.1815256
  61.4822650  53.1967750  65.4344238  60.4981202  53.0912310  65.6354682
  61.8759035  53.6296871  64.0845176  61.0192156  53.5655482  63.4136440
  62.3659224  55.0522758  64.1040116  63.2003278  55.1080336  64.8031239
  62.6894051  55.4036836  63.1242303  61.3463481  56.0136148  64.5835795
  60.6079203  56.7943095  63.7267678  60.6985908  56.7907262  62.7208524
  59.7736065  57.5378055  64.4273241  59.1097333  58.2443539  63.9291668
  59.9272774  57.2475788  65.7059968  60.8962451  56.2859734  65.8290730
  61.1579690  55.8989009  66.8138454  62.8944741  52.7493843  63.4139494
  63.9035025  53.2245819  62.8699999  62.6006167  51.4532448  63.4133301
  61.7299730  51.1313346  63.8113913  63.5459462  50.4583736  62.9236482
  64.5098013  50.6132499  63.4085151  63.0798120  49.0101095  63.2018205
  63.1552186  48.4330435  62.2801866  63.9450915  48.3591035  64.2830881
  63.8698254  48.9353898  65.2052209  63.5989466  47.3411527  64.4621385
  64.9837219  48.3363967  63.9531913  61.7175638  49.0109264  63.6375029
  61.4356180  48.1092494  63.8080471  63.8257253  50.6324831  61.4231291
  64.8700950  50.1954740  60.9386336  62.9041754  51.2868266  60.7140018
  62.0697054  51.5810400  61.2010313  63.0152207  51.5848079  59.2838724
  63.1983191  50.6723651  58.7164023  61.7017903  52.2068304  58.8000650
  61.7710282  52.2682442  57.7140016  60.8881385  51.5353874  59.0743550
  61.4300507  53.5924850  59.3701894  60.7916441  53.7585884  60.6011043
  60.4828442  52.8736900  61.1576084  60.5507154  55.0121930  61.1136227
  60.0688087  55.1306546  62.0841043  60.9128313  56.1260938  60.3819007
  60.6723426  57.3861661  60.8678677  60.2465539  57.3814332  61.7282637
  61.5318089  55.9949190  59.1606035  61.8142506  56.8774743  58.5866495
  61.7945401  54.7362877  58.6634922  62.2955563  54.6237002  57.7020314
  64.1629013  52.5513544  58.9294404  64.3837575  52.8553686  57.7491413
  64.8524023  53.0556209  59.9487046  64.6390216  52.7476804  60.8866496
  65.8797708  54.0421957  59.7737213  65.7126072  54.6187776  58.8639363
  65.8434684  54.9841748  60.9563940  65.3122189  54.4366876  61.7349381
  66.8741507  55.1512710  61.2692405  65.1658795  56.3144051  60.7249384
  64.0959094  56.1682087  60.5769808  65.3948513  57.1926706  61.9574624
  66.4646522  57.3397055  62.1058058  64.9127722  58.1591171  61.8102155
  64.9704163  56.7055041  62.8353145  65.7004975  57.0122232  59.4734220
  65.5240708  56.3817985  58.6019073  65.1883556  57.9653188  59.3414343
  66.7706297  57.1875931  59.5837014  67.2516832  53.4006166  59.6661555
  68.2275209  54.0350615  59.3347141  67.3312121  52.1439547  60.0293070
  66.5063066  51.6038126  60.2481149  68.6182400  51.4970558  60.1252806
  68.6729001  50.7511406  59.3323607  69.3826897  52.2567182  59.9620967
  68.8700564  50.8253356  61.4474071  68.2988571  51.1437872  62.4752033
  69.7588935  49.8444768  61.4239454  70.4705166  49.8006197  60.7085654
  69.6979480  48.7766048  62.3963409  68.6621015  48.4481802  62.4815367
  70.5456242  47.5998290  61.9017069  71.5871744  47.9106401  61.8200399
  70.4679726  46.7732425  62.6079826  70.1855679  47.2773293  60.9247459
  70.1662091  49.2010842  63.7842350  69.4977483  48.9819648  64.8022506
  71.3519185  49.7957359  63.8132257  71.9339694  49.7842832  62.9878864
  71.8689552  50.4285613  65.0096416  71.0744720  50.4810425  65.7540483
  73.0198536  49.5604348  65.5746782  72.6500409  48.5563219  65.7822718
  73.8269640  49.5059885  64.8441248  73.5433252  50.1866219  66.8652580
  72.9996431  49.8247854  67.9427949  74.4818865  51.0208212  66.7612675
  72.3753898  51.8739449  64.7574228  73.0369011  52.1571837  63.7626321
  72.0106702  52.7747819  65.6634395  71.3391001  52.5328496  66.3779754
  72.6026600  54.0694616  65.7038204  73.2703138  54.2017718  64.8524500
  71.5213229  55.1381134  65.6443536  71.2966869  55.4269684  66.6710964
  71.9402174  55.9913135  65.1108022  70.2467924  54.6876478  64.9557537
  70.5135327  53.9286059  64.2203587  69.5952939  54.2480084  65.7109814
  69.3729965  56.0336715  64.1290676  68.1236068  54.9984772  63.3646960
  67.5627655  54.4738238  64.1381912  67.4435759  55.6194193  62.7815239
  68.6041100  54.2721742  62.7091795  73.2902129  54.1884833  67.0403363
  72.8815308  53.5463119  67.9912774  74.3192477  55.0200793  67.1261821
  74.7062251  55.4238389  66.2851553  74.9462958  55.3620591  68.4205694
  75.2900716  54.4585296  68.9241086  76.1570660  56.3121944  68.2257379
  76.9112830  55.8193667  67.6122424  75.8269140  57.2255042  67.7307987
  76.7492317  56.6553696  69.5717212  75.9956860  57.1486781  70.1856564
  77.0800569  55.7425419  70.0670993  77.9409972  57.5905946  69.3799485
  77.7076585  58.8287985  69.3822746  79.0733421  57.0578760  69.2329580
  73.9055323  56.0297979  69.3208590  73.2036187  56.9311899  68.9216026
  73.8126808  55.5664052  70.5650904  74.4129029  54.8103236  70.8620305
  72.7719402  56.0330077  71.4894882  72.0847433  56.6927170  70.9597304
  71.9731210  54.8531679  72.0673721  72.5961062  54.3933095  72.8345220
  71.0784907  55.2711423  72.5289283  71.5648312  53.7851857  71.0271569
  70.6240398  53.3443465  71.3568129  71.4073209  54.3165327  70.0885622
  72.6156521  52.6628199  70.8157962  73.3968830  52.3822560  71.7610618
  72.6603075  52.0400467  69.7123373  73.3863955  56.9194614  72.5682933
  74.5608467  56.7562421  72.9764473  72.5915461  57.8652061  73.0485771
  71.6300617  57.9188878  72.7440030  73.0692011  58.8541948  74.0162010
  74.0717380  58.5900901  74.3527536  73.1184111  60.2367141  73.3776457
  72.1262918  60.3515144  72.9410457  73.3245576  61.0800409  74.0367386
  74.0836936  60.3257816  72.2627778  73.8440386  59.6318264  71.1070626
  72.9168155  59.0706155  70.9913057  74.7450079  59.6423122  70.1226007
  74.5398966  59.1244430  69.1856687  75.9490423  60.3170473  70.2951632
  76.6808983  60.3019808  69.4875372  76.2228192  60.9927363  71.4552423
  77.1523525  61.5457689  71.5902343  75.3050962  60.9615395  72.4466597
  75.5195630  61.4384408  73.4030431  72.1135469  58.8591731  75.1923278
  70.9424186  59.2103509  75.0444671  72.6371201  58.4477709  76.3593678
  73.5674337  58.0545794  76.3634034  71.8851197  58.4541937  77.6059219
  70.8794492  58.0767360  77.4208501  72.5624911  57.5549189  78.6536914
  72.6217887  56.5349144  78.2739892  73.5672920  57.9256101  78.8563324
  71.8531431  57.4798846  79.9845921  72.3381870  56.7100898  81.0354236
  73.1761442  56.1464237  81.0209974  71.5113743  56.8450681  82.0555034
  71.7084700  56.3197544  82.9900074  70.5376759  57.6511000  81.7115208
  70.7114812  58.0698459  80.4293182  69.9905607  58.7499572  79.9756404
  71.7185789  59.9198594  78.0921628  72.6211098  60.5084721  78.7275391
  70.5567021  60.4748661  77.7872250  69.9898965  60.1017453  77.0391531
  70.0610831  61.6353758  78.5169764  68.9869245  61.6781835  78.3368381
  70.2442502  61.4377372  79.5731432  70.6786492  62.9769891  78.1498379
  70.5271158  63.4653802  77.0232716  71.4976289  63.5348180  79.0422309
  72.4752660  63.5515898  78.7891623  71.0915714  64.1492334  80.3436813
  70.1731099  63.7142846  80.7378223  72.2290725  63.8394791  81.3070984
  72.1043021  64.4780547  82.1815998  72.1350320  62.7949697  81.6041786
  73.6301761  64.0764721  80.6908678  74.2521500  64.4612642  81.4990659
  73.9947673  63.0948126  80.3883451  73.6950453  65.0495135  79.4787625
  73.3533385  64.5419402  78.5767066  73.0649884  65.9188956  79.6666523
  75.0575876  65.4995034  79.2707467  75.5626877  65.1187875  78.4833277
  75.6727189  66.3836583  80.0523326  76.9573704  66.6548867  79.8517567
  77.4586052  66.1893456  79.1086986  77.4271066  67.3254269  80.4432154
  75.0061270  67.0050344  81.0355090  74.0283245  66.8014153  81.1856478
  75.4847439  67.6739783  81.6216307  70.8487926  65.6594303  80.5351905
  70.8372677  66.1388410  81.6695456  70.7676215  66.4030242  79.4555353
  70.6011611  65.9843179  78.5516131  70.9857205  67.8551089  79.5213600
  71.5050856  68.1121747  80.4445481  71.8307470  68.3832723  78.3058973
  72.8301241  68.6188294  78.6717641  71.9335319  67.3444526  77.1435213
  70.9345054  67.1087367  76.7768012  72.5282456  67.7640084  76.3321104
  72.4096567  66.4348137  77.5095306  71.2449031  69.5890452  77.7905540
  71.7654943  69.9061397  77.0489098  69.6472373  68.5919377  79.5897852
  68.9161097  68.6233736  78.5935893  69.3078670  69.1469454  80.7687221
  69.7221810  68.8003578  81.6221390  68.2399987  70.1516791  80.8705472
  67.9025255  70.4227519  79.8701820  67.0290782  69.6104384  81.6719609
  67.5239591  69.0748512  82.4821081  66.4231623  70.4160901  82.0865589
  66.1107165  68.6228044  80.8788242  66.0119753  68.9915947  79.8578714
  66.6903647  67.1979667  80.8551895  66.7889715  66.8282993  81.8758371
  66.0231306  66.5429641  80.2949475  67.6702712  67.2116712  80.3780147
  64.6361083  68.5989760  81.3463003  64.2026298  69.5927211  81.2337545
  64.0741112  67.8873651  80.7414279  64.5911911  68.3000305  82.3935409
  68.7817106  71.4528154  81.4241088  69.6316485  71.4461888  82.2837667
  68.3213613  72.5793223  80.8558318  67.5326184  72.4970743  80.2303566
  68.7871085  73.9134586  81.2079353  69.8131099  73.8380991  81.5681316
  68.7521619  74.9066618  80.0105369  67.8033053  75.3074609  79.6539831
  69.3248047  75.7012220  80.4889241  69.5239766  74.4931645  78.7990786
  70.8592888  74.1473082  78.8516015  71.3988672  74.0576015  79.7006643
  71.3079692  73.9555671  77.6198847  72.3275833  73.6105081  77.4483607
  70.3368401  74.2492888  76.7710945  69.2246026  74.6358554  77.4832202
  68.3315770  74.9743536  76.9578389  67.7716685  74.5191878  82.1671703
  66.5521385  74.4322874  81.9250133  68.2655291  75.1351071  83.2233469
  69.2624726  75.2346825  83.3509703  67.3792827  75.5599208  84.3120561
  66.6238312  74.7925519  84.4809856  68.1609507  75.7818647  85.6276347
  69.1890370  75.9930905  85.3334896  67.7497319  76.6434938  86.1535572
  68.1349031  74.5430930  86.5644016  67.1165211  74.3260637  87.2689705
  69.1531346  73.8229577  86.6159354  66.5302932  76.7990563  83.9205487
  66.8867165  77.5650284  82.9981458  65.3930737  76.9437456  84.5951470
  65.2348255  76.4334790  85.4522846  64.2866940  77.7004358  84.0283718
  64.1754072  77.4695702  82.9689307  62.9968649  77.3316256  84.7441225
  62.8244095  77.9923711  85.5936952  62.2098097  77.4786621  84.0045115
  62.9846805  75.8646714  85.2230317  64.0743736  75.3291828  85.5500956
  61.8852715  75.2765504  85.3350962  64.5596943  79.2242390  83.9820748
  65.3529554  79.8099568  84.7578282  63.9222004  79.8410741  83.0069865
  63.4700035  79.2354109  82.3370691  63.9876604  81.2977201  82.7095282
  63.3442085  81.5125540  81.8563488  63.5259313  82.1672566  83.9107795
  64.0205342  81.8556448  84.8307606  63.8496315  83.1743664  83.6480095
  61.9533086  82.1566531  84.1261935  61.2520223  81.4417133  83.3864715
  61.4353804  82.8015933  85.0912094  65.3277911  81.7534042  82.1274813
  65.4744098  82.9138542  81.7512689  66.2634887  80.8067937  81.9634665
  66.0594990  79.8631776  82.2602428  67.5903140  81.0938267  81.4415425
  68.0590729  81.8821182  82.0305764  68.4759987  79.8315000  81.5132224
  69.4859165  80.1122301  81.2142979  68.4863278  79.4865743  82.5471564
  68.0107576  78.7991456  80.6797152  68.5912252  78.0385356  80.7580069
  67.5576260  81.6374875  79.9956236  66.5246746  81.5857790  79.2993918
  68.6850188  82.2371273  79.5747919  69.3951507  82.5057901  80.2408493
  68.8503219  82.6444435  78.1892940  67.9469736  82.3807302  77.6392791
  69.0929132  84.1338519  78.0372080  69.8131201  84.5134882  78.7619683
  69.4153097  84.4015282  77.0309725  67.5609496  85.0429279  78.3304781
  68.0772958  86.2526840  78.1335646  69.9159186  81.8249358  77.5203039
  71.0852760  81.8665121  77.8885101  69.4835233  81.0692108  76.5186558
  68.5132806  81.1322052  76.2452325  70.3420764  80.1476966  75.7995799
  71.3548150  80.1829129  76.2011013  69.8079789  78.7325179  75.9520369
  68.9415384  78.6562956  75.2950968  70.5930414  78.0654236  75.5960002
  69.4127767  78.3403037  77.3509251  68.8135679  79.0545943  77.9155831
  68.8305149  77.4353260  77.1774642  70.6112327  77.9869464  78.1536274
  70.7719161  76.8465377  78.5858377  71.5466371  78.8949941  78.2021974
  72.3892604  78.7198410  78.7307887  71.4238281  79.7689078  77.7109804
  70.3852991  80.5188352  74.3097672  69.4445398  81.0917955  73.7552904
  71.4592865  80.1096245  73.6669681  72.3187949  79.9585081  74.1754054
  71.5082262  80.1073955  72.2215844  70.5781667  80.4168697  71.7448096
  72.6424363  80.9992506  71.7070470  73.2295144  81.3211282  72.5671826
  73.5527978  80.2839668  70.7077837  72.9664751  79.9621780  69.8470987
  74.3373688  80.9650623  70.3781510  74.0043060  79.4141341  71.1848927
  72.0407357  82.2924548  71.1342118  71.4886573  82.8142908  71.9158759
  72.8410896  82.9339040  70.7653268  71.3651559  82.0475436  70.3146318
  71.4568689  78.6664425  71.7109370  72.2403229  77.8056463  72.1212452
  70.4476162  78.3803283  70.9154010  69.7206869  79.0626718  70.7539065
  70.3200818  77.0600079  70.2763876  71.1866195  76.4453017  70.5200015
  69.0716868  76.3967392  70.7977124  68.2089101  76.8476999  70.3074561
  69.0843125  74.9074432  70.5266941  69.9466119  74.4556802  71.0170518
  68.1698848  74.4591484  70.9152228  69.1455462  74.7336230  69.4523868
  68.9711326  76.6077328  72.2984431  69.8263757  76.1129317  72.7586951
  69.0288028  77.6801136  72.4849187  67.6857103  76.0580284  72.8964955
  67.6275520  74.9855366  72.7108112  67.6768544  76.2412240  73.9709536
  66.8299786  76.5527173  72.4370328  70.2681979  77.1622172  68.7391113
  69.6080278  78.0230759  68.2031088  71.0358958  76.3096659  68.0282483
  71.8299027  75.2009635  68.5901585  71.3762263  74.8437289  69.5146375
  72.8491053  75.5315314  68.7902834  71.7641793  74.1925049  67.4927221
  70.8546668  73.5966537  67.5691906  72.6325557  73.5342896  67.5205897
  71.7671025  75.0266560  66.2539678  71.3635978  74.4451728  65.4250165
  72.7465719  75.4183388  65.9795158  70.8402441  76.1543190  66.5828668
  71.0617068  77.1173649  66.1228720  69.4459146  75.7189036  66.1925431
  68.8699566  74.9253108  66.8874913  68.9178962  76.2264305  65.0952834
  69.4343287  76.9224011  64.5766103  67.6504190  75.7342525  64.5316608
  67.1862339  74.9717454  65.1571320  66.6477766  76.8984888  64.3449629
  67.0690519  77.6235250  63.6485801  65.3231991  76.3736057  63.7937069
  64.9010589  75.6488079  64.4898152  64.6274424  77.2030962  63.6673405
  65.4946821  75.8938799  62.8300895  66.4136616  77.6681726  65.6430195
  67.3573950  78.0860527  65.9935127  65.7035014  78.4755288  65.4642793
  66.0127532  76.9930778  66.3990754  67.8799630  75.2248579  63.1725332
  68.2479271  76.0470900  62.3337402  67.5821369  73.9344862  62.9076546
  67.2398162  73.3018204  63.6166326  67.7414743  73.4141970  61.5028288
  68.7031168  73.7736407  61.1365733  67.6947338  71.8897039  61.3424351
  66.6740739  71.7590769  60.9828669  68.3937977  71.6913641  60.5299876
  67.9573451  70.9206981  62.4845319  67.3497624  71.2245891  63.3369370
  67.6131439  69.4785065  62.1010023  68.2207027  69.1737272  61.2488986
  67.8155140  68.8193297  62.9451783  66.5578906  69.4145638  61.8355743
  69.4018388  70.9825280  62.9377073  69.6331567  71.9914592  63.2792468
  69.5572315  70.2782646  63.7550000  70.0557595  70.7224037  62.1053479
  66.6837849  73.8767016  60.5636692  65.5252783  73.7403710  60.8547109
  67.0841272  74.2407170  59.3926744  68.2875788  73.6500861  58.8127938
  68.1119226  72.6016446  58.5719295  69.1182277  73.7269362  59.5143744
  68.4946386  74.5101122  57.5697144  68.6500720  73.8592895  56.7092673
  69.3744162  75.1372524  57.7138948  67.2300135  75.3686214  57.4031421
  66.8620584  75.2497147  56.3840399  67.3778599  76.4277137  57.6142456
  66.2303816  74.7781769  58.3859672  65.5838996  75.5218059  58.8519878
  65.3480796  73.6737331  57.7016522  65.6825410  72.4300402  57.6409096
  64.1907022  74.0858382  57.2757685  63.9195316  75.0579438  57.3154740
  63.2796528  73.1289697  56.6034996  62.6135373  73.6912426  55.9491001
  64.0191252  72.0685092  55.7609623  64.4185907  71.3769845  56.5027979
  63.2233088  71.5787133  55.1998239  65.1183927  72.4815875  54.8165030
  64.8788919  73.4333223  54.3422235  66.0364992  72.5852880  55.3948012
  65.3444884  71.4328434  53.7229018  66.4611502  70.9339905  53.5300230
  64.2637737  71.0686335  53.0201466  64.3509611  70.3807245  52.2857891
  63.3666875  71.4835983  53.2278530  62.5235120  72.2735470  57.5685592
  61.6789562  71.4928024  57.1083091  62.8789225  72.2359053  58.8472478
  63.6647756  72.7351598  59.2387565  62.0915364  71.4082073  59.7228420
  61.6904430  70.5725375  59.1493620  62.8827900  70.8469058  60.9261231
  62.9767947  71.6202180  61.6885210  62.1553936  69.6524537  61.5063012
  62.0614078  68.8784814  60.7445699  62.7174452  69.2607650  62.3541092
  61.1629191  69.9569918  61.8384947  64.2734831  70.4303216  60.4961436
  64.8041038  71.2936651  60.0946690  64.8174624  70.0373354  61.3550661
  64.2014777  69.6596365  59.7287060  60.9928308  72.2869093  60.1885765
  61.2583806  73.3321829  60.7358346  59.7659975  71.9333789  59.8895591
  59.5777174  71.0961368  59.3569470  58.6488734  72.7413897  60.3101992
  59.0001211  73.4682275  61.0426137  57.9835319  73.5046079  59.1337096
  58.5206772  73.2286586  58.2262812  56.9530714  73.1558789  59.0655964
  57.9971921  75.0246021  59.2910280  56.9500316  75.3238529  59.2462546
  58.3827461  75.2024401  60.2949323  58.9577821  76.0176705  58.0936341
  60.4935822  75.1133665  57.8412113  60.2713184  74.1214758  57.4477007
  61.1211182  75.6528828  57.1318302  61.0196228  75.0173697  58.7910361
  57.6599885  71.8350941  60.9247519  57.1097844  71.0028054  60.2689608
  57.4861479  71.9632678  62.2267768  57.9328823  72.7293111  62.7102077
  56.6790304  71.0618024  62.9861512  55.6872140  71.0090155  62.5371378
  57.2799431  69.6361812  63.0269308  56.5755483  68.9894364  62.5038166
  58.2155088  69.6797080  62.4693267  57.5471121  69.0716861  64.4328672
  58.5093456  69.4582977  64.7686334  56.7595219  69.4362867  65.0923140
  57.5803067  67.2603290  64.4891402  56.3109864  66.9617314  65.7023097
  55.3662209  67.3756016  65.3498489  56.2014380  65.8884384  65.8576864
  56.5873711  67.4381537  66.6429130  56.6669937  71.6870269  64.3633892
  57.6204585  72.4038968  64.7347469  55.5641581  71.5617744  65.0805917
  54.7246193  71.1282396  64.7237704  55.5132956  72.1797580  66.3729408
  56.3762860  72.8410043  66.4510435  54.2403347  72.9861544  66.5550241
  53.3739375  72.3251394  66.5323197  54.3035261  73.6783323  67.8770535
  55.1694692  74.3399219  67.9003454  53.3958578  74.2633915  68.0251910
  54.3914342  72.9375383  68.6717833  54.1326926  74.0628677  65.4327684
  53.5689769  74.8916158  65.8611398  55.1524833  74.3867837  65.2249109
  53.4596439  73.6073040  64.1191025  52.4395931  73.2836569  64.3261016
  53.4406506  74.4375191  63.4130704  54.0230987  72.7788227  63.6898737
  55.7128904  71.0622386  67.3409869  54.9287945  70.1128394  67.3459779
  56.8315353  71.0776032  68.0452649  57.3679702  71.9266053  68.1526537
  57.3343995  69.8575562  68.6696109  56.8615576  68.9780566  68.2325753
  58.8286746  69.7717966  68.4331536  58.8700255  70.1022643  67.3952806
  59.3173494  70.5102235  69.0687815  59.5442783  68.4317615  68.5685429
  60.0053583  68.1602296  67.6189237  60.6270577  68.5596095  69.6429994
  60.1666593  68.8306882  70.5930775  61.1472491  67.6077872  69.7504050
  61.3393725  69.3315201  69.3516888  58.6076528  67.2397910  68.8340099
  57.9004594  67.1422598  68.0103203  59.1961497  66.3260756  68.9170569
  58.0620399  67.4056237  69.7629368  57.0259342  69.8823942  70.1700972
  57.0983053  70.9571289  70.8018542  56.6165537  68.7498421  70.7253903
  56.6816287  67.8739318  70.2267465  56.1131641  68.7310242  72.0855781
  56.0235433  69.7461029  72.4724666  54.7805084  68.0346473  72.1894775
  54.8894034  66.9904761  71.8963071  54.2858410  68.1088481  73.6299800
  54.1762517  69.1527820  73.9237362  53.3219168  67.6063097  73.7100175
  55.0052573  67.6205692  74.2873407  53.7614086  68.6461568  71.2246586
  53.2114674  69.4190320  71.7616218  54.3097921  69.0986832  70.3984655
  52.7827786  67.6128889  70.6789795  52.2336578  67.1602305  71.5046105
  52.0818448  68.0985727  70.0000817  53.3319832  66.8398800  70.1414559
  57.0584224  67.9539744  72.9715247  57.5411730  66.8940947  72.5841736
  57.3436471  68.4946043  74.1598699  57.1842754  69.8984237  74.5293989
  56.1287603  70.1676180  74.4903789  57.7441395  70.5237842  73.8340031
  57.7465267  69.9513970  75.9349014  57.1060512  70.5726380  76.5609603
  58.7506890  70.3746739  75.9104861  57.7754490  68.5306731  76.4197272
  56.8051594  68.2266813  76.8124433  58.5451411  68.3415255  77.1679898
  58.0800904  67.7669844  75.1697963  59.1386120  67.8300144  74.9174918
  57.6711986  66.3112922  75.2697156  56.4677284  65.9990206  75.3718128
  58.6572024  65.4174168  75.1787371  59.6056682  65.7305337  75.0288380
  58.4111641  63.9814837  75.2896708  59.2940007  63.5281229  75.7404066
  57.5548317  63.8422744  75.9495306  58.1309914  63.3057819  73.9746882
  58.2563596  62.0836105  73.8749345  57.7258523  64.0889984  72.9628916
  57.6518056  65.0864083  73.1035681  57.4201606  63.5538205  71.6452971
  56.7255645  62.7199606  71.7468509  56.7867496  64.6076691  70.7504801
  55.8283969  64.9024653  71.1779781  57.4462835  65.4743641  70.7062692
  56.5725454  64.0715624  69.3658172  57.5174318  64.1477237  68.8277743
  56.2662772  63.0266333  69.4150605  55.5398914  64.8337971  68.6209078
  54.6750916  64.2336716  67.9301346  55.6138854  66.1693239  68.7151578
  54.9396472  66.7448025  68.2310828  56.3435194  66.5937193  69.2697966
  58.7008681  63.1176111  70.9924544  59.7182493  63.7403325  71.1768983
  58.6496043  62.0744011  70.1850822  57.8427942  61.4687073  70.1372082
  59.8200793  61.6919205  69.4817716  60.6888542  62.1839266  69.9191036
  60.0435515  60.2008115  69.5142421  59.5412822  59.7858166  70.3880871
  59.4800140  59.5414935  68.2350504  59.9821648  59.9556775  67.3607531
  59.6498242  58.4655513  68.2751996  58.4100418  59.7375964  68.1657413
  61.4472178  59.9533911  69.6200856  61.6045021  59.0066129  69.6418337
  59.8200513  62.2686385  68.0595493  58.7876531  62.3944200  67.4339433
  60.9997033  62.6645775  67.5807354  61.8250140  62.5394563  68.1493355
  61.1529702  63.2793095  66.2599508  60.2183468  63.1765337  65.7085750
  61.5049170  64.7790181  66.3589531  60.5497417  65.2268244  66.6331957
  62.2192614  64.9231951  67.1695240  62.0428071  65.4568490  65.0683112
  62.9182010  64.8996655  64.7346453  60.9969371  65.4877623  63.9440295
  60.1213765  66.0452109  64.2768108  61.4222574  65.9713451  63.0646257
  60.7038577  64.4687007  63.6916048  62.5538653  66.8616705  65.3544336
  63.3626661  66.8131479  66.0835333  62.9234167  67.3093390  64.4318687
  61.7420281  67.4700178  65.7530974  62.2787738  62.5748747  65.4799591
  63.4360429  62.6961260  65.8453784  61.9342922  61.9072634  64.3590922
  60.6195045  61.5757967  63.8039299  60.1800051  62.4691170  63.3601739
  59.9727165  61.2113405  64.6020126  60.9301912  60.4947696  62.7646166
  60.8677588  60.9124217  61.7597445  60.2235193  59.6703115  62.8594072
  62.2942528  60.0540302  63.0778782  62.7589686  59.7136874  62.1525107
  62.4016264  59.2843972  63.8422312  62.9493686  61.3358557  63.5408604
  63.8404309  61.1589781  64.1432063  63.2976594  62.3063673  62.3715902
  62.4266851  63.0931460  61.9008620  64.5708624  62.2934338  61.9606696
  65.2406487  61.6770543  62.3983476  65.0369410  63.1954456  60.9519479
  64.2149670  63.6026402  60.3631775  65.7093716  64.3110102  61.6624609
  65.9988873  63.9302677  62.6419072  66.5870624  64.7109809  61.1547382
  64.6879357  65.4013652  61.8308818  63.7417974  64.9467905  62.1246247
  65.1192945  66.4116112  62.8940609  66.0651933  66.8669730  62.6007694
  64.3582325  67.1859762  62.9902078  65.2424593  65.9032236  63.8503417
  64.4564645  66.0362417  60.4296502  64.0929054  65.2740745  59.7404293
  63.7189146  66.8348443  60.5093703  65.3951594  66.4452737  60.0559610
  65.9590979  62.5303183  59.9267195  66.5678621  61.4868741  60.2097202
  65.9983517  63.0792636  58.7130988  65.2567093  63.6989339  58.4197138
  66.9840456  62.6781716  57.7341460  67.8646538  62.3306388  58.2743768
  66.5310885  61.5837096  56.7930249  65.4838623  61.7686306  56.5538163
  67.1298348  61.6620405  55.8855740  66.6783718  60.1861909  57.3787179
  67.7008570  60.0914496  57.7442981  65.9824532  60.0312076  58.2032054
  66.4349657  59.1081633  56.3257565  67.2893119  58.8625841  55.4617145
  65.2682758  58.4978773  56.3582786  65.0598250  57.7770889  55.6821767
  64.5874586  58.7534949  57.0591701  67.5054189  63.8707048  57.0095665
  66.7562349  64.6814904  56.4299494  68.8178235  64.0440839  57.1446173
  69.3748420  63.3674463  57.6466046  69.4645898  65.2857919  56.6992786
  68.7214559  65.9815611  56.3097193  70.1677838  65.9357445  57.8731976
  70.9559326  65.2638924  58.2131028  70.6039568  66.8949551  57.5943280
  69.1536926  66.1452197  59.0022056  68.6076631  65.2115568  59.1372104
  69.8009570  66.5397818  60.3020158  70.3468296  67.4736648  60.1679096
  69.0337002  66.6742775  61.0644650  70.4918843  65.7576280  60.6165876
  68.1567222  67.2173974  58.5861062  67.6371365  66.8999194  57.6820388
  67.4323313  67.3707683  59.3860040  68.6857161  68.1504224  58.3918673
  70.3733734  65.0470269  55.5011302  71.0984752  64.0462690  55.4191125
  70.2502869  65.9251206  54.5064980  69.7301131  66.7806580  54.6390660
  70.8793406  65.6875723  53.1997600  71.3892320  64.7242675  53.1873564
  69.8095531  65.6782496  52.1444856  69.1408870  66.5369264  52.2049758
  70.3157710  65.6798980  51.1791666  68.9551250  64.4749852  52.1711745
  68.4126415  64.0026974  53.3718168  68.6210643  64.5420358  54.2958157
  67.6283992  62.8778572  53.3963630  67.2101084  62.5089258  54.3328581
  67.3673804  62.2018704  52.1989859  66.8048369  61.2687758  52.2302764
  67.8193900  62.7096934  50.9674611  67.5543102  62.2288362  50.0258618
  68.6147257  63.8415002  50.9662259  68.9823637  64.2482351  50.0241490
  71.8926075  66.7970115  52.8445394  73.0145830  66.5108621  52.3581183
  71.5273809  68.0282858  53.1763471  70.6161503  68.2223887  53.5663243
  72.3930552  69.1480566  52.8614216  72.8751327  68.9794700  51.8984683
  71.6072462  70.4236430  52.7872824  71.2532418  71.0344147  53.6177871
  72.4117679  70.9461571  52.2697654  70.4853339  70.3203958  51.8298405
  69.2631056  69.8296321  52.2237985  68.9992447  69.6493019  53.1818998
  68.5064330  69.6369591  51.1629834  67.4688110  69.3189467  51.2645100
  69.2324863  69.8940902  50.0909287  70.4945063  70.2631043  50.4837125
  71.2666207  70.4449524  49.7361353  73.5303865  69.2242047  53.8305206
  73.3572836  69.0106505  55.0392207  74.7465502  69.4530005  53.2880194
  75.0398140  69.9778472  51.9539863  74.3406428  70.7785612  51.7129114
  74.9459454  69.1801413  51.2171329  76.4451889  70.4650780  52.0898593
  76.4474597  71.5196888  52.3653405  76.9757499  70.3353439  51.1465802
  77.0475944  69.6235630  53.1578009  77.8603342  70.1805155  53.6240165
  77.4117185  68.6455583  52.8431264  75.9103758  69.4591205  54.1370014
  75.9799902  68.5049752  54.6593602  75.8055113  70.5792198  55.1469099
  76.3715530  70.3948805  56.2331736  75.0372562  71.6665260  54.8465662
  74.7159610  71.8298139  53.9030590  74.7162288  72.6685828  55.8765650
  75.6622709  73.1449467  56.1338218  73.6876949  73.7688323  55.5286985
  73.0081930  73.8210718  56.3793731  74.2556312  74.6966771  55.4604891
  72.9162263  73.5778483  54.2993953  72.5043964  72.5698800  54.3493636
  72.1083184  74.2924929  54.1423280  73.8474050  73.6532561  53.1453823
  73.9624591  72.7122949  52.3725281  74.6165510  74.7482063  53.0752654
  75.2694885  74.8549313  52.3121246  74.5398643  75.4618295  53.7858724
  74.2186239  72.0230312  57.1438371  74.8681684  72.1416865  58.1880103
  73.0651520  71.3413735  57.0416842  72.5579636  71.3787295  56.1690652
  72.4632811  70.6191897  58.1638972  72.2649792  71.3057485  58.9869480
  71.1358329  69.9808213  57.7262978  71.3931928  69.1759586  57.0377769
  70.6855648  69.5593651  58.6250376  70.1205838  70.9468797  57.0403289
  69.5955470  71.4697858  57.8397076  70.7140928  71.6603823  56.4686994
  69.0789892  70.2590631  56.0949189  69.1985107  69.0395533  55.7582523
  68.1197537  70.9646759  55.6895058  73.4474255  69.5756922  58.7260854
  73.7068051  69.5557500  59.9147307  74.0086694  68.7590443  57.8409332
  73.8241896  68.9271527  56.8622575  74.8766358  67.6458077  58.1985680
  74.4260736  66.8602647  58.8052104  75.3295080  67.0444444  56.8888699
  75.5687515  67.8585201  56.2046605  76.5480402  66.1550175  57.0625512
  76.3094119  65.3403886  57.7463182  76.8391575  65.7438769  56.0959517
  77.3714342  66.7414672  57.4702284  74.1721683  66.3119232  56.2614829
  73.3539381  67.0095117  56.0826764  74.4888895  65.8738919  55.3149545
  73.8351286  65.5216213  56.9322495  76.1149379  68.0729609  59.0183205
  76.6282846  67.3112769  59.8706477  76.5717760  69.3039859  58.7853004
  76.1887848  69.8474370  58.0249860  77.6236276  69.9074098  59.6105161
  78.4668503  69.2231537  59.7046870  78.1236804  71.2257868  58.9441842
  78.3993986  70.9845658  57.9175922  77.2864419  71.9237256  58.9405491
  79.2447774  71.8266886  59.6122384  79.4989588  72.6296733  59.1515788
  77.1247889  70.2418815  60.9869745  77.7353205  69.8503033  62.0149057
  76.0222939  70.9769027  61.0181938  75.6243651  71.2566218  60.1330332
  75.4401253  71.4828136  62.2058169  76.0696871  72.2159420  62.7100727
  74.1594321  72.1866212  61.7171650  74.2656206  73.2278766  62.0214848
  74.1888393  72.1217078  60.6294971  72.8487696  71.6517180  62.2145305
  72.0754006  71.8353713  61.4686935  72.9372155  70.5794139  62.3890101
  72.3937511  72.4626680  63.7473290  73.8142962  73.5470599  64.1126437
  73.9489576  74.2574776  63.2970016  73.6288603  74.0897566  65.0395711
  74.7151382  72.9428521  64.2199657  75.2319159  70.3768252  63.2780448
  75.4736087  70.5866017  64.4457491  74.8135696  69.2049820  62.8361353
  74.7704378  69.1001182  61.8325206  74.5335393  68.0578439  63.6530938
  73.9151491  68.2503698  64.5298072  73.8189916  67.0322629  62.7651685
  74.4168057  66.8631439  61.8695590  73.6334451  65.7128581  63.5091131
  73.0352937  65.8811037  64.4046628  73.1245650  64.9986149  62.8618125
  74.6077578  65.3150890  63.7930077  72.5018668  67.5868771  62.2590794
  72.6869745  68.4889611  61.6759142  72.0111938  66.8432215  61.6311335
  71.8591336  67.8277612  63.1058201  75.8057328  67.3402553  64.1154619
  75.9908053  67.0495668  65.3132659  76.6723606  67.0455164  63.1443989
  76.4260635  67.2434331  62.1850939  77.9217905  66.3358718  63.4062259
  77.6922893  65.3311118  63.7610298  78.8047451  66.2232540  62.1348808
  78.1445429  66.4086123  61.2876061  79.5411229  67.0240064  62.2030236
  79.5359792  64.8608783  61.9351602  80.4458526  64.8851114  62.5348634
  78.8769877  64.0764147  62.3072478  79.8989399  64.5720012  60.4597659
  79.6385541  65.4508260  59.8698801  80.9742882  64.4029543  60.4036524
  79.2039820  63.3963475  59.8908820  78.6489362  62.8383573  60.5238674
  79.2554704  63.0385683  58.6000478  79.9611844  63.7583839  57.7222054
  80.4606605  64.5794850  58.0327157  79.9917111  63.4778789  56.7524195
  78.6102895  61.9480013  58.1802796  78.0826572  61.3924695  58.8383743
  78.6527041  61.6833532  57.2064926  78.6655579  67.0021589  64.5744013
  79.1565500  66.3030077  65.4879161  78.6913978  68.3334658  64.5717266
  78.3504605  68.8357853  63.7645487  79.2666571  69.1016188  65.6735668
  80.1587639  68.6078921  66.0588959  79.6496399  70.4596101  65.1738822
  78.7333078  70.8726555  64.7521853  80.0196484  71.1219974  65.9564656
  80.6996863  70.3750435  64.0697957  80.3684223  70.1251695  62.9071100
  81.9840618  70.4746442  64.4497488  82.7176567  70.4248254  63.7573209
  82.2104659  70.5989103  65.4261708  78.3678401  69.2460467  66.9012140
  78.8455625  69.3660367  68.0201495  77.0629467  69.2529838  66.6739100
  76.7201432  69.2383651  65.7239777  76.0879548  69.2964466  67.7617702
  76.2456123  70.2029277  68.3461804  74.6851727  69.2956062  67.2519430
  74.6713048  69.7103662  66.2440338  74.2339358  68.3034414  67.2422349
  73.8986618  70.1987460  68.1802684  74.0038090  69.8156887  69.1953112
  74.3870992  71.6448047  68.1291108  74.2818238  72.0287268  67.1144090
  73.7933499  72.2537360  68.8108477  75.4352356  71.6855215  68.4255102
  72.4450500  70.1144063  67.7969727  72.1017277  69.0846664  67.8962950
  71.8579642  70.7574381  68.4526720  72.3216417  70.4399706  66.7640752
  76.2612165  68.0987650  68.6790069  76.1509188  68.2334682  69.8960338
  76.5669103  66.9471398  68.0951955  76.5719915  66.8642862  67.0886128
  76.7756479  65.7567834  68.8795948  75.8860560  65.6077061  69.4915600
  77.0100792  64.5721360  68.0687918  77.9564188  64.6528017  67.5339696
  77.0642249  63.3810298  69.0207583  76.1179983  63.2994339  69.5556397
  77.2391738  62.4680308  68.4516131  77.8742381  63.5234829  69.7360798
  75.8743243  64.4167442  67.0829012  75.5600949  65.4104328  66.7636150
  76.2424957  63.8585949  66.2220769  74.7057720  63.6924396  67.6859680
  74.3367365  64.2502659  68.5466320  73.9118082  63.6019942  66.9446582
  75.0191382  62.6984282  68.0050962  77.8835170  65.9042055  69.9078631
  77.7819452  65.3738356  71.0056977  78.9412491  66.5805348  69.5323534
  79.0369295  66.9761559  68.6080004  80.0395940  66.7032459  70.4390830
  80.3657326  65.7195529  70.7768417  81.1927072  67.3787126  69.7353559
  80.9837384  68.4471764  69.6822877  82.0963974  67.2144787  70.3222727
  81.3937282  66.8336224  68.3359510  80.6083229  67.2502255  67.7053313
  82.3674261  67.1329177  67.9480891  81.2993673  65.3286359  68.2924709
  80.8907854  64.7524616  67.2929235  81.6450770  64.6885387  69.3966364
  81.6021047  63.6798935  69.4264652  81.9505182  65.2112136  70.2051028
  79.6764919  67.4390864  71.6796420  80.0569009  67.0307573  72.7621624
  78.9235888  68.5131112  71.5412055  78.6796707  68.8850574  70.6344203
  78.5706225  69.2803245  72.7139853  79.3021531  68.9831021  73.4653980
  78.7325093  70.7776640  72.4389975  79.7373863  70.9722095  72.0641994
  78.0005893  71.0921903  71.6950443  78.5119747  71.5583758  73.7303061
  77.5070755  71.3646826  74.1054877  79.2438732  71.2447047  74.4746427
  78.6732287  73.0498825  73.4563900  79.6781047  73.2444289  73.0815901
  77.9413073  73.3644078  72.7124382  78.4526960  73.8305935  74.7476999
  77.4477974  73.6369002  75.1228828  79.1845962  73.5169235  75.4920334
  78.6081324  75.2683078  74.4836617  77.9297430  75.5592536  73.7942865
  78.4620760  75.7853694  75.3388896  79.5393681  75.4480619  74.1364045
  77.2021281  68.9421741  73.2861158  77.0004064  67.8681222  73.8262581
  76.2738519  69.8727720  73.1589476  76.5388918  70.7145747  72.6678045
  74.9262026  69.7789847  73.6839491  74.9392631  69.6150117  74.7614654
  74.2112328  71.0924366  73.4004824  74.6637469  71.5201099  72.5058172
  73.1599269  70.8781231  73.2083219  74.3228313  72.0675902  74.5305263
  74.3583082  71.6207522  75.6903375  74.3608280  73.2824443  74.2611290
  74.0192166  68.6961574  73.1717515  73.1748262  68.1898031  73.8873653
  74.1376545  68.3811804  71.9078196  74.8506534  68.7809273  71.3145789
  73.1585562  67.4623827  71.3011704  73.4759250  67.2541160  70.2794067
  73.0119833  66.1186269  72.0575682  72.5495778  66.3731978  73.0112317
  72.3155823  65.5272673  71.4630772  74.2554845  65.3255501  72.3029656
  74.8716758  65.3428286  71.4040159  74.8065735  65.7745849  73.1292651
  73.9081791  63.8966675  72.6474485  73.4134010  63.4382502  71.7912084
  74.8274401  63.3542736  72.8685081  73.0240764  63.8058508  73.8008231
  72.0402063  63.9418244  73.6174924  73.4117662  63.5542347  75.0602757
  74.6984453  63.3873636  75.3799504  75.4062173  63.4502551  74.6621736
  74.9573157  63.1991051  76.3378881  72.5000335  63.4736170  76.0211858
  71.5232945  63.6018736  75.7984053  72.7870713  63.2843774  76.9708681
  71.7241586  67.9818057  71.1279757  70.8590295  67.2707847  70.6224890
  71.4640344  69.2112585  71.5707932  72.2131903  69.7581163  71.9705571
  70.1317371  69.8119089  71.4928962  69.4370808  69.0719054  71.0954711
  69.5350432  70.3946565  72.8375198  68.7237688  71.0732683  72.5740428
  69.0152831  69.3268434  73.7596551  69.8261516  68.6480687  74.0239598
  68.6191432  69.7884316  74.6641486  68.2232224  68.7688225  73.2603024
  70.5001992  71.1743220  73.5342957  70.1125679  71.5146010  74.3439577
  70.1290308  70.9648835  70.5474078  71.0457322  71.8314306  70.5678194
  69.0880413  70.9669296  69.7263288  68.4223093  70.2104412  69.7943402
  68.8383929  72.0160552  68.7607165  69.5576599  72.8214011  68.9096193
  68.9687680  71.5106950  67.3535862  68.6745302  72.3293901  66.6968811
  69.9761678  71.1834203  67.0964150  68.0761825  70.3922103  67.0534198
  68.2235720  69.1882236  67.7203430  68.8933413  69.1257793  68.5780199
  67.5406466  68.0906229  67.3123595  67.6938873  67.1276517  67.7994985
  66.6480430  68.2007402  66.2737874  66.1046360  67.3187891  65.9347138
  66.4381759  69.4154612  65.6623017  65.7000017  69.5083844  64.8657063
  67.1558642  70.5029473  66.0551776  66.9950903  71.4660728  65.5707802
  67.4137054  72.4866910  68.9648181  66.6827863  71.8776248  69.7312995
  67.0377293  73.5309522  68.2466117  67.6201055  73.8349789  67.4794708
  65.8275464  74.2722762  68.5243114  65.3538023  73.9530108  69.4526084
  66.2031620  75.7223882  68.6506807  66.6705622  76.0591507  67.7253548
  65.3083055  76.3147307  68.8416321  66.9033560  75.8462208  69.4768121
  64.7907403  74.0758352  67.3827992  65.1224498  74.1459196  66.1808349
  63.5487461  73.8100002  67.7760828  63.3217993  73.7435037  68.7580058
  62.4930080  73.6380633  66.8212337  62.7994321  73.6936909  65.7766721
  61.9063275  72.2977327  67.0727806  61.5382246  72.2461558  68.0974461
  60.7650145  72.0675652  66.1175446  61.1324528  72.1185370  65.0926095
  60.3313388  71.0841557  66.2990151  60.0040273  72.8331802  66.2686534
  63.0093568  71.2485815  66.9594753  63.7856272  71.4557647  67.6960766
  62.5904771  70.2590390  67.1423553  63.4407057  71.2807330  65.9589728
  61.4650273  74.7113005  67.0564839  61.0708224  74.9476974  68.2104943
  60.9786047  75.3387879  65.9775350  61.2802890  75.0645092  65.0534911
  60.1532153  76.5345106  66.1091121  60.0713648  76.8046868  67.1619200
  60.7676811  77.7263401  65.3395408  60.7332801  77.4027629  64.2992458
  60.1292574  78.6002756  65.4689700  62.2402740  78.0949080  65.7226361
  62.8771851  77.2473301  65.4695419  62.7328889  79.3318648  64.9959351
  62.0967055  80.1800233  65.2489109  63.7587884  79.5456564  65.2958085
  62.6976664  79.1600512  63.9201377  62.4883450  78.3058771  67.2049956
  62.2459779  77.3924163  67.7480857  63.5367707  78.5565906  67.3663878
  61.8607009  79.1203552  67.5666410  58.6801864  76.2851365  65.7507888
  58.3780818  75.6652026  64.7728906  57.8048706  76.8613427  66.5524686
  58.1155307  77.1673688  67.4634778  56.4256555  77.0498405  66.2054192
  56.0228661  76.2185550  65.6267793  55.6091684  77.2051024  67.4531518
  55.9947689  78.0396128  68.0388178  54.5701722  77.3985268  67.1863671
  55.6680887  76.2902131  68.0427323  56.3330562  78.3175577  65.3039807
  56.8420765  79.4128696  65.6297342  55.8316476  78.1029562  64.1158453
  55.6993786  77.1575888  63.7858685  55.4212756  79.1915797  63.2585421
  55.7178714  80.1527042  63.6785063  56.1163514  79.0143343  61.8967438
  56.0066247  78.0087640  61.4906800  55.5015282  79.7068531  61.3218435
  57.5755954  79.4397799  61.8101831  58.6171069  78.5420649  62.0798487
  58.3805947  77.5364090  62.4274372  59.9351972  78.9220868  61.9086636
  60.7498885  78.2311528  62.1254355  60.2149345  80.2012826  61.4258499
  61.5007604  80.6394603  61.3000841  62.1483103  79.9854963  61.5732323
  59.2046860  81.0700931  61.0858980  59.4300648  82.0581617  60.6846184
  57.8997169  80.6801812  61.2572265  57.0887428  81.3446173  60.9589890
  53.8840107  79.0575875  63.1024309  53.4195777  78.0309543  62.5757391
  53.1001381  80.1144284  63.4133213  53.3446967  80.7417271  64.1661737
  51.8273877  80.3671435  62.6627964  51.2151582  79.4659616  62.6966404
  51.0128737  81.5405040  63.2557494  50.3904737  81.1599427  64.0656201
  51.7062882  82.2836138  63.6495311  50.1756012  82.1492020  62.2518293
  49.6812753  82.8730410  62.6433633  52.2785841  80.6703096  61.1983255
  53.1432973  81.5066737  61.0208906  51.6911623  80.0734825  60.1802381
  50.9203328  79.4302062  60.2903149  52.1954499  80.3228705  58.8379279
  53.2235682  79.9698468  58.7576397  51.3561080  79.6166139  57.7866369
  51.3851338  78.5409222  57.9602577  50.3256234  79.9664338  57.8485035
  51.8818636  79.8975971  56.3862385  52.8655116  80.6157941  56.2217060
  51.2224226  79.3281737  55.3747453  51.5298724  79.4822353  54.4250930
  50.4190889  78.7459176  55.5637785  52.1988830  81.7955455  58.5781093
  52.9702577  82.3003968  57.7871003  51.3234589  82.4958992  59.2559127
  50.6830202  82.0548729  59.9004538  51.2483362  83.9258572  59.0887129
  51.0697372  84.1567439  58.0385258  50.0990541  84.5150067  59.9237688
  49.1553178  84.0692381  59.6095214  50.3367019  84.2135674  61.3996692
  51.2800996  84.6594414  61.7147853  49.5224048  84.6309223  61.9919830
  50.3777046  83.1345744  61.5486473  50.0418379  86.0247098  59.7160501
  49.8720112  86.2406812  58.6612433  49.2274260  86.4427861  60.3076962
  50.9851257  86.4712654  60.0305290  52.5415671  84.6046796  59.5197812
  52.8517134  85.7013774  59.0724467  53.3020258  83.9619080  60.3904811
  53.0336635  83.0598457  60.7570391  54.4966329  84.5955086  60.9249388
  54.1376021  85.4909990  61.4321794  55.1714724  83.6908540  61.9518840
  54.4497319  83.4090394  62.7185460  55.5443353  82.7939029  61.4573619
  56.3348149  84.4352855  62.5984753  57.0572455  84.7170419  61.8324413
  55.9626433  85.3321770  63.0936277  57.0359117  83.5648083  63.6315375
  56.6456038  82.4202869  63.8510146  58.0751354  84.1109502  64.2671210
  58.5757380  83.5761432  64.9624482  58.3560077  85.0564430  64.0497376
  55.5019522  85.0279886  59.8870061  56.0701676  86.1089972  60.0092495
  55.7315382  84.2177173  58.8680876  55.2868330  83.3149850  58.7820006
  56.6889206  84.6142706  57.8488185  56.8747733  83.7804547  57.1718333
  56.1714550  85.7966340  57.0353991  55.2418830  85.5178614  56.5391321
  55.9893034  86.6424637  57.6983418  57.1991146  86.1824512  55.9984993
  58.1288831  86.4618137  56.4940675  57.3814615  85.3372132  55.3348567
  56.6811704  87.3659138  55.1843263  56.9564768  88.5204599  55.6072104
  56.0151529  87.1041106  54.1472728  58.0078429  84.9725332  58.5069559
  58.5878036  86.0162592  58.2257182  58.4461137  84.0946512  59.4003517
  57.7917340  83.3804206  59.6862909  59.7155177  84.2010612  60.1206435
  59.9321645  83.1397791  60.2424788  60.7794672  84.8135976  59.2324344
  60.7647487  84.3258970  58.2577392  60.5812442  85.8782282  59.1084615
  62.1493391  84.6233872  59.8750037  62.1649743  85.1112468  60.8496059
  62.3484811  83.5589161  59.9988819  63.2201066  85.2398501  58.9811047
  63.2053877  84.7521516  58.0064086  63.0218836  86.3044808  58.8571340
  64.5659622  85.0740016  59.5740366  64.6464858  84.5974841  60.4609111
  65.6742231  85.5237905  58.9923597  65.6488908  86.1605610  57.8249771
  64.7677189  86.3135751  57.3556980  66.5109413  86.4881815  57.4131114
  66.8323553  85.3201387  59.6137748  66.8480893  84.8362280  60.5001624
  67.6907828  85.6503333  59.1964351  59.7713560  84.8480490  61.4883763
  60.8083983  84.7696764  62.1344962  58.6949974  85.4618967  61.9496594
  57.8385246  85.5353851  61.4194206  58.7308446  86.0344488  63.2764816
  59.7042264  86.4010144  63.6024519  57.7172147  87.1542498  63.4225640
  58.0146278  87.9977967  62.7996088  56.7355077  86.7996526  63.1085380
  57.6556593  87.5922277  64.8663392  57.3578407  86.7492691  65.4898980
  58.6369592  87.9474150  65.1809686  56.6356676  88.7190531  65.0133393
  55.4454767  88.3895750  65.2633215  57.0564293  89.8985498  64.8742455
  58.3751519  84.8695108  64.1614059  57.2930533  84.8161280  64.7090864
  59.2753570  83.9102811  64.2896839  60.1730910  83.9510287  63.8286930
  58.9771796  82.7346270  65.1491103  57.9612194  82.3650557  65.0100382
  59.9409267  81.6021018  64.8961691  60.9622816  81.9543914  65.0404817
  59.7362718  80.7880256  65.5915083  59.8216211  81.2443628  63.8734823
  59.1154202  83.1950085  66.5882640  60.0443441  83.9666358  66.8937630
  58.1719292  82.8033727  67.4496095  57.4477260  82.1592567  67.1654553
  58.0379682  83.4770796  68.7660948  58.9441539  84.0489181  68.9659132
  56.8119069  84.4513433  68.8074833  55.9472987  83.8976461  68.4414626
  56.6524349  84.7251704  69.8504059  57.0006785  85.7422076  67.9548371
  58.0658932  85.9158507  67.8023032  56.5306374  85.5089657  66.9994515
  56.3629573  87.0385579  68.5173303  56.7485061  88.1442964  68.1190948
  55.3564721  86.8989494  69.3864851  54.9130998  87.7181768  69.7768552
  55.0441977  85.9749076  69.6486546  58.0864243  82.5060399  69.9281765
  58.6388374  82.8340667  70.9805391  57.7419657  81.2507910  69.6719471
  57.3156474  81.0312037  68.7830526  57.9077705  80.1553251  70.6642396
  58.6632461  80.4527537  71.3914891  56.5706243  79.8264218  71.4325785
  55.8757186  79.2392574  70.8322093  56.8504458  79.2603406  72.3210334
  55.7943295  81.0602305  71.9233439  55.0272290  81.8415263  71.0398019
  54.9824159  81.5544794  69.9892326  54.3280064  82.9713152  71.4884273
  53.7740303  83.5865551  70.7794202  54.3413368  83.3047014  72.8298333
  53.8004865  84.1816357  73.1855962  55.0493674  82.5147848  73.7260020
  55.0454549  82.7691496  74.7858998  55.7660014  81.3966493  73.2759465
  56.3113891  80.7764063  73.9872486  58.4243028  78.8916521  69.9645040
  58.4214853  78.7845874  68.7304156  58.8616086  77.9319365  70.7694784
  58.8522456  78.0779714  71.7688209  59.3672511  76.6438635  70.2550967
  58.5894385  76.2255505  69.6162533  60.2508719  76.8621364  69.6553713
  59.7293694  75.6338453  71.3116053  59.4295927  75.8311265  72.4735081
  60.5372170  74.6636096  70.9445481  60.9906813  74.6996122  70.0427869
  60.8048122  73.4978495  71.8194504  60.7582633  73.7054547  72.8884839
  59.7496314  72.4629822  71.4804266  60.0436406  71.9363940  70.5724818
  59.6081748  71.4684505  72.6184608  59.3137111  71.9942752  73.5267004
  58.8478147  70.7300728  72.3640003  60.5612805  70.9658497  72.7830285
  58.5053211  73.1545605  71.1847559  57.8258709  72.5120215  70.9677504
  62.2261032  72.9409183  71.5602618  62.6441892  72.7678512  70.4131102
  62.9717798  72.6824326  72.6371650  62.6700967  72.9812292  73.5535750
  64.2694854  72.0430891  72.5142256  64.8072427  72.4638036  71.6645695
  65.1535116  72.2000763  73.7914976  66.1182874  71.7227558  73.6198205
  65.3653089  73.6713283  74.1032306  64.4009381  74.1492541  74.2754959
  65.9831710  73.7688423  74.9958877  65.8640381  74.1532983  73.2623533
  64.5563238  71.5545954  74.9286688  65.1225283  71.6689819  75.6954337
  64.0456717  70.5810524  72.1732404  63.1628417  69.9282335  72.7342401
  64.8218152  70.0753827  71.2172025  65.4010526  70.6845395  70.6572816
  64.8689007  68.6679874  70.9590603  64.2493915  68.0869504  71.6422173
  64.4080583  68.4104085  69.5593680  65.0248501  68.9783845  68.8628975
  64.4956177  67.3468486  69.3373903  63.3674444  68.7180449  69.4565004
  66.2898032  68.2018876  71.1213684  67.2292516  68.8320823  70.6464879
  66.4491133  67.0825307  71.7853392  65.6161067  66.5334949  71.9426894
  67.7349186  66.5347240  72.2236069  68.5352873  67.2675901  72.1215461
  67.5920666  66.1733583  73.6918907  67.2701417  67.0941438  74.1783243
  66.7830140  65.4436626  73.7247242  68.8010990  65.6182932  74.4131676
  69.2516357  64.6871318  74.0695749  69.4951808  66.4414333  74.2434918
  68.4956088  65.5148982  75.8838975  68.8237602  66.4717995  76.6375470
  67.7222115  64.5976635  76.2288237  67.9787386  65.2615874  71.4731324
  67.1047314  64.3935214  71.4860509  69.1450295  65.1227525  70.8225877
  69.7822628  65.8976134  70.7058672  69.3927318  63.9164953  70.0755883
  68.4254858  63.5559944  69.7254835  70.3134607  64.1007990  68.9013398
  71.3480211  64.1388114  69.2424264  70.1329871  62.9118401  67.9469875
  69.0987080  62.8734442  67.6050912  70.7946038  63.0303594  67.0888983
  70.3773321  61.9863736  68.4684339  69.9565320  65.4075323  68.1756759
  69.3188961  65.1428008  67.3322078  69.3927322  66.0214286  68.8780722
  71.1535066  66.1831005  67.6776910  71.7175822  65.5699760  66.9748419
  70.8163837  67.0911024  67.1777111  71.7914198  66.4486019  68.5207067
  69.7885324  62.7526888  70.9791536  70.7225170  62.8364617  71.7708549
  69.0331106  61.6590694  70.8684754  68.2306865  61.6681259  70.2551787
  69.3051929  60.4379552  71.6434188  70.0734439  60.6420095  72.3892414
  68.0453994  59.9545048  72.3598754  68.2281863  59.2463951  73.1681259
  67.7704176  60.9218497  72.7802670  66.8984832  59.4358970  71.4732598
  66.8310809  58.1076336  71.1023715  67.6458295  57.4449787  71.3942152
  65.7650162  57.6132214  70.3791775  65.7551503  56.5739354  70.0507128
  64.6868182  58.4312606  70.1121307  63.6070073  57.9603672  69.3677726
  63.7139856  57.0485340  69.0872096  64.6951612  59.7416394  70.5461548
  63.8456653  60.3942732  70.3448436  65.7833400  60.2224413  71.2360813
  65.7820343  61.2458120  71.6113287  69.8357485  59.2791539  70.8124077
  70.1947732  58.2319132  71.3628740  69.8048565  59.4349432  69.5016277
  69.4367883  60.2818777  69.0925714  70.2909447  58.4009819  68.6157748
  71.1184650  57.8312088  69.0384662  69.1816405  57.4481110  68.2635887
  68.3492155  58.0028465  67.8306486  69.5453541  56.7172855  67.5412959
  68.8453527  56.9327234  69.1632472  70.8028961  59.0882469  67.3854916
  70.2869630  60.1267806  67.0144382  71.8213324  58.5301465  66.7522805
  72.2676498  57.6897818  67.0909356  72.3533640  59.1569458  65.5674472
  71.5609777  59.5531163  64.9324101  73.2193612  60.3058492  66.0330307
  72.5634936  61.1250063  66.3278500  73.7098999  59.8977773  66.9167439
  74.2536677  60.8141998  65.0789155  74.0003762  60.9254152  63.7354764
  73.0288549  60.6129553  63.3525734  74.9510173  61.4225067  62.8751180
  74.7411271  61.4988044  61.8082410  76.1577401  61.8291482  63.3634916
  77.1205042  62.3180882  62.5192760  76.8420773  62.3317208  61.6006399
  76.4240807  61.7458348  64.6980877  77.3876555  62.0698491  65.0913290
  75.4704073  61.2507067  65.5459180  75.6681694  61.1962926  66.6164457
  73.1294781  58.1792371  64.7293293  73.7329305  57.2621057  65.2560324
  73.1073322  58.3718400  63.4208448  72.5716231  59.1328040  63.0283544
  73.8484756  57.5211537  62.5207402  74.7318741  57.1303753  63.0257139
  72.9999330  56.3628771  62.0710149  72.1431089  56.2973217  62.7415776
  72.6537121  56.5762703  61.0597314  73.7451046  55.0551876  62.0803546
  74.6326126  55.1613701  62.7041780  73.0973213  54.2850369  62.4990989
  74.1559456  54.6615551  60.6867086  74.4740795  55.5451618  60.1334193
  74.9779241  53.9472153  60.7332869  73.0449982  54.0470063  59.9827691
  72.6920440  54.5100080  59.1574497  72.4677461  52.9214658  60.3708199
  71.4614160  52.4204410  59.6741975  71.1361302  52.8994705  58.8466591
  71.0228124  51.5610936  59.9729424  72.8934127  52.3030592  61.4637418
  73.6573914  52.6939461  61.9963243  72.4517163  51.4439645  61.7586305
  74.2202879  58.3691833  61.3446214  73.4295792  59.1821693  60.9158051
  75.4152141  58.1713239  60.8092815  76.0259093  57.4672888  61.1984926
  75.8981408  58.9575216  59.6716907  75.0940510  59.5776137  59.2754273
  77.0777699  59.8739453  60.0712268  76.7496087  60.5761778  60.8375680
  77.8944083  59.2665560  60.4614575  77.5541109  60.6383955  58.8592798
  77.8828894  59.9367922  58.0926259  76.7380916  61.2464155  58.4687375
  78.7190320  61.5433897  59.2538327  79.8793033  61.0600444  59.1658047
  78.4375168  62.7094157  59.6394917  76.3482555  58.0127293  58.5688959
  77.4602976  57.5656627  58.5977349  75.4869708  57.7623059  57.5882069
  74.5137105  58.0044589  57.7074782  75.8471962  56.9209251  56.4868168
  76.8210165  56.4762611  56.6918707  74.8410503  55.8006575  56.2453859
  75.3998000  55.0467481  55.6908423  74.6102329  55.4217994  57.2410213
  73.5490311  56.1143977  55.5114033  73.0236772  56.7646999  56.2108396
  73.6911642  56.6379363  54.5659909  72.7195885  54.8429648  55.2727985
  72.1490064  54.3112735  56.2863854  72.7573471  54.3156654  54.1116578
  76.2460320  57.6993949  55.2511904  75.6048078  58.6851195  54.8151805
  77.3332125  57.2344114  54.6592767  78.0246809  56.7156021  55.1815867
  77.6436776  57.6041263  53.2487958  76.7905984  58.1366528  52.8283548
  78.8921282  58.5066896  53.1383629  79.2017493  58.4552680  52.0945286
  78.5476010  59.5155936  53.3653293  80.0828316  58.1571622  54.0429191
  79.7594258  57.4978227  54.8483885  80.8204721  57.6427273  53.4270088
  80.7357899  59.3920961  54.6562426  81.2472745  60.2405066  53.9411894
  80.6869454  59.5072086  55.9842367  81.1060340  60.3083610  56.4343712
  80.2310941  58.7926931  56.5335714  77.7401001  56.3815443  52.3450006
  78.6541147  56.2717675  51.5379271  76.7048478  55.5625135  52.3557802
  75.9053593  55.7705088  52.9368614  76.7048709  54.3136759  51.5999538
  77.7130480  53.9012282  51.5603931  75.7900557  53.2985707  52.2702034
  74.8429876  53.8137457  52.4306897  75.6294854  52.4380908  51.6206717
  76.3305022  52.8396510  53.5743397  77.0807379  53.6479318  54.2154695
  76.0542436  51.6611871  53.9217947  76.2944086  54.5533705  50.1723694
  77.0906741  54.3246466  49.2301191  75.0628775  55.0583841  50.0245239
  74.4672743  55.1775221  50.8314702  74.5120169  55.3782746  48.6969691
  74.4181487  54.4532431  48.1281065  73.1435770  56.0487829  48.7664817
  73.0083706  57.0660578  49.1338644  72.9006430  56.0112484  47.7045616
  72.1410734  55.2121082  49.4594976  71.6121572  54.0897562  48.8033034
  71.8633702  53.9136513  47.7573690  70.7656021  53.1968914  49.4826546
  70.3125468  52.3642563  48.9445466  70.5034669  53.3745515  50.8471706
  69.8368477  52.6881213  51.3692170  71.0995626  54.4366332  51.5413568
  70.9075643  54.5727457  52.6056454  71.9487102  55.3291576  50.8593293
  72.4641577  56.1176403  51.4076986  75.5438163  56.2380920  48.0282673
  75.7841271  56.0372110  46.8570451  76.2497864  57.0868271  48.7943692
  76.1566147  57.0742379  49.7999834  77.1813335  58.0615754  48.1891762
  78.0406859  58.1728999  48.8504020  77.5120873  57.6702247  47.2271232
  76.5339529  59.4406983  47.9729182  76.8059796  60.1751561  46.9996720
  75.6899104  59.8192401  48.8984075  75.0003094  59.1869572  49.2788916
  75.7322314  61.1642811  49.4020378  76.6762641  61.6371993  49.1313905
  74.5547971  62.0534220  48.9278155  74.8880096  62.6556350  48.0825882
  73.3637254  61.1989292  48.5048351  73.0296352  60.5967348  49.3497293
  72.5503066  61.8457896  48.1761678  73.6590832  60.5429161  47.6859885
  74.1666494  63.0613319  50.0456187  73.8196757  62.4693871  50.8925611
  75.0800808  63.5883693  50.3212530  73.0929804  64.0734375  49.6592625
  72.1790397  63.5471260  49.3839290  72.8920833  64.7313947  50.5047398
  73.4394443  64.6661070  48.8126188  75.6748379  60.8547816  50.8747679
  75.2464650  59.7502278  51.2773279  76.2750001  61.7224809  51.6749587
  76.7591033  62.5196900  51.2874010  76.3031529  61.5287359  53.1500733
  76.4658884  60.4681379  53.3417715  77.3920987  62.3342387  53.8835168
  77.0526996  62.4076295  54.9167260  78.2893185  61.7168692  53.8393410
  77.7111159  63.7416193  53.3473481  78.1044149  63.5958530  52.3412821
  76.7859592  64.3156452  53.2955928  78.7444909  64.5084420  54.1966567
  78.6937256  65.7785277  54.1847294  79.6222417  63.8480490  54.8420811
  74.9451152  61.9081914  53.6590028  74.2919554  62.8198692  53.0994146
  74.4369216  61.0751245  54.5314750  75.0068791  60.3366240  54.9185987
  73.0400378  61.1955724  54.9923730  72.5456587  62.1390062  54.7608107
  72.2443059  60.0237281  54.3534099  72.9582739  59.2532188  54.0624365
  71.2203032  59.4314473  55.2986626  70.5056689  60.2013021  55.5897331
  70.6937445  58.6171673  54.8008827  71.7233283  59.0489196  56.1867715
  71.6106868  60.4538933  53.0224588  72.3943921  60.9548114  52.4541385
  71.3186094  59.5381673  52.5084197  70.4022720  61.3761774  53.1432245
  70.6937003  62.2923790  53.6567847  70.0302181  61.6205853  52.1482672
  69.6179181  60.8757353  53.7110683  73.1531694  61.0651643  56.4980336
  73.9377818  60.2533030  56.9764743  72.4222475  61.8951579  57.2462688
  71.8904078  62.6387051  56.8168698  72.4115270  61.7900962  58.6735698
  72.9884409  60.9138498  58.9693092  73.0095366  63.0246586  59.3588830
  72.3639975  63.8871686  59.1931873  73.1195653  62.7596407  60.8256005
  73.7653698  61.8974875  60.9921223  73.5440243  63.6321975  61.3221683
  72.1296614  62.5556745  61.2337543  74.3856158  63.3637879  58.8227457
  74.3196134  63.5677989  57.7540431  74.7696332  64.2446594  59.3372315
  75.0588838  62.5232003  58.9907442  70.9793612  61.5735270  59.1472627
  70.0797207  62.3794602  58.8619214  70.7713883  60.4422858  59.8298596
  71.5200191  59.7714665  59.9281078  69.4905422  60.1278687  60.4136303
  68.7605790  60.8547484  60.0574017  69.0003409  58.7347795  60.0602818
  69.3319537  58.0820574  60.8678004  67.9115841  58.7868219  60.0597211
  69.4710635  58.1906790  58.7583506  68.7964850  58.5041370  57.9616142
  70.4761867  58.5557854  58.5473370  69.4899047  56.6813364  58.8374115
  70.3804998  56.3806583  59.3892557  68.6010301  56.3579114  59.3790736
  69.5061109  56.0336202  57.4521274  70.0510923  56.7021411  56.7856623
  70.0446839  55.0899964  57.5393766  68.1416699  55.7788250  56.8955358
  67.6426035  56.6531349  56.8142053  68.2242851  55.3522305  55.9837837
  67.6366632  55.1590376  57.5127318  69.6195603  60.2550879  61.9366636
  70.5600802  59.7409100  62.5364897  68.6996256  60.9969833  62.5369229
  68.0981670  61.5887310  61.9817819  68.6838614  61.1575056  63.9629254
  69.1869226  60.3055301  64.4202726  69.3924975  62.4566080  64.4232445
  69.6532699  62.3670609  65.4777957  70.6282236  62.6783154  63.6240995
  70.3681865  62.7684296  62.5694142  71.1172571  63.5939076  63.9567217
  71.3055839  61.8352197  63.7600207  68.5172773  63.6772825  64.2661154
  67.6142416  63.5569997  64.8645805  69.0605808  64.5602955  64.6025807
  68.2444152  63.7968289  63.2176137  67.2917536  60.9609369  64.5565739
  66.2726636  61.1071980  63.8885714  67.2816033  60.5658839  65.8199152
  68.1534894  60.2954527  66.2520967  66.0713574  60.5117582  66.6194403
  65.2029851  60.7703901  66.0135210  65.8877018  59.0995169  67.1543328
  66.7108498  58.9097439  67.8431817  64.9455621  59.0859587  67.7023191
  65.8660118  58.0397964  66.1004657  65.0536499  58.2412563  65.4021944
  66.8149193  58.0441670  65.5641284  65.6568056  56.6936197  66.7374641
  66.4073718  56.5178041  67.5080732  64.6621882  56.6334438  67.1792949
  65.7908762  55.6498951  65.6587013  65.2222743  56.0017947  64.7979114
  66.8472863  55.5917948  65.3965540  65.3087382  54.3143326  66.0527582
  64.3297545  54.3678671  66.2952962  65.4302432  53.6718973  65.2829443
  65.8357771  53.9878893  66.8501062  66.2042339  61.4800980  67.7803034
  66.9670547  61.2286086  68.6775093  65.4534095  62.5753991  67.7405634
  64.9185187  62.7854996  66.9099919  65.4128710  63.5207151  68.8436061
  66.2480625  63.3069282  69.5105766  65.5631506  64.9180628  68.3201250
  64.7292146  65.1500981  67.6576973  65.5704337  65.6201332  69.1538781
  66.4991807  65.0009890  67.7677934  64.1348105  63.4146811  69.6531659
  63.1585886  62.8757136  69.1915537  64.1562704  63.9453555  70.8656366
  65.0207229  64.3361862  71.2121514  62.9937786  63.9671250  71.7350220
  62.0776804  63.7279587  71.1949640  63.1936853  62.9555117  72.8797113
  63.4333077  61.9850940  72.4450033  64.3069263  63.3802619  73.8054260
  64.0677882  64.3504530  74.2409060  64.4198509  62.6434927  74.6007372
  65.2384878  63.4541173  73.2443221  61.9161216  62.7572314  73.6764502
  61.9798238  63.3783424  74.5699064  61.0823704  63.0930145  73.0598400
  61.6943848  61.3028201  74.0830442  62.5275646  60.9664485  74.7001062
  60.7669082  61.2207981  74.6497527  61.6301135  60.6811200  73.1900391
  62.8126108  65.3781907  72.2835355  63.7608184  65.9821283  72.7530902
  61.6085354  65.9226748  72.1643652  60.8603463  65.4125286  71.7170809
  61.3262934  67.2650599  72.6707837  61.9899817  67.9647493  72.1627957
  60.2911190  67.5068220  72.4298181  61.5286572  67.3940310  74.1794524
  61.0497376  66.5455423  74.9637986  62.2250270  68.4574203  74.5891172
  62.5594143  69.1383377  73.9223069  62.5858971  68.6260763  75.9839842
  62.2120853  67.7693321  76.5446562  64.0883234  68.7313153  76.2011733
  64.4541928  69.4626635  75.4805010  64.2282599  69.1160296  77.2113776
  64.8633330  67.4310418  76.0419375  64.4596661  66.9353031  75.1591028
  65.9013770  67.7088722  75.8592437  64.7938509  66.4852030  77.2300482
  65.8017763  66.1643463  77.4931762  64.3457599  67.0047307  78.0770458
  63.9815324  65.2902175  76.9243273  63.0936635  65.4638281  76.4752754
  64.3310299  64.0206424  77.1825973  65.5006948  63.7213975  77.7547396
  66.1424523  64.4611402  78.0017781  65.7378118  62.7568060  77.9376008
  63.4886480  63.0385795  76.8718640  62.5987143  63.2563310  76.4467729
  63.7430543  62.0799223  77.0625271  61.9348919  69.8313294  76.6535514
  61.1864998  69.6729238  77.6036050  62.2474297  71.0303279  76.2018747
  62.8627142  71.1472375  75.4095008  61.7665986  72.2406355  76.9000114
  60.9951105  71.9764193  77.6232647  62.9019451  72.8874877  77.6272140
  63.4751903  73.4820726  76.9159068  62.4926175  73.5398136  78.3985906
  63.7998309  71.8639700  78.2621019  63.2764934  71.0373146  78.7425804
  64.4135676  71.4801555  77.4471690  64.6837552  72.5053053  79.2572269
  65.2891842  73.5156102  78.9570842  64.6807054  72.0033622  80.4834997
  65.2702755  72.4119004  81.1945587  64.0888234  71.2145350  80.7015105
  61.0970382  73.2497068  75.9945541  61.4510990  73.4219160  74.8326389
  60.1740398  73.9906111  76.5557284  59.8372036  73.7755525  77.4833008
  59.5594742  75.0969028  75.8380203  59.5927641  74.9076922  74.7650849
  58.1149660  75.2543576  76.2562990  58.1149544  75.5561549  77.3036851
  57.6898585  76.0531282  75.6485580  57.2791570  73.9926448  76.0921185
  57.2719514  73.7075726  75.0400811  57.7268285  73.1926218  76.6817416
  55.8527573  74.2309912  76.5621143  55.5390520  75.2295061  76.2577199
  55.1978013  73.4896296  76.1043861  55.7360567  74.1264444  78.0081225
  55.5464304  73.2042128  78.3736772  55.8424416  75.1413951  78.8661315
  56.0778954  76.3804033  78.4781751  56.1846818  76.5869062  77.4952951
  56.1502460  77.1165465  79.1658947  55.7256916  74.8960072  80.1428093
  55.5583200  73.9515446  80.4591591  55.8032690  75.6517416  80.8083513
  60.3387466  76.3815684  76.0708068  60.7454614  76.6813994  77.1851450
  60.4606049  77.1646601  75.0165284  60.1875767  76.8388945  74.1003233
  61.0795095  78.4589089  75.1237629  61.0617678  78.7799027  76.1652750
  62.5382942  78.4314256  74.6433747  62.9980976  79.4196165  74.6559746
  63.0858263  77.7679312  75.3127654  62.7287404  77.8727672  73.2130331
  62.5122704  78.6742108  72.0805232  62.2093840  79.7135478  72.2075599
  62.6804206  78.1545665  70.8134323  62.5338049  78.7907690  69.9405915
  63.0353502  76.8252169  70.6500205  63.0743146  76.4015103  69.6464995
  63.3369307  76.0418287  71.7393772  63.6881266  75.0188484  71.6041995
  63.1919909  76.5599901  73.0119527  63.4381357  75.9490698  73.8804508
  60.3395442  79.5732771  74.4079782  59.5492739  79.3210618  73.5004175
  60.7070197  80.7965278  74.7794999  61.3449553  80.8702588  75.5590518
  60.2934090  82.0159562  74.1116633  59.4024007  81.8353258  73.5103514
  59.9717632  83.0726982  75.1483066  59.7216918  82.5313144  76.0607030
  60.8937712  83.6337996  75.3005117  58.8298543  84.0465912  74.8000963
  59.2152221  84.8029322  74.1163269  58.0334191  83.4865214  74.3100810
  58.2687924  84.7376578  76.0731703  57.9062957  83.9543384  76.7388323
  59.0941718  85.2660339  76.5503150  57.1347518  85.7224808  75.7797653
  56.2907116  85.1625959  75.3769930  56.8418662  86.1963770  76.7166430
  57.5517679  86.7774292  74.7941150  57.8227917  86.3385432  73.9257690
  56.7791783  87.4060984  74.6268415  58.3335910  87.2966267  75.1673249
  61.4575776  82.5091427  73.2766779  62.6040040  82.5490594  73.7248868
  61.1558813  82.8931391  72.0444571  60.2175126  82.7596270  71.6955474
  62.1472558  83.5043187  71.1552421  63.1254201  83.0286934  71.2264759
  61.6957156  83.4723677  69.7026112  60.6519342  83.7818174  69.6491266
  62.5511569  84.4156195  68.8539580  63.5950826  84.1065060  68.9065786
  62.2139190  84.3797423  67.8180603  62.4546634  85.4334414  69.2318855
  61.7362428  82.0272341  69.2060265  61.0696208  81.4149751  69.8133618
  61.4145300  81.9909926  68.1652158  62.7535187  81.6437905  69.2849036
  62.3696103  84.9494079  71.5627304  61.4431999  85.7087601  71.7277974
  63.6209341  85.3142206  71.7099191  64.3518147  84.6188970  71.6605435
  64.0037095  86.7073500  71.9304305  63.1821595  87.2995026  72.3335562
  65.1054586  86.6706320  72.9388251  65.9766573  86.1916117  72.4920012
  65.3866949  87.6524486  73.3196695  64.5853087  85.8106184  74.0859898
  63.9127871  85.0688394  73.6552005  65.6744841  85.1097445  74.8673845
  66.3471834  85.8509444  75.2988904  65.2263808  84.5181282  75.6656917
  66.2358553  84.4543996  74.2014372  63.7686030  86.6915030  75.0009739
  62.9343989  87.1193380  74.4449522  63.3851035  86.0977720  75.8307407
  64.3959335  87.4941657  75.3886441  64.4956711  87.3217961  70.6171846
  63.8132561  88.1532508  69.9979861  65.6389487  86.8129794  70.1259129
  66.1197620  86.1120047  70.6713965  66.1874583  87.1719940  68.8252012
  65.5132075  87.8425330  68.2924138  67.4947846  87.8769853  69.0390473
  67.7488739  87.7644491  70.0930272  68.2377756  87.3623562  68.4297680
  67.4781002  89.3188824  68.6855643  67.1443958  89.4082349  67.6517567
  66.7941948  89.8641562  69.3359865  68.8414445  89.8868636  68.8152902
  69.7585942  89.1146929  69.2134344  68.9785569  91.0970752  68.5498317
  66.5126535  85.9536651  67.9373433  66.8766841  84.8934702  68.4334024
  66.5820984  86.2067357  66.6445035  66.3082967  87.1226853  66.3186688
  67.0613709  85.2339877  65.6598201  67.4011855  84.3209730  66.1487264
  65.9131245  84.8893133  64.7359702  65.3523318  85.8187168  64.6368737
  66.3455306  84.6219125  63.7718013  64.9874605  83.7905017  65.1933807
  64.7136206  83.9550129  66.2355172  63.7332781  83.7953828  64.3331902
  64.0062902  83.6304561  63.2909031  63.0630041  83.0014833  64.6626702
  63.2303715  84.7577136  64.4286095  65.6919888  82.4504110  65.1039515
  66.5773939  82.4616925  65.7395850  65.0169967  81.6616008  65.4360139
  65.9886365  82.2634557  64.0718919  68.1998029  85.7952324  64.8024578
  67.9771068  86.6629543  63.9293672  69.3960409  85.2429249  64.9946169
  69.5122970  84.5554891  65.7253807  70.5825979  85.5919281  64.1544453
  70.4239225  86.5341740  63.6299512  71.8062761  85.7446526  65.0842345
  72.2070639  84.7434994  65.2428560  72.5373466  86.3468661  64.5448135
  71.5088883  86.3948864  66.4370749  72.2518144  87.1748417  66.6039029
  70.5173505  86.8441881  66.3815520  71.5511160  85.3966742  67.5920954
  70.8535484  85.7204772  68.3645267  71.2530729  84.4156239  67.2222170
  72.8901456  85.2895356  68.1828060  73.4020184  84.4398517  67.9927459
  73.4657524  86.2244966  68.9510297  74.6737917  86.0132676  69.4531247
  75.1556703  85.1481336  69.2545390  75.1070674  86.7183827  70.0320758
  72.8431581  87.3656232  69.2299479  71.9194473  87.5370788  68.8591901
  73.2967582  88.0558141  69.8113103  70.8963905  84.4890962  63.1123201
  70.6820699  83.3496045  63.3881521  71.3234714  84.8763088  61.9104718
  71.5146520  85.8553027  61.7519783  71.3822017  83.9564328  60.7579229
  71.0509971  82.9541991  61.0298243  70.4716875  84.4874781  59.6077404
  70.9616842  84.2951333  58.6532735  69.0860051  83.7807477  59.6305782
  68.5951728  83.9730364  60.5846266  68.4674867  84.1663688  58.8201274
  69.2230784  82.7069521  59.5030069  70.2872182  85.9230581  59.7221178
  69.7254003  86.2314312  59.0073682  72.8229321  83.6335422  60.2587569
  73.2636400  84.1082967  59.1893764  73.5207148  82.7698279  61.0056745
  73.2308990  82.5351483  61.9443073  74.7636366  82.1751676  60.4903218
  75.6264298  82.8298701  60.6130079  75.0719367  80.8188908  61.1677083
  75.2595563  80.9769368  62.2297439  74.2206318  80.1492515  61.0453843
  76.3048822  80.1964372  60.5211626  76.1178407  80.0376566  59.4591339
  77.1567663  80.8653395  60.6434949  76.6421410  78.8573424  61.1611363
  75.9532346  78.4123157  62.0764497  77.7069782  78.2144356  60.6763518
  77.9744711  77.3216707  61.0656072  78.2402185  78.6237473  59.9225480
  74.5298439  82.0404635  58.9515640  73.4129437  81.6484008  58.5162125
  75.4684453  82.5394090  58.1282543  76.3439615  82.9007509  58.4789720
  75.2171357  82.6024067  56.6740491  74.2251769  83.0180486  56.4969651
  76.2430489  83.4766550  55.9701607  75.9791623  83.5523363  54.9152979
  76.2296708  84.4695729  56.4196440  77.5299640  82.9246286  56.0924443
  78.1639674  83.4883483  55.6431563  75.2428519  81.2350328  56.0545862
  75.1965621  81.1190863  54.8523767  75.5069990  80.2335468  56.8940468
  75.9138277  80.4879474  57.7827932  75.4068432  78.7853840  56.5507694
  75.7128066  78.6302588  55.5161575  76.3447843  77.9238690  57.4900645
  76.4549059  76.9119449  57.1002157  77.3053779  78.4369404  57.4440480
  75.8629032  77.8605001  58.9630645  74.9489541  77.0853492  59.2202789
  76.4436426  78.5157868  59.8615032  73.9362188  78.2172068  56.4957491
  73.7031528  76.9771885  56.5954533  72.9755893  79.1074827  56.2201881
  73.1996649  80.0900541  56.1535327  71.6099905  78.7034229  56.0121317
  71.0356813  79.5435372  55.6216497  71.5772040  77.8791378  55.2996863
  70.9910997  78.2482644  57.3241496  69.8461031  77.8044841  57.3434320
  71.7542826  78.3394516  58.4120245  72.6892152  78.7135154  58.3340726
  71.2880863  77.9204890  59.7201363  70.3308659  77.3995243  59.6995416
  72.3240332  77.0461605  60.3965538  73.3134199  77.4238483  60.1385494
  72.1625678  77.0463514  61.8860147  71.1735205  76.6683277  62.1448277
  72.9237711  76.4080380  62.3345973  72.2727695  78.0628272  62.2638132
  72.2811958  75.6375285  59.7872972  71.5048626  75.6741853  59.0230565
  73.2518456  75.4960987  59.3119698  72.0068126  74.4794186  60.7325550
  71.0360574  74.6199198  61.2079428  72.0042833  73.5447658  60.1717369
  72.7830397  74.4418347  61.4968579  71.0406562  79.1380228  60.5784316
  71.8281512  80.0808692  60.5984907  69.9658105  79.0675717  61.3774287
  69.3005110  78.3180456  61.2521831  69.7431082  80.0214740  62.4744224
  70.1384029  80.9987263  62.1972595  68.2804212  80.1618709  62.7659157
  67.8159566  79.1900522  62.5987618  68.1781602  80.4371305  63.8156179
  67.6070459  81.1884007  61.9143252  67.3341293  81.9887704  62.6020938
  68.2366979  81.5908725  61.1208160  66.3637805  80.6409116  61.3038467
  65.7824931  79.6657799  61.8209320  65.9963882  81.1767441  60.1321554
  65.1617244  80.8467107  59.6689971  66.5557612  81.9082814  59.7173585
  70.3595354  79.5738378  63.7550724  70.3826011  78.4390248  64.0342075
  70.8144094  80.5391302  64.5452181  71.0622187  81.4366633  64.1539071
  71.0501680  80.3152863  65.9734298  70.7058685  79.3133954  66.2298899
  72.5559422  80.4414797  66.3671826  72.5605628  80.9928495  67.3074322
  72.8920134  79.4197806  66.5440648  73.4987650  81.1235008  65.3711116
  72.8904988  81.5990119  64.6016947  74.0813601  81.8823233  65.8934844
  74.4701709  80.1376260  64.6918219  74.7594551  79.0659593  65.2458411
  74.9900569  80.5010901  63.4928447  75.6303799  79.8830250  63.0152639
  74.7344956  81.3881506  63.0830721  70.1566796  81.3246999  66.7394015
  70.0575786  82.5094186  66.3922219  69.3602508  80.7692423  67.6437255
  69.5714927  79.8242451  67.9308780  68.2064737  81.4324128  68.2419489
  67.9628213  82.3451587  67.6982323  67.0170349  80.4901794  68.1664925
  67.2424116  79.5751231  68.7141943  66.1435430  80.9708792  68.6069920
  66.8105890  80.2475803  67.1240794  68.4547514  81.8050120  69.7230083
  68.7644631  80.9074017  70.5238981  68.3291143  83.1111268  70.0371318
  68.2661217  83.7837186  69.2862980  68.4009070  83.5946367  71.3689974
  69.1335253  83.0061231  71.9212847  68.8084437  85.0475453  71.4243019
  69.3606101  85.2613810  70.5091594  67.8922330  85.6377663  71.4415421
  69.6718960  85.4094797  72.6380179  69.0507616  85.3437367  73.5313100
  70.4846449  84.6864644  72.7072296  70.2611405  86.8398140  72.5224812
  71.3315045  86.7316768  72.3471925  69.7968245  87.3079571  71.6545227
  70.0312987  87.7199074  73.7639301  70.3444463  88.7331740  73.5122758
  68.9628410  87.7133507  73.9794629  70.7852973  87.2497270  74.9673604
  71.7754045  87.2561376  74.7679956  70.5945644  87.8646258  75.7455766
  70.4949659  86.3109874  75.2009729  67.0669976  83.3257800  72.0842616
  65.9864874  83.7151697  71.6217659  67.1522840  82.5901374  73.1893105
  68.0104918  82.5394800  73.7194167  66.0240813  81.7358248  73.6025146
  65.0502039  82.1439830  73.3322020  66.1587365  80.3222476  72.9804942
  66.9039882  80.3701441  72.1865137  66.5782452  79.2833740  74.0062179
  65.8331955  79.2345713  74.8003339  66.6596922  78.3088747  73.5247432
  67.5433080  79.5601431  74.4306636  64.8635354  79.9213180  72.2928470
  64.6345307  80.6364998  71.5028002  64.9736499  78.9265816  71.8610206
  64.0524566  79.9130044  73.0209836  65.9271500  81.7081454  75.1240316
  66.9125435  81.4068067  75.8019081  64.7608457  82.1004975  75.6522733
  64.0492840  82.5088536  75.0631855  64.5334524  82.0717518  77.0920132
  65.4674136  81.8681096  77.6157933  64.0010059  83.4153239  77.5546899
  64.7973438  84.1356035  77.3672267  63.1500462  83.6397093  76.9115579
  63.5762461  83.5012034  78.9967852  63.4749158  82.5010197  79.4180519
  64.3350228  84.0533029  79.5513535  62.2331553  84.2330173  79.1409707
  61.9067060  85.1399402  78.3660257  61.4465577  83.8239080  80.1247587
  60.5507008  84.2675631  80.2686750  61.7461600  83.0701405  80.7265680
  63.6231660  80.8885843  77.4722964  62.4781696  80.7862989  77.0199537
  64.1533929  79.9913852  78.3055264  65.0887593  80.1194309  78.6644045
  63.4120802  78.8198008  78.7235953  63.0840537  78.2439837  77.8581865
  64.1992144  77.9304968  79.6485001  64.2600205  78.3963539  80.6320550
  63.5086428  76.5679519  79.7708488  63.4478795  76.1012461  78.7876936
  64.0823881  75.9281502  80.4413492  62.5037701  76.7039260  80.1706503
  65.6236301  77.8084869  79.1408629  66.1061072  78.7764482  79.2763900
  66.1292954  77.0621062  79.7534948  65.7043125  77.4058276  77.6900959
  65.1992286  78.1520196  77.0767546  66.7497016  77.3362790  77.3893902
  65.2224144  76.4376780  77.5538591  62.1459467  79.1995080  79.4668654
  62.1855906  80.0238500  80.3987997  61.0318978  78.5911850  79.0856930
  61.0267253  78.0150843  78.2561265  59.7888969  78.7429303  79.8284271
  59.7653000  79.7211771  80.3086099  58.5867468  78.6277612  78.8982754
  58.6562001  77.6299072  78.4651902  57.6700099  78.7066527  79.4826294
  58.5680608  79.6755103  77.7713421  59.4968898  79.6183248  77.2037971
  57.3975121  79.4002984  76.8518030  56.4682309  79.4577687  77.4185766
  57.3811166  80.1407564  76.0520818  57.4991243  78.4039177  76.4216856
  58.4933120  81.1153366  78.2926192  59.3604474  81.3205015  78.9203794
  58.4832985  81.8071662  77.4503765  57.5829702  81.2434779  78.8782442
  59.7070327  77.6755203  80.8918457  59.7552952  76.5099651  80.5943717
  59.4891447  78.1005346  82.1709914  58.9484112  79.4387749  82.4802246
  58.0138801  79.5858813  81.9388269  59.6675533  80.1992799  82.1759782
  58.7535162  79.3990393  83.9610629  57.6858879  79.4746965  84.1673270
  59.2688077  80.2549277  84.3969886  59.3271147  78.0986736  84.4844210
  58.6256803  77.7600502  85.2469320  60.3347587  78.1145323  84.8997544
  59.2758346  77.1747714  83.2945693  60.0239608  76.3826829  83.2629267
  57.8898657  76.5653505  83.1859356  56.9591250  77.2679487  82.7756277
  57.7221856  75.2820044  83.5405621  58.5128312  74.6648084  83.6590860
  56.3720281  74.7235925  83.7011301  55.7246047  75.1290487  82.9236037
  56.3666406  73.1886143  83.5944580  56.5891022  72.9458823  82.5553761
  57.1734040  72.8273029  84.2321781  55.0476637  72.5153565  84.0064603
  55.2635092  71.5221601  84.4002528  54.6554093  73.1449462  84.8051169
  54.0091807  72.4054842  82.8870626  54.3431711  71.8987731  81.7935452
  52.8347401  72.7804801  83.1230466  55.8335376  75.1916700  85.0472205
  56.3732914  74.8687695  86.1234000  54.7386650  75.9615166  84.9487514
  54.3011373  76.1118785  84.0509428  54.2472962  76.7074454  86.0832072
  55.0751644  76.9185111  86.7601006  53.6107853  78.0432742  85.6520737
  53.5081556  78.6912146  86.5225562  54.2511794  78.5260718  84.9138990
  51.9744960  77.9460005  84.9062720  51.8344286  79.2535577  84.7073413
  53.3063044  75.8030844  86.9120459  52.2516726  75.3315055  86.4525941
  53.7823929  75.4915689  88.1205209  54.6296250  75.9357730  88.4445269
  53.1491369  74.5010033  88.9811787  52.3118910  73.9967116  88.4986767
  54.1160227  73.4373662  89.5243527  53.7791856  73.1194878  90.5110611
  54.1557734  72.2369527  88.5916116  54.4929876  72.5539842  87.6047587
  54.8444625  71.4908323  88.9879855  53.1584003  71.8043994  88.5125789
  55.4956451  74.0281195  89.7909999  55.4127538  74.8287877  90.5259567
  56.1564508  73.2506652  90.1744061  55.9056869  74.4279516  88.8635837
  52.4672580  75.1389387  90.1761099  53.0481101  75.9387491  90.9340961
  51.2178276  74.6724891  90.3425951  50.9371236  73.9261316  89.7227120
  50.2676660  75.1112464  91.3862996  50.6216452  76.0406392  91.8324239
  48.8609403  75.3522093  90.7940735  48.5747241  74.3263471  90.5621548
  48.2784191  75.7081237  91.6438347  48.5882394  76.2474724  89.5757323
  48.5240815  75.6327460  88.6779038  47.2773830  76.9852808  89.7780299
  47.3409403  77.6006208  90.6754796  47.0810189  77.6215133  88.9150408
  46.4674477  76.2643246  89.8890584  49.6946383  77.2504306  89.2895206
  50.6266852  76.7189973  89.0972537  49.4292831  77.8453729  88.4156032
  49.8222118  77.9069278  90.1502386  50.0995840  73.9984928  92.4276400
  50.0978350  72.8134052  92.0606655  49.9377752  74.3787800  93.7055197
  49.6869024  75.7568907  94.1402607  48.8152182  76.1458325  93.6139610
  50.5563529  76.3708880  93.9053946  49.4589782  75.6299781  95.6155108
  48.4402780  75.9558470  95.8256496  50.1629286  76.2909479  96.1211531
  49.6725593  74.2108862  96.0249279  48.8394700  73.9556625  96.6798493
  50.6126133  73.9976024  96.5337580  49.5842842  73.4031981  94.7358862
  50.2842044  72.5682087  94.7042218  48.1721422  72.8911166  94.4815369
  47.6209551  73.1524992  93.4095789  47.5826337  72.1571700  95.4255427
  48.0886464  71.8439573  96.2415993  46.1814903  71.7559122  95.2809665
  46.0274477  71.3340597  94.2877844  45.7892399  70.7042531  96.3264319
  46.1762624  69.7357880  96.0095909  46.2360270  70.9784956  97.2820847
  44.3813005  70.6264447  96.4685459  44.1623250  69.9629000  97.1268453
  45.2935462  72.9933893  95.4247290  45.7225049  74.0060710  95.9827246
  44.0561469  72.9018861  94.9659491  43.7729633  72.1043422  94.4147412
  43.1060198  73.9746504  95.1578565  43.5165961  74.9127670  94.7844085
  41.8351427  73.6467519  94.3664124  40.9728138  73.7635123  95.0228087
  41.6886110  74.5734751  93.1665255  42.5504060  74.4569293  92.5093907
  40.7794487  74.3211269  92.6207753  41.6309707  75.6064933  93.5095293
  41.9150786  72.2895311  93.8863594  41.1211633  72.0785517  93.3895832
  42.8083285  74.2280951  96.6482989  42.3836330  75.3318772  97.0317516
  43.0702647  73.2261896  97.4867921  43.5156151  72.3863240  97.1456351
  42.6731708  73.2768547  98.8850634  41.8722278  74.0034712  99.0215108
  42.1702133  71.9082353  99.3296651  42.9347883  71.1758277  99.0706217
  42.0479497  71.9376122 100.4123879  40.8521179  71.5152201  98.6816059
  41.0451629  71.2921403  97.6322872  40.4842432  70.6190864  99.1813204
  39.5991792  72.8143849  98.7923908  38.5659639  72.4214753  97.3774410
  38.1598777  71.4163792  97.4913488  37.7474309  73.1384969  97.3143189
  39.1624724  72.4706922  96.4664763  43.7901193  73.7385583  99.8234944
  43.5324692  74.2337148 100.8964047  45.0290961  73.5375634  99.4276239
  45.1732553  73.0051151  98.5815646  46.1968369  73.9751889 100.1735832
  46.3076713  73.3923996 101.0880073  47.4396537  73.7717306  99.3120774
  47.4276419  74.4934153  98.4952995  48.3267109  73.9320619  99.9248770
  47.4639382  72.4570179  98.7805562  48.2503724  72.3442158  98.2416715
  46.1702948  75.4179217 100.6754265  47.0448343  75.8069541 101.4323726
  45.1875677  76.2064432 100.2505380  44.4744883  75.8238892  99.6461626
  45.1025498  77.6319106 100.6164788  46.0702756  78.0186987 100.9358547
  44.6220287  78.4490510  99.4066602  43.6497277  78.0794092  99.0809367
  44.5355949  79.4986509  99.6876756  45.3394984  78.3494223  98.5921600
  44.1177233  77.8062507 101.7910072  44.2624439  78.6486180 102.6569115
  43.0987387  76.9864359 101.7515102  43.1653427  76.1848935 101.1406149
  41.8929019  77.1640109 102.5138821  41.7718812  78.0468712 103.1415848
  40.7495372  77.1337333 101.4807949  41.1747099  77.3639195 100.5038907
  40.0423656  75.7743546 101.4226320  39.6165089  75.5436766 102.3991230
  39.2463385  75.8098482 100.6788703  40.7608583  75.0018767 101.1485009
  39.8195458  78.3014310 101.6775182  40.3743118  79.2322732 101.5597490
  39.0206423  78.2590479 100.9372097  39.3894866  78.2594975 102.6782137
  41.7547669  76.0242860 103.5573969  40.8149518  76.0349471 104.3733809
  42.7142233  75.0955057 103.5370575  43.5445525  75.2558962 102.9848550
  42.5993663  73.8277601 104.2696738  41.6305755  73.3650815 104.0813333
  43.7022699  72.8690424 103.7938955  43.6251084  72.8248740 102.7075279
  44.6510405  73.3280223 104.0718739  43.6343925  71.4610705 104.3641742
  44.6283477  71.0136893 104.3661731  43.2724345  71.5454393 105.3888548
  42.6943938  70.5520902 103.5905166  42.8368443  70.3759726 102.3841213
  41.7503048  69.9451295 104.2933414  41.0974632  69.3291671 103.8302111
  41.6874565  70.1009679 105.2892660  42.7185666  74.0358274 105.7676836
  43.6980691  74.5748255 106.2589982  41.7196218  73.5625697 106.4851830
  40.8853007  73.2361729 106.0188432  41.7779015  73.4746333 107.9334290
  41.8336024  74.4715156 108.3707187  40.5054222  72.7756328 108.4591340
  40.5832168  71.8085393 107.9623670  40.5473075  72.6332408 109.5389813
  39.1763458  73.4369004 108.0829650  39.0994052  73.4123828 106.9959600
  37.9445387  72.7535356 108.6991370  38.0205433  72.7780739 109.7862064
  37.0423431  73.2793064 108.3865527  37.8962249  71.7180796 108.3620955
  39.2230368  74.9351942 108.4005833  40.0274134  75.4026358 107.8326254
  38.2726169  75.3945186 108.1288768  39.4023416  75.0757535 109.4665063
  42.9866619  72.6585785 108.3364116  43.2263167  71.6235076 107.7403143
  43.7526739  73.1435459 109.3152952  43.5349990  74.0327536 109.7419409
  44.9896293  72.4687271 109.7104397  45.5613071  72.2154887 108.8176049
  45.8546679  73.3560173 110.6100319  45.1851891  73.8708600 111.2991141
  46.5189046  72.6994583 111.1720104  46.6865615  74.3865792 109.8414252
  45.9625413  75.0222984 109.3317619  47.2613779  74.9854850 110.5478225
  47.6335019  73.7644722 108.8111933  48.7141468  73.2696206 109.2054046
  47.3185420  73.8119383 107.5980886  44.7288582  71.1181181 110.3597029
  45.5071349  70.1839604 110.1727621  43.6326663  71.0092847 111.1062869
  43.0442289  71.8134713 111.2709826  43.2964064  69.7489330 111.7845337
  44.1435982  69.4260283 112.3895939  42.0762870  69.9170496 112.6994230
  42.0324554  69.0610685 113.3728281  42.2071462  70.8297257 113.2807991
  40.8690939  69.9977288 111.9584326  40.1296934  70.1021534 112.5617419
  43.0604701  68.5873886 110.8013660  43.3043073  67.4259969 111.1456664
  42.5980713  68.9105332 109.5886064  42.4226565  69.8830331 109.3798652
  42.2577454  67.9136382 108.5782834  42.0300058  66.9584626 109.0514361
  41.0287036  68.3771921 107.7976995  41.3780577  69.2492622 107.2449386
  40.7271177  67.5996608 107.0958512  39.8274411  68.7722559 108.6713534
  40.0870081  69.6700334 109.2323538  38.5897160  69.0433354 107.8235147
  38.3292447  68.1458074 107.2625361  37.7582133  69.3201724 108.4716392
  38.7955062  69.8581136 107.1293337  39.5362823  67.7002588 109.7127110
  40.4077492  67.5700607 110.3543443  38.6820808  68.0035292 110.3180772
  39.3102889  66.7586836 109.2122490  43.4308004  67.6162908 107.6316238
  43.3479408  66.7007538 106.8121567  44.5278562  68.3486026 107.7911298
  44.5339004  69.1482734 108.4080491  45.7596051  68.0140060 107.0779386
  45.6363994  68.2321928 106.0171304  46.9481196  68.8297162 107.6124779
  46.8367396  69.0270265 108.6786685  47.8309756  68.2119375 107.4481160
  47.1399571  70.1495345 106.8932568  47.4374416  71.1690711 107.5203071
  47.0366019  70.1275775 105.5677691  47.1559918  70.9808865 105.0407877
  46.8391822  69.2576905 105.0940361  46.1158097  66.5333797 107.2294312
  46.4957774  65.8689180 106.2584285  45.9697114  66.0246927 108.4506363
  45.6840902  66.6453343 109.1944937  46.3459092  64.6547081 108.7968611
  47.3798822  64.4648970 108.5088145  46.2130353  64.4472406 110.3079213
  45.2025498  64.7299091 110.6030768  46.3712168  63.3902214 110.5219048
  47.2270075  65.2841638 111.0936496  48.1908159  64.7799462 111.0233725
  47.2911498  66.2585828 110.6094025  46.8569039  65.4695000 112.5599739
  46.4979318  64.5109952 112.9348160  47.7621100  65.7530553 113.0969075
  45.7870889  66.5304085 112.7742027  46.1361093  67.2181836 113.5444305
  45.6501905  67.0726416 111.8386060  44.4886436  65.9307292 113.1952412
  44.6151843  65.4285984 114.0623928  43.8063401  66.6636578 113.3270662
  44.1648467  65.2937114 112.4814745  45.5947153  63.5968482 107.9829096
  46.0058899  62.4416342 107.9534654  44.5338780  63.9934591 107.2852228
  44.2570428  64.9647506 107.2778467  43.7103884  63.0354248 106.5611667
  43.9725772  62.0188024 106.8541431  42.2389459  63.2707000 106.8821802
  41.8627250  64.1516772 106.3621453  41.6371802  62.4037797 106.6093668
  41.9344176  63.5590320 108.6429153  40.6179904  63.7133346 108.5328767
  43.9257987  63.1023816 105.0526495  43.3079382  62.3450676 104.3008617
  44.7727480  64.0296717 104.6334671  45.3423744  64.5369979 105.2954680
  44.8493633  64.4067380 103.2167214  43.8423447  64.4617996 102.8032229
  45.5335630  65.7785528 103.0335906  45.9637205  66.0475181 103.9983297
  46.3332312  65.6373686 102.3064745  44.6049635  66.8991372 102.5591199
  43.6221695  66.8071248 103.0214515  45.0723310  67.8292902 102.8823615
  44.4278488  66.9429694 101.0346239  44.0521089  65.9449627 100.4127268
  44.6372660  68.1201487 100.4383787  44.5334580  68.2011118  99.4369945
  44.8984215  68.9236818 100.9917626  45.5647190  63.3467330 102.3877554
  45.2915462  63.2139018 101.1924749  46.4501492  62.5753712 103.0244667
  46.7880484  62.8280591 103.9421116  47.0006793  61.3813866 102.3884073
  47.0288081  61.5207511 101.3077198  48.4176128  61.0133456 102.8987007
  48.3329262  60.4719859 103.8409630  49.1261584  60.1335893 101.8675910
  49.2116360  60.6744826 100.9251322  50.1215483  59.8774167 102.2304620
  48.5509743  59.2209941 101.7112823  49.2355293  62.2815020 103.1919445
  49.0411925  62.9795725 102.3776769  48.8535965  62.6966045 104.1246377
  50.7311495  62.0522894 103.3154225  51.1139084  61.6375998 102.3828840
  51.2286060  62.9998275 103.5223226  50.9263121  61.3546296 104.1298439
  46.0414991  60.2028801 102.6127526  45.5665567  59.9619232 103.7272190
  45.7601910  59.4878308 101.5262332  46.0865039  59.8124138 100.6271976
  44.9973209  58.2361380 101.5786480  44.5430411  58.1178657 102.5623861
  43.8930397  58.2511423 100.5317034  44.2626461  57.9435565  99.5535003
  43.0974775  57.5763074 100.8475809  43.2714759  59.5834223 100.3501476
  42.7382432  60.2603616 101.4427363  42.7744552  59.7906980 102.4256934
  42.1711806  61.5048825 101.2956183  41.7492559  62.0267069 102.1545592
  42.1392470  62.0926458 100.0469616  41.6921825  63.0788064  99.9215799
  42.6757702  61.4291286  98.9513696  42.6467653  61.8951574  97.9664452
  43.2438262  60.1843403  99.1077040  43.6738855  59.6697174  98.2484531
  45.8862579  57.0128059 101.3014054  46.9434622  57.1358391 100.6594748
  45.4318228  55.8131727 101.7292967  44.8621795  55.5859469 103.0697459
  43.8134153  55.8829214 103.0697830  45.4086857  56.1841867 103.7988133
  45.0456618  54.0976829 103.2895442  44.1604958  53.6948281 103.7817722
  45.9187838  53.9320417 103.9206720  45.2416349  53.4921084 101.9392735
  44.2649302  53.3201147 101.4869847  45.8174086  52.5667480 101.9221727
  45.9832292  54.5800408 101.1722988  47.0550116  54.5515329 101.3686866
  45.7405681  54.5144286  99.6662312  44.6597011  54.8501422  99.1885452
  46.7515838  54.0825304  98.9249647  47.5947555  53.7474539  99.3686816
  46.7237349  54.1696952  97.4633257  46.3691355  55.1553827  97.1620306
  48.1157928  53.9535114  96.8802748  48.8432856  53.9323936  97.6916979
  48.1365805  53.0017046  96.3494906  48.4388618  54.9988843  95.9853067
  49.3165033  54.8519445  95.6250929  45.7082485  53.1930932  96.8201859
  45.3349743  52.1590128  97.4042828  45.2665045  53.5736710  95.6283500
  45.7092451  54.3678477  95.1886191  44.1389962  52.9446544  94.9468252
  43.2969480  52.8513486  95.6326445  43.6969068  53.8000982  93.7338673
  42.6205637  53.6585586  93.6361364  43.9038898  54.8368088  93.9993652
  44.3773593  53.4689306  92.4040082  45.4496324  53.3807980  92.5788333
  43.9884375  52.5154340  92.0466761  44.1215791  54.5419699  91.3614119
  44.3043011  54.1284041  90.3696080  43.0845754  54.8701537  91.4322510
  45.0434092  55.7253647  91.5934723  44.8978335  56.0785608  92.6143351
  46.0724653  55.3880490  91.4695335  44.7689893  56.8281478  90.6467346
  43.8156212  57.1411469  90.7617150  45.3997294  57.5950889  90.8313111
  44.9042408  56.5011957  89.7007386  44.4639677  51.5207166  94.4876862
  45.4816436  51.2885874  93.8533821  43.5532098  50.5675229  94.7538214
  42.5119947  50.6124130  95.8001430  42.1198169  51.6261581  95.8814924
  42.9416813  50.3118547  96.7557230  41.4880541  49.6372094  95.3018293
  40.7814300  50.1507736  94.6498835  40.9532845  49.2050502  96.1476196
  42.2505694  48.5881657  94.5608679  41.6416559  48.2384325  93.7271953
  42.5213693  47.7420400  95.1924044  43.5278982  49.2776954  94.0261193
  44.4451227  48.7415451  94.2697178  43.4248914  49.4488926  92.5034076
  42.8099073  50.4114511  92.0505515  44.0238779  48.5334891  91.7443459
  44.4694090  47.7349748  92.1732704  44.2031263  48.7394501  90.2933452
  44.2872297  49.7963751  90.0404907  45.4538568  47.9933965  89.7379289
  45.6157571  48.2953668  88.7031818  46.6903296  48.3313793  90.5653820
  46.5293499  48.0292581  91.6002294  47.5535647  47.8014277  90.1627942
  46.8726968  49.4052613  90.5251173  45.2414836  46.4844506  89.6826404
  44.3954150  46.2596445  89.0332314  46.1379938  46.0049963  89.2895847
  45.0390100  46.1085229  90.6855281  42.9314170  48.4151077  89.4815870
  42.4747981  47.2641823  89.3889047  36.0509906  50.5624205  92.6812092
  35.1924137  51.0934872  92.7114279  36.9963018  50.8289714  91.5898104
  38.0132690  50.8430012  91.9818310  36.9021274  49.7389344  90.5028387
  37.5147978  50.0479569  89.6559389  37.2960712  48.8103690  90.9159665
  35.5661668  49.5345397  90.0701772  35.5491321  48.8512326  89.3960844
  36.7163778  52.2133939  90.9893890  37.5175705  52.7397891  90.1901492
  35.5405080  52.7487619  91.3358617  34.8488183  52.1385384  91.7473127
  35.1480184  54.1184908  91.0052737  36.0396032  54.7402373  90.9239897
  34.3801962  54.1769088  89.6625934  34.8217308  54.9012138  88.9781019
  34.5749023  53.1681361  89.2984956  32.8945381  54.4031680  89.7419405
  32.3842974  55.6567854  90.0440213  33.0776774  56.4719686  90.2509030
  31.0266245  55.8808036  90.0850959  30.6369833  56.8558427  90.3776372
  30.1595429  54.8656046  89.7490462  28.8145892  55.0926989  89.7938303
  28.5938742  55.9852703  90.0698754  30.6371061  53.6270376  89.3745384
  29.9510580  52.8268543  89.0967884  32.0006958  53.4061076  89.3537482
  32.3916220  52.4413113  89.0305689  34.4035501  54.7266571  92.1990345
  34.2659100  55.9541350  92.2604444  34.0269342  53.9010515  93.1924101
  33.9326129  52.9132755  93.0039923  33.6875140  54.3891015  94.5348758
  32.9137900  55.1525384  94.4535463  33.1694080  53.2598738  95.4354119
  32.4693716  53.7215887  96.1317362  32.6316927  52.5716909  94.7832105
  34.2337125  52.4928497  96.2175678  34.8018889  51.8820834  95.5159690
  34.8987867  53.2149598  96.6912084  33.6128585  51.5954675  97.2865068
  34.3562743  50.8515414  97.5728735  33.3718647  52.2179415  98.1482188
  32.3503284  50.8909441  96.7995195  31.5626419  51.6373429  96.6968582
  32.5614291  50.4498967  95.8253466  31.9053204  49.8268100  97.7394197
  31.7092450  50.2353530  98.6420530  31.0697573  49.3879153  97.3798286
  32.6348992  49.1348559  97.8343578  34.9172947  55.0523069  95.1549394
  34.8020338  56.0239540  95.9221961  36.0909126  54.5245982  94.7896182
  36.1065506  53.6737304  94.2456709  37.3605224  55.1017700  95.2040077
  37.4180712  55.0990133  96.2924836  38.5360290  54.3181905  94.6548508
  38.3639316  53.3115852  95.0359381  38.7100467  54.2742843  93.5797274
  39.7942744  54.7929709  95.2677896  40.2460029  54.5030228  96.5246530
  39.6574166  53.7929509  97.1055693  41.4000366  55.2062062  96.7908831
  41.9527719  55.1346068  97.6331756  41.6829410  56.0136220  95.7187591
  42.7390455  56.9010272  95.5169686  43.4858347  57.0091832  96.3035479
  42.7704094  57.5866245  94.3313829  43.5800080  58.2914534  94.1419992
  41.7820758  57.4042210  93.3490007  41.8160092  57.9566563  92.4099782
  40.7350137  56.5167916  93.5446078  40.0177784  56.3774159  92.7357514
  40.6756368  55.8016994  94.7501514  37.4791843  56.5576323  94.7821994
  38.0365584  57.3626640  95.5171525  36.9483997  56.9001977  93.6139393
  36.5954939  56.1889930  92.9896440  36.9705097  58.2808935  93.1466478
  37.9000481  58.7558180  93.4605015  36.8771461  58.3494071  91.6164451
  36.1134112  57.6158134  91.3582815  36.6210327  59.3113734  91.1724555
  38.1281327  57.9037508  90.9673996  38.4266912  56.6443303  90.5686132
  37.6375636  55.8985507  90.6644786  39.7153885  56.5860731  90.1119575
  40.1697001  55.7669868  89.7340710  40.2846768  57.8232530  90.2374232
  41.5590492  58.2590469  89.9073192  42.2581770  57.5407108  89.4791693
  41.8598499  59.5727429  90.1418478  42.8501590  59.9522327  89.8901032
  40.9210509  60.4458312  90.7004229  41.1697522  61.4896393  90.8920262
  39.6497072  60.0111619  91.0262186  38.9539574  60.7282179  91.4619520
  39.3142269  58.6767061  90.7827816  35.9103904  59.1295370  93.7966879
  36.0980842  60.3293196  93.9649099  34.7987247  58.5136364  94.1813915
  34.5829482  57.5745147  93.8787528  33.8102563  59.2267967  94.9703793
  33.6606630  60.2173944  94.5409178  32.4641376  58.4985540  95.0010235
  32.6680216  57.4279066  94.9853852  31.9690220  58.7599813  95.9362328
  31.5542768  58.8622125  93.8226942  30.7036593  59.4297768  94.2000821
  32.1271142  59.4823874  93.1332433  31.0318194  57.6474743  93.0656881
  29.8440262  57.5444774  92.7703834  31.9245595  56.7273055  92.7423639
  31.6340321  55.9007461  92.2398753  32.8929025  56.8552246  92.9993658
  34.3604717  59.4626088  96.3633878  34.1627463  60.5431439  96.9349100
  35.0688115  58.4580899  96.8795054  35.0637499  57.5612383  96.4150370
  35.7915601  58.5796407  98.1406897  35.0745806  58.8743636  98.9069651
  36.4213075  57.2404501  98.5473905  35.6428736  56.4816553  98.6272051
  37.1482959  56.9366016  97.7942212  37.1197087  57.3953550  99.8941885
  37.8986395  58.1537098  99.8150323  36.3932180  57.6987609 100.6480175
  37.7454625  56.0646620 100.2983087  36.9670297  55.3058660 100.3781218
  38.4724517  55.7608156  99.5451398  38.4438617  56.2195674 101.6451081
  39.2227920  56.9779227 101.5659532  37.7173700  56.5229701 102.3989355
  39.0470488  54.9368671 102.0346519  39.7205771  54.6557606 101.3364840
  39.5095943  55.0394591 102.9266309  38.3253865  54.2341201 102.1084707
  36.8684809  59.6893374  98.0667984  36.8411018  60.6502143  98.8435840
  37.7842680  59.5423090  97.1085027  37.7869631  58.6709103  96.5978594
  38.8006132  60.5522440  96.7707871  39.6137266  60.5294817  97.4963405
  39.3845164  60.2453776  95.3585102  39.6947202  59.2004515  95.3569393
  38.5593833  60.3799392  94.6591187  40.5616143  61.1273921  94.9342213
  41.7875975  61.0540987  95.5949536  41.9071061  60.3269513  96.3981185
  42.8413311  61.8821678  95.2485823  43.7873988  61.8236163  95.7867547
  42.6940254  62.7727469  94.2139558  43.7441244  63.5994970  93.8930021
  44.5125841  63.4641576  94.4522450  41.5019729  62.8394817  93.5178020
  41.3900131  63.5431023  92.6928876  40.4510329  62.0127561  93.8685767
  39.5178908  62.0491441  93.3064186  38.2353839  61.9727598  96.7809156
  38.7493208  62.8566148  97.4775920  37.1773140  62.1820634  96.0010014
  36.8212057  61.4345774  95.4225976  36.5424210  63.4979793  95.9035203
  37.2865880  64.2278579  95.5847855  35.3924772  63.5078098  94.9052906
  35.8060785  63.2832162  93.9221371  34.6966089  62.7203334  95.1946837
  34.6564913  64.8424469  94.8539694  34.2005435  65.1024276  95.8092822
  35.4129218  65.5846888  94.5990345  33.5943594  64.8581083  93.7962078
  33.7345891  65.5192652  92.7838269  32.5584257  64.0572599  93.9867260
  31.8140173  64.0286124  93.3047166  32.5168788  63.4783079  94.8132789
  36.0285431  64.0004877  97.2466549  36.1655413  65.1874436  97.5497377
  35.4258537  63.1058646  98.0361669  35.2788667  62.1628545  97.7056732
  34.8263727  63.4950985  99.3160167  34.2578237  64.3969753  99.0891480
  33.8653256  62.4350452  99.8612612  33.1094173  62.2080934  99.1094669
  34.4214530  61.5289372 100.1016584  33.1867333  62.9637182 101.1204838
  33.9420276  63.1904739 101.8729553  32.6299896  63.8696284 100.8807648
  32.2295876  61.9079665 101.6635175  31.4736799  61.6810126 100.9117233
  32.7857161  61.0018600 101.9039158  31.5509940  62.4366414 102.9227392
  32.3062875  62.6633983 103.6752108  30.9942492  63.3425488 102.6830179
  30.6283701  61.4189651 103.4461885  31.1441308  60.5795957 103.6687863
  30.1789397  61.7691036 104.2801641  29.9281646  61.2090150 102.7492435
  35.8805989  63.8907973 100.3395847  35.6444114  64.8050157 101.1259124
  37.0364075  63.2200728 100.3178306  37.1757095  62.4933403  99.6304048
  38.0874419  63.4400812 101.3225395  37.5802023  63.7576963 102.2335433
  38.8504220  62.1346238 101.6137583  38.1460319  61.3631508 101.9248262
  39.3710102  61.8088154 100.7132380  39.8640371  62.3758730 102.7273146
  40.5690914  63.1469527 102.4167742  39.3441143  62.7012856 103.6283635
  40.6196566  61.0830137 103.0157225  39.9152673  60.3115395 103.3267887
  41.1402456  60.7572074 102.1152023  41.6144919  61.2793185 104.0937617
  41.6963789  62.1944593 104.5131793  42.4055949  60.3056907 104.5354692
  42.3564977  59.0751603 104.0331897  41.7030195  58.8606139 103.2935708
  42.9729154  58.3608982 104.3936875  43.2645872  60.5925922 105.5094921
  43.2993192  61.5280536 105.8887094  43.8782266  59.8736864 105.8654695
  39.0688692  64.5449789 100.9314495  39.4900619  65.3200339 101.7807925
  39.4332631  64.6163401  99.6511329  39.0785621  63.9452612  98.9848449
  40.3726774  65.6330694  99.1782490  41.2443621  65.6588929  99.8321588
  40.8392505  65.3223166  97.7525733  41.1268938  64.2712611  97.7272170
  39.9879938  65.4815779  97.0906836  42.0142342  66.1833408  97.2874318
  41.6210768  67.1482855  96.9674164  42.6845626  66.3276304  98.1347466
  42.7820347  65.5395957  96.1353694  43.0616001  64.5291938  96.4337486
  42.1219843  65.4925827  95.2692154  44.0339474  66.3268732  95.7765452
  43.7590225  67.3761957  95.6695916  44.7499393  66.2206515  96.5915125
  44.6499152  65.8431990  94.5082365  43.9867726  65.9419407  93.7528613
  45.4751790  66.3889448  94.3052557  44.9051297  64.8710077  94.6072756
  39.7865418  67.0462477  99.1866203  40.4427721  68.0033906  99.5955755
  38.5567724  67.1693882  98.7258679  38.0417007  66.3521130  98.4311448
  37.9198370  68.4737541  98.5905129  38.6678485  69.2642268  98.6515946
  37.2318469  68.5683911  97.2667536  36.4994770  67.7692117  97.1525362
  36.7335287  69.5332785  97.1730978  38.1533364  68.4593914  96.1290497
  39.2186471  69.3063668  96.0343559  39.3948474  70.0470362  96.8143956
  40.0594532  69.2276810  94.9697017  40.9035923  69.9122725  94.8868512
  39.8425213  68.2779781  93.9918259  40.5264156  68.2174406  93.1452305
  38.7798866  67.4161218  94.0775534  38.5910745  66.6761819  93.2997750
  37.9552135  67.4951604  95.1548013  37.1265538  66.7948080  95.2593455
  36.9268296  68.7319696  99.6874140  35.9522128  69.4698553  99.4912922
  37.1877885  68.1716376 100.8607518  38.0098091  67.5988054 100.9882066
  36.2817713  68.3338942 101.9823835  35.3086920  67.9086146 101.7367147
  36.8280288  67.6209643 103.2138557  36.8182994  66.5513763 103.0041271
  37.8406800  67.9308954 103.4718873  35.9947152  67.8242060 104.4358238
  36.1181686  68.9361872 105.2427273  36.7838489  69.6813319 105.0953208
  35.2368157  68.8658190 106.2227950  35.1793390  69.6525695 106.9750044
  34.5396373  67.7520067 106.0776937  34.9834923  67.0900622 104.9575230
  34.5156800  66.1524262 104.6573706  36.0478797  69.7939961 102.3200210
  34.9033017  70.2427832 102.4929726  37.1380283  70.5430547 102.3836476
  38.0420977  70.1342886 102.1947874  37.0853450  71.9427669 102.8264074
  36.3967361  72.0439789 103.6652597  38.4750406  72.4014097 103.2761703
  39.2325765  72.1317853 102.5402754  38.4965501  73.4786576 103.4410165
  38.9961789  71.6469864 104.8300961  40.1784141  72.2533675 104.8894278
  36.5164476  72.9154637 101.7914283  36.6695799  74.1351356 101.9400820
  35.8857727  72.3919282 100.7411770  35.9324616  71.3969658 100.5739364
  35.1329124  73.2137213  99.8064961  35.7877167  73.9150096  99.2892677
  34.4503195  72.3323484  98.7716392  33.7842457  71.6306966  99.2737651
  33.8730551  72.9545221  98.0877050  35.2038174  71.7793386  98.2108181
  34.0927885  74.0148229 100.5503284  33.7529657  75.1355151 100.1567098
  33.5990353  73.4411347 101.6515257  33.8597370  72.4964534 101.8958843
  32.5510106  74.0834208 102.4161229  31.7573813  74.3884054 101.7340408
  31.9464673  73.1561371 103.4938290  31.3842894  73.6908628 104.2594161
  31.2676331  72.5266770 102.9184473  32.9776433  72.2618761 104.1804901
  33.8144792  72.7237870 104.9547903  32.8273861  70.9620547 104.0010988
  33.4769324  70.3178785 104.4291483  32.0636268  70.6182252 103.4366932
  32.9685855  75.4229125 102.9917723  32.1074642  76.2229217 103.3621278
  34.2855442  75.6642648 103.0187171  34.9041105  74.9311974 102.7023515
  34.8787261  76.9202116 103.4866473  34.2746100  77.3346305 104.2937408
  36.2756927  76.6874243 104.0014981  36.8168277  76.3716380 103.1095614
  36.6308688  77.6698746 104.3125309  36.5127383  75.6907410 105.1137561
  37.1294152  74.8629052 104.7637587  37.2362486  76.4249403 106.2222859
  36.6199485  77.2526934 106.5731387  37.4276696  75.7396881 107.0480511
  38.1828543  76.8118742 105.8450322  35.2376698  75.0769840 105.6466621
  34.7213667  74.5541427 104.8415736  35.4781802  74.3713706 106.4418764
  34.5930275  75.8623854 106.0412251  34.9386164  77.9350574 102.3566918
  35.1792351  79.1263247 102.5761432  34.7254794  77.4443298 101.1380459
  34.4423154  76.4796683 101.0413726  34.8131718  78.2567021  99.9434487
  35.2472760  79.2280292 100.1804646  35.6500168  77.6025818  98.8293231
  36.2622871  78.3757938  98.3652449  36.5420932  76.5052302  99.3596175
  35.9304615  75.7313742  99.8234636  37.1137111  76.0723898  98.5386417
  37.2268170  76.9188621 100.0999976  34.7740302  77.0743129  97.8207819
  35.2955842  76.6662645  97.1257435  33.4402885  78.4191272  99.3596186
  32.4712113  78.0099464  99.9293883  33.3765160  78.9960274  98.1760333
  34.2200616  79.3136069  97.7203212  32.1026907  79.2507549  97.5232264
  31.2843601  79.0505543  98.2148579  32.0183941  80.7237924  97.0730124
  31.2478878  80.7979233  96.3055987  31.7298292  81.3238220  97.9360274
  33.2508743  81.2032917  96.5540384  33.1508893  82.1202112  96.2878403
  31.8674741  78.3235365  96.3241332  31.1917473  78.7080501  95.3490289
  32.4542630  77.1358464  96.3333015  33.2214798  76.9488505  96.9629922
  32.1093211  76.1139187  95.3299109  31.1003374  76.2789763  94.9520128
  33.0834209  76.2002387  94.1671398  34.0998811  76.4943872  94.4286442
  33.1008714  75.2212263  93.6882554  32.6248593  77.1396924  93.1704087
  31.4616127  77.0824134  92.4570270  30.8225314  76.2177499  92.6360011
  31.3493731  78.1695772  91.6394854  30.6096770  78.3442118  90.9743147
  32.4317223  78.9711572  91.8480487  32.7681941  80.1522717  91.2574285
  32.0869590  80.5931786  90.5296795  33.9471283  80.7062023  91.6224339
  34.2661944  81.6376823  91.1548425  34.7794171  80.1079597  92.5970308
  35.7191929  80.5756489  92.8906080  34.4385927  78.9483946  93.1892880
  35.1310748  78.5053213  93.9050082  33.2471932  78.3446781  92.8185394
  31.9893786  74.6842808  95.8435432  32.4474882  74.3638651  96.9326090
  31.3843146  73.7945456  95.0320656  30.6093074  74.1097701  93.8156618
  31.2586054  74.6122246  93.0986877  29.7821383  74.7686209  94.0798700
  30.1411536  72.7719070  93.3290580  30.8323447  72.3944182  92.5754957
  29.1467571  72.8687076  92.8932753  30.1120371  71.8958964  94.5238499
  30.2975697  70.8611341  94.2358506  29.1605661  71.9605706  95.0516944
  31.2421185  72.3953861  95.4231180  30.9873934  72.3854411  96.4828889
  32.4892312  71.5448871  95.1920873  33.3425246  71.9166803  94.4162734
  32.5301714  70.3907025  95.8470818  31.8404106  70.2345671  96.5681582
  33.5778375  69.3598716  95.6404531  34.5477042  69.7430571  95.9576700
  33.2504546  68.1076905  96.4674965  32.2998672  67.7056334  96.1170212
  34.0383800  67.3730117  96.3016033  33.1517092  68.4200608  97.9604490
  33.9984202  69.0587441  98.2119743  32.2236962  68.9710990  98.1129309
  33.1625886  67.1957085  98.8489512  33.5250927  66.3367002  98.2843323
  33.8156983  67.3696070  99.7041158  31.8198011  66.9005781  99.3385079
  31.5705001  67.2830005 100.2394527  30.9111847  66.1830150  98.6788879
  31.1997148  65.6335200  97.5041800  32.1181713  65.7592431  97.1032669
  30.4992739  65.0925959  97.0174735  29.7069741  66.0026616  99.2092456
  29.4879361  66.4096577 100.1072860  29.0157907  65.4593414  98.7120862
  33.7610697  69.0092974  94.1725492  34.8855486  68.9620339  93.6843266
  32.6483840  68.7982432  93.4712821  31.7545465  68.8968024  93.9311081
  32.6664160  68.3471104  92.0668751  33.3572858  67.5089781  91.9755934
  31.2674226  67.8926738  91.5724483  31.3208294  67.5580292  90.5364658
  30.9162366  67.0739701  92.2005349  30.2058294  68.9638794  91.6259402
  29.3217915  69.1524999  92.6104483  29.3284324  68.4210296  93.4185368
  28.5786174  70.2640917  92.3735331  27.8497678  70.6218763  92.9742560
  28.9364915  70.7855236  91.1682821  28.4164535  71.8681824  90.4711656
  27.6119083  72.4431672  90.9296395  28.9459696  72.1430842  89.2565370
  28.5426143  72.9619592  88.6608457  29.9962597  71.4011913  88.7511643
  30.4564018  71.6653012  87.7990011  30.4974836  70.3018640  89.4344176
  31.3242461  69.7471901  88.9906820  29.9492086  69.9816199  90.6609282
  33.2008503  69.3818426  91.1048735  33.5504974  69.0352723  89.9650551
  33.2775204  70.6411482  91.5413356  32.8473576  70.9402085  92.4048298
  33.8986281  71.6535426  90.6896733  33.7381940  71.3710247  89.6492197
  33.3525953  73.0202314  90.9004809  32.2718900  72.9575458  90.7730211
  33.5784104  73.4695546  91.8675467  33.9447179  73.8783194  89.7922676
  34.6048743  73.2593571  89.1846658  32.8487864  74.4651783  88.9134617
  32.1884533  75.0846820  89.5203177  33.2983534  75.0742391  88.1292199
  32.2737873  73.6573808  88.4607591  34.8359069  74.9388376  90.4205331
  35.6356585  74.4559691  90.9820798  35.2675932  75.5619444  89.6372795
  34.2440070  75.5596513  91.0930982  35.3934245  71.6402198  90.8547675
  36.1302605  71.4973705  89.8922272  35.8405221  71.7776984  92.0908963
  35.1998128  71.9968045  92.8402851  37.2461338  71.6832100  92.3988760
  37.7810568  72.5179643  91.9459502  37.4638616  71.7257647  93.9057684
  36.7720512  71.0459226  94.4030736  38.4861870  71.3815207  94.0621233
  37.3078965  73.1024429  94.4767168  38.3312658  74.0159261  94.4035551
  39.2594052  73.7147874  93.9177853  38.2059256  75.2953677  94.9291034
  39.0487913  75.9855927  94.8934841  37.0224778  75.6886618  95.4940494
  36.8823129  76.9721455  96.0021080  37.6768053  77.5023990  95.9061244
  35.9760013  74.7971470  95.5495067  35.0285927  75.0975587  95.9970221
  36.1264006  73.5116696  95.0344281  35.2937801  72.8091532  95.0706760
  37.8195678  70.3905300  91.7863460  39.0140885  70.2987896  91.4870835
  36.9468129  69.4166187  91.5673353  36.0051340  69.4869822  91.9256496
  37.3633289  68.1651020  90.9761676  38.3347649  67.9074894  91.3981238
  36.4058036  66.9986073  91.2080611  35.7531695  67.2324322  92.0491876
  35.8031707  66.8461792  90.3126845  37.1444615  65.8058085  91.4946455
  36.5345460  65.0786132  91.6388329  37.6986145  68.3315289  89.5154480
  38.5982373  67.6800501  89.0319760  37.0348138  69.2512422  88.8309431
  36.3200213  69.7822389  89.3076123  37.3217504  69.5736330  87.4182614
  37.3507813  68.6593577  86.8255076  36.2342496  70.4832669  86.8577953
  36.3864123  71.4023840  87.4236304  36.4971822  70.6523184  85.8135788
  34.7897249  70.0706661  86.9506288  34.3912424  70.2895835  87.9412790
  34.0248495  70.8706235  85.9091919  34.4224866  70.6518667  84.9181677
  32.9697462  70.5993461  85.9447773  34.1329400  71.9352332  86.1166117
  34.6266893  68.5664559  86.7381482  35.1901726  68.0281553  87.5002627
  33.5720848  68.3008450  86.8113698  35.0013340  68.2957177  85.7510104
  38.6301868  70.3459094  87.1848486  38.9031927  70.7712339  86.0777493
  39.3564955  70.6626813  88.2509097  38.9523505  70.5575487  89.1705364
  40.6999819  71.2803010  88.1398687  41.0363642  71.2681553  87.1031437
  40.6377333  72.7288687  88.6153491  40.3592716  72.8266610  89.6646322
  41.6818058  73.0152417  88.4888451  39.7497824  73.6449303  87.7634992
  38.3771534  73.5008201  87.7378895  37.9368243  72.6587533  88.2718681
  37.5573523  74.3979844  87.0527264  36.4765208  74.2574487  87.0651654
  38.1017501  75.4805340  86.4059124  37.2935963  76.3777773  85.6785908
  36.3629729  76.1427282  85.6956703  39.4675806  75.6459930  86.4409035
  39.9192144  76.4895921  85.9189189  40.2729095  74.7444518  87.1372647
  41.3494061  74.9060338  87.1933559  41.7738408  70.4655946  88.8805504
  42.8468283  70.9610450  89.2370497  41.4575342  69.2007738  89.1471373
  40.5810015  68.8465419  88.7917370  42.3157249  68.2930515  89.9010956
  42.9907036  68.8735187  90.5300318  41.5023287  67.3691131  90.7868999
  40.7954134  67.9383607  91.3904950  40.9552641  66.7245141  90.0989228
  42.3819294  66.5074510  91.7055702  43.3953002  67.0195692  92.2510458
  42.0123016  65.3360669  91.9284256  43.0865314  67.4444323  88.9188640
  42.5158273  66.5578532  88.2983196  44.3886466  67.6954067  88.8267077
  44.7694806  68.4508556  89.3783976  45.2845802  66.9728223  87.9328414
  45.1288597  67.3226264  86.9123085  46.7162755  67.2678600  88.3327505
  46.8901749  66.9150634  89.3493102  47.3969359  66.7585643  87.6505339
  46.8929083  68.3424558  88.2864470  45.0297401  65.4634139  87.9448311
  44.8574185  64.8394640  86.9067147  44.9705056  64.9024260  89.1380130
  45.0489830  65.4687776  89.9705912  44.8279114  63.4638384  89.2938160
  45.6578130  62.9509478  88.8077030  44.8288502  63.0954786  90.7838322
  43.8882780  63.4575534  91.1989528  44.8550828  62.0072324  90.8397977
  45.9945366  63.6744371  91.5838079  46.0617457  64.7415195  91.3718670
  45.7615825  63.5279836  92.6385035  47.3210163  63.0105289  91.2620755
  48.3665413  63.5462635  91.6866116  47.3266721  61.9472966  90.6020610
  43.5188635  62.9813368  88.6266693  43.5016322  61.9750139  87.8909151
  42.4397782  63.7314285  88.8314682  42.4830070  64.5411099  89.4336696
  41.1424375  63.3560060  88.2647954  40.9191026  62.3070467  88.4594876
  40.0179015  64.2160764  88.8606977  40.2101054  65.2614819  88.6192739
  38.6477284  63.8011039  88.2905281  38.4546049  62.7558727  88.5319711
  37.8677851  64.4245481  88.7276834  38.6502466  63.9289471  87.2080539
  40.0204522  64.0811618  90.2923207  39.3178741  64.6184179  90.6656038
  41.1359312  63.4437303  86.7438000  40.8082762  62.4827261  86.0662551
  41.5084653  64.6075028  86.2250668  41.8072934  65.3364059  86.8571280
  41.5470321  64.8754655  84.7958021  40.5371241  64.9410092  84.3909699
  42.2523836  66.2042241  84.5612927  43.2232769  66.0742086  85.0393736
  42.3883378  66.3000564  83.4840589  41.5880728  67.4556452  85.0996331
  41.3571883  67.3054733  86.1542617  42.5000702  68.6567401  84.9485172
  42.7310388  68.8078343  83.8940397  42.0023576  69.5432478  85.3415655
  43.4236222  68.4841481  85.5011148  40.2878715  67.6756618  84.3546988
  39.6334511  66.8167701  84.5034887  39.7994159  68.5737671  84.7327455
  40.4936793  67.7950157  83.2909804  42.3330168  63.8094258  84.0685275
  41.8638538  63.2722584  83.0737118  43.5248249  63.5042300  84.5750705
  43.8718649  64.0480779  85.3521754  44.4002724  62.4757596  83.9991761
  44.6698620  62.7550612  82.9806422  45.6787115  62.3245005  84.8177840
  45.4142111  62.3484992  85.8749325  46.1278278  61.3607208  84.5779437
  46.6787491  63.4411492  84.5175817  46.9801033  63.3044229  83.4790287
  46.1254177  64.3752088  84.6148398  48.1443417  63.5126164  85.5530482
  48.8090506  61.8525775  85.3532714  49.0335568  61.6746639  84.3015858
  49.7216084  61.7528808  85.9409784  48.0752322  61.1231184  85.6960558
  43.6565093  61.1414977  83.8679981  43.7601072  60.4587398  82.8367376
  42.8904781  60.8058333  84.9042156  42.9881672  61.3054429  85.7765381
  42.0613699  59.6070614  84.8834944  42.6540299  58.7871193  84.4778491
  41.5537379  59.2068029  86.2451154  41.9360486  59.9836666  86.9072487
  40.4652150  59.1878571  86.2985857  42.0978652  57.8760239  86.6701858
  43.2846412  57.8431773  87.0411908  41.3861612  56.8534607  86.5393885
  40.9439981  59.6658087  83.8392299  40.7152241  58.7084716  83.1325800
  40.2681144  60.7967754  83.7326627  40.4380379  61.5431752  84.3915350
  39.2256623  60.9915379  82.7104190  38.4763024  60.2051012  82.8002870
  38.5331177  62.3505100  82.8800472  39.3165185  63.0757035  83.1002219
  38.0757388  62.5906775  81.9202430  37.4707757  62.4003541  83.9766393
  36.5786425  61.8834768  83.6230334  37.8570551  61.8936964  84.8610533
  37.1177340  63.8362664  84.3293467  36.3681245  63.8361014  85.1206650
  38.0138045  64.3493196  84.6785363  36.5793654  64.5642539  83.1704833
  36.3237344  64.0246044  82.3559094  36.4219752  65.8851141  83.1321351
  36.7547198  66.6058783  84.2019921  37.1197497  66.1456116  85.0235806
  36.6404260  67.6092722  84.1865894  35.9268662  66.4928755  82.0454124
  35.6667861  65.9443347  81.2382189  35.8160135  67.4967489  82.0384351
  39.8129891  60.8795650  81.3091787  39.1745359  60.3491121  80.4099494
  41.0345187  61.3732047  81.1357479  41.4704359  61.8833543  81.8906140
  41.7619734  61.2470284  79.8731742  41.0890658  61.5333531  79.0648965
  42.9982388  62.1537558  79.8539069  43.5572815  62.0244258  80.7806460
  43.8761805  61.7882042  78.6819869  43.3179355  61.9177348  77.7547949
  44.7543790  62.4337452  78.6699472  44.1911935  60.7487489  78.7736312
  42.5660170  63.6052815  79.7068336  42.2476890  63.7338205  78.6723068
  41.7120605  63.7462797  80.3693873  43.6311159  64.6236328  80.0355205
  44.4852643  64.4835495  79.3730199  43.2284874  65.6275819  79.9010749
  43.9496375  64.4960070  81.0701004  42.1809748  59.7876838  79.6445081
  42.0506163  59.2789526  78.5359874  42.6653158  59.1193526  80.6911390
  42.8729702  59.6009635  81.5542902  43.0267666  57.7036778  80.5812663
  43.8708523  57.6071838  79.8983993  43.4151447  57.1004685  81.9223446
  42.9288669  57.6829402  82.7048789  43.0438371  56.0760022  81.9487924
  44.9214681  57.1004344  82.1514665  45.3945310  56.6208581  81.2945424
  45.2542619  58.1363217  82.2169475  45.3103052  56.3609679  83.4255019
  44.5684203  56.5814902  84.1930145  45.3102188  55.2909811  83.2175891
  46.6893612  56.7823353  83.9167779  47.1586578  55.9044098  84.3607464
  47.2625047  57.0983901  83.0451616  46.6566452  57.8912932  84.9206484
  46.1259666  57.5984782  85.7285713  47.5996774  58.1189219  85.2016741
  46.2222073  58.7050316  84.5093180  41.9348704  56.8758902  79.9128127
  42.2020550  56.1548631  78.9656705  40.7118243  57.0022801  80.3862869
  40.5485953  57.6279445  81.1621732  39.5723395  56.2377120  79.8549997
  39.7143672  55.1718885  80.0337388  38.2844152  56.6864559  80.5612822
  38.2566862  57.7745177  80.5025288  37.4528745  56.2710630  79.9919942
  38.1685961  56.2527405  82.0208639  37.9726384  55.1806846  82.0408049
  39.1205306  56.4567440  82.5110734  37.0466093  56.9903352  82.7581140
  37.5005812  57.7549335  83.3885090  36.4075201  57.4659382  82.0141610
  36.2093024  56.0507310  83.6216279  35.2872749  55.8302816  83.0836987
  36.7750502  55.1300534  83.7643908  35.8808690  56.6407656  84.9464466
  35.3562614  57.4936713  84.8143915  35.3281811  55.9846503  85.4795026
  36.7350979  56.8447180  85.4452407  39.3745378  56.3809571  78.3419110
  39.0886902  55.4034312  77.6576447  39.5527284  57.5885241  77.8172932
  39.7366013  58.3860242  78.4091409  39.4948972  57.7990280  76.3572563
  38.5551098  57.3903918  75.9858868  39.5782017  59.2880619  75.9563882
  40.6283720  59.5646255  76.0499525  39.2833499  59.3324349  74.9079639
  38.7257606  60.2549611  76.7637922  38.6403505  59.8307116  77.7642013
  39.2078963  61.2307117  76.8234419  37.3341071  60.4367834  76.1948088
  36.8760048  61.5674191  75.9917370  36.6320759  59.3272867  75.9824333
  35.6976533  59.3892464  75.6041255  37.0366075  58.4278818  76.2004385
  40.6570308  57.0898467  75.6844261  40.4720143  56.3922031  74.7072775
  41.8599915  57.2732371  76.2244507  41.9331051  57.8373791  77.0590150
  43.0868973  56.6373560  75.6984525  43.2672776  56.9812274  74.6799661
  44.3056223  56.9940371  76.5593927  43.8732301  56.8627564  77.5513109
  45.0260184  56.1983964  76.3694313  45.0076055  58.3406983  76.4871089
  44.4083536  59.0925052  77.0007083  46.3807944  58.2348796  77.1604355
  46.9808268  57.4835417  76.6470631  46.8861171  59.1993447  77.1098701
  46.2531726  57.9464068  78.2037938  45.1197531  58.8188439  75.0455959
  44.1225685  58.9206017  74.6173814  45.6255189  59.7840815  75.0207227
  45.6915551  58.0945676  74.4654535  43.0072211  55.1146016  75.7428227
  43.7424357  54.4301962  75.0332870  42.1513706  54.5997008  76.6247813
  41.6483124  55.2337011  77.2289960  41.9624633  53.1669117  76.8156910
  42.9392602  52.6833361  76.8046599  41.2633170  52.8278392  78.1357127
  41.8134865  53.3237152  78.9354125  40.2526185  53.2328752  78.0853690
  41.1965723  51.3188362  78.4195294  40.5984560  50.8623168  77.6308928
  42.2140798  50.9306236  78.3740149  40.5849553  50.9856558  79.7798737
  39.4987890  51.0313363  79.7007845  40.8858060  49.9779378  80.0663920
  41.0184260  51.9172720  80.8196027  40.3195204  52.5488535  81.1839309
  42.2552639  51.9810801  81.3164834  43.1973483  51.1393713  80.8990838
  42.9760623  50.4450705  80.1997420  44.1294566  51.1985829  81.2834895
  42.5553833  52.8998064  82.2324131  41.8451896  53.5450930  82.5475803
  43.4918420  52.9471660  82.6077808  41.1899876  52.5731689  75.6485917
  41.3236302  51.3845581  75.3489500  40.3099597  53.4164682  75.1275300
  40.2283184  54.3271562  75.5565770  39.4442325  53.1038334  74.0144439
  38.8910813  52.1894737  74.2290814  38.4522046  54.2227884  73.7642012
  39.0095580  55.1526483  73.6509886  37.9191717  54.0043257  72.8388634
  37.4551675  54.3658162  74.9006188  37.0417757  53.3798103  75.1127515
  37.9950773  54.7286976  75.7752123  36.3363839  55.3184824  74.5707836
  35.6109089  55.7366237  75.4954927  36.1885619  55.6482705  73.3794304
  40.3488597  52.8897728  72.8502279  40.1275922  52.0179889  72.0293708
  41.3973618  53.6893879  72.7845077  41.4693559  54.5184633  73.3568276
  42.3734528  53.4935471  71.7354001  41.8623910  53.4164177  70.7757304
  43.3474785  54.6413928  71.6713188  43.6905541  54.9872614  72.6463949
  44.2088539  54.4262516  71.0389846  42.6292844  55.7886907  71.0393174
  41.6919013  55.7030752  70.0618473  41.4458294  54.7032590  69.7041940
  41.2451741  56.9431722  69.7284611  40.5528789  57.1507025  69.0229414
  41.8912940  57.8655817  70.5011984  41.7783224  59.2356571  70.5250262
  41.0727445  59.7145916  69.8461446  42.5620052  59.9089284  71.4025471
  42.5017802  60.9963116  71.4480515  43.4378520  59.2511682  72.2434490
  44.0605383  59.8073969  72.9441421  43.5514404  57.8964480  72.2249914
  44.2638237  57.4285340  72.9044524  42.7668278  57.1738773  71.3378940
  42.9348895  52.0900649  71.9570679  43.3373381  51.4156467  71.0248012
  42.9276379  51.6631347  73.2183038  42.8677145  52.3888259  73.9182186
  43.1941181  50.3045282  73.6563250  42.7067208  50.1029523  74.6102172
  42.6349443  49.3360113  72.6056373  41.7035214  49.7509742  72.2204667
  43.3653849  49.2737964  71.7989862  42.3806015  47.9634878  73.1566791
  42.6789331  47.7292250  74.3471682  41.8690289  47.1204155  72.3924662
  44.4900905  49.7113007  74.1251637  45.5915224  50.0896466  73.7603854
  44.2384952  48.7446194  74.9952896  43.2934116  48.7709538  75.3505683
  45.1687454  47.8235122  75.5965676  44.6611982  47.2426116  76.3666647
  45.7335912  46.8664672  74.5593901  46.2052943  47.4666894  73.7813614
  46.4885184  46.2550132  75.0536662  44.6824026  45.9660384  73.9358714
  44.0167888  46.5868800  73.3361924  45.2123330  45.2695722  73.2860962
  43.8661013  45.1863997  74.9559447  43.5129269  45.7412122  76.0176622
  43.5591554  44.0069726  74.6834414  46.2559274  48.3894913  76.4503075
  47.2101129  47.6915130  76.7564472  46.1399226  49.6269158  76.8848755
  45.4140163  50.2938658  76.6650184  47.2547742  50.0666015  77.7239396
  48.1390169  50.1414942  77.0910058  46.9521495  51.4508210  78.3084184
  46.7599254  52.1538935  77.4979629  46.0744482  51.3901192  78.9518901
  48.1240212  51.9661307  79.1316188  49.1430100  51.2906014  79.2571695
  47.9769973  53.1680730  79.6937065  48.7247575  53.5567105  80.2504069
  47.1186784  53.6832691  79.5596819  47.5763253  49.0732145  78.8556127
  48.0949466  49.4606674  79.9087847  53.1396438  52.0231274  83.5026098
  53.7275975  52.7534966  83.8780704  52.2981392  52.3352812  82.3361425
  52.3589158  51.5271560  81.6072124  50.8225170  52.4999086  82.7697011
  50.8043268  52.7643642  83.8269767  50.3828451  53.3085392  82.1858303
  50.0725835  51.3053500  82.5662051  49.1650108  51.4457561  82.8458437
  52.8096398  53.5737700  81.5490761  53.5458022  53.4262886  80.5797468
  52.4646594  54.7792161  82.0267090  51.8170246  54.8044512  82.8013261
  52.8904719  56.0627422  81.4262844  53.8526356  55.9374600  80.9296512
  51.8572632  56.5394713  80.3857278  52.1350718  57.5843512  80.2473524
  52.0335302  55.9915410  79.4600916  50.3729423  56.4507023  80.7567757
  50.0826579  55.4003660  80.7818660  50.1065011  57.0820862  82.1132205
  50.3961257  58.1326187  82.0887680  49.0451674  57.0037262  82.3488711
  50.6868391  56.5634073  82.8762934  49.4819578  57.0847296  79.6919998
  49.6276610  56.5702502  78.7421678  48.4379804  57.0004742  79.9938501
  49.7430348  58.1368962  79.5784947  53.1280120  57.0714896  82.5754116
  53.2645178  56.6474064  83.7311786  53.3319683  58.3803798  82.2601493
  52.9103386  59.2038799  81.1073162  51.8598270  59.0079727  80.8925003
  53.5136587  58.9396793  80.2388107  53.1531602  60.6189403  81.5668464
  52.2094462  61.0509922  81.8997639  53.5444321  61.2011255  80.7325395
  54.1409159  60.5514617  82.6764749  53.9659029  61.3670549  83.3780996
  55.1754355  60.5826880  82.3345775  53.8564656  59.2126332  83.3551067
  54.7616306  58.7357370  83.7310650  52.8584694  59.3866934  84.5019679
  51.6455703  59.2586761  84.3110694  53.3941776  59.6570992  85.6960547
  54.4007011  59.6948837  85.7707677  52.5938021  59.9274761  86.9025325
  51.6070603  59.4775319  86.7930334  53.2721201  59.3344292  88.1678440
  53.9755065  60.0788021  88.5410138  52.4913252  59.1688175  88.9101594
  53.9603503  58.1125222  87.9228000  54.3558355  57.7987179  88.7393281
  52.4730831  61.4451460  87.1033457  51.4848202  61.9397045  87.6434655
  53.5210426  62.1356812  86.6840560  54.3418238  61.6325989  86.3785635
  53.5683097  63.5754349  86.6980599  53.2402582  63.9550756  87.6657140
  55.0085484  64.0429999  86.4506056  55.6092797  63.8179259  87.3318337
  55.3944847  63.4864022  85.5965845  55.1212485  65.5316700  86.1522400
  54.1741187  66.3059636  86.3147656  56.3088681  65.9376880  85.7232050
  56.4574472  66.9126521  85.5053313  57.0591359  65.2700170  85.6163660
  52.6082792  64.1302297  85.6497111  52.7143477  63.8086147  84.4531062
  51.6831810  64.9972876  86.0937920  51.6190746  65.5306600  87.4696369
  52.6274105  65.6138384  87.8751494  51.0313291  64.8576669  88.0939241
  50.9586979  66.8661550  87.2885601  51.6983549  67.6275302  87.0409425
  50.4292526  67.1562389  88.1961065  50.0048731  66.6467680  86.1627193
  49.7856976  67.5817702  85.6471304  49.0743580  66.1958059  86.5075011
  50.7323719  65.6851426  85.2126913  50.0591872  64.9258732  84.8146579
  51.3842769  66.4487847  84.0522187  50.8510075  66.4262254  82.9642317
  52.5129832  67.1046499  84.2790088  52.8691670  67.1457483  85.2232245
  53.2659033  67.7765706  83.2261845  52.7272649  68.6308162  82.8160231
  54.6136384  68.2440396  83.7866244  55.1601800  67.3779460  84.1598194
  55.4306838  68.9316568  82.7117197  54.8849548  69.7981819  82.3383369
  56.3834766  69.2557251  83.1303679  55.6122232  68.2364279  81.8920859
  54.3808789  69.1698335  84.9880488  54.0727681  70.1354069  84.5870046
  53.5624842  68.7385566  85.5645294  55.5841288  69.3574561  85.8842700
  56.4028430  69.7891570  85.3085607  55.3256252  70.0263503  86.7051571
  55.8925605  68.3923057  86.2860839  53.5181851  66.8229421  82.0356281
  53.1834824  67.1191841  80.8745111  54.0883422  65.6705099  82.3373134
  54.4356777  65.4932605  83.2690001  54.4240303  64.7293936  81.2887318
  54.8779479  65.2608604  80.4523103  55.4069454  63.6846132  81.7912305
  55.0108551  63.4176651  82.7710011  55.4474912  62.7956521  81.1617828
  56.8206417  64.2631117  81.9512063  57.0334233  65.1006719  82.8548809
  57.6853984  63.9673338  81.1006440  53.1751138  64.1797827  80.6166290
  53.0748862  64.1745854  79.4007694  52.2196001  63.7563056  81.4210572
  52.3528909  63.7966755  82.4214087  50.9869357  63.2023856  80.9173179
  51.1907394  62.2646548  80.4003807  50.0074536  62.9277494  82.0603401
  50.4512559  62.4382372  82.9272406  49.6097895  63.8986133  82.3559523
  48.8385798  62.0941075  81.6509795  47.8922459  62.5991843  80.7810194
  47.9879455  63.6270116  80.4310015  46.8397957  61.8237248  80.3563501
  46.0805958  62.2499791  79.7005883  46.7436494  60.5091774  80.7584570
  45.9186266  59.8861102  80.4131680  47.6982344  59.9832198  81.6020749
  47.6312964  58.9425764  81.9193771  48.7405315  60.7754142  82.0457930
  49.4948231  60.3597603  82.7139067  50.3628146  64.1602007  79.9271370
  50.0281141  63.7704652  78.8401873  50.2546024  65.4248584  80.3134802
  50.6407850  65.6791745  81.2114143  49.6104634  66.4737772  79.5094079
  48.5715952  66.2077944  79.3142027  49.6412659  67.8112872  80.2617722
  48.9633209  68.5012028  79.7592722  49.2934789  67.6380757  81.2801739
  50.9460762  68.3711093  80.2962289  50.9245036  69.2037989  80.7734736
  50.3020972  66.6860876  78.1746911  49.6496038  66.9640639  77.1751119
  51.6289999  66.5533730  78.1736519  52.1128352  66.4210368  79.0502874
  52.4308006  66.6148213  76.9327052  52.0668303  67.4259725  76.3021035
  53.8889008  66.8623166  77.2442995  53.9907449  66.1320554  78.0470732
  54.5640801  66.6019488  76.4291667  54.2341773  68.2246693  77.7623267
  53.9799257  69.3800293  77.0133917  53.4354943  69.2914091  76.0732639
  54.4099490  70.6249462  77.4517143  54.1667643  71.5323982  76.8989992
  55.1413328  70.7036655  78.6228381  55.6168867  71.8866219  79.1224865
  55.3889617  72.6429087  78.5768858  55.4440857  69.5680807  79.3381491
  56.0273204  69.6424155  80.2559793  55.0122479  68.3421479  78.8967754
  55.2828901  67.4394110  79.4444240  52.3742631  65.3387430  76.0564302
  52.4890542  65.4066352  74.8374193  52.2445761  64.1871572  76.7012459
  52.3160138  64.1889740  77.7087144  52.0900969  62.9068410  76.0217030
  52.8630414  62.7731256  75.2648831  52.2259841  61.7825915  77.0690085
  53.2954802  61.6479085  77.2306803  51.7661214  62.1623650  77.9813672
  51.6016905  60.4574552  76.7052843  51.6708743  59.8023527  77.5737054
  50.5528956  60.6331060  76.4659558  52.2861496  59.8024019  75.5232496
  52.1846367  60.4312499  74.6387472  53.3433101  59.6515420  75.7417725
  51.6784422  58.5108761  75.2486615  51.0552268  58.4515447  74.4560823
  51.8887718  57.4146137  75.9751835  51.2378853  56.2971969  75.6762314
  50.5893631  56.2858754  74.9020280  51.3941039  55.4633548  76.2243215
  52.7422927  57.4287227  77.0026931  53.2354994  58.2792494  77.2338888
  52.8905110  56.5887993  77.5436725  50.7567839  62.8227634  75.2486200
  50.7200527  62.3530841  74.1241969  49.6679712  63.2669148  75.8501958
  49.6883689  63.5723585  76.8126860  48.3795505  63.2448605  75.1564272
  48.2965452  62.3721645  74.5086534  47.2052996  63.2425338  76.1303262
  46.2753837  63.1221705  75.5745669  47.3576566  62.0963763  77.1164126
  48.2871878  62.2163065  77.6729100  46.5167151  62.0988097  77.8098908
  47.3785071  61.1507212  76.5747455  47.1091637  64.5661393  76.8552803
  46.9641835  65.3678862  76.1312053  46.2652274  64.5429194  77.5447236
  48.0286893  64.7430359  77.4132061  48.2494045  64.3977478  74.1921212
  47.4985964  64.3218921  73.2316072  48.9926635  65.4622862  74.4352055
  49.5021813  65.5271975  75.3048476  49.0733405  66.5793486  73.5018224
  48.0893056  67.0329304  73.3833398  50.0329302  67.6323663  74.0276667
  51.0249096  67.1955689  74.1429269  50.0820089  68.4636081  73.3242973
  49.6816102  67.9948129  74.9937444  49.5260702  66.0959447  72.1257953
  48.9641038  66.4903990  71.0993318  50.5354445  65.2349260  72.1067075
  50.9883436  64.9742428  72.9710141  51.0692878  64.6917812  70.8482373
  51.1666632  65.5285694  70.1565706  52.4387316  64.1018064  71.0877981
  52.3563932  63.2569049  71.7715099  52.8595515  63.7628304  70.1411692
  53.0900351  64.8592702  71.5238618  50.1702221  63.6412260  70.1912718
  50.2789979  63.3956755  68.9999457  49.2955045  63.0128146  70.9681335
  49.3076258  63.1936926  71.9617308  48.2954471  62.0553250  70.4406340
  48.7719229  61.3568120  69.7527753  47.6724714  61.2558487  71.6011804
  47.1747287  61.9412594  72.2871568  46.9449193  60.5480135  71.2040187
  48.8244410  60.2805297  72.6113233  47.9043750  59.7902612  73.4371645
  47.1597694  62.7526664  69.6957231  46.5780615  62.2355270  68.7623364
  46.8115835  63.9481005  70.1457428  47.3373192  64.3238160  70.9219768
  45.7941854  64.7664740  69.5545660  44.8294862  64.2617982  69.6070739
  45.6932048  66.0899883  70.3051037  46.7368664  66.3709157  70.4463461
  45.2186763  66.7906045  69.6180378  44.9770783  66.1268304  71.6363439
  45.5572374  65.6048112  72.3972725  44.8243691  67.5885692  72.0296210
  44.2438827  68.1111758  71.2693469  44.3102424  67.6555996  72.9884126
  45.8094197  68.0476764  72.1132644  43.6308418  65.4294435  71.5463734
  43.7786476  64.3890617  71.2567901  43.1349575  65.4691610  72.5162304
  43.0113991  65.9289053  70.8014387  46.0727241  65.1819437  68.1331210
  46.9162646  66.0082347  67.9360838  45.2739892  64.6989210  67.1723600
  43.9911255  64.0361371  67.4569726  43.3674717  64.6957743  68.0603258
  44.1737570  63.1103113  68.0024919  43.4155044  63.7906532  66.0828056
  42.5084839  64.3852155  65.9736789  43.1690115  62.7327894  65.9918842
  44.4675056  64.1917065  65.0634511  43.9475609  64.6742072  64.2358344
  45.1004263  63.3925013  64.6777282  45.3124860  65.2086208  65.8038257
  46.3535412  65.2862894  65.4903454  44.6515545  66.5738111  65.7062407
  43.4226154  66.6530940  65.5758181  45.4346104  67.6294140  65.8477751
  46.4173913  67.5058283  66.0451769  44.9103014  68.9857378  65.7756788
  43.8949389  68.9746833  65.3794263  44.9203193  69.7009233  67.1482674
  45.0325307  70.7737286  66.9914310  43.6285470  69.4322801  67.8860133
  43.5158538  68.3596407  68.0436383  43.6476009  69.9406287  68.8500255
  42.7894123  69.8025852  67.2970937  46.1174888  69.2691675  68.0034102
  45.8916614  68.2838881  68.4112428  46.9834491  69.1995736  67.3451026
  46.4216879  70.2289511  69.1392665  45.5562937  70.2987141  69.7983006
  47.2794502  69.8639585  69.7041765  46.6480792  71.2144008  68.7321600
  45.7190762  69.7962023  64.7739120  46.6197707  69.2582147  64.1395441
  45.3564715  71.0633155  64.5828443  44.5296199  71.4296376  65.0325375
  45.9812953  71.8583911  63.5285204  46.6338827  71.2208162  62.9320917
  44.9097454  72.4929933  62.5887956  45.1730293  72.4685618  61.5313534
  44.0765167  71.8142956  62.7710028  44.5044359  73.9121819  62.9793105
  45.2546765  74.8722660  62.6666596  43.3555016  74.0829485  63.4419613
  47.0572850  72.8252373  64.0644912  46.9851891  73.2853893  65.2009099
  48.1020444  73.0294404  63.2555828  48.1031443  72.6099753  62.3368080
  49.3079361  73.7134710  63.7041366  49.7981486  73.0105526  64.3777066
  50.2504519  73.9914740  62.5076900  50.4501855  73.0601261  61.9777874
  49.7771361  74.7008414  61.8288159  51.5643409  74.5769832  63.0201389
  52.4837345  73.7646432  63.3072292  51.6360768  75.8310001  63.1196135
  49.0221496  74.9951357  64.5313189  49.8102781  75.3409770  65.4114464
  47.8972358  75.6705222  64.2861090  47.3138770  75.4356068  63.4957884
  47.5828824  76.8804256  65.0443041  48.4866733  77.4016860  65.3598177
  46.6848831  77.8762354  64.2521639  46.8788671  77.7384392  63.1884526
  45.2024812  77.6535920  64.5311251  45.0076275  77.7916805  65.5946403
  44.6129280  78.3694223  63.9583122  44.9256622  76.6402840  64.2401271
  47.0863903  79.3186770  64.5697394  48.1275728  79.4768388  64.2886237
  46.4511153  80.0048922  64.0097090  46.9668240  79.5029886  65.6373694
  47.0173717  76.5967096  66.4411515  47.3087975  77.3178131  67.3820138
  46.2236635  75.5444508  66.5705993  45.9923705  75.0204664  65.7387079
  45.7506663  75.0391261  67.8655454  45.2587799  75.8270810  68.4358734
  44.7365091  73.9217153  67.5988033  44.9053791  73.7866303  66.5304708
  45.1009929  73.0468613  68.1372103  43.2534312  74.0920196  67.8577733
  42.6771647  73.8320558  66.9698338  42.8814569  73.1509412  68.9981164
  43.4570222  73.4105986  69.8865990  41.8173635  73.2447828  69.2149110
  43.1036659  72.1236638  68.7092830  42.8653727  75.5438453  68.1326888
  43.1263070  76.1594688  67.2718633  41.7918769  75.6059923  68.3111426
  43.4006705  75.9033910  69.0114846  46.8575389  74.3632427  68.6814551
  46.8692119  74.4480043  69.9101444  47.7472592  73.6438139  68.0019914
  47.6393105  73.5204709  67.0053807  48.8632874  72.9608727  68.6718588
  48.5015791  72.2948619  69.4552463  49.6046473  72.1236383  67.6196753
  48.8631349  71.4276601  67.2274088  49.8910733  72.8272495  66.8380159
  50.8307598  71.3511510  68.0798835  51.3730338  71.0427462  67.1860568
  51.4473316  72.0383455  68.6592841  50.5053409  70.1235892  68.9258751
  51.3913473  69.8983725  69.5194819  49.6848063  70.3984385  69.5886573
  50.1208462  68.9154246  68.1742628  49.2104353  68.5371799  68.3937678
  50.8934304  68.2551401  67.3058068  52.0734499  68.7281589  66.9281440
  52.4043473  69.6069466  67.3000838  52.6357821  68.2074303  66.2703266
  50.4364312  67.1433547  66.7463303  49.5133019  66.8066576  66.9799269
  51.0135411  66.6382566  66.0891249  49.7925797  73.9730710  69.3570043
  50.3384966  73.6926252  70.4472056  49.9502882  75.1578357  68.7433328
  49.4526065  75.3843572  67.8941566  50.7777383  76.2004263  69.3648192
  51.6228813  76.0066153  70.0253264  51.0166015  77.5320382  68.5939987
  50.2346067  78.2316784  68.8891055  52.3877887  78.1492039  68.8808754
  53.1703557  77.4502836  68.5855788  52.4957034  79.0747794  68.3153976
  52.4750469  78.3626235  69.9462097  50.2773021  77.6978088  67.2615583
  50.5838397  76.8780597  66.6118300  49.2096599  77.6186243  67.4664230
  50.5650911  79.0275617  66.5719956  51.6325496  79.1072720  66.3663782
  50.0103029  79.0791839  65.6351688  50.2583716  79.8478371  67.2209727
  50.1427683  76.7559519  70.6257595  50.8418301  77.2126818  71.5362816
  48.8142679  76.7226173  70.6807441  48.3055408  76.4329827  69.8576961
  48.0479515  77.1774689  71.8493002  48.3568978  78.1868029  72.1211389
  46.5470887  77.1911802  71.5407798  46.4353729  76.8932598  70.4982529
  46.0847873  76.4421607  72.1837007  45.8659363  78.5400010  71.7600988
  46.0423305  78.8256653  72.7971050  46.2916962  79.2944058  71.0985068
  44.3601597  78.4759095  71.5213536  43.6211520  77.9008726  72.3205089
  43.9040569  79.0312233  70.3961372  42.9148008  79.0142801  70.1931921
  44.5503611  79.4657178  69.7530145  48.3179857  76.3659539  73.0973759
  48.6645672  76.9380057  74.1091284  48.1537147  75.0382187  73.0282726
  47.9195544  74.6464802  72.1272680  48.4320237  74.1169501  74.1365353
  47.6754858  74.2150987  74.9150701  48.4064090  72.6879850  73.6104408
  48.6964117  72.8145779  72.5673819  49.2179848  72.2075614  74.1569187
  47.1668887  71.8247943  73.6875265  46.3572739  72.3909639  74.1480444
  46.7551873  71.4012094  72.2836886  47.5641751  70.8345533  71.8226698
  45.8618734  70.7790591  72.3386443  46.5444529  72.2864389  71.6836385
  47.4635209  70.6014558  74.5313709  47.7548870  70.9132269  75.5343684
  46.5731376  69.9754807  74.5903123  48.2761956  70.0345185  74.0772334
  49.8575253  74.2886000  74.6268439  50.1630827  74.3112287  75.8372453
  50.7415416  74.3109757  73.6356570  50.4237205  74.1765263  72.6864402
  52.1541859  74.4897914  73.8648748  52.5502203  73.6652365  74.4576355
  52.8952320  74.5210263  72.5009158  52.2598942  73.7720634  72.0281582
  52.7025567  75.4956055  72.0523941  54.3863633  74.1409966  72.2917393
  54.4937262  73.8507299  71.2465985  55.3945066  75.2677993  72.6198380
  55.2880527  75.5582969  73.6650067  56.4092376  74.9106905  72.4440682
  55.1974955  76.1293952  71.9819199  54.7164593  72.8348707  73.0040375
  54.0911552  72.0354893  72.6064402  55.7660391  72.5882502  72.8438443
  54.5286253  72.9453160  74.0720352  52.4033795  75.7933307  74.6414326
  53.2052306  75.8116511  75.6105085  51.6950059  76.8569970  74.2537656
  51.2051927  76.8519200  73.3705009  51.7860305  78.1147720  74.9868008
  52.8334426  78.3166090  75.2110529  51.2188840  79.2961073  74.1922691
  50.4353128  78.9142834  73.5378029  50.7868112  80.0009658  74.9026124
  52.2861988  80.0083186  73.3503158  53.1093229  80.2766005  74.0125789
  52.6410682  79.3049292  72.5970475  51.7575251  81.2607894  72.6654589
  51.2349812  81.8614170  73.4099677  52.6078818  81.8221094  72.2782734
  50.8070571  80.9287434  71.5239437  51.3361598  81.0867879  70.5841710
  50.5260210  79.8791196  71.6100116  49.5800615  81.7752786  71.5515276
  49.8402274  82.7478965  71.4713539  48.9793967  81.5227129  70.7798331
  49.0894102  81.6286589  72.4220809  51.2253666  78.0187583  76.4100556
  51.5993708  78.8241945  77.2569030  50.3659016  77.0279740  76.6776009
  50.0787081  76.4119755  75.9304964  49.7140072  76.8892606  77.9805488
  49.4575817  77.8465783  78.4342976  48.4560724  76.0318863  77.8563459
  48.5477713  75.3967796  76.9752494  48.2733508  75.1608822  79.0930115
  48.1811080  75.7953421  79.9745173  47.3716215  74.5583600  78.9836856
  49.1364165  74.5049354  79.2068123  47.2602428  76.9560052  77.5795576
  47.1202688  77.5649086  78.4727231  47.5446529  77.5965027  76.7447083
  45.9648437  76.2395551  77.2483213  45.6795305  75.5991737  78.0829518
  45.1789447  76.9731808  77.0687237  46.1039155  75.6307657  76.3549377
  50.6808053  76.3754982  79.0638626  51.4254729  75.3810500  78.8610005
  50.6925771  77.0753459  80.2013434  49.9477317  77.7238837  80.4127754
  51.7743601  76.9260900  81.1677192  52.6266721  76.5033655  80.6357724
  52.0283241  77.9240630  81.5250029  51.4503372  76.0493449  82.3504402
  52.3516713  75.5754936  83.0409429  50.1553506  75.7547674  82.5279076
  49.4415496  76.2249146  81.9898099  49.7425202  74.8116758  83.5299151
  50.5599624  74.6459803  84.2316504  48.5357232  75.3233980  84.3015435
  48.7849180  76.2775803  84.7658034  47.7019428  75.4616041  83.6132054
  48.1711189  74.3938143  85.3022173  47.4093610  74.7244737  85.7838698
  49.4184346  73.4355607  82.9549534  48.6928317  73.3041265  81.9567999
  49.8947480  72.4086805  83.6616561  50.5781044  72.5809613  84.3851496
  49.4940204  71.0437443  83.4089599  49.7926791  70.7372969  82.4064669
  50.1532476  70.1191871  84.4150929  49.8564618  70.4078097  85.4234159
  49.8408683  69.0923817  84.2248561  51.2367149  70.1921675  84.3209031
  47.9857001  70.9205798  83.4921121  47.3969741  70.3262819  82.6144238
  47.3687640  71.5013382  84.5293023  47.9215002  72.0198294  85.1969466
  45.9258282  71.3883999  84.7604284  45.6127968  70.3464503  84.8271483
  45.5017096  72.1308837  86.0310847  45.5764107  73.2063033  85.8698621
  44.0736483  71.7699601  86.3615891  43.9982402  70.6946801  86.5234137
  43.7654231  72.2953900  87.2654814  43.4246807  72.0588323  85.5348527
  46.4496631  71.8324943  87.2211989  47.4549133  71.7555547  86.8068886
  46.3961446  72.6948413  87.8857235  46.1270135  70.5725686  88.0015025
  46.1807895  69.7096824  87.3376988  46.8460225  70.4523037  88.8118491
  45.1220192  70.6489682  88.4165320  45.1289144  71.9359572  83.5874138
  44.2376195  71.2690194  83.0771292  45.4622882  73.1590465  83.1696707
  46.2473053  73.6199780  83.6071517  44.8202442  73.8151623  82.0215237
  43.7550065  73.9385367  82.2168350  45.4346677  75.1935833  81.7748190
  46.4957364  75.0040670  81.6125973  44.9821530  75.5415822  80.8462571
  45.2706875  76.2429545  82.8347264  44.2283290  76.4928662  83.0325492
  45.7233567  75.8336648  83.7378734  46.0112150  77.5146391  82.4536079
  47.2326551  77.5008968  82.2254273  45.2661565  78.6066451  82.2935812
  45.7044212  79.4806184  82.0402118  44.2662001  78.5559235  82.4263061
  45.1004340  73.0756545  80.7156875  44.3185635  73.1573677  79.7547388
  46.2548470  72.4018297  80.6705573  46.9469944  72.5178273  81.3969016
  46.5975165  71.5917119  79.5171729  46.3517926  72.1507165  78.6142704
  48.0880208  71.2157556  79.4720207  48.6299962  71.8779565  80.1471887
  48.1929844  70.1855990  79.8124030  48.6611449  71.3466925  78.0619990
  48.0369791  70.7514489  77.3955135  48.5982646  72.3967422  77.7764403
  50.0884598  70.8838259  77.9580959  50.2630462  70.0686311  78.6602896
  50.2905836  70.5387925  76.9440952  51.0023242  71.9726889  78.2710592
  51.1119855  72.6929910  77.5716032  51.6802722  72.0847738  79.4082221
  51.5829592  71.1555410  80.3550329  50.9869601  70.3529152  80.2112383
  52.1055146  71.2568776  81.2133839  52.4757840  73.1295385  79.5942131
  52.5605197  73.8307310  78.8722373  52.9931980  73.2191616  80.4569698
  45.7000245  70.3585021  79.4454250  45.0608800  70.1191641  78.4360155
  45.6256946  69.6078237  80.5341481  46.2012512  69.8530635  81.3270487
  44.7589943  68.4263519  80.6414563  45.0469812  67.6686774  79.9126957
  44.9087808  67.8427977  82.0313892  44.7196829  68.6940327  82.6854076
  44.1101257  67.1103999  82.1490479  46.2361591  67.2068788  82.4004476
  47.0009458  67.6467743  81.7603741  46.6184517  67.4137956  83.8672464
  45.8543146  66.9737265  84.5079745  47.5773560  66.9345031  84.0644316
  46.6964490  68.4807931  84.0758924  46.1332747  65.7339995  82.0875617
  45.9289017  65.6011240  81.0251705  47.0722826  65.2417897  82.3407313
  45.3242294  65.2938442  82.6704924  43.2947236  68.7523458  80.3981634
  42.6255773  68.0264465  79.6786384  42.7964000  69.8236908  81.0208058
  43.3739678  70.3137349  81.6889162  41.4161286  70.2725942  80.8361506
  40.7331102  69.4734176  81.1240776  41.1114039  71.5212202  81.7033678
  42.0669978  71.9221943  82.0412425  40.6190964  72.2504029  81.0599194
  40.2211443  71.2285986  82.9190390  39.2280491  70.9872819  82.5400548
  40.6393929  70.3565865  83.4217966  40.1200540  72.3883196  83.9103769
  39.3585193  72.1439624  84.6509533  41.0840500  72.5039314  84.4058011
  39.7639932  73.6604647  83.2721539  40.5322243  74.2710104  83.0330842
  38.5227672  74.0522777  82.9753735  38.3169798  75.2425680  82.4116738
  39.1021487  75.8452025  82.2105731  37.3768323  75.5363454  82.1882524
  37.4933025  73.2542562  83.2222402  37.6498955  72.3465260  83.6364920
  36.5571680  73.5576987  82.9949221  41.1299304  70.5507818  79.3611349
  40.3218378  69.8647879  78.7309827  41.8103231  71.5468688  78.8152051
  42.4069911  72.1273251  79.3871816  41.6591234  71.8870327  77.4141308
  40.6630472  72.2882652  77.2271981  42.6911736  72.9466198  77.0344983
  42.2269653  73.9317661  76.9887091  43.5054005  72.9625330  77.7589852
  43.4508481  72.6833896  75.4424400  44.2375946  73.7548941  75.4849409
  41.7671894  70.6595270  76.4930963  41.0340889  70.5421531  75.5049476
  42.6753184  69.7561323  76.8323095  43.2675521  69.9426732  77.6289030
  42.8322810  68.4720282  76.1321093  43.0725716  68.6373692  75.0818607
  43.9833168  67.6797293  76.7817931  44.1621192  68.1358810  77.7554741
  43.6191974  66.6616124  76.9194701  45.2791103  67.6508197  75.9912536
  45.2363401  66.7705064  75.3499113  45.3258226  68.5477416  75.3736387
  46.5221826  67.5764331  76.8749293  47.5836865  68.0803485  76.4528880
  46.4479868  67.0007522  77.9773958  41.6212305  67.5396001  76.1999943
  41.3320752  66.8360036  75.2546212  40.9566915  67.4902325  77.3463140
  41.3095826  67.9438909  78.1768327  39.7214813  66.7162792  77.4513480
  39.8925970  65.7077337  77.0749777  39.2559827  66.6242062  78.8766124
  39.6546984  67.5056256  79.3788323  38.1683542  66.6266071  78.9484348
  39.8001440  65.3815893  79.5352388  40.8031598  65.1801713  79.1590860
  39.8557230  65.5879536  81.0398393  38.8529369  65.7889768  81.4168120
  40.2490482  64.6898065  81.5159989  40.5051045  66.4333030  81.2674101
  38.9566086  64.1731384  79.1557806  38.9762461  64.0409135  78.0740087
  39.3596513  63.2823250  79.6375577  37.9288831  64.3293880  79.4835997
  38.6457400  67.3123054  76.5916814  37.8595694  66.5838027  75.9960174
  38.6162152  68.6439819  76.5200096  39.2385196  69.1971166  77.0917426
  37.6362193  69.3377210  75.6958256  36.6381758  69.0655918  76.0392702
  37.7776882  70.8710114  75.7589201  37.1699682  71.2224982  76.5927262
  38.8249998  71.1057589  75.9490048  37.3158833  71.5783864  74.4433176
  36.4296550  71.0522701  73.7115389  37.8552279  72.6675630  74.1442313
  37.7093097  68.8605107  74.2471858  36.7162886  68.3982210  73.6863149
  38.8927915  68.9542707  73.6580670  39.6563826  69.3809348  74.1630280
  39.1191834  68.5478878  72.2790486  38.4985840  69.1242832  71.5929555
  40.5960614  68.7736008  71.9431571  41.2028393  68.3946181  72.7655275
  40.9753660  68.0685922  70.6770078  40.3692893  68.4473974  69.8540386
  42.0292992  68.2464307  70.4632345  40.8038949  66.9982331  70.7911489
  40.8559028  70.2713739  71.8007388  41.1350069  70.4556204  70.7633118
  39.9207628  70.7859335  72.0217393  41.9411844  70.7877438  72.7123780
  42.8768044  70.2739442  72.4916400  42.0695000  71.8586757  72.5550915
  41.6625610  70.6042550  73.7500681  38.6921213  67.1011725  72.0175952
  38.0596986  66.8161826  71.0033155  39.0187057  66.2032773  72.9495736
  39.4823638  66.5107095  73.7925480  38.7107276  64.7717615  72.8052780
  39.1481843  64.3894658  71.8830086  39.2827438  63.9882749  73.9753969
  39.0622035  64.5706430  74.8699966  38.7337412  63.0472862  74.0105599
  40.7461792  63.7076098  73.9135757  40.9780319  63.1319760  73.0174781
  41.3050946  64.6432844  73.8984511  41.2209529  62.7594348  75.3639081
  42.8385876  63.4554230  75.6777225  42.7448796  64.5258690  75.8606518
  43.2780126  62.9750509  76.5519359  43.4800036  63.2900622  74.8120767
  37.2102256  64.4779275  72.7802092  36.7701122  63.5583121  72.1091505
  36.4386208  65.2463784  73.5364686  36.8478861  65.8251791  74.2559066
  34.9909402  65.1629395  73.4607066  34.6833901  64.1395438  73.2458268
  34.3811183  65.5857711  74.7961375  34.7919886  66.5693155  75.0240083
  33.2945893  65.6509109  74.7385914  34.7556519  64.6219950  75.9323991
  35.9359433  64.3884068  76.2109339  33.7490167  64.0113187  76.5440967
  33.9369537  63.3667290  77.2986056  32.7994381  64.1938593  76.2524116
  34.4384018  65.9297583  72.2667383  33.6523675  65.3858083  71.4997726
  34.8950279  67.1685157  72.0773664  35.6159213  67.5142088  72.6945441
  34.3145566  68.0968674  71.0932357  33.2382142  67.9519221  71.1858477
  34.6575639  69.5947350  71.4718908  34.3522605  69.7891717  72.5000364
  35.7309420  69.7578273  71.3751412  33.9136369  70.5392959  70.5338069
  34.2187838  70.3457552  69.5054450  32.8401023  70.3771025  70.6303411
  34.2441600  71.9826424  70.8986773  33.9388586  72.1770797  71.9268233
  35.3175377  72.1457339  70.8019255  33.5002306  72.9272029  69.9605939
  33.8053761  72.7336622  68.9322317  32.4266976  72.7650102  70.0571314
  33.8188351  74.3184937  70.3123041  34.8134954  74.4691118  70.2225001
  33.3261338  74.9440720  69.6910174  33.5357697  74.4981640  71.2650326
  34.6958494  67.8164098  69.6229455  34.0136043  68.2679791  68.6946498
  35.7530444  67.0318811  69.3807714  36.2420877  66.5997143  70.1515943
  36.2340306  66.7737532  68.0202791  35.6679356  67.3695179  67.3042484
  37.7313990  67.1548543  67.9071647  38.1796817  67.1471503  68.9006850
  38.2398995  66.4277494  67.2740409  38.1010781  68.7773711  67.2032736
  39.4234809  68.6722869  67.2987005  36.1045803  65.2877307  67.5929096
  37.1094745  64.5618073  67.4334823  34.8934648  64.9207295  67.2069584
  34.1246946  65.5714240  67.2823798  34.6117258  63.5665297  66.7303862
  35.1390878  62.8348138  67.3424159  33.1251518  63.2975041  66.8281203
  32.8545249  62.5388752  66.0937201  32.7603344  62.8097433  68.2155361
  33.0302582  63.5680898  68.9504860  31.6877321  62.6221683  68.2649243
  33.3002059  61.8875962  68.4306732  32.4262144  64.5143089  66.5571562
  31.4805064  64.3598877  66.6153861  35.0872168  63.2783720  65.2869360
  35.4758159  62.1386637  64.9963885  35.0288450  64.2550536  64.3962578
  34.8747783  65.2050006  64.7027927  35.2722542  64.0120455  62.9509212
  35.2130766  62.9453247  62.7348101  34.2219515  64.7348826  62.1218135
  33.8157835  64.0482324  61.3790899  33.4203867  65.0766931  62.7766108
  34.8090637  65.8590304  61.4606440  34.1399626  66.3093405  60.9399478
  36.5845211  64.5780723  62.4518988  37.0391472  65.5800555  62.9569065
  37.1154142  63.9818964  61.3833892  36.5965661  63.2291743  60.9540811
  38.4020426  64.3883774  60.7692243  38.7206267  65.3397013  61.1953537
  39.4964279  63.3479322  61.0223226  39.0046881  62.4152933  60.7457798
  40.3224669  63.5395066  60.3374438  40.0301800  63.2375000  62.4408033
  39.2168667  63.4572874  63.1324071  40.5791893  61.8445768  62.7286757
  41.3929044  61.6242429  62.0377203  40.9515793  61.8046480  63.7523125
  39.7861422  61.1075872  62.6020934  41.0838100  64.3214473  62.6525174
  40.6322681  65.3020765  62.5022650  41.4761179  64.2542857  63.6672514
  41.8965090  64.1831257  61.9394351  38.2283667  64.4957092  59.2579184
  37.8885923  63.5397684  58.5810672  38.4964825  65.6649143  58.7449552
  38.9411603  66.3683910  59.3172151  38.0769271  66.0363128  57.3792446
  37.5940813  65.1967557  56.8791417  37.0646740  67.1974619  57.4825434
  37.5966546  68.1453167  57.5641961  36.4288999  67.2133225  56.5973092
  35.8961938  67.1230117  58.9655337  35.2382256  68.2431524  58.6804707
  39.2977319  66.3623811  56.5307017  40.4052261  66.5718967  57.0429300
  39.1123350  66.3299793  55.2204807  38.2197295  65.9989780  54.8831486
  40.1007141  66.7684711  54.2434651  41.0095360  66.1679440  54.2823138
  39.4411162  66.5754825  52.8627290  39.2761001  65.5088874  52.7102702
  38.4822826  67.0938557  52.8679534  40.3161221  67.1590724  51.4017299
  39.3896496  66.7822777  50.5250471  40.3983221  68.2422592  54.4933992
  39.4722207  69.0367222  54.4854138  41.6513860  68.5999906  54.8019721
  42.4177459  67.9421953  54.7921198  41.9113866  69.9504089  55.2564730
  41.1691370  70.2236841  56.0064633  43.2931824  70.0842663  55.8702909
  43.2416849  69.6943204  56.8868485  43.9764275  69.4725012  55.2812071
  43.8002953  71.5267939  55.9030604  43.8480913  71.8850312  54.8747208
  43.0759672  72.1204381  56.4607676  45.1684681  71.6599339  56.5493574
  45.4887038  70.6786923  56.8996618  45.8745998  72.0276256  55.8048574
  45.1204235  72.6321124  57.7302658  46.1506536  72.8152339  58.0355411
  44.6805318  73.5593673  57.3631246  44.3296093  72.1346904  58.9087692
  44.7373156  71.2757072  59.2493910  44.3455981  72.8289669  59.6421344
  43.3748404  71.9653508  58.6262102  41.7159766  70.9365460  54.0980820
  41.2139774  72.0514139  54.2998750  42.0837160  70.4956080  52.8906441
  42.4514462  69.5573096  52.8237864  42.0603464  71.3133277  51.6901612
  42.5678558  72.2645686  51.8503931  42.8000209  70.5426442  50.5912642
  43.8311255  70.8956712  50.6084259  42.7714419  69.4918774  50.8796605
  42.2403731  70.6968072  49.2026671  42.8757107  70.1510776  48.5050811
  41.2281518  70.2944483  49.1624480  42.2003791  72.1327951  48.7892446
  41.1410490  72.6630746  48.4208896  43.3533094  72.7808731  48.8286351
  43.3914880  73.7540367  48.5610600  44.1898530  72.2994042  49.1260974
  40.6184761  71.7023101  51.2587894  40.2956857  72.8898769  51.1993544
  39.7652878  70.7201438  50.9603935  40.0626972  69.7556166  50.9969210
  38.4138097  71.0098482  50.4946980  38.3758544  71.9930765  50.0257409
  38.0035346  69.9685947  49.4712052  37.0663341  70.2403493  48.9855058
  38.7772135  69.8313671  48.7157652  37.7310122  68.3399219  50.2120785
  37.4052419  67.7244812  49.0789392  37.4311066  71.0734869  51.6782633
  36.2181424  71.2737265  51.5105678  37.9886444  70.8705163  52.8643997
  38.8616854  70.3630719  52.8843757  37.3637756  71.2344860  54.1460358
  38.0507130  71.0447814  54.9707954  37.0142264  72.7240367  54.1336190
  37.5803198  73.1824586  53.3227633  35.9479240  72.8043866  53.9223299
  37.3280710  73.4413608  55.4404294  36.5026701  73.3220902  56.1422760
  38.2259125  72.9829423  55.8549595  37.5880410  74.9296083  55.2429272
  38.2476734  75.3205398  54.2811935  37.0378846  75.7692586  56.1351470
  37.1834394  76.7645354  56.0438270  36.4810979  75.4016037  56.8933816
  36.1412948  70.4156602  54.5732520  36.1499706  69.7472479  55.6164632
  35.0854617  70.4601485  53.7697606  35.1055589  71.0118520  52.9239955
  33.7930044  69.8403301  54.1786106  33.7989212  69.6972982  55.2591689
  32.5607908  70.7197381  53.7986566  32.7054109  71.0177967  52.7602225
  31.6874204  70.0716893  53.8718478  32.3423600  71.9809185  54.6720191
  33.3176925  72.2737832  55.0606804  31.9695877  72.7578414  54.0045381
  31.3612555  71.7950758  55.8391675  31.0350639  72.7997149  56.5294257
  30.9108405  70.6561756  56.0640777  33.6465921  68.3934121  53.6696806
  32.5515054  67.9317354  53.3480088  34.7354964  67.6378200  53.6794751
  35.6165211  68.0773486  53.9046628  34.7278973  66.1884919  53.3991016
  33.7285338  65.8186941  53.1697082  35.6930576  65.8453542  52.1731859
  36.6847137  66.2363525  52.4008672  35.7861918  64.3203951  51.9155665
  34.7949209  63.9287357  51.6873460  36.4527677  64.1336686  51.0735993
  36.1764994  63.8244266  52.8042598  35.2801814  66.5070237  50.9619816
  35.8823316  66.2771068  50.2505369  35.2372633  65.3728657  54.6333063
  36.3895857  65.4588231  54.9767512  34.4075212  64.4359776  55.1103575
  33.4367890  64.4514979  54.8319020  34.8116516  63.5123586  56.1894750
  35.5097585  64.0445404  56.8356394  33.6305678  62.9707479  57.0665434
  33.2149903  63.8172110  57.6132561  32.8765433  62.5714687  56.3882196
  34.0608033  61.8635301  58.0736121  33.9815896  60.9402030  57.4997714
  35.1026007  62.0335769  58.3453497  33.2059602  61.7472926  59.3572044
  33.7128455  61.1708431  60.3403805  32.0248497  62.1729486  59.3807594
  35.7341057  62.3663428  55.6811636  35.4503870  61.6119699  54.7112713
  36.8536794  62.2369217  56.3427306  37.1474800  62.9318723  57.0141651
  37.7623851  61.1131125  56.0577819  37.5604014  60.6284441  55.1025864
  39.2245201  61.6092433  56.0838501  39.3910439  62.1270155  57.0284569
  40.2264033  60.4575465  55.9495009  40.0607907  59.9395505  55.0048564
  41.2415575  60.8537987  55.9728856  40.0905213  59.7589141  56.7750602
  39.4624235  62.6958284  54.9800821  38.9025602  63.5731200  55.3041397
  40.5296235  62.9158626  55.0078073  39.0540097  62.3295122  53.5501005
  37.9867703  62.1097817  53.5214904  39.2703572  63.1651631  52.8845326
  39.6138324  61.4525223  53.2251588  37.5110888  59.9779082  57.0561182
  37.3476971  58.8125922  56.6716591  37.4792225  60.3314265  58.3287640
  37.5798287  61.3069342  58.5703473  37.4971886  59.3439184  59.4084797
  36.7714906  58.5488915  59.2370337  38.9391672  58.6915697  59.5599655
  39.4803843  58.8465661  58.6266057  39.7235554  59.2946010  60.7030478
  39.1831500  59.1395802  61.6368734  40.7010210  58.8163547  60.7658215
  39.8528367  60.3632698  60.5317763  38.8502287  57.2628004  59.7511757
  39.7330759  56.8962082  59.8394440  36.9016923  59.9639839  60.7207468
  36.5388275  61.1508331  60.7780188  36.7310068  59.1330508  61.7368008
  37.1193474  58.2028955  61.6727547  36.1364132  59.5485817  63.0023476
  35.8564145  60.6016735  62.9759354  34.9009632  58.7292383  63.2485540
  34.1522673  59.3691144  63.7155800  34.3175151  58.1291154  61.9044354
  35.0655302  57.4887133  61.4370402  33.4250278  57.5434175  62.1247159
  34.0597814  58.9415135  61.2249627  35.2715292  57.6767650  64.1325715
  34.5054809  57.1278214  64.3154134  37.0140479  59.1989466  64.1913928
  37.9955716  58.4647435  64.0372821  36.6401055  59.7033595  65.3720454
  35.9112025  60.4013885  65.4114828  37.3356960  59.3574964  66.6095742
  38.3974161  59.5495913  66.4548185  36.8732448  60.1324829  67.8483057
  37.0350566  61.1912572  67.6460358  35.8061248  59.9447493  67.9670953
  37.6169488  59.7353519  69.1531599  38.1032249  58.7764152  68.9740599
  38.3740169  60.4961811  69.3431310  36.6688996  59.6166873  70.4016991
  36.5819788  60.6148220  70.8309669  35.6953243  59.2945967  70.0322290
  37.1627512  58.6252118  71.4922884  36.3987711  57.8500771  71.5522979
  38.0856293  58.1956383  71.1025938  37.4132403  59.1903941  72.8661804
  36.5580983  59.5881132  73.2276378  37.7281009  58.4535711  73.4810419
  38.1214385  59.9083734  72.8108621  37.2213028  57.8844607  66.8161318
  38.2169092  57.2519399  67.0726164  36.0200780  57.3290836  66.6546504
  35.2294400  57.9376084  66.4975252  35.7745435  55.8827193  66.7741243
  35.7382359  55.6081107  67.8283402  34.4142952  55.4758009  66.1023199
  34.5465998  55.3348502  65.0296002  34.1309592  54.5282477  66.5605378
  33.2699675  56.4988250  66.3306417  32.6655295  57.0067036  65.3603304
  32.9300771  56.7540858  67.6024956  32.1908966  57.4128082  67.8019870
  33.4148120  56.2864527  68.3551257  36.9098809  55.0242235  66.1911003
  37.2626910  53.9927816  66.7540875  37.4611903  55.4584581  65.0591462
  37.1491665  56.3326730  64.6610396  38.3726300  54.6277320  64.2770025
  38.2092506  53.5766175  64.5148356  38.1338489  54.8342631  62.7681054
  38.5807894  55.7941449  62.5093188  38.6683162  54.0349878  62.2546818
  36.6285003  54.8231236  62.3276255  36.2179969  55.4021406  63.1548661
  36.4696624  55.3620083  61.3935629  35.9079042  53.4286576  62.2564371
  35.4885492  53.0327809  61.1278713  35.5974533  52.8030470  63.3250871
  39.8531079  54.7731279  64.6695903  40.6676151  53.9209920  64.3208664
  40.1875040  55.7953160  65.4075347  39.4695618  56.4456966  65.6933029
  41.5357633  56.0069206  65.8885570  42.3029721  56.0450853  65.1152308
  41.5336776  57.3054162  66.6596094  40.6139788  57.3674995  67.2413311
  42.7227519  57.3801669  67.5885871  43.6428914  57.3186092  67.0075067
  42.7001193  58.3240078  68.1333373  42.6843572  56.5518909  68.2961067
  41.4608694  58.4941756  65.6913578  42.3507795  58.4628829  65.0627232
  40.5740562  58.3613472  65.0716656  41.3875263  59.8399995  66.4000691
  42.2742867  59.9737546  67.0196378  41.3381546  60.6387237  65.6600007
  40.4975640  59.8722179  67.0285824  41.9520696  54.9059454  66.8503265
  41.2434432  54.6005786  67.7918300  43.1112735  54.3259164  66.6222964
  43.5958454  54.4686026  65.7476936  43.7442975  53.4667671  67.6403126
  43.4186917  53.7654406  68.6367433  43.3552136  52.0415838  67.4181406
  43.6518315  51.3502678  68.2069366  42.2688587  52.0460200  67.3291841
  43.8892555  51.4804031  66.1318916  43.2486910  51.7566282  64.9311144
  42.3595545  52.3871062  64.9369169  43.7174364  51.2511835  63.7564892
  43.1793512  51.4197976  62.8236793  44.8814566  50.5221936  63.7557044
  45.2617878  50.1190243  62.8171402  45.5672603  50.2991224  64.9292774
  46.4962197  49.7290313  64.9178488  45.0835605  50.7919412  66.1063416
  45.6417753  50.6418355  67.0304436  45.2501527  53.5238062  67.5945683
  45.8252298  53.8914115  66.5684662  45.8343647  53.1115234  68.7102355
  45.2627465  52.6664914  69.4140100  47.2743320  53.2689968  68.9772287
  47.6573970  54.1459945  68.4554668  47.5151458  53.4533468  70.5011544
  46.6993923  52.9575414  71.0272936  48.4570940  52.9639363  70.7487649
  47.5727465  54.8208247  70.8960460  47.7225719  54.8744546  71.8427646
  48.0190659  52.0584028  68.5123476  48.1479083  51.1144685  69.2649841
  48.4689104  52.0509657  67.2631760  48.1961831  52.7642799  66.6021904
  49.3701106  51.0253715  66.8235810  48.9568159  50.0472117  67.0695283
  49.5855415  51.0964558  65.3328672  49.3272160  52.1191274  65.0580762
  50.6513131  50.9353990  65.1707202  48.7957480  50.1319295  64.4808642
  47.8157701  50.5570304  64.2639925  49.5356927  49.8804443  63.1820597
  50.5156499  49.4548822  63.3981144  48.9653053  49.1841637  62.5672815
  49.6589685  50.8211900  62.6454956  48.5886704  48.8188159  65.2020309
  48.0427372  48.9948814  66.1288844  48.0172691  48.1413656  64.5674736
  49.5565459  48.3724566  65.4302400  50.6841364  51.2168127  67.5052908
  51.3338863  50.2637070  67.8766608  51.1026644  52.4574123  67.6027275
  50.5570492  53.2142297  67.2159059  52.3403128  52.7778146  68.2676581
  53.0654408  51.9908563  68.0603292  52.9303732  54.1315848  67.7968536
  53.1586639  54.0511147  66.7340708  52.1746065  54.9022937  67.9482620
  54.1274305  54.4839126  68.5200348  54.4592245  55.3255752  68.1989171
  52.0575315  52.8627361  69.7278417  50.9974309  53.2781830  70.1366958
  53.0549442  52.5329126  70.5353182  53.9299492  52.1785236  70.1763278
  52.9047243  52.6585643  71.9498451  52.0612310  52.0415776  72.2595960
  54.1503306  52.2227241  72.7425766  54.1476442  51.1431006  72.5925600
  55.0852050  52.6388644  72.3671606  54.0158991  52.5369662  74.2687254
  52.9930036  52.8674826  74.4491266  54.3282863  51.3279864  75.1633695
  55.3512386  50.9971666  74.9838544  54.2170178  51.6114232  76.2099752
  53.6385842  50.5162694  74.9320104  54.8299283  53.7806253  74.6786430
  54.4752020  54.6476045  74.1213139  54.7065105  53.9605013  75.7465914
  55.8843556  53.6142053  74.4582196  52.6127204  54.1244764  72.2244732
  51.7617750  54.4612013  73.0174456  53.2983857  54.9895337  71.5176041
  54.0428440  54.6861813  70.9061645  53.2038406  56.3707226  71.8283848
  53.1649843  56.4889811  72.9112533  54.3652018  57.1428859  71.3067970
  54.7870198  56.7644144  70.3757072  54.2006477  58.2169244  71.2204066
  55.6422258  56.9330710  72.5540705  56.5634559  57.6653446  71.9343862
  51.8917407  57.0049583  71.5770920  51.5639830  57.9425844  72.2937852
  51.1139655  56.5379719  70.6203964  51.4183204  55.8328804  69.9644137
  49.7786386  57.0477375  70.4999345  49.2050682  56.7226984  71.3679585
  49.8247146  58.1366238  70.4825287  49.1060546  56.5770257  69.2775719
  49.6755358  55.8336708  68.4885982  47.9410739  57.1327984  69.0166090
  47.1104324  57.9707783  69.9003846  47.7208445  58.7715833  70.3177675
  46.7123086  57.3586304  70.7096259  46.0287639  58.4849892  68.9822362
  46.2844107  59.4913545  68.6506152  45.0805052  58.5098364  69.5191621
  45.9662239  57.5278783  67.8294168  45.6354786  58.0513478  66.9323737
  45.3123770  56.6755112  68.0139550  47.4025897  57.0521852  67.6514693
  47.4703159  56.0123346  67.3317471  48.1459367  57.9389379  66.6565809
  47.8783716  57.9009122  65.4755991  49.0361191  58.7806177  67.1794339
  49.1198874  58.8277246  68.1848508  49.9120241  59.6089376  66.3782979
  49.9365858  59.2344036  65.3549602  49.4364549  61.0063066  66.3579096
  48.3790524  61.0132737  66.6223913  49.9998255  61.5718452  67.1001223
  49.6161841  61.6281087  65.0211323  50.6424870  61.9757364  64.9029878
  49.3847169  60.9073298  64.2369111  48.4937756  63.0348763  64.8841098
  49.4627801  64.3803715  65.5500158  50.3681616  64.5054649  64.9561007
  48.8783849  65.2999378  65.5187015  49.7337467  64.1576561  66.5820411
  51.3246933  59.6556430  66.9221345  51.5492091  59.8046979  68.1306167
  52.2732086  59.5542004  65.9736778  51.9887925  59.2836448  65.0430831
  53.6892328  59.8201865  66.2152599  53.8657788  60.4545602  67.0838800
  54.4552977  58.5114524  66.4026483  54.2956915  57.8692071  65.5365382
  55.5193819  58.7242169  66.5053930  54.0980733  58.0060124  67.2998776
  54.2116833  60.5618998  64.9900906  53.5519005  60.6325513  63.9709591
  55.4614783  61.0061139  65.0629283  55.9323099  61.0386348  65.9558781
  56.1753694  61.4978326  63.8838701  55.4761035  61.8563483  63.1284941
  57.0857356  62.6676781  64.3071947  57.7975655  62.3219623  65.0567805
  57.6269547  63.0406294  63.4376606  56.4772872  63.4687707  64.7268857
  57.0037698  60.3554377  63.2354167  57.5907319  59.4969976  63.9004687
  56.9584423  60.3241081  61.9023177  56.2768800  60.8737508  61.3988646
  57.8035314  59.4098699  61.1457347  58.6044711  59.0431147  61.7876735
  56.9976005  58.2008964  60.6226742  56.2816310  58.6130098  59.9115838
  57.6803076  57.5292605  60.1021779  56.2507909  57.4275081  61.7055315
  56.8921063  56.5048101  62.5192127  57.9640535  56.3515864  62.3945080
  56.1892024  55.7773720  63.4859370  56.7084001  55.0369548  64.0944745
  54.8207562  55.9587778  63.6310987  54.1296270  55.2692779  64.5958102
  54.6897737  54.6878313  65.1151898  54.1565271  56.8787886  62.8389056
  53.0851038  57.0427496  62.9540986  54.8750369  57.6014065  61.8830542
  54.3632842  58.3256349  61.2492542  58.5093648  60.1944547  60.0307279
  57.9011043  61.0964919  59.4119865  59.8020729  59.8826502  59.7678806
  60.3527523  59.2994761  60.3816879  60.4394534  60.4098496  58.5456917
  59.9183825  61.2782989  58.1427277  61.9444294  60.7033614  58.5575742
  62.3533109  60.4538180  57.5784709  62.2243255  62.1729064  58.8663665
  61.8161153  62.4230947  59.8455862  63.3004901  62.3460247  58.8668960
  61.7563824  62.7997381  58.1072796  62.6962378  59.7293723  59.4055991
  62.5488357  58.7208921  59.0191507  63.7582930  59.9738152  59.3859480
  62.3307502  59.7819443  60.4311505  60.3046455  59.5013619  57.3798293
  60.4530804  58.3081331  57.5352545  60.1217330  60.0837979  56.1963339
  59.8181387  61.0445564  56.1265272  60.2113054  59.2987993  54.9758008
  60.0743573  58.2469335  55.2266450  59.1324335  59.7050193  53.9130559
  59.1935783  58.8546939  53.2338598  58.1163437  59.7891413  54.2985233
  59.4660445  60.9762821  53.1348294  60.1767877  61.8135941  53.6107094
  58.7913192  61.1780656  52.0247631  58.9716347  62.0030416  51.4706867
  58.0957597  60.5071777  51.7311525  61.6287309  59.3614033  54.4371658
  62.5179129  59.9620397  55.0730278  61.9038289  58.6788244  53.3115828
  60.9707548  57.8644855  52.5389484  60.3959225  58.4977277  51.8631729
  60.2911939  57.3396124  53.2103679  61.8740339  56.9459325  51.8228414
  61.4132063  56.6378395  50.8843236  62.0652433  56.0672155  52.4387933
  63.1225064  57.7090045  51.5878124  63.0034495  58.3271539  50.6979721
  64.0030157  57.0764823  51.4750352  63.2710396  58.5817550  52.7987911
  63.8880617  58.1902127  53.6075411  63.8517059  59.8967360  52.3114897
  65.0643312  60.0835171  52.4031070  63.0173860  60.7911347  51.7878522
  62.0607230  60.5332527  51.5919132  63.4913595  62.0727046  51.3180251
  64.5289783  61.9941185  50.9935708  62.6592466  62.5245866  50.1563359
  61.7086877  62.2377822  50.6060915  62.5929447  63.5491288  49.7902521
  62.8428311  61.6623764  48.9694347  63.8725362  61.8774601  48.0847769
  63.9012226  60.8865413  47.2084585  64.6110184  60.8981631  46.3813226
  62.9783457  60.0037466  47.5461906  62.7488028  59.1563323  47.0468922
  62.3710577  60.4251794  48.6996747  61.6553968  59.7779604  49.2066639
  63.6190834  63.1016196  52.4209823  63.9614582  64.2695018  52.1699309
  63.4180060  62.6547899  53.6572861  63.0704015  61.7172519  53.7997393
  63.6852622  63.4821396  54.8347293  63.9689153  62.8018104  55.6377189
  64.5325764  64.1201179  54.5834494  62.5259748  64.3590900  55.3114997
  62.6723144  65.1566626  56.2313745  61.3417496  64.0847787  54.7432726
  61.3566500  63.4070141  53.9945988  60.0594159  64.6824529  55.1117082
  60.1984962  65.7404497  55.3339662  59.0172694  64.5471161  53.9310966
  59.0312563  63.5398011  53.5148995  58.0627387  64.7212617  54.4277296
  59.1986743  65.5635201  52.8080538  59.1606643  66.9201392  53.0922807
  58.8717306  67.2197237  54.0996862  59.4768407  67.8900067  52.1393349
  59.4660577  68.9423517  52.4231579  59.7871907  67.5348641  50.8728664
  60.0607753  68.5904547  49.9873259  59.9919458  69.4541909  50.4006319
  59.8222824  66.1668530  50.5371933  60.0941460  65.8657719  49.5254914
  59.5079291  65.1897762  51.5025367  59.5058655  64.1345725  51.2293315
  59.4329866  64.0325403  56.3455400  59.3389266  62.8106151  56.4453263
  58.8944822  64.8790417  57.2298671  58.8525433  65.8722750  57.0514625
  58.3318902  64.3733385  58.4888879  58.6879794  63.3658695  58.7040761
  58.5920476  65.2538719  59.7091109  57.7349256  65.9043071  59.8833957
  58.8086397  64.3630090  60.9255980  59.6659415  63.7125633  60.7522340
  58.9952458  64.9833057  61.8022454  57.9199358  63.7547820  61.0940229
  59.7538545  66.2191000  59.4914586  59.5317024  66.8712969  58.6468345
  59.8983446  66.8225194  60.3876211  60.6625327  65.6538896  59.2842345
  56.8118663  64.2360887  58.4343352  56.0901555  65.1425620  57.9375378
  56.3164748  63.1318320  58.9785618  56.9045086  62.4408470  59.4222455
  54.8695067  62.8573355  58.8754789  54.3334564  63.7692311  58.6124284
  54.6143440  61.8137684  57.7951633  55.3745558  61.0377239  57.8842256
  53.6250972  61.3640906  57.8804909  54.7188732  62.3581733  56.4043521
  53.9102702  63.3744714  55.9375756  53.1831100  63.8223631  56.4767702
  54.2398213  63.6597158  54.6885953  53.7051729  64.4314586  54.1348236
  55.2435817  62.8775018  54.3349565  55.5661432  62.0588019  55.3927082
  56.3814410  61.3415846  55.2978916  54.3550624  62.4191205  60.2091732
  54.6560348  61.3148772  60.6617077  53.5241474  63.2748009  60.7974973
  53.4058794  64.2168534  60.4530424  52.8137792  62.8891336  61.9948773
  53.4394988  62.2179338  62.5831502  52.4551078  64.1079847  62.8577138
  51.4387006  64.3870621  62.5799881  52.4666739  63.7614241  63.8910879
  53.3724999  65.3218573  62.7176715  54.3759694  64.9681561  62.4809330
  52.9896146  65.9112888  61.8845637  53.4219097  66.1892448  63.9745500
  53.5020044  65.6137855  65.1098704  53.3986926  67.4549719  63.7981840
  51.5622992  62.1082785  61.5084988  50.5492866  62.6948547  61.0915396
  51.6605169  60.7908274  61.5059080  52.5134750  60.3243633  61.7797202
  50.6277451  60.0147962  60.9217727  49.8725756  60.6672300  60.4834253
  51.1170721  59.0586799  59.8572814  51.3997504  59.6262201  58.9706635
  52.2932225  58.2949332  60.3524239  52.0111765  57.7267381  61.2388233
  52.6354771  57.6103460  59.5763432  53.0962576  58.9871596  60.6055204
  50.0363568  58.1750716  59.4903523  50.3381978  57.5639287  58.8143370
  49.7708962  59.3421382  61.9633172  50.2621452  58.8899824  62.9913885
  48.4698551  59.3102921  61.6654651  48.1990161  59.6158593  60.7416825
  47.4346140  58.8338612  62.5634264  47.7935823  58.7602630  63.5899858
  46.3218544  59.8498456  62.5138473  46.8324053  60.8021611  62.6571381
  45.9351334  59.7950192  61.4962320  45.1749279  59.7398024  63.4957811
  44.7575310  58.7352654  63.4266004  45.6311339  60.0008888  64.9200539
  46.0482557  61.0054771  64.9901303  44.7808236  59.9131122  65.5963440
  46.3923316  59.2717958  65.1977260  44.1353764  60.7676283  63.0732190
  43.7992410  60.5495974  62.0595253  43.2852175  60.7263965  63.7541236
  44.5759898  61.7641612  63.1028994  46.8956270  57.4890245  62.0939115
  46.4327983  57.3710469  60.9783117  46.9559710  56.4997353  62.9597068
  47.3143097  56.6832481  63.8859982  46.5650917  55.1348841  62.6276128
  46.8160654  54.9460591  61.5838424  47.4676574  54.2095649  63.5400078
  46.8610185  53.4211864  63.9855961  48.5026887  53.6148756  62.7141756
  49.1100686  54.4026821  62.2685859  49.1344329  52.9732685  63.3284546
  48.0419066  53.0214715  61.9244592  48.1685944  54.9954759  64.5412560
  48.7090726  54.4154235  65.0825718  45.0487717  54.9436675  62.8846670
  44.6221934  55.1048686  63.9974519  44.2807477  54.6569852  61.8461097
  44.7036649  54.5837964  60.9318429  42.8526990  54.5520830  61.9456615
  42.5307873  54.4047520  62.9765667  42.1810109  55.8450611  61.3943599
  41.0997016  55.7082051  61.3825336  42.5295122  57.0296945  62.2684129
  43.6107038  57.1674730  62.2803636  42.0538067  57.9267488  61.8720566
  42.1754740  56.8495857  63.2834595  42.5746397  56.1601045  59.9705081
  42.2818507  55.3351360  59.3210440  42.0724842  57.0720172  59.6474685
  43.6540436  56.3008239  59.9140616  42.3529617  53.2768487  61.2415235
  43.0361642  52.8025384  60.3457814  41.2699854  52.6677148  61.7551617
  40.7139814  53.1388106  62.4544669  40.8641380  51.3270142  61.3341312
  41.7426083  50.6932715  61.2126432  39.9842625  50.7219644  62.3462666
  39.6181099  51.6103944  62.8607796  39.1418053  50.1741233  61.9240865
  40.7022623  49.8574305  63.3067927  41.4185425  48.7460973  62.8701015
  41.5252723  48.5671234  61.8002059  41.9944426  47.8693849  63.7823330
  42.5928442  47.0289845  63.4305595  41.8396859  48.0937749  65.1623466
  42.3803046  47.2174449  66.0795855  42.8445837  46.4841641  65.6692883
  41.1044714  49.1770723  65.6141534  40.9711422  49.3533069  66.6815170
  40.5340845  50.0436452  64.6906172  39.9403149  50.8911972  65.0329526
  40.1147654  51.3220851  60.0222366  40.4737821  50.5899477  59.1460340
  39.0693042  52.1177368  59.8461684  38.5069390  52.4453824  60.6184981
  38.6070160  52.4141279  58.4586912  39.2558403  51.8333161  57.8031122
  37.1536194  51.9590652  58.2408235  37.0631707  50.9007258  58.4854373
  36.4907950  52.5380195  58.8839220  36.7655228  52.1783376  56.7824254
  36.8552862  53.2365903  56.5371817  37.4276593  51.5992953  56.1386962
  35.3248569  51.7272631  56.5664658  35.2344066  50.6689243  56.8110811
  34.6620334  52.3062191  57.2095633  34.9367618  51.9465340  55.1080665
  35.0265258  53.0047863  54.8628216  35.5988967  51.3674895  54.4643398
  33.5480539  51.5117296  54.8998967  32.9342948  52.0484609  55.4959831
  33.2910202  51.6569502  53.9340061  33.4647543  50.5310519  55.1266815
  38.8261820  53.8828671  58.0900065  39.4351268  54.6926290  58.8466641
  38.3252966  54.2453837  56.9078185  38.0202699  53.5397287  56.2527542
  38.2525614  55.6662408  56.4941222  37.5589448  56.1765654  57.1623766
  39.6176549  56.3185111  56.6215481  40.3210804  55.8241826  55.9515243
  39.5432953  57.3729871  56.3557452  39.9700083  56.2273054  57.6489857
  37.7298660  55.8374796  55.0498481  37.9498744  54.9795385  54.1510165
  37.0106856  56.9257718  54.8529632  37.0207149  57.6819332  55.5224546
  36.1328672  57.0332995  53.7124661  36.0575430  56.0688017  53.2103013
  34.7052271  57.4720952  54.1666027  34.7312819  58.5512881  54.3174766
  34.0200373  57.2360137  53.3524280  33.9536880  56.7626819  55.6873548
  32.8115853  57.4394379  55.6067271  36.6925904  58.0060035  52.6647792
  37.6019919  58.7891315  52.9416844  36.0897530  57.9609814  51.4767636
  35.4527626  57.2004616  51.2871530  36.3205378  58.9613992  50.4162913
  35.7895037  58.6717731  49.5095285  35.8116389  60.3302292  50.8638171
  36.3959530  60.5667412  51.7530518  35.9614452  61.1070704  50.1140332
  34.3675575  60.2996231  51.2365557  34.0528052  60.1427513  52.3908816
  33.4798145  60.3437732  50.2454567  32.4920064  60.3251733  50.4551921
  33.7981971  60.3956669  49.2883567  37.7617739  59.1205725  50.0356545
  38.2230602  60.2362032  49.8332020  38.4911791  58.0146689  49.8953284
  38.1087952  57.1206404  50.1684491  39.8624294  58.0544219  49.3697959
  40.1039408  59.0835550  49.1039830  40.9063653  57.5501071  50.3853934
  40.4903754  56.5773264  50.6475944  41.8708432  57.4124489  49.8965859
  41.0931098  58.3854615  51.6575720  40.1051100  58.6378628  52.0426057
  41.8874145  57.6385608  52.7379564  42.8757652  57.3862141  52.3537913
  41.9913822  58.2737887  53.6176023  41.3599580  56.7245272  53.0107798
  41.7136076  59.7324365  51.3082845  41.0586067  60.2674123  50.6206260
  41.8431004  60.3200299  52.2171667  42.6836572  59.5748778  50.8368210
  39.9829407  57.1996569  48.1077726  39.2857421  56.1941327  47.9085263
  40.9641402  57.5578539  47.2987903  41.4311311  58.4424606  47.4383966
  41.4568214  56.6699178  46.2363498  40.7268285  55.8755447  46.0808475
  41.6771853  57.3920943  44.9172016  42.3505548  58.2362757  45.0656288
  42.1364471  56.6773653  44.2343100  40.4123652  57.8931059  44.3034465
  39.3528962  57.8162777  44.8943382  40.5254539  58.4458762  43.1178930
  39.7047637  58.8041496  42.6507660  41.4326118  58.5102497  42.6785512
  42.8237805  56.1403610  46.6373215  43.6313597  56.8478193  47.2676093
  43.1175974  54.9484151  46.1446538  42.3828123  54.3936843  45.7293660
  44.4415086  54.4005286  46.1867928  45.0791045  55.0096978  46.8274827
  44.3993231  53.0236564  46.7324192  44.0175298  52.4335032  45.8993212
  45.3908753  52.6640780  47.0074241  43.4769837  52.8878314  47.9037994
  42.9909156  53.8468827  48.0828503  42.3931835  51.7988501  47.6298725
  42.8785041  50.8393553  47.4511754  41.7336349  51.7165171  48.4937693
  41.8093657  52.0790077  46.7530779  44.3286273  52.6204486  49.1382870
  45.0162349  53.4519250  49.2930198  43.6828973  52.5165556  50.0102619
  44.8969718  51.7012799  48.9961167  45.0298688  54.3827654  44.7588790
  44.3127937  54.2792453  43.7549742  46.3111341  54.6955795  44.6958283
  46.7822099  55.0049658  45.5339614  47.0565318  54.6809927  43.4554995
  46.4736946  54.2059274  42.6663779  47.4332204  56.0989032  43.0269140
  48.1897876  56.0406047  42.2444130  46.2223141  56.8420116  42.5033445
  45.4654407  56.9011228  43.2854884  46.5144104  57.8486665  42.2043021
  45.8141430  56.3119549  41.6428008  48.0529731  56.8899561  44.1752936
  47.5378345  57.8480026  44.2451503  47.9003057  56.3279012  45.0966440
  49.5398428  57.1284656  43.9681399  49.6932797  57.6909095  43.0471546
  49.9382151  57.6949511  44.8098601  50.0557508  56.1708073  43.8986460
  48.2700777  53.8068783  43.6422063  48.9341434  53.8765142  44.6909873
  48.5650088  52.9919519  42.6341212  48.0030626  52.9790110  41.7949858
  49.7219067  52.0838008  42.7138631  49.9910613  51.7589193  41.7088222
  50.5625338  52.6144263  43.1609447  49.4009279  50.8578196  43.5624600
  48.2361662  50.6347200  43.9436683  50.4360841  50.0810672  43.8789618
  51.3552937  50.3285733  43.5414803  50.2776838  48.8275148  44.5746928
  49.2393457  48.6973573  44.8796716  50.6700615  47.6564741  43.6461366
  51.3407953  48.0614740  42.8883831  51.2082547  46.9317746  44.2570857
  49.4700523  46.9590268  42.9542737  49.4058289  45.9505607  43.3628962
  48.5743068  47.5179529  43.2250940  49.5845583  46.8843754  41.4142219
  48.6751320  46.4226313  41.0297285  49.6645704  47.9018681  41.0315914
  50.7447373  46.1089476  40.9399756  51.4880043  46.6318456  40.4992589
  50.8881613  44.7849083  41.0746765  51.9998717  44.1948356  40.6711428
  52.7403013  44.7459387  40.2610827  52.1038251  43.1955516  40.7747027
  49.9398761  44.0507778  41.6334275  49.0936033  44.4914512  41.9646816
  50.0666065  43.0530597  41.7261460  51.0429009  48.8243168  45.9055848
  51.9951822  49.5937680  46.1203992  50.5805501  47.9941322  46.8198557
  50.1503073  46.6507079  46.4278501  50.9817691  46.1177058  45.9666774
  49.3258663  46.7205390  45.7182590  49.7342452  46.0491381  47.7233068
  50.0027973  44.9927657  47.7158044  48.6529648  46.1479396  47.8190782
  50.4403676  46.7872882  48.8264472  51.1752312  46.0999606  49.2455597
  49.7828188  47.1432507  49.6195550  51.1502755  47.9684393  48.1689954
  50.9544629  48.9273942  48.6487466  52.6581344  47.7191844  48.1264086
  53.1196562  46.8273889  47.4314571  53.4059589  48.5353740  48.8781578
  52.9439505  49.2504544  49.4215799  54.8455936  48.4621551  48.9275643
  55.2000069  47.5188082  48.5121284  55.4146765  49.6046053  48.0960247
  55.5119543  49.2708935  47.0629358  54.7254082  50.4477754  48.1415594
  56.6707663  50.0011385  48.5793267  57.0083674  50.7204769  48.0406452
  55.3405253  48.5535822  50.4071909  54.8350102  49.3599635  51.1963072
  56.3530633  47.7518697  50.6952426  56.7034625  47.1533013  49.9610521
  56.9845088  47.6845924  51.9947500  56.2903875  48.0577713  52.7477655
  57.3647338  46.2423367  52.3507046  56.4645217  45.6901305  52.6204948
  58.0216744  45.5828151  51.1818139  58.9222788  46.1342295  50.9117149
  58.2881112  44.5589465  51.4441185  57.3345219  45.5734970  50.3357435
  58.2812938  46.2345693  53.4514023  58.5140029  45.3286492  53.6676326
  58.2452604  48.5180036  52.0216038  59.0223080  48.4256098  52.9661616
  58.4734040  49.3081850  50.9849372  57.8255093  49.3961039  50.2151307
  59.6776455  50.1034869  50.9600292  60.5520832  49.4630694  51.0754556
  59.7854793  50.8412779  49.6266627  59.9993650  50.0939238  48.8625855
  58.8131703  51.2930587  49.4301701  60.8608125  51.9189757  49.5971510
  60.7630558  52.5026655  50.5124928  61.8273285  51.4151012  49.5896372
  60.7630131  52.8358278  48.4038775  59.8015095  52.7068280  47.6316244
  61.6535548  53.6893590  48.2395643  59.6479423  51.1364659  52.0478468
  58.7383236  51.9277198  52.1234917  60.6698633  51.1400364  52.8811263
  61.3906325  50.4352861  52.8185314  60.7968266  52.1573709  53.8895408
  61.6390382  51.9563474  54.5516348  61.0445998  53.4771476  53.1748144
  61.7302907  53.3411430  52.3384951  60.0927568  53.8586048  52.8052399
  61.6274948  54.5461594  54.0346801  61.5823094  55.8783576  53.6884642
  61.1545403  56.2380448  52.8471923  62.1787015  56.5927005  54.6195886
  62.2433272  57.6774452  54.5344333  62.6173241  55.7699659  55.5533904
  62.2871486  54.4851859  55.2101329  62.5687278  53.6576196  55.8612460
  59.5341214  52.2497866  54.6864944  59.1334575  53.3333691  55.0692663
  58.8855366  51.1325542  54.9569373  59.1521777  50.2211719  54.6128672
  57.6480593  51.2485622  55.7211501  57.1539632  52.1736107  55.4240752
  56.7027334  50.1186487  55.5185635  56.3683728  50.0791292  54.4818666
  57.1733923  49.1720993  55.7843162  55.5885562  50.3465643  56.3659374
  54.9551022  49.6329666  56.2605141  57.8743525  51.4183652  57.2287499
  58.6928758  50.7183980  57.8375278  57.1153048  52.3443303  57.7970450
  56.3821162  52.7611095  57.2413213  57.2342971  52.7409626  59.1879230
  58.2659532  52.9843575  59.4419777  56.3818814  53.9784345  59.3859049
  55.3924581  53.7338775  58.9994689  56.2972769  54.2952179  60.4254194
  56.8438040  55.1239651  58.6418477  58.0988879  55.4097759  58.3588393
  58.8516844  54.6839589  58.6663891  58.1715870  56.6016756  57.7172125
  59.0264466  57.0570680  57.4309742  56.9134146  57.1036797  57.5540313
  56.4788584  58.2947198  56.9494749  57.2295070  58.9333757  56.4839173
  55.1486938  58.5814719  56.9800737  54.7784559  59.5048767  56.5347115
  54.2574172  57.7231642  57.5657510  53.1911772  57.9486381  57.5855852
  54.6907546  56.5215773  58.1611270  53.9409192  55.8714483  58.6118818
  56.0518137  56.2171363  58.1492536  56.6972169  51.7142058  60.1680186
  56.8836815  51.8306714  61.3762929  55.9564804  50.7600884  59.6387075
  55.8682355  50.7124834  58.6336971  55.2935121  49.7472736  60.4353016
  55.5294015  49.8777354  61.4914432  53.7888473  49.8768903  60.2537043
  53.5768309  49.8335403  59.1854024  53.2388205  49.0869266  60.7651022
  53.2404681  51.1566102  60.7412012  53.2658328  51.4651889  62.0948041
  53.6625848  50.7322442  62.7972852  52.8079985  52.6534786  62.5452589
  52.8664700  52.9185202  63.6009267  52.2636350  53.5305137  61.6497105
  51.9023295  54.5010266  61.9898031  52.1708447  53.1875156  60.3121414
  51.7014426  53.8741040  59.6076145  52.6604605  52.0046306  59.8787079
  52.5848058  51.7367393  58.8248528  55.7112736  48.3510810  59.9474362
  55.0707401  47.7896443  59.0333183  56.7787011  47.8006208  60.5541232
  57.0120247  47.9763688  62.0027635  56.0565409  47.9344926  62.5256376
  57.4770876  48.9471858  62.1740229  57.9192554  46.8343132  62.3658548
  57.3668964  46.1436428  63.0030149  58.7723233  47.2318926  62.9156794
  58.3667223  46.1660219  61.0840931  58.3673492  45.0930576  61.2760465
  59.3394496  46.4653495  60.6938312  57.2728140  46.5123593  60.0775441
  57.6532680  46.6178350  59.0615579  56.1199601  45.4958617  60.0891932
  55.3995249  45.3550185  61.1010851  55.9091373  44.8583003  58.9433995
  56.5238971  45.0216578  58.1588716  54.8135910  43.9234175  58.7752491
  55.2166236  42.9612665  58.4591330  54.3007508  43.8059770  59.7298705
  53.8235165  44.4050956  57.7414713  53.0981032  43.5893811  57.1615753
  53.8006552  45.7227297  57.5211105  54.4760596  46.3123197  57.9862038
  52.8123337  46.3591875  56.6322539  52.1041396  45.6144650  56.2690064
  52.0455312  47.4308323  57.3856174  52.8618546  47.9523853  57.8853151
  51.4913172  48.1347995  56.7648299  51.1324097  46.8438908  58.4069610
  51.6237352  46.4734352  59.6444173  52.6585540  46.7041149  59.8974712
  50.8243492  45.8219685  60.5506143  51.2235236  45.5177542  61.5181965
  49.5394497  45.4810322  60.1989785  48.7745049  44.8862999  61.1414110
  49.2331704  44.7667429  61.9762354  49.0221862  45.8054463  58.9684071
  48.0013076  45.5372111  58.6964561  49.8153564  46.4791858  58.0750275
  49.4272250  46.7400363  57.0904407  53.4145496  47.0218834  55.3923970
  54.5440309  47.4661012  55.4073503  52.6507309  47.0417322  54.3219177
  51.7997721  46.4984295  54.3500379  52.9669491  47.7699894  53.0963430
  53.9845054  48.1594852  53.1275104  52.8439708  46.8380985  51.9187613
  51.8277945  46.4469506  51.8688700  53.0694921  47.3803808  51.0005183
  53.5455333  46.0118565  52.0337982  52.0282018  48.9569131  52.9305423
  50.8604658  48.9108958  53.2934473  52.5026890  49.9673057  52.2535809
  53.4327737  49.9229856  51.8623295  51.7485439  51.2074953  52.1058858
  50.8225244  51.1556494  52.6785106  52.5873330  52.3907316  52.6311682
  52.0232347  53.3064877  52.4542978  52.7692195  52.2773378  53.6998867
  53.9655359  52.5863393  51.9673789  55.1696168  52.2366953  52.4765176
  55.1807136  51.7936736  53.4723632  56.1494482  52.5324989  51.5829765
  57.1399477  52.4149424  51.7416925  55.5824409  53.0914459  50.4656959
  56.1656451  53.5649624  49.3058374  57.2395673  53.4308124  49.1762473
  55.3601597  54.1712723  48.3946636  55.7976774  54.6213136  47.5035177
  54.0065983  54.2305000  48.5701562  53.3579465  54.6396512  47.7955946
  53.4257447  53.7793719  49.7201033  52.3402069  53.8372196  49.7998658
  54.2290628  53.2006175  50.7007752  51.3146690  51.4534627  50.6660335
  52.0235893  51.1253241  49.7018852  50.1578536  52.0649971  50.5400260
  49.5723694  52.2024703  51.3514498  49.6578420  52.5118084  49.2407285
  50.4481492  52.5033154  48.4901011  48.5903430  51.5471208  48.8229323
  47.6205652  51.9661225  49.0913886  48.6333763  51.2829789  47.3020121
  49.6027555  50.8635079  47.0328508  47.8459900  50.5790544  47.0325453
  48.4818027  52.2196719  46.7656054  48.8352231  50.3114835  49.5371293
  48.1685651  49.6644925  49.2951166  49.1698314  53.8932513  49.3859257
  48.5254163  54.2102852  50.3904319  49.5883569  54.7702057  48.4688382
  50.1341617  54.4651950  47.6756390  49.2763061  56.2130113  48.5935956
  49.6250617  56.5118495  49.5821119  49.9572462  57.1099265  47.5384569
  50.0927728  56.5282796  46.6266352  49.1191800  58.3492083  47.2314933
  48.9836056  58.9316422  48.1428063  49.6292747  58.9575534  46.4846197
  48.1456651  58.0441821  46.8476582  51.2734875  57.6113693  48.0517384
  51.9243662  56.7652261  48.2719670  51.7419293  58.2425376  47.2965639
  51.1125523  58.1914545  48.9604198  47.7923856  56.3858186  48.4606013
  47.1679509  55.8103036  47.5571430  47.2512076  57.1625959  49.3833393
  47.9132081  57.6199216  49.9938374  45.8358053  57.4670122  49.5473304
  45.1320927  56.8660343  48.9713849  45.5321944  57.2885923  51.0204549
  46.2229370  57.8914868  51.6099403  44.5094706  57.6069944  51.2223368
  45.6453731  56.2387144  51.2907257  45.6295281  58.8968518  49.1899532
  46.3164828  59.6617466  49.7629715  44.6641445  59.2567294  48.3334576
  44.2419300  58.5971189  47.6956893  44.3015886  60.6710053  48.2107795
  44.5685123  61.1895952  49.1316027  45.0185358  61.3377823  47.0542658
  44.8839553  62.4141734  47.1608932  46.0775414  61.0943081  47.1398660
  44.5064849  60.8963727  45.6952303  43.8924428  60.0476924  45.9965521
  43.9059476  61.5864190  45.1025304  45.6351236  60.3937003  44.8471141
  46.0515407  59.2453378  44.9918840  46.2969238  61.3134424  44.1400639
  47.0675454  61.0341765  43.5499331  46.0237370  62.2840230  44.1987453
  42.8199133  60.9956559  48.1215524  42.0340693  60.1845730  47.6932634
  42.4478244  62.2017639  48.5171690  43.1827030  62.8357207  48.7967250
  41.0509357  62.6734209  48.5911392  40.5180889  62.1092516  49.3565714
  40.9840606  64.1859679  48.9512496  41.6709989  64.3792344  49.7751810
  41.2897282  64.7658742  48.0804017  39.3532463  64.8696521  49.4741021
  39.7788002  66.1155539  49.6625984  40.3573788  62.4565239  47.2601341
  40.7152173  63.0990528  46.2371042  39.3958347  61.5725604  47.2825688
  39.3500860  60.9466014  48.0738853  38.4498360  61.3786560  46.1939487
  38.9453477  60.7358845  45.4663416  37.1859238  60.6488725  46.7206582
  37.4785295  59.7151874  47.2009844  36.6738781  61.2838807  47.4436200
  36.2494473  60.3487990  45.5550716  35.9560242  61.2821023  45.0745003
  36.7606733  59.7134071  44.8318654  35.0072066  59.6315311  46.0727488
  35.2998114  58.6978468  46.5530769  34.4951610  60.2665408  46.7957089
  34.0707316  59.3314561  44.9071608  33.7773087  60.2647586  44.4265884
  34.5819576  58.6960626  44.1839581  32.8732926  58.6400588  45.4061685
  32.3991968  59.2288369  46.0759993  32.2530699  58.4413192  44.6342058
  33.1449272  57.7750059  45.8511373  38.0551401  62.6871758  45.4628591
  37.9845187  62.7193456  44.2406612  37.8116858  63.7535471  46.2153240
  37.9911822  63.7060573  47.2081105  37.3148029  65.0168757  45.6577756
  36.6358278  64.8819252  44.8158254  36.6247214  65.9333486  46.7506749
  37.3805015  66.5590049  47.2254918  35.5743472  66.8165581  46.0961431
  34.8179219  66.1915671  45.6214772  35.1037282  67.4441109  46.8529759
  36.0473109  67.4480648  45.3440767  36.0532305  65.1580004  47.9815645
  36.7913741  64.3947108  48.2278036  35.9946165  65.8816948  48.7945407
  34.6866520  64.5005385  47.7853575  34.7445996  63.7763297  46.9727915
  34.3920093  63.9926573  48.7036938  33.9478420  65.2633141  47.5395261
  38.4881138  65.8486602  45.0654522  38.5903613  66.1048197  43.8503264
  39.3808380  66.2387147  45.9654272  39.3121627  65.8851444  46.9090220
  40.3954360  67.2476468  45.6765885  40.0992652  67.8460630  44.8150317
  40.5507092  68.1634781  46.8710559  41.2838026  68.9505926  46.6946359
  39.6038556  68.6107311  47.1736001  41.1370568  67.2502886  48.2796716
  41.1656138  68.2853897  49.1143262  41.7568499  66.6863859  45.2418778
  42.6224783  67.4535780  44.7636300  41.9460261  65.3696115  45.3732687
  41.2491088  64.8265136  45.8626052  43.1597492  64.6841575  44.9009617
  42.9619432  63.6122647  44.8967368  43.5141451  65.1189653  43.4858985
  43.7238289  66.1885578  43.4756719  44.3949466  64.5733175  43.1474352
  42.6777947  64.9068192  42.8198570  44.3190247  64.9239480  45.8316468
  45.4201925  64.3741846  45.6373332  44.1005521  65.7843028  46.8261906
  43.2114147  66.2564847  46.9072965  45.1690387  66.1592909  47.7455198
  46.0640097  66.3863873  47.1662502  44.8071790  67.4080133  48.6171620
  45.7419930  67.8403722  48.9739363  44.3002863  68.1235512  47.9697321
  43.9719564  67.0997514  49.7293377  43.7862813  67.9023588  50.2222331
  45.5636361  64.9659594  48.6057167  44.7159250  64.3241866  49.2325847
  46.8523864  64.6465632  48.5929567  47.4764481  65.1791785  48.0039175
  47.3753342  63.4346197  49.2495515  46.7635147  62.5837433  48.9499094
  48.8964715  63.1307759  48.8643370  48.8582828  62.4967615  47.9785229
  49.4769508  64.0267657  48.6444595  49.6701048  62.3599850  49.9165265
  50.4735818  62.9676967  50.8630338  50.6790816  63.9563414  50.8842735
  50.9195113  62.0627092  51.7176013  51.5403711  62.3524991  52.5653359
  50.4795049  60.8822582  51.3320279  49.6884495  61.0410442  50.2160004
  49.2185052  60.1732853  49.7531308  47.1318489  63.4383533  50.7895119
  47.7588315  64.1760997  51.5537455  46.2466689  62.5624347  51.2066018
  45.8852115  61.8797125  50.5559573  45.7643136  62.5252470  52.5969742
  45.8192470  63.5157283  53.0486691  44.3072866  62.0042847  52.6713018
  44.2901923  61.0034194  52.2399356  43.7531626  61.9514370  54.1301505
  43.7695131  62.9520859  54.5620475  42.7289910  61.5786072  54.1170639
  44.3736133  61.2866751  54.7311760  43.4041228  62.8760010  51.8196963
  43.9219046  63.0693515  50.8802186  42.4921151  62.3127197  51.6220713
  43.0495373  64.1973952  52.4840128  43.9610710  64.7614780  52.6815397
  42.4017724  64.7742275  51.8238884  42.5312832  64.0048458  53.4233941
  46.5847324  61.6063700  53.5134190  46.5368616  61.7413598  54.7075589
  47.2666627  60.6341741  52.9357104  47.3174823  60.5722913  51.9288900
  47.9672745  59.6201122  53.7310183  48.8987393  60.0651354  54.0809140
  47.3353517  59.3815142  54.5864971  48.2794659  58.3563930  52.9876617
  48.6602280  58.3808080  51.8184717  48.1220510  57.2358818  53.6823726
  47.7938848  57.2879129  54.6361540  48.4177370  55.8982746  53.1121463
  48.2986521  55.9034755  52.0286839  49.8558430  55.5464760  53.4398639
  49.9568299  55.5873181  54.5244066  50.1335787  54.5533588  53.0867618
  50.8792345  56.5105577  52.8723118  51.4730606  56.4517510  51.6492067
  51.1831953  55.6281832  50.9966624  52.3478495  57.4948686  51.5038105
  52.9319161  57.6679782  50.6982059  52.3338395  58.2414257  52.6499825
  53.0416177  59.3798581  52.9793268  53.7218691  59.7987138  52.2377632
  52.8421551  59.9164678  54.2299949  53.3387175  60.8474209  54.5035858
  52.0340640  59.3080998  55.1394657  51.9359796  59.6998478  56.1518947
  51.3099542  58.1710166  54.8075808  50.6267833  57.7624904  55.5522180
  51.4624519  57.6249839  53.5432558  47.5083805  54.8298943  53.6741465
  47.2052555  54.8549684  54.8625536  47.1548868  53.8608346  52.8317336
  47.2969266  53.9966161  51.8410331  46.5171220  52.6435150  53.2707336
  46.0251601  52.7774775  54.2341270  45.4683636  52.2879851  52.2368915
  45.3545990  53.1504071  51.5800924  45.8508114  51.4433894  51.6637494
  44.1279263  51.9274044  52.8300857  44.2905277  51.5276756  53.8310245
  43.5249712  52.8331517  52.8946529  43.4040162  50.8986563  51.9876721
  42.3742996  51.2298948  51.8532705  43.8969179  50.8432003  51.0170682
  43.4132266  49.5211653  52.6414516  44.3877098  49.3592803  53.1021861
  42.6398452  49.4932341  53.4090455  43.1552344  48.4521159  51.6386064
  43.8719984  48.4775485  50.9274789  43.1665201  47.5516750  52.0959670
  42.2521181  48.6016950  51.2118673  47.5534410  51.5113390  53.4657993
  48.4206711  51.2853705  52.6289313  47.5204693  50.9020309  54.6416196
  46.7768274  51.1225048  55.2885256  48.4982030  49.9263481  55.0350327
  49.3248272  49.9403895  54.3246845  49.0373790  50.2046510  56.4007343
  48.2389737  50.2786155  57.1390957  49.7240713  49.4081920  56.6874514
  49.7800956  51.4342474  56.4732178  49.1738808  52.6190366  56.1933925
  48.1547093  52.6172455  55.8068875  49.8271031  53.8020923  56.3913541
  49.3130466  54.7516941  56.2426833  51.1256113  53.7879523  56.7759234
  51.6642643  54.7224316  56.9330894  51.7598523  52.5939599  56.9667440
  52.8204944  52.5791167  57.2175790  51.0728870  51.4251769  56.8448790
  51.5702002  50.4769032  57.0487330  47.8788064  48.5633786  55.0589897
  46.8130973  48.3707908  55.5871932  48.6256591  47.6362769  54.5728103
  49.5927842  47.8506821  54.3758360  48.1351393  46.3459381  54.2221520
  47.1448066  46.2113889  54.6571657  47.9940103  46.4278731  52.7022612
  47.9335736  45.4224542  52.2856312  46.7133465  47.2048278  52.3534181
  46.7732520  48.2105682  52.7693474  46.6084580  47.2658360  51.2701935
  45.8494162  46.6894998  52.7731347  49.0827141  47.2067463  52.1856611
  49.0078367  47.2673642  51.2305071  49.1391785  45.3093039  54.7762105
  50.3281474  45.5787930  54.8426137  48.6364549  44.1801664  55.3004324
  47.6392463  44.0464356  55.3886959  49.5170366  43.1622406  55.8401295
  50.2924910  43.6794096  56.4052011  48.7760410  42.2424007  56.7716325
  48.0020151  41.7105772  56.2183263  49.4724198  41.5234568  57.2032300
  48.3160009  42.8257072  57.5692640  50.2073862  42.3707789  54.7461630
  49.7225750  42.3010303  53.6195755  51.3885729  41.8509933  55.0578536
  51.7884998  42.0756324  55.9576841  52.1476853  40.9466617  54.1554492
  51.7454217  40.9931706  53.1434610  53.6525876  41.3397628  54.1108785
  54.1133711  40.8525415  53.2515798  53.8291085  42.8630232  53.9917430
  53.3689505  43.3509383  54.8509828  54.8915097  43.1050505  53.9630126
  53.3521372  43.2141178  53.0766848  54.3158188  40.8817749  55.2973200
  55.2428706  41.1284886  55.2611610  52.0712475  39.4897182  54.6280114
  52.2411457  38.5433600  53.8551656  51.7384015  39.3376063  55.9043208
  51.6686884  40.1536458  56.4953530  51.4516296  38.0230381  56.4950433
  51.7007828  37.2363432  55.7829105  52.2827721  37.8121639  57.7704880
  52.0093835  38.6177995  58.4518903  51.9642259  36.8580541  58.1903724
  53.7961104  37.8021591  57.5764901  54.0392961  37.1508559  56.7369868
  54.1298342  38.8164131  57.3573567  54.4992850  37.2958576  58.8331763
  53.8099957  36.6465061  59.3729187  55.3744665  36.7222332  58.5280340
  54.9321750  38.4366641  59.7370080  54.2502079  39.2737726  59.5877735
  54.8719937  38.0997025  60.7718675  56.3270199  38.8723568  59.4365577
  56.3829016  39.1850365  58.4778042  56.5832567  39.6300470  60.0532816
  56.9591586  38.0969343  59.5751932  49.9618503  37.9710579  56.8553778
  49.3867683  38.9714124  57.3110636  49.3551919  36.8039175  56.6743427
  49.8708679  36.0133600  56.3149034  47.9116949  36.6550411  56.8840881
  47.4117841  37.6081133  56.7113405  47.3369902  35.6179489  55.9141358
  47.1280776  34.7210590  56.4972681  46.4023722  36.0272495  55.5306490
  48.2594739  35.2608902  54.7390720  49.0769151  34.6650427  55.1450974
  47.6752982  34.6526161  54.0485335  48.8314345  36.4718127  53.9942749
  48.7362405  37.3477609  54.6359537  49.8856172  36.2845497  53.7899935
  48.1008318  36.7197025  52.6900800  48.5081153  37.6136634  52.2177934
  48.2463176  35.8632391  52.0317460  46.6437147  36.9108940  52.9416498
  46.5086609  37.7047282  53.5513117  46.1694476  37.0749855  52.0651542
  46.2660329  36.0824756  53.3788895  47.5735032  36.3099269  58.3441678
  46.4140460  36.0240875  58.6618970  48.5718491  36.4191897  59.2237433
  49.4891957  36.6973296  58.9056040  48.4022436  36.0778775  60.6318016
  47.3747971  35.7641389  60.8162492  49.3426695  34.9287346  61.0182350
  49.0087591  34.4435675  61.9354133  49.2800280  34.2222629  60.1905431
  50.7607654  35.3816689  61.1812544  51.2576146  36.0736397  60.2697796
  51.3574878  35.1121778  62.2415591  48.6356588  37.2962828  61.5133795
  48.4577190  37.2296357  62.7386904  48.8748598  38.4642410  60.8892435
  49.0565993  38.4540824  59.8957815  48.9036606  39.7494546  61.5861635
  49.3600948  39.6186964  62.5673206  49.7067117  40.7818882  60.8103036
  49.6157083  40.5464414  59.7499346  49.2666948  41.7601749  61.0037987
  51.1529207  40.8010080  61.1943493  51.3024204  41.5609868  61.9612802
  51.4227773  39.8237032  61.5945426  52.1930702  41.1684924  59.7948887
  53.7477661  41.3943750  60.6631293  54.0065651  40.4763736  61.1907611
  54.5331375  41.6346957  59.9465134  53.6490269  42.2094203  61.3801042
  47.5037510  40.3118143  61.8044698  46.6435631  40.2268448  60.9211245
  47.3063845  40.9401776  62.9640452  47.9665040  40.8489482  63.7230042
  46.0894362  41.7155124  63.1938753  45.3140088  41.3849207  62.5028466
  45.5857199  41.5400310  64.6020678  45.6611717  40.4859415  64.8690914
  46.2125364  42.1295629  65.2711367  44.2416901  41.9613625  64.7228063
  43.9479288  41.8383811  65.6284440  46.2886835  43.2172595  62.8936136
  47.3937277  43.7386419  62.9909105  45.1845444  43.9533558  62.6821044
  45.0211134  44.8622394  63.8213146  45.6743190  44.5553712  64.6381711
  43.9853979  44.8499623  64.1607874  45.4189319  46.1985293  63.2289103
  46.4174232  46.4480298  63.5878862  44.7103782  46.9509953  63.5751009
  45.3877939  46.0815729  61.7351199  46.3785123  46.1986347  61.2959473
  44.7104479  46.8188229  61.3041158  44.8651116  44.6759428  61.4666108
  43.7788542  44.6695737  61.3765967  45.4823408  44.1083625  60.1956231
  46.6938885  44.1464605  60.0058187  44.6473091  43.5568311  59.3444208
  43.6848325  43.4178710  59.6172363  45.0549575  43.1473087  57.9908038
  46.0072384  42.6182806  58.0280826  44.0052174  42.2179205  57.3992734
  43.0583537  42.4314590  57.8952066  43.9193112  42.4502610  56.3377942
  44.3380169  40.7781496  57.5658668  44.5033393  40.5449720  58.6177212
  43.5092833  40.1797095  57.1874861  45.5668668  40.4264287  56.8016037
  45.6532093  40.7127694  55.6087068  46.5455851  39.8173186  57.4845067
  47.4001005  39.5574937  57.0129181  46.4243682  39.6207741  58.4677554
  45.1785712  44.3688730  57.0793702  45.9165780  44.3714840  56.0975962
  44.3801882  45.3855692  57.4067180  43.6913430  45.2357056  58.1299969
  44.4519112  46.7056107  56.7799817  45.4725449  46.8478181  56.4247591
  43.4880475  46.8986598  55.5964465  43.7091620  46.1627671  54.8233556
  42.4613054  46.7683369  55.9383775  43.6589971  48.3023440  55.0254200
  43.4375894  49.0388365  55.7978566  44.6854446  48.4332673  54.6828320
  42.7036050  48.4936976  53.8522897  42.9247174  47.7578042  53.0791990
  41.6768636  48.3633762  54.1942222  42.8745569  49.8973817  53.2812624
  42.6531504  50.6338749  54.0536985  43.9010029  50.0283020  52.9386728
  41.9536201  50.0818341  52.1504434  41.0024112  49.9609868  52.4677716
  42.0668410  51.0114864  51.7722535  42.1588908  49.3997540  51.4343919
  44.1144235  47.7819565  57.7730048  43.5235214  47.5374046  58.8036235
  44.5191338  48.9854066  57.4302244  45.0285461  49.1104934  56.5671185
  44.2674124  50.1715371  58.2726637  43.1950180  50.2762114  58.4373228
  44.9708202  50.0481841  59.6501322  44.5514741  50.6455734  60.4596840
  44.8520191  48.9896116  59.8812397  46.4454440  50.3211549  59.6348519
  46.9120644  51.6087626  59.6268023  46.2089366  52.4414409  59.6078789
  48.2687337  51.8524863  59.6425916  48.6253584  52.8807161  59.5820677
  49.1872284  50.7955700  59.7352492  50.2593594  50.9918487  59.7457246
  48.7233600  49.5012030  59.8133327  49.4162459  48.6620178  59.8747946
  47.3530437  49.2720561  59.8131085  46.9694434  48.2614798  59.9534156
  44.7891382  51.3637420  57.5350164  45.6993142  51.2068177  56.7354519
  44.2998659  52.5571795  57.8628207  43.4995691  52.6470974  58.4723609
  44.8322241  53.7459080  57.2584695  45.4642615  53.4736014  56.4132021
  43.7474169  54.6252209  56.7732190  42.9710790  54.3751958  57.4963278
  43.8993867  55.7045233  56.7626604  43.2300472  54.2671461  55.4697985
  43.4208298  54.9466735  54.2925693  44.1359832  55.7688438  54.3188622
  42.6465260  54.4270991  53.3104287  42.6219835  54.7194497  52.3439772
  41.8812463  53.4448096  53.8583129  40.8810084  52.6738366  53.2751579
  40.6814420  52.7998855  52.2110228  40.2066891  51.8000871  54.0808081
  39.4090290  51.1821875  53.6684510  40.5265575  51.6806422  55.4524214
  39.9755810  50.9971835  56.0984929  41.5660903  52.4403153  56.0261307
  41.7020645  52.3938869  57.1066196  42.2576318  53.3163873  55.2204277
  45.7673902  54.4957449  58.1679985  45.5955856  54.5535011  59.3852990
  46.8027617  55.0399193  57.5649453  46.9744692  54.8202648  56.5941890
  47.7282125  55.9608257  58.2467709  47.4697459  56.0523033  59.3017240
  48.7558691  55.6094820  58.1541487  47.6117947  57.3165101  57.5931719
  47.9247469  57.4798617  56.4019032  47.1049503  58.2903509  58.3447575
  46.9326360  58.1514275  59.3302053  46.7380466  59.5528185  57.7592865
  46.9190872  59.5114585  56.6852228  45.2533415  59.8931354  57.9958053
  45.2082019  60.0181275  59.0776734  45.0087413  60.8381814  57.5108736
  44.2454973  58.8207196  57.5628115  44.6066813  57.8450829  57.8880498
  42.8790744  59.0869693  58.1792729  42.5170061  60.0622990  57.8541000
  42.1790360  58.3150479  57.8596101  42.9615338  59.0744478  59.2660774
  44.1419816  58.6908444  56.0405330  45.1152651  58.4197649  55.6314673
  43.4151137  57.9182312  55.7898677  43.8217787  59.6419597  55.6151522
  47.5924093  60.6630970  58.2992188  47.6887079  60.8505132  59.5060327
  48.1889928  61.4163990  57.4081782  48.1351055  61.1977150  56.4236109
  49.0349267  62.5286586  57.8238647  49.6408228  62.3089107  58.7028983
  49.9791528  62.9986496  56.6715399  50.4484714  62.1245992  56.2200133
  49.1747158  63.7745036  55.5862521  48.7054577  64.6490075  56.0369620
  49.8495188  64.0937288  54.7920007  48.4055203  63.1243952  55.1693613
  51.1014932  63.7787245  57.1980722  51.6665531  64.0558603  56.4731561
  48.1867062  63.6849550  58.3575666  47.2626990  64.1317736  57.7378394
  48.5938836  64.1829925  59.5151478  49.2729553  63.6351812  60.0239344
  48.0179863  65.3558405  60.1707969  46.9437898  65.2121219  60.2871848
  48.6549398  65.5930220  61.6016949  48.3271356  64.7437302  62.2011506
  49.7319276  65.5324371  61.4450848  48.3133239  66.9147815  62.3457840
  48.4265242  67.7121323  61.6112649  47.2657638  66.8351077  62.6362527
  49.1710030  67.2371852  63.5929365  48.5140656  67.5129156  64.4178638
  49.7484604  66.3547011  63.8683711  50.1092171  68.3585989  63.3368608
  50.7674115  68.1888910  62.5898142  50.1660330  69.5397007  63.9900900
  51.0756645  70.4794293  63.6165936  51.7066720  70.2907980  62.8508601
  51.1160298  71.3616445  64.1066616  49.3505853  69.8037303  65.0011847
  48.6729554  69.1139090  65.2928429  49.4106261  70.6935168  65.4752878
  48.0296599  66.6367691  59.3354312  47.1460716  67.4159753  59.4550110
  48.9965225  66.8378947  58.4753701  49.7656240  66.1834248  58.4595176
  49.0521806  67.9920559  57.5851464  48.9777485  68.9119601  58.1650906
  50.4221961  68.0054987  56.7875105  50.2440026  68.5989421  55.8907545
  51.1391298  68.5205609  57.4268985  50.9551043  66.7069589  56.4107226
  51.7808234  66.8255592  55.9356208  47.8613550  68.0300368  56.5926824
  47.4764328  69.0867238  56.0787002  47.3211274  66.8550555  56.3335162
  47.7299282  66.0227254  56.7337759  46.2550606  66.7008262  55.3832238
  46.3411266  67.5242579  54.6742443  46.4500303  65.3969116  54.6367958
  46.3576178  64.5624133  55.3319018  45.6923251  65.3064045  53.8584697
  47.4406186  65.3824799  54.1822347  44.8388643  66.8400640  56.0341322
  43.8176983  66.8087867  55.3269153  44.7840212  67.0009135  57.3415314
  45.6269900  67.1924195  57.8638613  43.5087084  66.8811959  58.0856220
  42.7174853  66.5698064  57.4036383  43.6202436  65.8538549  59.2023805
  44.3835225  66.3122560  59.8311675  42.6912869  65.7652797  59.7656689
  44.0851407  64.4675841  58.7678799  45.1277280  64.5156813  58.4535566
  43.9500927  63.4896904  59.9440075  42.9076312  63.4407055  60.2586078
  44.2823052  62.4990656  59.6335269  44.5643397  63.8341438  60.7759647
  43.3746720  63.9905251  57.4849661  43.5832857  64.6871694  56.6730138
  43.7383456  62.9991210  57.2148536  42.2995064  63.9476175  57.6589688
  43.0258023  68.1877980  58.7250386  43.8247114  69.0322294  59.0862667
  41.7269890  68.2476348  58.9818840  41.1485683  67.4981142  58.6301062
  41.0825250  69.3299318  59.7290978  41.8156753  69.9179616  60.2811946
  40.3802630  70.2486889  58.7111595  41.2036344  70.5326782  58.0557902
  39.6571610  69.6570486  58.1497459  39.7049158  71.4987542  59.2453335
  39.7948313  72.2777041  58.4881986  38.2347955  71.2761051  59.5716884
  38.1440964  70.4975596  60.3291442  37.8016737  72.2022136  59.9496160
  37.7044660  70.9688904  58.6703171  40.4707188  72.0130954  60.4631462
  41.4951644  72.2495168  60.1755432  39.9850076  72.9106773  60.8459420
  40.4791319  71.2465756  61.2380499  40.0731635  68.7082419  60.7094610
  39.0538271  68.2075948  60.2946216  40.3808836  68.6903739  62.0182765
  41.7483713  68.4008338  62.4669524  42.3851247  69.2609207  62.2598392
  42.1271826  67.5312588  61.9298860  41.5874647  68.1369359  63.9621447
  42.2627020  68.8021589  64.5003195  41.8659363  67.1014412  64.1578629
  40.1908603  68.3810695  64.3294918  40.0893313  69.3943101  64.7182518
  39.8018243  67.6715754  65.0598128  39.4198471  68.2492322  63.0094116
  39.1636165  67.2112490  62.7971972  38.1465157  69.1021432  62.9954101
  38.2209127  70.3364082  62.8959312  36.9737218  68.4420655  63.0324620
  36.9242759  67.4589538  62.8063075  35.7447363  69.1734862  63.1620590
  36.0042220  70.1899709  63.4579057  34.8721019  69.2376531  61.8620910
  34.4008273  68.2659714  61.7143234  33.7471400  70.3631540  61.9676063
  34.2177028  71.3352480  62.1149271  33.1612150  70.3792328  61.0486217
  33.0925356  70.1453178  62.8114908  35.6984881  69.5461519  60.7379628
  35.1588202  69.5841258  59.9449201  34.9566110  68.7432963  64.3869264
  35.0976064  67.5899153  64.9100714  34.3619917  69.7841420  64.9668731
  34.8066141  70.6831942  64.8480654  33.1650112  69.7161993  65.7544768
  33.0232779  68.8368498  66.3827724  33.1423517  70.9884891  66.6355973
  33.9236148  70.9073444  67.3913379  33.3843498  72.2569538  65.7764557
  32.6031664  72.3390339  65.0207336  33.3642270  73.1391138  66.4163694
  34.3559636  72.1854080  65.2876337  31.8668562  71.0293989  67.4913517
  32.0122495  71.8062091  68.2420364  31.0486731  71.3131285  66.8294050
  31.5292702  69.7166781  68.1798317  32.3468452  69.4325171  68.8423448
  30.6153098  69.8355459  68.7617646  31.3832710  68.9394355  67.4297129
  31.9137526  69.6428578  64.8315913  31.4983754  70.6583658  64.2014292
  31.2805488  68.4361077  64.7800839  31.7474395  67.2193124  65.4614592
  32.2767129  67.4839952  66.3768351  32.4135511  66.6573719  64.8067705
  30.4766826  66.5020198  65.7254994  30.0070475  66.8917089  66.6286518
  30.6667168  65.4355652  65.8465893  29.6439084  66.7573974  64.5306202
  28.5825440  66.7381894  64.7780787  29.8495909  66.0173507  63.7572346
  30.0388670  68.1550108  64.0360026  30.3066108  68.2037523  62.9805236
  28.8625480  69.0794236  64.3026700  28.8492988  69.6921731  65.3418002
  27.9707735  69.2380745  63.3207530  28.0911034  68.6568891  62.5035361
  26.9247867  70.3043077  63.2838805  26.1525360  70.0034787  62.5759045
  26.2601778  70.5621650  64.6630711  26.9653203  70.9879829  65.3769004
  25.4881692  71.2966205  64.4335541  25.6242342  69.3361715  65.2577581
  26.2497212  68.2529344  65.1921130  24.5466517  69.4848069  65.8801466
  27.3179515  71.6922127  62.6673264  28.5165840  71.9961434  62.3628261
  26.2410686  72.4677124  62.4353603  25.3904279  71.9753004  62.2028947
  26.2304999  73.9457372  62.3892198  27.2370447  74.3563413  62.4690385
  25.5644962  74.4861048  61.0431478  26.2323074  75.2369822  60.6208781
  25.3146397  73.3506685  59.9822717  24.6464977  72.5996051  60.4036856
  24.8603514  73.7804263  59.0895066  26.2637851  72.8845013  59.7178636
  24.3215970  75.1578620  61.3017397  23.9481778  75.4696939  60.4741412
  25.5323915  74.5485673  63.6592058  24.8667263  75.5758596  63.5566668
  25.7885902  73.9671295  64.8515407  26.4673940  73.2197623  64.8792341
  25.0324857  74.2937365  66.1154228  24.2481984  75.0196873  65.9009744
  24.3813632  73.0214949  66.6945625  25.1352446  72.2357471  66.6459574
  24.1489926  73.2373408  67.7374021  23.1120250  72.5559294  65.9748012
  23.1824795  72.8036012  64.9156526  23.1069458  71.4725345  66.0945043
  21.8105152  73.1421272  66.5532952  21.7632557  74.3761298  66.7795165
  20.8157499  72.3753148  66.7259330  25.8384033  75.0321742  67.2632601
  25.2070671  75.5298528  68.2257016  27.1907709  74.9017944  67.2619311
  27.5552793  73.9619539  67.1992181  28.1757226  76.0470031  67.5017045
  27.6991843  76.9694305  67.1698339  28.6248523  76.2237033  69.0045832
  29.7020591  76.3155262  68.8656825  28.2419364  77.1270915  69.4793096
  28.3261959  75.0122875  69.8961168  27.1277732  74.6726615  70.0626288
  29.2788243  74.5187963  70.5637031  29.4595111  76.0259831  66.5894291
  30.5013074  76.5678693  66.9774377  29.3449758  75.4949850  65.3634358
  28.4322002  75.2322500  65.0200548  30.5211569  75.1801128  64.5330049
  31.1987367  74.5845232  65.1447711  30.0970249  74.3384628  63.2995754
  29.5857755  73.4355887  63.6335541  29.4254080  74.9248148  62.6725013
  31.3229660  73.9574474  62.5045936  31.8345249  74.8598667  62.1698585
  31.9948913  73.3706392  63.1309095  30.9057450  73.1295132  61.2912597
  30.6473962  73.7550229  60.2284357  30.8493629  71.8794529  61.4388076
  31.3010064  76.4611046  64.1107020  32.4168341  76.7459977  64.5960086
  35.5255006  77.0359520  63.2784123  35.5383253  77.0498707  62.2685899
  36.8091362  77.1793276  63.9977003  37.5112734  76.4283649  63.6355434
  37.4369186  78.5836934  63.7950116  37.6281695  78.7471248  62.7344398
  36.4743279  79.6495884  64.3077603  36.2829452  79.4870784  65.3684507
  36.9148829  80.6364024  64.1655992  35.5361578  79.5882206  63.7562420
  38.7492127  78.6700872  64.5670508  39.4375828  77.9083789  64.2009235
  39.1906714  79.6565122  64.4249959  38.5586870  78.5072050  65.6278383
  36.5884248  76.9387957  65.4984974  36.1040209  77.8389492  66.1997382
  36.8175653  75.6759909  65.9255285  36.7889166  74.9564568  65.2173271
  37.0432109  75.2667181  67.3383827  36.0699436  75.2545550  67.8289967
  37.6670347  73.8323072  67.3822970  37.0090802  73.1334245  66.8658096
  39.0290383  73.8491344  66.6965220  39.6877357  74.5474969  67.2127662
  39.4640362  72.8501555  66.7268330  38.9102272  74.1617965  65.6591091
  37.8339913  73.3948372  68.8336313  38.4922363  74.0930306  69.3506809
  36.8607239  73.3826760  69.3242454  38.4419483  71.9969164  68.8764292
  39.4155076  72.0083883  68.3863776  38.5614990  71.6837358  69.9136007
  37.7839958  71.2980338  68.3599397  37.9641934  76.2844787  68.1145337
  38.8246829  76.9219906  67.5099268  37.7181049  76.5126358  69.4153115
  36.8276068  76.2432361  69.8084225  38.7110579  77.1650300  70.3042835
  39.6602708  77.3504633  69.8015822  38.1667423  78.4946208  70.8259911
  38.0077719  79.1758258  69.9900560  37.2207700  78.3239784  71.3399148
  39.1692870  79.1081242  71.7976608  39.3284315  78.4276469  72.6341563
  40.4927108  79.3475929  71.0787512  40.3344432  80.0283902  70.2423510
  41.2096775  79.7861090  71.7728428  40.8812794  78.3996835  70.7064844
  38.6262127  80.4346816  72.3181805  37.6802416  80.2640378  72.8321054
  39.3424390  80.8736311  73.0127628  38.4672402  81.1158867  71.4822462
  38.9912607  76.1971431  71.4759824  38.0610736  75.6738269  72.0590811
  40.2568539  75.8982455  71.7811872  41.0114072  76.2909003  71.2366039
  40.6005209  74.9418667  72.8907180  40.1170584  73.9802759  72.7183627
  42.1334617  74.7186665  72.9707446  42.4892834  74.2967955  72.0307898
  42.6308929  75.6714258  73.1521608  42.7052622  73.5981481  74.2721227
  43.9997356  73.6997081  73.9841601  40.0464484  75.5037951  74.2482636
  39.9908214  76.7277369  74.4276793  39.5962699  74.6364873  75.1704531
  39.5776171  73.6480801  74.9635651  38.9589523  75.1094442  76.4467196
  38.9222268  76.1927489  76.3318225  37.5031968  74.5752120  76.5983213
  36.9287400  74.8263914  75.7066894  37.5240891  73.4926159  76.7234178
  36.8514737  75.2152059  77.8195048  37.4251517  74.9640719  78.7116517
  36.8215059  76.7298347  77.6444941  36.2475725  76.9817809  76.7527417
  36.3557604  77.1877901  78.5171101  37.8397357  77.1040599  77.5383620
  35.4266257  74.6923150  77.9678897  35.4475194  73.6097193  78.0929879
  34.9603248  75.1494628  78.8406329  34.8521684  74.9434922  77.0762576
  39.8161754  74.8184089  77.7221269  40.7051803  75.6086431  78.1169918
  39.5669722  73.8472883  78.4329448  66.3763919  49.3483061  52.3652235
  65.9776719  49.4780532  51.0111966  65.5687789  48.7187597  53.3324027
  64.7517567  48.9726672  50.6012332  64.3421635  48.2125590  52.9233591
  63.9431794  48.3429566  51.5686200  64.1123629  48.9607191  49.3418401
  62.7941412  47.9387409  50.8925749  62.8896089  48.3129203  49.5321964
  62.5922689  48.4717202  48.2625911  61.7665842  47.8281011  49.2502976
  61.7794119  48.0524678  48.3411838  62.4814056  48.8003222  46.6689076
  60.4172619  47.1956359  49.1154534  60.6549175  47.4434538  48.5754580
  61.6930027  48.5319570  46.1713588  59.9878422  46.7988173  49.8895585
  66.4875622  52.1445132  53.4736115  67.7631922  51.2823316  53.3561338
  67.6805666  49.8861667  52.7982919  69.1491322  51.8308438  53.8065221
  68.9559325  49.0246355  52.6801021  70.4244981  50.9693126  53.6883323
  70.3421367  49.5724972  53.1312025  71.8106841  51.5164327  54.1387621
  69.2138533  52.7418258  54.1722103  62.0219759  48.4859063  47.0365460
  62.2081872  47.6786978  45.9438357  63.6397057  47.9402712  46.2346159
  62.5406277  46.8218700  44.7782631  60.7046231  47.4406605  45.6886292
  66.6388636  49.9769153  50.2864662  65.8984013  48.6293737  54.3782211
  63.6819360  47.7138611  53.6478818  64.5875629  47.9961132  49.1102963
  62.3189594  48.9040884  51.1247893  62.1170689  49.4363260  48.4941350
  62.2415020  46.8634041  49.0173710  68.7733683  48.1149495  53.2705814
  69.0788838  48.9247769  51.5927083  70.7223595  48.8920239  53.9062713
  70.9225375  49.6241437  52.1978936  63.7871379  48.0002816  47.3229599
  64.2527376  47.1232976  45.8256232  63.9401682  48.8918488  45.7720706
  61.6475947  46.2556166  44.4743123  62.8764566  47.4531838  43.9427107
  63.3425615  46.1219743  45.0548606  60.1835855  47.3248957  46.6494852
  60.2846861  48.2999063  45.1449155  60.5742005  46.5275854  45.0884352
  85.4542846  46.5296881  70.2209139  85.9432430  44.8291650  74.6680442
  86.0154516  46.8811520  78.6421377  87.1683213  48.7960251  81.1845430
  88.5076319  52.9945762  84.2832617  90.2236035  56.7733714  86.2367643
  92.1009976  59.1273947  84.3738887  92.5409622  64.0502890  82.7685152
  90.2915005  67.6547111  80.7358497  93.4189445  68.5963272  83.6209606
  94.2836992  66.6053840  86.3634411  92.0309628  69.2370655  77.2276264
  93.8382978  68.1063635  79.3884818  93.2841483  70.7006651  80.0383306
  92.3169041  71.8503449  85.4795689  90.2463292  70.0904343  86.4242020
  95.4981215  75.0273262  79.9714029  93.6158304  82.4196906  68.5220380
  92.1009978  82.1211823  71.0984191  95.2315970  79.2222733  77.9157077
  94.2061456  78.5694471  74.7001149  91.3457537  80.5208037  76.7713975
  87.2599296  83.4590667  74.7905615  90.1234841  87.4215903  74.2211744
  92.7841855  81.0337171  81.5316630  92.1755347  76.2717899  82.8916245
  90.5843285  75.3594753  79.4792155  95.8355926  78.8227468  70.4460594
  93.6175711  80.3836490  66.7534360  87.8623906  84.6090886  71.3955078
  90.0410640  89.4800623  70.8376246  91.0948933  74.5609617  76.9045132
  94.8255725  70.7917007  75.2194226  95.7053152  74.8939008  74.8366565
  97.7760397  76.6163754  70.5053121  90.2915006  90.6484987  67.4603800
  89.5048985  91.5215090  64.5673644  86.4958026  95.8585686  63.0607708
  89.6075548  84.9424776  65.8753762  90.0141393  79.7229105  64.2034930
  85.5532742  97.8621851  64.9091380  88.8963569  88.8720597  63.5481456
  91.4514573  84.7963746  76.2231655  91.1465569  83.8874172  80.1900049
  87.4056770  40.0920372  73.7877529  88.1120091  44.4146823  69.2151952
  88.3234036  44.2151791  73.3575858  91.4514573  38.8087993  76.2231658
  97.6196442  29.8846598  72.9983602 100.2942585  29.1872566  73.3337820
  91.3457537  34.5332284  76.7713978  94.2061456  32.5818718  74.7001152
 102.6562817  29.1066247  71.9090149  85.6338023  37.7471986  77.0825622
  94.5961636  37.2663323  72.5525795  91.0408158  38.6512383  73.4911414
  82.9575113  39.2631294  74.7957243  84.5805405  41.7841720  72.3708742
  90.0338373  40.5635688  70.7445336 104.6747196  29.8453557  66.8761683
 107.8973762  28.6400994  66.4899402  91.8693013  45.0030453  72.5476233
  94.5896470  41.2699588  76.5345297  96.1050564  39.0650910  76.4774386
  93.4189447  45.6025395  70.3454913  85.2729031  99.7649957  67.1115755
  83.7111278 100.9469080  71.5671331  77.2726336  98.0668536  82.4906642
  77.4840280  97.8673504  86.6330549  80.8262684  98.8114053  74.3470116
  78.6655229  99.1861050  77.8428337  79.1944617  94.2157401  84.0200026
  81.8177179  97.5199282  81.6978972  82.5961726  95.4904868  78.6282378
  82.0075658  94.5919151  74.6831052  84.6294109  96.5348430  71.0649331
  87.2355279  96.7107661  66.7970459 106.2592914  26.4549802  72.3708745
  84.5845016  89.2453837  83.7100205  83.1093832  85.2606824  85.1962268
  68.1909186  55.2605954 131.9795329  67.5170884  55.5637651 132.5880287
  68.5775008  56.0635035 131.6300786  72.1565926  52.8391438 133.2535152
  72.8516831  53.4598131 133.4722467  72.4989076  51.9886789 133.5287530
  66.2480795  52.9453190 132.1610246  65.6754762  53.5643377 131.7080718
  66.8213588  53.4952551 132.6950168  69.4678055  53.2290340 133.2918828
  70.4008728  53.1635901 133.4951704  69.3801267  54.0646607 132.8333361
  72.0966071  52.5456210 130.2522776  72.0179703  52.2116074 131.1458534
  72.9175738  53.0377978 130.2514248  69.6670023  49.8624206 129.8732754
  70.3705873  50.0674208 130.4890410  68.9432672  50.4300967 130.1381838
  71.5756720  50.3006735 131.9231214  72.4102324  49.8687933 131.7408689
  71.4141063  50.1288748 132.8508109  73.0370576  56.7544282 132.4366167
  72.2007888  57.0918969 132.7575442  72.8975345  56.6193262 131.4993304
  72.9108956  56.5991509 129.6364074  72.0338422  56.4780310 129.2726320
  73.3866709  55.8077588 129.3842962  75.6564265  57.5355896 129.4381184
  74.7495720  57.2389009 129.5143897  75.9340246  57.2385715 128.5715470
  74.4263049  54.3942832 129.5793163  75.2882213  54.7197730 129.8388980
  74.6113394  53.6074328 129.0666229  75.3792493  51.6338875 132.8672872
  75.3671162  52.5780715 133.0241143  76.2715914  51.4509020 132.5732333
  68.1909187  32.2668077 118.7040636  67.5170886  32.5699774 119.3125594
  68.5775009  33.0697157 118.3546093  72.1565928  29.8453561 119.9780459
  72.8516832  30.4660253 120.1967774  72.4989078  28.9948912 120.2532837
  66.2480796  29.9515312 118.8855553  65.6754763  30.5705499 118.4326025
  66.8213590  30.5014674 119.4195475  69.4678056  30.2352462 120.0164135
  70.4008729  30.1698024 120.2197011  69.3801269  31.0708729 119.5578668
  72.0966072  29.5518333 116.9768083  72.0179704  29.2178196 117.8703840
  72.9175739  30.0440101 116.9759555  69.6670024  26.8686328 116.5978061
  70.3705874  27.0736331 117.2135716  68.9432673  27.4363090 116.8627144
  71.5756722  27.3068857 118.6476521  72.4102326  26.8750056 118.4653996
  71.4141065  27.1350871 119.5753415  80.2040997  37.8238508 128.7431698
  80.8419407  37.7045256 128.0395038  80.0861840  38.7719352 128.8019650
  72.8717519  39.6301413 124.6690113  72.3082384  39.5391350 123.9006401
  72.7569914  38.8101317 125.1492606  78.4517077  43.2972381 119.9804578
  77.8005057  43.8826461 119.5938592  79.2461440  43.8278576 120.0399616
  72.3772705  40.3861518 120.3791713  73.1503581  39.8390505 120.2404588
  72.7298103  41.2505767 120.5906174  74.7138982  36.5454184 118.0110162
  74.9664503  36.0235705 117.2493625  73.7763541  36.3820329 118.1136846
  79.7582265  35.5489962 125.8184906  80.5445354  35.1309385 125.4675323
  80.0220970  36.4536054 125.9866554  79.9292343  40.9862813 120.5173563
  79.2938176  41.0597439 121.2294467  79.5989749  41.5756411 119.8392642
  74.4335271  38.4482290 120.2134537  74.3171529  37.7727193 120.8815622
  74.5437531  37.9614664 119.3966690  76.7766812  37.9092437 123.9181227
  76.4125019  37.3823058 124.6294148  77.6333928  37.5190906 123.7447712
  76.4172299  32.9382337 118.9142575  76.5846701  33.8062573 119.2813046
  76.2269468  33.1009618 117.9903864  76.3961520  35.3939994 119.8989242
  76.2761145  35.8397045 120.7374722  75.7014108  35.7425312 119.3402780
  74.1568412  48.1643636 123.5479373  74.0792442  49.1151461 123.6267854
  73.5530056  47.8189508 124.2054300  82.0946586  35.8661467 120.7269576
  83.0064442  36.0988854 120.5517274  81.5856233  36.4498512 120.1644655
  80.7016168  40.8487286 128.1183158  80.0725031  41.0133000 127.4159225
  80.3141830  41.2628895 128.8894122  84.5805400  41.7841724 125.4727521
  83.8956438  42.1640625 124.9224555  84.6649250  42.3937050 126.2059469
  76.2544130  40.5861694 125.3833243  76.7182476  40.8649397 124.5937865
  75.9900928  39.6845138 125.2006333  75.1913016  36.7084846 122.1922808
  75.8937060  37.1605890 122.6596734  74.8593645  36.0668665 122.8202701
  76.4306781  43.5225789 122.2684913  76.2952456  44.3677325 122.6969761
  76.9716593  43.7245067 121.5050847  69.8836178  41.0401227 122.8412838
  70.3960699  41.8344477 122.9918403  70.5358891  40.3427517 122.7746440
  71.6931063  44.1566983 124.9235591  71.8697691  45.0784948 124.7356575
  72.4887897  43.8425402 125.3529971  72.8162378  45.6745157 130.9245934
  73.3669804  45.5462220 130.1522928  71.9773854  45.9740046 130.5740826
  67.8485095  39.3689881 123.6172409  68.6860317  39.7786890 123.4006116
  68.0263363  38.4289323 123.5872602  79.7449527  37.0364962 119.3056242
  79.2296151  37.8069566 119.5444629  79.4726836  36.3630098 119.9289303
  77.3296638  31.8814663 124.3641480  76.4738235  31.4921513 124.1847119
  77.7423590  31.9606623 123.5041265  84.7183801  39.7897317 121.2409415
  83.9413244  39.4508476 120.7964577  85.3975282  39.7949940 120.5664380
  79.5335830  34.9092054 121.1316023  79.2285966  35.2238203 121.9826166
  80.4866273  34.9873474 121.1743356  77.9782262  41.0682277 122.7808977
  77.4503624  40.3335037 122.4682214  77.4769765  41.8456954 122.5348945
  82.9575108  39.2631298 127.8976023  82.2998783  39.9530559 127.9856152
  83.7615507  39.6527730 128.2410009  81.7680567  37.6175670 125.9479965
  82.2812449  38.2505662 126.4501675  82.4181791  37.0176866 125.5823325
  73.0370577  33.7606405 119.1611474  72.2007889  34.0981091 119.4820748
  72.8975347  33.6255384 118.2238610  76.1234862  38.8862488 115.7843950
  75.2161924  38.6551741 115.9835099  76.6205894  38.0900107 115.9717931
  79.0302941  47.5959995 118.7040636  78.3564640  47.8991691 119.3125594
  79.4168763  48.3989075 118.3546093  79.0296446  36.4916542 123.3240986
  79.7768265  37.0037939 123.0148108  79.2988035  36.1700594 124.1845379
  77.3023096  38.9875082 120.3067940  76.3934315  38.7034115 120.4040410
  77.3318180  39.4074161 119.4471247  82.5342363  42.5981672 124.0759107
  82.0804690  41.7572582 124.1324298  81.9036330  43.2343070 124.4133888
  81.4775283  33.5273658 125.3059775  80.7398040  33.0151044 125.6370017
  81.7302056  33.0874040 124.4943052  80.9775303  44.4358169 125.0108926
  81.2698277  44.9963226 124.2921291  81.4873923  44.7286730 125.7662085
  75.8507990  36.6003703 126.4077735  75.9056600  35.6477539 126.3320212
  75.0399192  36.7563142 126.8919034  76.9999184  40.5283826 117.6456018
  76.5618614  39.8119685 117.1861656  77.7409625  40.7559941 117.0841110
  73.7900350  35.2180763 124.1668114  72.9768215  35.5174933 124.5733306
  74.2859344  34.8236452 124.8842596  75.9408928  45.2138520 126.1002379
  75.8985106  45.4399366 125.1710911  76.8571627  44.9801894 126.2488180
  85.1172298  38.8041023 123.7032337  84.9790197  38.9942619 122.7753526
  84.7608517  39.5660406 124.1600388  74.0574728  42.0901549 125.8964341
  74.8515327  41.5951869 125.6946916  73.3466421  41.5619412 125.5332047
  78.8769573  44.4719644 130.2476709  78.9306595  45.0410581 131.0154425
  78.0084354  44.6421529 129.8830746  70.3657492  36.2344630 121.9724094
  69.4355080  36.1729086 122.1894056  70.4614964  35.7120583 121.1760735
  76.6346004  42.6630571 129.5762179  76.4957090  42.2949355 130.4488117
  75.8460601  43.1778210 129.4046136  77.2294156  47.7639667 120.9187715
  77.4045912  47.2927710 121.7333338  76.5426944  48.3905433 121.1468976
  78.1851220  42.0412173 126.9651016  77.8501052  42.0012943 127.8608666
  77.6855165  41.3756889 126.4921427  81.1210411  39.3868208 117.2388076
  80.5039582  38.6615036 117.1421129  80.6526900  40.1477568 116.8955150
  71.7955242  50.9129030 127.6927575  72.0351840  51.5447554 128.3706594
  70.9524438  50.5617070 127.9792935  72.9108957  33.6053632 116.3609380
  72.0338424  33.4842433 115.9971627  73.3866710  32.8139710 116.1088269
  76.3083104  46.7208152 130.0969079  76.2353275  47.5263124 130.6088384
  75.8660497  46.9200118 129.2717101  76.0972883  45.9579922 123.6071901
  75.3140405  46.5001603 123.7010125  76.7965628  46.4753902 124.0066142
  78.7681787  46.6194986 132.2527238  79.4809759  47.2542451 132.1803139
  78.2771816  46.7158852 131.4367240  80.4899314  40.5246239 123.8244530
  79.5555593  40.6447702 123.6549234  80.6675982  39.6218706 123.5604539
  83.8771865  36.3663558 124.3594564  84.3432318  37.1991550 124.2854866
  84.3279366  35.9008540 125.0639822  81.9448096  42.7107380 121.3580716
  82.2207940  42.5963974 122.2674590  81.0752595  42.3124864 121.3192889
  78.5802160  46.9593730 125.0013529  78.7624555  46.1415386 125.4641282
  79.4035147  47.1761423 124.5638419  78.9144326  45.8861916 122.2628578
  79.4432092  45.3754370 121.6498740  79.1772546  45.5704446 123.1274111
  72.2700074  46.9377032 125.0226354  71.6010449  47.4223160 124.5390394
  72.1312944  47.1846253 125.9369732  76.4105343  48.9720776 131.6209012
  76.9623651  49.1352397 132.3858097  76.7511536  49.5625214 130.9489037
  67.6387651  35.1995487 121.8022286  67.9341092  34.2906166 121.7489340
  66.7375687  35.1783227 121.4803288  79.5473730  46.9202751 128.6072694
  79.4224869  46.1192491 128.0983640  80.2052821  47.4148945 128.1186664
  81.6108638  44.7211771 130.2352244  80.6638974  44.6017123 130.1630571
  81.9591411  43.8334269 130.3178506  78.6155071  44.5164488 126.4356597
  78.4680034  43.5881195 126.6164167  79.4408565  44.5384578 125.9513672
  72.4817316  33.1682555 122.2937089  72.8213388  33.6968476 121.5715697
  72.9289436  33.5062961 123.0695655  82.2189193  45.3393046 127.5221469
  83.1435741  45.1335908 127.3845921  82.0504497  45.0909448 128.4310811
  74.4685463  31.6657176 120.4930382  75.1893825  32.0438429 119.9894098
  73.8450767  32.3846053 120.5965360  78.6116586  32.3702325 121.4288714
  78.8280200  33.2526963 121.1277542  78.1310653  31.9788539 120.6994356
  82.0084510  45.8578714 122.8783561  82.1821387  45.2925136 122.1257413
  82.5013401  46.6579609 122.6963051  87.8623901  38.6215137 124.4973861
  88.3055047  37.8722462 124.0992984  86.9850411  38.6125273 124.1147593
  82.9959682  45.1745478 119.9780459  83.6910587  45.7952171 120.1967774
  83.3382832  44.3240829 120.2532837  84.8951105  42.6245184 121.5067790
  85.4202429  42.9632457 120.7817110  84.8073458  41.6892199 121.3230925
  76.5791766  48.6917167 125.8663043  76.1396756  48.1993546 126.5595900
  77.3299883  48.1490135 125.6255118  69.0584105  44.8828708 125.8687671
  69.8842125  44.5832480 125.4886315  68.7078157  44.1136330 126.3177460
  74.0265638  44.2355176 127.9385345  73.4045647  43.5725881 127.6387573
  74.6970505  44.2616308 127.2558993  73.5879145  42.7859099 121.4143805
  73.7367265  43.4694564 120.7610478  74.3945588  42.7664190 121.9293261
  71.3431778  38.8124277 122.4204874  71.0977820  37.9086607 122.6185084
  71.5127692  38.8141428 121.4784352  70.6127425  34.5452635 119.9191036
  69.9196670  34.6196990 119.2631072  70.3679177  33.7812978 120.4412553
  77.0874550  45.2807230 118.8855553  76.5148518  45.8997417 118.4326025
  77.6607344  45.8306592 119.4195475  80.3071810  45.5644380 120.0164135
  81.2402483  45.4989942 120.2197011  80.2195023  46.4000647 119.5578668
  82.9359827  44.8810250 116.9768083  82.8573458  44.5470114 117.8703840
  83.7569494  45.3732018 116.9759555  77.4721349  36.6168043 116.2271605
  78.4180454  36.4874251 116.2960023  77.0935594  35.8782705 116.7041033
  75.6564266  34.5418019 116.1626490  74.7495722  34.2451132 116.2389204
  75.9340247  34.2447837 115.2960777  77.2726332  29.0854909 122.3170732
  76.4627060  28.7401994 122.6925978  77.9610749  28.7762452 122.9058343
  74.4263051  31.4004954 116.3038470  75.2882215  31.7259853 116.5634287
  74.6113395  30.6136450 115.7911535  82.5795687  30.2733481 123.4473693
  81.9994356  30.9318285 123.0651745  82.3131620  29.4510825 123.0361110
  81.3620565  32.4333571 122.5030041  80.4746420  32.7183222 122.2850236
  81.7774554  32.2727334 121.6557318  69.3704816  47.0141322 127.5901486
  69.2359284  46.2541723 127.0239484  68.9536878  47.7382222 127.1230274
  80.5063779  42.1978246 116.5978061  81.2099629  42.4028248 117.2135716
  79.7826427  42.7655008 116.8627144  81.3361589  37.9488107 122.7180331
  81.2796790  38.4056658 121.8787963  81.8889931  37.1878792 122.5403174
  85.1466395  33.7377839 123.5430451  84.8903329  33.3374475 124.3738658
  84.5219263  34.4521633 123.4180590  72.5273942  47.9110639 127.8019928
  72.4106326  48.8556072 127.6998618  71.7066388  47.6084201 128.1905727
  82.4150476  42.6360775 118.6476521  83.2496080  42.2041973 118.4653996
  82.2534819  42.4642789 119.5753415  82.0696368  39.1392888 120.0132860
  82.0145172  38.9737160 119.0721304  81.4442424  39.8468921 120.1695050
  75.3792494  28.6400997 119.5918179  75.3671164  29.5842837 119.7486449
  76.2715916  28.4571143 119.2977640  73.5528456  48.5638901 131.0175857
  74.4555702  48.5962511 131.3342352  73.3265826  47.6339352 131.0322192
  75.3082058  47.3169888 127.6785935  74.3577689  47.3171749 127.5650308
  75.6114544  46.5702622 127.1621970  83.7111273  54.9593331 124.6690113
  83.1476138  54.8683268 123.9006401  83.5963668  54.1393235 125.1492606
  81.2575705  56.4544522 127.5074334  82.0496997  56.1135347 127.0920633
  81.4972355  56.5639497 128.4276487  89.2910832  58.6264298 119.9804578
  88.6398812  59.2118379 119.5938592  90.0855195  59.1570493 120.0399616
  83.2166459  55.7153435 120.3791713  83.9897335  55.1682423 120.2404588
  83.5691858  56.5797685 120.5906174  85.5532737  51.8746102 118.0110162
  85.8058258  51.3527623 117.2493625  84.6157296  51.7112247 118.1136846
  90.5976020  50.8781880 125.8184906  91.3839109  50.4601303 125.4675323
  90.8614724  51.7827972 125.9866554  90.7686097  56.3154730 120.5173563
  90.1331930  56.3889357 121.2294467  90.4383503  56.9048329 119.8392642
  85.2729026  53.7774208 120.2134537  85.1565284  53.1019111 120.8815622
  85.3831286  53.2906581 119.3966690  87.6160567  53.2384355 123.9181227
  87.2518774  52.7114976 124.6294148  88.4727682  52.8482824 123.7447712
  87.2566054  48.2674254 118.9142575  87.4240456  49.1354491 119.2813046
  87.0663223  48.4301536 117.9903864  83.4653868  53.1805030 126.6145110
  82.5404365  53.0481244 126.8222802  83.7138281  53.9599249 127.1115052
  87.2355274  50.7231912 119.8989242  87.1154900  51.1688963 120.7374722
  86.5407863  51.0717230 119.3402780  80.8262679  52.8238304 127.4488899
  80.9555060  53.0772783 128.3628311  80.1460131  53.4166012 127.1293554
  92.9340341  51.1953385 120.7269576  93.8458197  51.4280772 120.5517274
  92.4249988  51.7790429 120.1644655  87.0937885  55.9153612 125.3833243
  87.5576230  56.1941315 124.5937865  86.8294683  55.0137056 125.2006333
  86.0306771  52.0376764 122.1922808  86.7330814  52.4897808 122.6596734
  85.6987399  51.3960583 122.8202701  79.7732105  50.2960317 127.4939941
  78.9831159  50.5517845 127.0180052  80.2643352  51.1108654 127.5991982
  81.7246850  50.6604896 124.4523418  80.9278013  50.7723590 124.9706914
  81.4972442  50.9991548 123.5864309  78.0569808  50.5490807 129.9254932
  78.3077846  51.4337817 130.1912508  78.5929356  50.3695409 129.1530024
  87.2700535  58.8517707 122.2684913  87.1346210  59.6969242 122.6969761
  87.8110348  59.0536984 121.5050847  80.7229933  56.3693145 122.8412838
  81.2354453  57.1636395 122.9918403  81.3752646  55.6719435 122.7746440
  82.5324818  59.4858901 124.9235591  82.7091446  60.4076866 124.7356575
  83.3281651  59.1717320 125.3529971  78.6878850  54.6981799 123.6172409
  79.5254072  55.1078807 123.4006116  78.8657117  53.7581241 123.5872602
  90.5843282  52.3656880 119.3056242  90.0689905  53.1361484 119.5444629
  90.3120590  51.6922016 119.9289303  88.1690393  47.2106580 124.3641480
  87.3131989  46.8213431 124.1847119  88.5817345  47.2898541 123.5041265
  85.9432425  44.8291653 127.7699221  86.8085422  44.6334462 127.4105111
  86.0109934  44.6002005 128.6968578  95.5577556  55.1189234 121.2409415
  94.7806999  54.7800394 120.7964577  96.2369037  55.1241857 120.5664380
  90.3729585  50.2383972 121.1316023  90.0679720  50.5530121 121.9826166
  91.3260027  50.3165392 121.1743356  88.8176017  56.3974195 122.7808977
  88.2897378  55.6626955 122.4682214  88.3163519  57.1748871 122.5348945
  83.5494744  47.0593861 125.1415588  84.1238496  46.8369043 124.4088781
  84.1365727  47.1282556 125.8944190  83.8764331  49.0898322 119.1611474
  83.0401644  49.4273009 119.4820748  83.7369101  48.9547302 118.2238610
  85.8517412  43.9335110 123.8690658  85.1981824  43.6184127 123.2447272
  85.8097886  43.3110851 124.5950481  86.9628617  54.2154405 115.7843950
  86.0555679  53.9843659 115.9835099  87.4599649  53.4192024 115.9717931
  89.8696696  62.9251912 118.7040636  89.1958395  63.2283609 119.3125594
  90.2562518  63.7280993 118.3546093  89.0855152  50.4217044 128.1938305
  88.1677714  50.6431991 128.0359993  89.5015296  50.4963354 127.3350013
  89.8690200  51.8208459 123.3240986  90.6162019  52.3329857 123.0148108
  90.1381790  51.4992512 124.1845379  88.1416850  54.3167000 120.3067940
  87.2328070  54.0326033 120.4040410  88.1711934  54.7366079 119.4471247
  92.3169037  48.8565576 125.3059775  91.5791794  48.3442962 125.6370017
  92.5695811  48.4165957 124.4943052  78.7105021  52.0372514 124.2883142
  78.5129421  51.4441875 123.5634209  78.1551685  51.7324724 125.0059081
  86.6901744  51.9295621 126.4077735  86.7450354  50.9769457 126.3320212
  85.8792946  52.0855060 126.8919034  87.8392938  55.8575744 117.6456018
  87.4012368  55.1411603 117.1861656  88.5803379  56.0851859 117.0841110
  84.6294104  50.5472680 124.1668114  83.8161970  50.8466851 124.5733306
  85.1253098  50.1528369 124.8842596  95.9566053  54.1332941 123.7032337
  95.8183952  54.3234537 122.7753526  95.6002272  54.8952324 124.1600388
  84.1208179  48.1191036 129.7829349  84.7607558  47.9779795 129.0852312
  83.2885710  47.8325549 129.4067951  84.8968483  57.4193466 125.8964341
  85.6909081  56.9243787 125.6946916  84.1860175  56.8911330 125.5332047
  81.2051246  51.5636548 121.9724094  80.2748835  51.5021004 122.1894056
  81.3008718  51.0412501 121.1760735  81.1236795  48.0891361 124.5602336
  81.3843613  49.0036694 124.4511496  81.9453968  47.6215804 124.7098949
  82.5961721  49.5029118 131.7301160  83.2684774  49.2946480 131.0813809
  81.7691507  49.3051204 131.2906393  88.0687911  63.0931585 120.9187715
  88.2439667  62.6219628 121.7333338  87.3820699  63.7197351 121.1468976
  91.9604166  54.7160125 117.2388076  91.3433336  53.9906954 117.1421129
  91.4920654  55.4769486 116.8955150  83.7502712  48.9345550 116.3609380
  82.8732178  48.8134350 115.9971627  84.2260465  48.1431628 116.1088269
  75.2704852  53.7222709 126.4550887  75.9575892  53.4084439 125.8671903
  75.1152980  54.6264074 126.1818139  80.0739574  48.6112906 130.8835911
  79.9897763  48.0038576 130.1486321  79.2522280  49.1021924 130.8845407
  90.2463288  47.0966470 126.2506106  90.7431987  46.3436432 125.9307176
  89.4750269  47.1330786 125.6849316  91.3293069  55.8538157 123.8244530
  90.3949347  55.9739619 123.6549234  91.5069737  54.9510624 123.5604539
  86.8298257  49.2383853 125.9777791  86.4596044  48.6854893 126.6658696
  87.3257349  48.6341986 125.4252791  94.7165620  51.6955476 124.3594564
  95.1826072  52.5283468 124.2854866  95.1673120  51.2300458 125.0639822
  92.7841851  58.0399297 121.3580716  93.0601695  57.9255892 122.2674590
  91.9146350  57.6416782 121.3192889  89.7538080  61.2153833 122.2628578
  90.2825847  60.7046288 121.6498740  90.0166300  60.8996363 123.1274111
  74.8472828  51.8023303 128.7268355  74.8856927  51.2686893 129.5205473
  74.3413121  51.2758508 128.1079332  82.2263590  46.6487843 132.2230897
  82.2904917  47.5102674 131.8108295  82.1630710  46.0361845 131.4903255
  78.4781406  50.5287405 121.8022286  78.7734847  49.6198083 121.7489340
  77.5769441  50.5075144 121.4803288  82.0075653  48.6043402 127.7849835
  81.2862238  49.2179369 127.6457308  82.7968908  49.1401166 127.7066480
  80.2069247  48.2101503 121.9261611  79.8781953  47.3298882 121.7436717
  80.5608618  48.1549171 122.8138000  83.3211070  48.4974472 122.2937089
  83.6607143  49.0260394 121.5715697  83.7683191  48.8354879 123.0695655
  85.3079217  46.9949094 120.4930382  86.0287580  47.3730347 119.9894098
  84.6844522  47.7137971 120.5965360  89.4510340  47.6994243 121.4288714
  89.6673955  48.5818881 121.1277542  88.9704407  47.3080456 120.6994356
  84.1909562  50.6579956 128.0059458  84.0454142  50.9720259 128.8983740
  83.7134765  51.2764857 127.4530357  86.0505945  47.6482504 128.0540348
  86.0367513  46.7523597 127.7172646  86.7678373  47.6553168 128.6878634
  78.6655224  53.1985301 130.9447120  78.1208692  53.9745109 131.0767394
  79.5434574  53.5456105 130.7866241  85.4542840  46.5296884 123.3227918
  85.5758752  45.6013531 123.5218806  85.1644883  46.5435570 122.4106234
  88.3234031  44.2151795 126.4594638  88.3455728  44.2791128 125.5046618
  88.7402090  43.3756304 126.6535144  93.8353437  60.5037396 119.9780459
  94.5304341  61.1244089 120.1967774  94.1776587  59.6532747 120.2532837
  95.7344860  57.9537101 121.5067790  96.2596184  58.2924374 120.7817110
  95.6467212  57.0184117 121.3230925  79.8977859  60.2120626 125.8687671
  80.7235879  59.9124397 125.4886315  79.5471911  59.4428248 126.3177460
  78.0986464  58.1306952 126.8276605  77.2618373  57.7029126 126.6460606
  78.0710110  58.3239395 127.7647396  84.4272899  58.1151017 121.4143805
  84.5761020  58.7986482 120.7610478  85.2339343  58.0956107 121.9293261
  82.1825532  54.1416195 122.4204874  81.9371574  53.2378525 122.6185084
  82.3521447  54.1433345 121.4784352  81.4521180  49.8744552 119.9191036
  80.7590425  49.9488907 119.2631072  81.2072932  49.1104896 120.4412553
  87.9268305  60.6099148 118.8855553  87.3542272  61.2289335 118.4326025
  88.5001099  61.1598509 119.4195475  91.1465565  60.8936298 120.0164135
  92.0796238  60.8281859 120.2197011  91.0588778  61.7292565 119.5578668
  93.7753581  60.2102168 116.9768083  93.6967213  59.8762032 117.8703840
  94.5963248  60.7023936 116.9759555  88.3115103  51.9459960 116.2271605
  89.2574208  51.8166168 116.2960023  87.9329348  51.2074622 116.7041033
  86.4958021  49.8709937 116.1626490  85.5889476  49.5743049 116.2389204
  86.7734002  49.5739755 115.2960777  77.4135961  51.1916300 126.6125537
  77.0938745  50.3381608 126.3199911  76.8669389  51.4064878 127.3683504
  88.1120086  44.4146826 122.3170732  87.3020815  44.0693911 122.6925978
  88.8004503  44.1054370 122.9058343  90.0410635  43.4924873 123.9395028
  90.5941673  43.9120327 124.5985051  90.2780721  42.5660621 123.9817984
  85.2656805  46.7296872 116.3038470  86.1275969  47.0551770 116.5634287
  85.4507149  45.9428368 115.7911535  77.2824221  54.8119212 128.5818658
  76.5887692  54.3973164 128.0688613  78.0297212  54.8539748 127.9852077
  93.4189442  45.6025398 123.4473693  92.8388111  46.2610202 123.0651745
  93.1525374  44.7802743 123.0361110  79.1960964  54.7437465 126.4584673
  79.1731652  54.8425153 125.5066556  79.5061600  55.5902616 126.7801839
  92.2014320  47.7625489 122.5030041  91.3140175  48.0475139 122.2850236
  92.6168309  47.6019252 121.6557318  91.3457533  57.5270163 116.5978061
  92.0493383  57.7320166 117.2135716  90.6220182  58.0946925 116.8627144
  92.1755343  53.2780025 122.7180331  92.1190545  53.7348576 121.8787963
  92.7283686  52.5170709 122.5403174  95.9860149  49.0669757 123.5430451
  95.7297084  48.6666392 124.3738658  95.3613017  49.7813551 123.4180590
  93.2544231  57.9652693 118.6476521  94.0889835  57.5333891 118.4653996
  93.0928574  57.7934706 119.5753415  92.9090123  54.4684806 120.0132860
  92.8538927  54.3029077 119.0721304  92.2836178  55.1760839 120.1695050
  77.6982638  49.7052870 133.8394282  78.3441501  49.1951824 134.3281508
  77.4899789  50.4421552 134.4137708  86.2186248  43.9692915 119.5918179
  86.2064918  44.9134755 119.7486449  87.1109670  43.7863060 119.2977640
  94.7158086  64.4190240 119.1611474  93.8795398  64.7564926 119.4820748
  94.5762856  64.2839220 118.2238610  94.5896466  64.2637467 116.3609380
  93.7125932  64.1426268 115.9971627  95.0654219  63.4723546 116.1088269
  97.3351775  65.2001854 116.1626490  96.4283230  64.9034967 116.2389204
  97.6127756  64.9031672 115.2960777  96.1050560  62.0588790 116.3038470
  96.9669724  62.3843688 116.5634287  96.2900904  61.2720286 115.7911535
  97.0580003  59.2984833 119.5918179  97.0458673  60.2426673 119.7486449
  97.9503425  59.1154978 119.2977640  68.1909188   9.2730200 105.4285943
  67.5170887   9.5761896 106.0370900  68.5775010  10.0759280 105.0791400
  72.1565929   6.8515683 106.7025766  72.8516833   7.4722376 106.9213080
  72.4989079   6.0011034 106.9778144  66.2480797   6.9577435 105.6100859
  65.6754764   7.5767622 105.1571331  66.8213591   7.5076797 106.1440781
  69.4678057   7.2414585 106.7409442  70.4008730   7.1760147 106.9442317
  69.3801270   8.0770852 106.2823974  72.0966074   6.5580455 103.7013389
  72.0179705   6.2240319 104.5949147  72.9175740   7.0502223 103.7004862
  69.6670025   3.8748451 103.3223368  70.3705876   4.0798453 103.9381023
  68.9432674   4.4425213 103.5872451  71.5756723   4.3130980 105.3721828
  72.4102327   3.8812178 105.1899302  71.4141066   4.1412994 106.2998722
  80.2040998  14.8300631 115.4677004  80.8419408  14.7107378 114.7640344
  80.0861841  15.7781475 115.5264956  72.8717520  16.6363536 111.3935420
  72.3082385  16.5453472 110.6251708  72.7569915  15.8163440 111.8737912
  78.4517079  20.3034503 106.7049885  77.8005058  20.8888584 106.3183899
  79.2461441  20.8340698 106.7644922  72.3772706  17.3923640 107.1037019
  73.1503582  16.8452627 106.9649895  72.7298105  18.2567890 107.3151481
  74.7138984  13.5516307 104.7355469  74.9664504  13.0297828 103.9738932
  73.7763543  13.3882452 104.8382153  79.7582266  12.5552085 112.5430212
  80.5445356  12.1371508 112.1920629  80.0220971  13.4598177 112.7111861
  79.9292344  17.9924935 107.2418869  79.2938177  18.0659562 107.9539774
  79.5989750  18.5818534 106.5637948  74.4335272  15.4544412 106.9379844
  74.3171530  14.7789316 107.6060928  74.5437532  14.9676786 106.1211997
  76.7766813  14.9154560 110.6426533  76.4125021  14.3885181 111.3539455
  77.6333929  14.5253029 110.4693019  76.4172300   9.9444459 105.6387882
  76.5846703  10.8124696 106.0058353  76.2269469  10.1071741 104.7149171
  76.3961521  12.4002117 106.6234549  76.2761146  12.8459168 107.4620029
  75.7014110  12.7487434 106.0648087  74.1568413  25.1705759 110.2724680
  74.0792443  26.1213584 110.3513160  73.5530057  24.8251631 110.9299606
  82.0946587  12.8723590 107.4514883  83.0064443  13.1050977 107.2762580
  81.5856234  13.4560634 106.8889961  80.7016170  17.8549408 114.8428464
  80.0725032  18.0195123 114.1404532  80.3141832  18.2691018 115.6139428
  84.5805402  18.7903846 112.1972828  83.8956440  19.1702748 111.6469861
  84.6649251  19.3999173 112.9304776  76.2544132  17.5923816 112.1078549
  76.7182477  17.8711519 111.3183172  75.9900930  16.6907261 111.9251640
  75.1913018  13.7146969 108.9168114  75.8937061  14.1668013 109.3842041
  74.8593646  13.0730788 109.5448008  76.4306782  20.5287911 108.9930220
  76.2952457  21.3739447 109.4215067  76.9716595  20.7307189 108.2296153
  69.8836180  18.0463349 109.5658145  70.3960700  18.8406600 109.7163709
  70.5358892  17.3489640 109.4991746  71.6931064  21.1629106 111.6480898
  71.8697693  22.0847070 111.4601882  72.4887898  20.8487525 112.0775278
  72.8162380  22.6807280 117.6491240  73.3669805  22.5524343 116.8768234
  71.9773856  22.9802169 117.2986133  67.8485096  16.3752004 110.3417715
  68.6860318  16.7849012 110.1251423  68.0263364  15.4351446 110.3117909
  79.7449528  14.0427084 106.0301548  79.2296152  14.8131689 106.2689936
  79.4726837  13.3692221 106.6534610  77.3296640   8.8876785 111.0886787
  76.4738236   8.4983636 110.9092425  77.7423591   8.9668746 110.2286572
  84.7183803  16.7959439 107.9654722  83.9413245  16.4570599 107.5209884
  85.3975284  16.8012062 107.2909687  79.5335832  11.9154177 107.8561329
  79.2285967  12.2300326 108.7071473  80.4866274  11.9935596 107.8988662
  77.9782263  18.0744400 109.5054283  77.4503625  17.3397159 109.1927521
  77.4769766  18.8519076 109.2594252  82.9575110  16.2693420 114.6221330
  82.2998784  16.9592682 114.7101458  83.7615509  16.6589852 114.9655316
  81.7680568  14.6237793 112.6725271  82.2812450  15.2567785 113.1746981
  82.4181792  14.0238989 112.3068631  73.0370578  10.7668527 105.8856780
  72.2007890  11.1043214 106.2066055  72.8975348  10.6317507 104.9483917
  76.1234864  15.8924610 102.5089256  75.2161925  15.6613864 102.7080405
  76.6205896  15.0962229 102.6963238  79.0302943  24.6022117 105.4285943
  78.3564641  24.9053814 106.0370900  79.4168765  25.4051198 105.0791400
  79.0296447  13.4978664 110.0486292  79.7768266  14.0100061 109.7393414
  79.2988036  13.1762717 110.9090686  77.3023097  15.9937205 107.0313246
  76.3934316  15.7096238 107.1285716  77.3318181  16.4136284 106.1716553
  82.5342365  19.6043794 110.8004414  82.0804692  18.7634704 110.8569605
  81.9036331  20.2405193 111.1379194  81.4775284  10.5335781 112.0305081
  80.7398041  10.0213167 112.3615324  81.7302058  10.0936162 111.2188358
  80.9775304  21.4420291 111.7354232  81.2698278  22.0025348 111.0166598
  81.4873924  21.7348852 112.4907391  75.8507991  13.6065826 113.1323042
  75.9056601  12.6539662 113.0565518  75.0399193  13.7625265 113.6164340
  76.9999185  17.5345949 104.3701325  76.5618615  16.8181808 103.9106962
  77.7409626  17.7622063 103.8086416  73.7900351  12.2242885 110.8913421
  72.9768217  12.5237056 111.2978613  74.2859345  11.8298574 111.6087903
  75.9408929  22.2200642 112.8247685  75.8985108  22.4461489 111.8956217
  76.8571628  21.9864017 112.9733487  85.1172300  15.8103146 110.4277644
  84.9790198  16.0004742 109.4998833  84.7608519  16.5722529 110.8845695
  74.0574730  19.0963671 112.6209648  74.8515328  18.6013991 112.4192223
  73.3466422  18.5681534 112.2577354  78.8769574  21.4781767 116.9722016
  78.9306596  22.0472703 117.7399732  78.0084356  21.6483652 116.6076053
  70.3657493  13.2406753 108.6969401  69.4355081  13.1791209 108.9139363
  70.4614965  12.7182706 107.9006042  76.6346006  19.6692693 116.3007485
  76.4957091  19.3011478 117.1733423  75.8460602  20.1840333 116.1291443
  77.2294158  24.7701790 107.6433022  77.4045913  24.2989833 108.4578644
  76.5426946  25.3967556 107.8714282  78.1851221  19.0474296 113.6896323
  77.8501053  19.0075066 114.5853973  77.6855167  18.3819012 113.2166733
  81.1210413  16.3930330 103.9633383  80.5039583  15.6677158 103.8666435
  80.6526901  17.1539691 103.6200457  71.7955243  27.9191153 114.4172882
  72.0351841  28.5509677 115.0951900  70.9524439  27.5679193 114.7038241
  72.9108958  10.6115755 103.0854687  72.0338425  10.4904555 102.7216934
  73.3866712   9.8201833 102.8333576  76.3083105  23.7270275 116.8214386
  76.2353276  24.5325246 117.3333690  75.8660498  23.9262241 115.9962407
  76.0972884  22.9642045 110.3317207  75.3140406  23.5063725 110.4255432
  76.7965630  23.4816025 110.7311449  78.7681788  23.6257109 118.9772545
  79.4809761  24.2604574 118.9048446  78.2771817  23.7220975 118.1612546
  80.4899315  17.5308362 110.5489836  79.5555594  17.6509824 110.3794541
  80.6675984  16.6280828 110.2849846  83.8771867  13.3725681 111.0839870
  84.3432319  14.2053673 111.0100173  84.3279367  12.9070663 111.7885129
  81.9448098  19.7169502 108.0826022  82.2207942  19.6026097 108.9919896
  81.0752596  19.3186987 108.0438195  78.5802162  23.9655853 111.7258836
  78.7624556  23.1477509 112.1886588  79.4035148  24.1823545 111.2883726
  78.9144327  22.8924038 108.9873885  79.4432094  22.3816493 108.3744047
  79.1772547  22.5766568 109.8519418  72.2700075  23.9439155 111.7471660
  71.6010450  24.4285283 111.2635700  72.1312945  24.1908375 112.6615039
  76.4105344  25.9782898 118.3454319  76.9623652  26.1414520 119.1103404
  76.7511537  26.5687336 117.6734344  67.6387652  12.2057610 108.5267593
  67.9341093  11.2968288 108.4734646  66.7375688  12.1845349 108.2048595
  79.5473731  23.9264874 115.3318001  79.4224871  23.1254614 114.8228946
  80.2052822  24.4211067 114.8431971  81.6108639  21.7273894 116.9597551
  80.6638975  21.6079245 116.8875878  81.9591413  20.8396392 117.0423812
  78.6155073  21.5226610 113.1601903  78.4680035  20.5943318 113.3409473
  79.4408566  21.5446701 112.6758979  72.4817317  10.1744677 109.0182395
  72.8213390  10.7030599 108.2961004  72.9289437  10.5125083 109.7940962
  82.2189195  22.3455169 114.2466776  83.1435742  22.1398030 114.1091227
  82.0504498  22.0971570 115.1556118  74.4685464   8.6719299 107.2175688
  75.1893827   9.0500552 106.7139405  73.8450768   9.3908176 107.3210666
  78.6116587   9.3764448 108.1534021  78.8280201  10.2589086 107.8522849
  78.1310654   8.9850661 107.4239663  82.0084511  22.8640836 109.6028867
  82.1821388  22.2987259 108.8502720  82.5013402  23.6641731 109.4208357
  87.8623902  15.6277259 111.2219167  88.3055048  14.8784585 110.8238290
  86.9850412  15.6187396 110.8392899  82.9959683  22.1807601 106.7025766
  83.6910588  22.8014293 106.9213080  83.3382833  21.3302952 106.9778144
  84.8951106  19.6307306 108.2313097  85.4202430  19.9694579 107.5062417
  84.8073459  18.6954322 108.0476231  76.5791767  25.6979290 112.5908350
  76.1396757  25.2055668 113.2841206  77.3299884  25.1552257 112.3500425
  69.0584106  21.8890830 112.5932978  69.8842126  21.5894602 112.2131621
  68.7078158  21.1198453 113.0422766  74.0265639  21.2417299 114.6630651
  73.4045649  20.5788004 114.3632879  74.6970506  21.2678431 113.9804299
  73.5879146  19.7921222 108.1389112  73.7367267  20.4756686 107.4855785
  74.3945590  19.7726312 108.6538568  71.3431779  15.8186400 109.1450181
  71.0977821  14.9148730 109.3430391  71.5127694  15.8203550 108.2029659
  70.6127427  11.5514757 106.6436342  69.9196672  11.6259112 105.9876378
  70.3679179  10.7875101 107.1657859  77.0874552  22.2869352 105.6100859
  76.5148519  22.9059540 105.1571331  77.6607345  22.8368714 106.1440781
  80.3071812  22.5706503 106.7409442  81.2402485  22.5052064 106.9442317
  80.2195024  23.4062769 106.2823974  82.9359828  21.8872373 103.7013389
  82.8573460  21.5532237 104.5949147  83.7569495  22.3794141 103.7004862
  77.4721350  13.6230165 102.9516912  78.4180455  13.4936373 103.0205330
  77.0935595  12.8844827 103.4286340  75.6564267  11.5480142 102.8871797
  74.7495723  11.2513254 102.9634511  75.9340248  11.2509960 102.0206083
  77.2726333   6.0917031 109.0416038  76.4627061   5.7464116 109.4171284
  77.9610750   5.7824575 109.6303650  74.4263052   8.4067077 103.0283776
  75.2882216   8.7321975 103.2879594  74.6113396   7.6198573 102.5156842
  82.5795688   7.2795603 110.1718999  81.9994358   7.9380407 109.7897052
  82.3131621   6.4572948 109.7606417  81.3620567   9.4395694 109.2275348
  80.4746422   9.7245344 109.0095542  81.7774556   9.2789457 108.3802624
  69.3704817  24.0203445 114.3146792  69.2359285  23.2603846 113.7484790
  68.9536879  24.7444345 113.8475581  80.5063780  19.2040368 103.3223368
  81.2099630  19.4090371 103.9381023  79.7826429  19.7717130 103.5872451
  81.3361590  14.9550230 109.4425638  81.2796792  15.4118781 108.6033270
  81.8889933  14.1940914 109.2648480  85.1466396  10.7439962 110.2675757
  84.8903330  10.3436597 111.0983965  84.5219264  11.4583755 110.1425896
  72.5273943  24.9172762 114.5265235  72.4106327  25.8618194 114.4243925
  71.7066389  24.6146323 114.9151034  82.4150477  19.6422898 105.3721828
  83.2496081  19.2104096 105.1899302  82.2534820  19.4704911 106.2998722
  82.0696370  16.1455011 106.7378167  82.0145173  15.9799282 105.7966611
  81.4442425  16.8531044 106.8940357  75.3792495   5.6463120 106.3163485
  75.3671165   6.5904960 106.4731756  76.2715917   5.4633265 106.0222946
  73.5528457  25.5701024 117.7421163  74.4555704  25.6024634 118.0587658
  73.3265827  24.6401475 117.7567499  75.3082059  24.3232010 114.4031242
  74.3577690  24.3233872 114.2895614  75.6114545  23.5764745 113.8867277
  91.0434752  30.1592549 115.4677004  91.6813162  30.0399296 114.7640344
  90.9255595  31.1073393 115.5264956  87.8524459  30.1119977 115.4038529
  87.5142970  29.9961041 114.5159064  88.7214227  29.7111142 115.3839535
  83.7111274  31.9655453 111.3935420  83.1476140  31.8745390 110.6251708
  83.5963669  31.1455358 111.8737912  81.2575706  33.4606645 114.2319640
  82.0496998  33.1197469 113.8165940  81.4972357  33.5701620 115.1521794
  89.2910833  35.6326421 106.7049885  88.6398813  36.2180501 106.3183899
  90.0855196  36.1632616 106.7644922  83.2166460  32.7215558 107.1037019
  83.9897336  32.1744545 106.9649895  83.5691859  33.5859807 107.3151481
  85.0551503  34.0491940 120.3103919  84.7641369  34.9537571 120.1950585
  85.6908487  34.0908468 121.0247988  85.9807710  31.4268789 116.9005278
  86.5771282  31.2024811 116.1862241  86.0382681  30.6853534 117.5030726
  85.5532738  28.8808224 104.7355469  85.8058259  28.3589745 103.9738932
  84.6157297  28.7174370 104.8382153  90.5976021  27.8844003 112.5430212
  91.3839110  27.4663426 112.1920629  90.8614725  28.7890095 112.7111861
  90.7686098  33.3216853 107.2418869  90.1331931  33.3951479 107.9539774
  90.4383505  33.9110452 106.5637948  85.2729027  30.7836330 106.9379844
  85.1565285  30.1081234 107.6060928  85.3831287  30.2968704 106.1211997
  87.6160568  30.2446477 110.6426533  87.2518775  29.7177098 111.3539455
  88.4727684  29.8544946 110.4693019  87.2566055  25.2736377 105.6387882
  87.4240457  26.1416613 106.0058353  87.0663224  25.4363659 104.7149171
  90.0141388  33.7353356 117.3053712  89.7142111  34.6378395 117.1969519
  89.6692447  33.4685539 118.1574865  83.4653869  30.1867153 113.3390417
  82.5404366  30.0543367 113.5468108  83.7138283  30.9661372 113.8360359
  87.2355276  27.7294034 106.6234549  87.1154901  28.1751085 107.4620029
  86.5407864  28.0779352 106.0648087  80.8262680  29.8300426 114.1734206
  80.9555062  30.0834905 115.0873617  80.1460132  30.4228134 113.8538861
  84.9962168  40.4997676 110.2724680  84.9186197  41.4505501 110.3513160
  84.3923811  40.1543549 110.9299606  92.9340342  28.2015508 107.4514883
  93.8458198  28.4342894 107.2762580  92.4249989  28.7852552 106.8889961
  91.5409924  33.1841326 114.8428464  90.9118787  33.3487040 114.1404532
  91.1535586  33.5982936 115.6139428  95.4199156  34.1195764 112.1972828
  94.7350194  34.4994665 111.6469861  95.5043005  34.7291091 112.9304776
  87.0937886  32.9215734 112.1078549  87.5576232  33.2003437 111.3183172
  86.8294684  32.0199179 111.9251640  83.9861967  32.4687216 115.0458313
  84.5563324  32.8974484 114.4075797  84.5770079  32.1869800 115.7442498
  86.0306772  29.0438887 108.9168114  86.7330815  29.4959930 109.3842041
  85.6987401  28.4022705 109.5448008  79.7732106  27.3022439 114.2185248
  78.9831160  27.5579968 113.7425359  80.2643353  28.1170777 114.3237289
  81.7246851  27.6667018 111.1768725  80.9278015  27.7785713 111.6952220
  81.4972444  28.0053671 110.3109615  87.5552519  34.1911722 119.1251239
  87.6196952  34.6532129 119.9609411  86.8463443  33.5609087 119.2533549
  78.0569809  27.5552930 116.6500239  78.3077847  28.4399940 116.9157815
  78.5929357  27.3757531 115.8775331  87.2700537  35.8579829 108.9930220
  87.1346211  36.7031365 109.4215067  87.8110349  36.0599107 108.2296153
  80.7229934  33.3755267 109.5658145  81.2354455  34.1698517 109.7163709
  81.3752647  32.6781558 109.4991746  82.5324819  36.4921023 111.6480898
  82.7091447  37.4138988 111.4601882  83.3281652  36.1779443 112.0775278
  81.8177175  28.5385655 121.5243061  81.7030690  27.6370913 121.8250160
  80.9621693  28.7849352 121.1727878  83.6556134  38.0099197 117.6491240
  84.2063559  37.8816261 116.8768234  82.8167610  38.3094086 117.2986133
  87.4523305  34.2750325 121.9935471  87.9851642  33.5138613 121.7634779
  86.9237386  33.9823977 122.7359626  78.6878851  31.7043921 110.3417715
  79.5254073  32.1140930 110.1251423  78.8657119  30.7643364 110.3117909
  90.5843283  29.3719002 106.0301548  90.0689906  30.1423607 106.2689936
  90.3120591  28.6984138 106.6534610  88.1690394  24.2168703 111.0886787
  87.3131990  23.8275553 110.9092425  88.5817346  24.2960664 110.2286572
  85.9432427  21.8353776 114.4944528  86.8085423  21.6396585 114.1350418
  86.0109935  21.6064128 115.4213885  95.5577557  32.1251357 107.9654722
  94.7807000  31.7862516 107.5209884  96.2369038  32.1303980 107.2909687
  90.3729586  27.2446094 107.8561329  90.0679722  27.5592243 108.7071473
  91.3260028  27.3227514 107.8988662  88.8176018  33.4036318 109.5054283
  88.2897380  32.6689077 109.1927521  88.3163521  34.1810994 109.2594252
  93.7968864  31.5985338 114.6221330  93.1392538  32.2884599 114.7101458
  94.6009263  31.9881770 114.9655316  83.5494746  24.0655984 111.8660895
  84.1238497  23.8431165 111.1334088  84.1365728  24.1344678 112.6189496
  92.6074323  29.9529711 112.6725271  93.1206205  30.5859703 113.1746981
  93.2575547  29.3530906 112.3068631  83.8764333  26.0960445 105.8856780
  83.0401645  26.4335131 106.2066055  83.7369102  25.9609425 104.9483917
  85.8517413  20.9397233 110.5935964  85.1981826  20.6246250 109.9692579
  85.8097887  20.3172973 111.3195787  86.9628618  31.2216528 102.5089256
  86.0555680  30.9905781 102.7080405  87.4599650  30.4254147 102.6963238
  89.8696697  39.9314035 105.4285943  89.1958396  40.2345732 106.0370900
  90.2562519  40.7343115 105.0791400  89.0855154  27.4279166 114.9183612
  88.1677715  27.6494113 114.7605300  89.5015297  27.5025477 114.0595319
  89.8690201  28.8270582 110.0486292  90.6162020  29.3391979 109.7393414
  90.1381791  28.5054635 110.9090686  88.1416852  31.3229123 107.0313246
  87.2328071  31.0388155 107.1285716  88.1711935  31.7428201 106.1716553
  93.3736119  34.9335712 110.8004414  92.9198446  34.0926622 110.8569605
  92.7430086  35.5697111 111.1379194  92.3169039  25.8627698 112.0305081
  91.5791795  25.3505084 112.3615324  92.5695812  25.4228080 111.2188358
  91.8169058  36.7712209 111.7354232  92.1092033  37.3317266 111.0166598
  92.3267679  37.0640770 112.4907391  78.7105022  29.0434637 111.0128449
  78.5129422  28.4503998 110.2879515  78.1551686  28.7386847 111.7304387
  86.6901746  28.9357743 113.1323042  86.7450355  27.9831580 113.0565518
  85.8792948  29.0917182 113.6164340  87.8392939  32.8637866 104.3701325
  87.4012369  32.1473725 103.9106962  88.5803380  33.0913981 103.8086416
  84.6294106  27.5534803 110.8913421  83.8161971  27.8528974 111.2978613
  85.1253100  27.1590492 111.6087903  86.7802683  37.5492560 112.8247685
  86.7378862  37.7753406 111.8956217  87.6965382  37.3155935 112.9733487
  95.9566054  31.1395063 110.4277644  95.8183953  31.3296659 109.4998833
  95.6002273  31.9014446 110.8845695  84.1208180  25.1253159 116.5074656
  84.7607560  24.9841918 115.8097619  83.2885711  24.8387672 116.1313258
  84.8968484  34.4255589 112.6209648  85.6909083  33.9305909 112.4192223
  84.1860177  33.8973452 112.2577354  89.7163329  36.8073684 116.9722016
  89.7700351  37.3764621 117.7399732  88.8478110  36.9775570 116.6076053
  81.2051248  28.5698671 108.6969401  80.2748836  28.5083126 108.9139363
  81.3008720  28.0474623 107.9006042  81.1236797  25.0953484 111.2847642
  81.3843614  26.0098817 111.1756803  81.9453969  24.6277926 111.4344255
  82.5961722  26.5091241 118.4546467  83.2684775  26.3008603 117.8059116
  81.7691509  26.3113327 118.0151699  88.6751428  30.9733947 118.5308948
  89.6043488  31.1245106 118.3577915  88.2542458  31.0617967 117.6757594
  87.4739760  34.9984611 116.3007485  87.3350846  34.6303395 117.1733423
  86.6854356  35.5132250 116.1291443  88.0687912  40.0993707 107.6433022
  88.2439668  39.6281751 108.4578644  87.3820700  40.7259474 107.8714282
  89.0244975  34.3766214 113.6896323  88.6894808  34.3366984 114.5853973
  88.5248921  33.7110930 113.2166733  82.9989219  29.7833844 119.2148904
  82.8609017  29.0514083 119.8160443  83.9094143  29.6942744 118.9333092
  91.9604167  31.7222248 103.9633383  91.3433338  30.9969076 103.8666435
  91.4920655  32.4831608 103.6200457  85.6271520  29.4953803 118.7032584
  86.3371139  28.8546995 118.6619202  85.5840828  29.7466698 119.6258765
  82.6348997  43.2483070 114.4172882  82.8745596  43.8801594 115.0951900
  81.7918194  42.8971110 114.7038241  83.7502713  25.9407672 103.0854687
  82.8732179  25.8196473 102.7216934  84.2260466  25.1493751 102.8333576
  75.2704853  30.7284832 113.1796194  75.9575893  30.4146562 112.5917209
  75.1152982  31.6326197 112.9063445  80.0739575  25.6175029 117.6081218
  79.9897764  25.0100698 116.8731628  79.2522282  26.1084047 117.6090714
  87.1476859  39.0562193 116.8214386  87.0747031  39.8617164 117.3333690
  86.7054252  39.2554158 115.9962407  86.9366639  38.2933963 110.3317207
  86.1534161  38.8355643 110.4255432  87.6359384  38.8107942 110.7311449
  90.2463289  24.1028592 112.9751413  90.7431989  23.3498554 112.6552483
  89.4750271  24.1392909 112.4094622  89.6075543  38.9549027 118.9772545
  90.3203515  39.5896491 118.9048446  89.1165572  39.0512893 118.1612546
  91.3293070  32.8600279 110.5489836  90.3949349  32.9801742 110.3794541
  91.5069738  31.9572746 110.2849846  86.8298258  26.2445975 112.7023097
  86.4596045  25.6917015 113.3904003  87.3257350  25.6404109 112.1498097
  94.7165621  28.7017599 111.0839870  95.1826073  29.5345590 111.0100173
  95.1673122  28.2362580 111.7885129  84.6587456  36.7043470 119.7978115
  85.3596916  37.3379953 119.9507510  84.1882571  37.0458202 119.0373755
  92.7841852  35.0461420 108.0826022  93.0601696  34.9318014 108.9919896
  91.9146351  34.6478905 108.0438195  89.4195916  39.2947771 111.7258836
  89.6018311  38.4769427 112.1886588  90.2428902  39.5115463 111.2883726
  89.7538082  38.2215956 108.9873885  90.2825848  37.7108410 108.3744047
  90.0166301  37.9058486 109.8519418  80.2555174  36.2379825 116.7309218
  80.8408611  35.4923513 116.8637122  80.0580013  36.5483782 117.6145882
  83.1093830  39.2731073 111.7471660  82.4404205  39.7577200 111.2635700
  82.9706699  39.5200293 112.6615039  74.8472829  28.8085425 115.4513661
  74.8856929  28.2749016 116.2450779  74.3413122  28.2820631 114.8324638
  87.2499098  41.3074816 118.3454319  87.8017406  41.4706438 119.1103404
  87.5905292  41.8979254 117.6734344  82.2263591  23.6549966 118.9476203
  82.2904918  24.5164797 118.5353601  82.1630712  23.0423968 118.2148562
  78.4781407  27.5349528 108.5267593  78.7734848  26.6260206 108.4734646
  77.5769443  27.5137267 108.2048595  90.3867486  39.2556792 115.3318001
  90.2618625  38.4546531 114.8228946  91.0446577  39.7502985 114.8431971
  82.0075654  25.6105524 114.5095141  81.2862240  26.2241492 114.3702614
  82.7968910  26.1463289 114.4311787  92.4502394  37.0565812 116.9597551
  91.5032729  36.9371163 116.8875878  92.7985167  36.1688310 117.0423812
  80.2069248  25.2163625 108.6506918  79.8781955  24.3361004 108.4682024
  80.5608619  25.1611294 109.5383307  89.4548827  36.8518528 113.1601903
  89.3073790  35.9235235 113.3409473  90.2802321  36.8738619 112.6758979
  83.3211072  25.5036595 109.0182395  83.6607144  26.0322516 108.2961004
  83.7683192  25.8417001 109.7940962  93.0582949  37.6747087 114.2466776
  93.9829497  37.4689948 114.1091227  92.8898252  37.4263488 115.1556118
  85.3079219  24.0011217 107.2175688  86.0287581  24.3792469 106.7139405
  84.6844523  24.7200093 107.3210666  89.4510342  24.7056366 108.1534021
  89.6673956  25.5881003 107.8522849  88.9704409  24.3142579 107.4239663
  84.1909563  27.6642079 114.7304765  84.0454144  27.9782382 115.6229047
  83.7134767  28.2826979 114.1775664  86.0505946  24.6544627 114.7785655
  86.0367515  23.7585720 114.4417953  86.7678374  24.6615291 115.4123941
  92.8478265  38.1932754 109.6028867  93.0215143  37.6279177 108.8502720
  93.3407157  38.9933649 109.4208357  78.6655225  30.2047423 117.6692426
  78.1208693  30.9807231 117.8012701  79.5434575  30.5518228 117.5111548
  85.4542842  23.5359007 110.0473225  85.5758753  22.6075653 110.2464112
  85.1644884  23.5497693 109.1351540  88.3234032  21.2213917 113.1839945
  88.3455729  21.2853251 112.2291924  88.7402091  20.3818426 113.3780451
  98.7017656  30.9569177 111.2219167  99.1448802  30.2076502 110.8238290
  97.8244167  30.9479313 110.8392899  93.8353438  37.5099518 106.7025766
  94.5304342  38.1306211 106.9213080  94.1776588  36.6594870 106.9778144
  79.4521247  29.3317319 120.5622583  78.7102983  29.4799955 121.1487214
  79.1313991  29.5925585 119.6989333  95.7344861  34.9599224 108.2313097
  96.2596185  35.2986497 107.5062417  95.6467213  34.0246239 108.0476231
  87.3964910  38.8733298 120.3602973  87.7052036  38.6282444 121.2325673
  88.1940392  39.0779936 119.8721843  87.4185522  41.0271207 112.5908350
  86.9790512  40.5347586 113.2841206  88.1693639  40.4844175 112.3500425
  79.8977861  37.2182748 112.5932978  80.7235881  36.9186520 112.2131621
  79.5471913  36.4490371 113.0422766  84.8659394  36.5709216 114.6630651
  84.2439403  35.9079921 114.3632879  85.5364261  36.5970348 113.9804299
  78.0986466  35.1369075 113.5521911  77.2618374  34.7091249 113.3705913
  78.0710111  35.3301518 114.4892703  84.4272901  35.1213140 108.1389112
  84.5761021  35.8048604 107.4855785  85.2339344  35.1018230 108.6538568
  82.1825534  31.1478317 109.1450181  81.9371576  30.2440647 109.3430391
  82.3521448  31.1495468 108.2029659  81.4521181  26.8806675 106.6436342
  80.7590426  26.9551030 105.9876378  81.2072933  26.1167019 107.1657859
  87.9268306  37.6161270 105.6100859  87.3542273  38.2351457 105.1571331
  88.5001100  38.1660632 106.1440781  91.1465566  37.8998420 106.7409442
  92.0796239  37.8343982 106.9442317  91.0588779  38.7354687 106.2823974
  93.7753583  37.2164291 103.7013389  93.6967214  36.8824154 104.5949147
  94.5963249  37.7086059 103.7004862  88.3115105  28.9522083 102.9516912
  89.2574209  28.8228291 103.0205330  87.9329350  28.2136745 103.4286340
  86.4958022  26.8772059 102.8871797  85.5889477  26.5805172 102.9634511
  86.7734003  26.5801877 102.0206083  77.4135962  28.1978423 113.3370843
  77.0938747  27.3443731 113.0445217  76.8669390  28.4127001 114.0928811
  81.1915870  30.9140864 117.0540350  81.4101880  31.8457972 117.0728384
  81.6041644  30.5548838 117.8395154  88.1120088  21.4208949 109.0416038
  87.3020816  21.0756034 109.4171284  88.8004505  21.1116493 109.6303650
  90.0410636  20.4986996 110.6640335  90.5941674  20.9182449 111.3230358
  90.2780722  19.5722744 110.7063291  85.2656807  23.7358995 103.0283776
  86.1275970  24.0613893 103.2879594  85.4507151  22.9490490 102.5156842
  77.2824222  31.8181334 115.3063965  76.5887694  31.4035287 114.7933919
  78.0297213  31.8601871 114.7097384  93.4189443  22.6087521 110.1718999
  92.8388112  23.2672325 109.7897052  93.1525376  21.7864866 109.7606417
  79.1960965  31.7499588 113.1829980  79.1731653  31.8487275 112.2311863
  79.5061601  32.5964739 113.5047146  81.8548343  33.8075743 117.2976594
  82.8091596  33.7759685 117.2306526  81.6560866  33.3466367 118.1126820
  82.4447725  32.3776859 119.8647392  83.2640614  32.8720938 119.8882229
  82.7184532  31.4608827 119.8364960  92.2014321  24.7687611 109.2275348
  91.3140176  25.0537262 109.0095542  92.6168310  24.6081375 108.3802624
  80.2098571  39.3495363 114.3146792  80.0753039  38.5895763 113.7484790
  79.7930634  40.0736262 113.8475581  91.3457534  34.5332286 103.3223368
  92.0493385  34.7382289 103.9381023  90.6220183  35.1009048 103.5872451
  92.1755345  30.2842147 109.4425638  92.1190546  30.7410699 108.6033270
  92.7283687  29.5232832 109.2648480  95.9860151  26.0731879 110.2675757
  95.7297085  25.6728515 111.0983965  95.3613019  26.7875673 110.1425896
  83.3667697  40.2464680 114.5265235  83.2500081  41.1910112 114.4243925
  82.5460144  39.9438241 114.9151034  93.2544232  34.9714815 105.3721828
  94.0889836  34.5396014 105.1899302  93.0928575  34.7996829 106.2998722
  92.9090124  31.4746929 106.7378167  92.8538928  31.3091200 105.7966611
  92.2836179  32.1822961 106.8940357  77.6982639  26.7114993 120.5639589
  78.3441503  26.2013947 121.0526814  77.4899790  27.4483675 121.1383014
  86.2186250  20.9755038 106.3163485  86.2064919  21.9196877 106.4731756
  87.1109671  20.7925183 106.0222946  84.3922211  40.8992941 117.7421163
  85.2949458  40.9316552 118.0587658  84.1659582  39.9693392 117.7567499
  86.1475813  39.6523928 114.4031242  85.1971444  39.6525790 114.2895614
  86.4508300  38.9056663 113.8867277 101.8828507  45.4884466 115.4677004
 102.5206917  45.3691214 114.7640344 101.7649350  46.4365310 115.5264956
  98.6918213  45.4411894 115.4038529  98.3536725  45.3252959 114.5159064
  99.5607981  45.0403060 115.3839535  94.5505029  47.2947371 111.3935420
  93.9869894  47.2037308 110.6251708  94.4357424  46.4747275 111.8737912
  92.0969461  48.7898562 114.2319640  92.8890753  48.4489387 113.8165940
  92.3366111  48.8993538 115.1521794 100.1304588  50.9618339 106.7049885
  99.4792567  51.5472419 106.3183899 100.9248950  51.4924533 106.7644922
  94.0560215  48.0507476 107.1037019  94.8291091  47.5036463 106.9649895
  94.4085614  48.9151725 107.3151481  95.8945257  49.3783858 120.3103919
  95.6035123  50.2829489 120.1950585  96.5302242  49.4200386 121.0247988
  96.8201464  46.7560707 116.9005278  97.4165036  46.5316729 116.1862241
  96.8776436  46.0145452 117.5030726  96.3926493  44.2100142 104.7355469
  96.6452013  43.6881663 103.9738932  95.4551052  44.0466287 104.8382153
 101.4369775  43.2135920 112.5430212 102.2232865  42.7955343 112.1920629
 101.7008480  44.1182012 112.7111861 101.6079853  48.6508771 107.2418869
 100.9725686  48.7243397 107.9539774 101.2777259  49.2402369 106.5637948
  96.1122781  46.1128248 106.9379844  95.9959039  45.4373151 107.6060928
  96.2225041  45.6260622 106.1211997  98.4554322  45.5738395 110.6426533
  98.0912530  45.0469016 111.3539455  99.3121438  45.1836864 110.4693019
  98.0959809  40.6028295 105.6387882  98.2634212  41.4708531 106.0058353
  97.9056978  40.7655576 104.7149171 100.8535142  49.0645274 117.3053712
 100.5535866  49.9670312 117.1969519 100.5086202  48.7977457 118.1574865
  94.3047624  45.5159070 113.3390417  93.3798120  45.3835284 113.5468108
  94.5532037  46.2953290 113.8360359  98.0749030  43.0585952 106.6234549
  97.9548655  43.5043003 107.4620029  97.3801619  43.4071270 106.0648087
  91.6656435  45.1592344 114.1734206  91.7948816  45.4126823 115.0873617
  90.9853886  45.7520052 113.8538861  95.8355922  55.8289594 110.2724680
  95.7579952  56.7797419 110.3513160  95.2317566  55.4835466 110.9299606
 103.7734096  43.5307425 107.4514883 104.6851952  43.7634812 107.2762580
 103.2643743  44.1144469 106.8889961 102.3803679  48.5133244 114.8428464
 101.7512541  48.6778958 114.1404532 101.9929341  48.9274853 115.6139428
 106.2592911  49.4487682 112.1972828 105.5743949  49.8286583 111.6469861
 106.3436760  50.0583008 112.9304776  97.9331640  48.2507652 112.1078549
  98.3969986  48.5295355 111.3183172  97.6688439  47.3491096 111.9251640
  94.8255722  47.7979133 115.0458313  95.3957079  48.2266402 114.4075797
  95.4163833  47.5161718 115.7442498  96.8700527  44.3730804 108.9168114
  97.5724570  44.8251848 109.3842041  96.5381155  43.7314623 109.5448008
  90.6125861  42.6314357 114.2185248  89.8224914  42.8871885 113.7425359
  91.1037108  43.4462695 114.3237289  92.5640606  42.9958936 111.1768725
  91.7671769  43.1077630 111.6952220  92.3366198  43.3345588 110.3109615
  98.3946274  49.5203639 119.1251239  98.4590706  49.9824047 119.9609411
  97.6857197  48.8901004 119.2533549  88.8963563  42.8844847 116.6500239
  89.1471602  43.7691857 116.9157815  89.4323112  42.7049449 115.8775331
  98.1094291  51.1871747 108.9930220  97.9739966  52.0323283 109.4215067
  98.6504104  51.3891024 108.2296153  91.5623689  48.7047185 109.5658145
  92.0748209  49.4990435 109.7163709  92.2146401  48.0073475 109.4991746
  93.3718573  51.8212941 111.6480898  93.5485202  52.7430906 111.4601882
  94.1675407  51.5071360 112.0775278  92.6570930  43.8677573 121.5243061
  92.5424445  42.9662830 121.8250160  91.8015448  44.1141270 121.1727878
  94.4949889  53.3391115 117.6491240  95.0457314  53.2108178 116.8768234
  93.6561365  53.6386004 117.2986133  98.2917060  49.6042243 121.9935471
  98.8245397  48.8430531 121.7634779  97.7631141  49.3115895 122.7359626
  89.5272605  47.0335839 110.3417715  90.3647827  47.4432848 110.1251423
  89.7050873  46.0935281 110.3117909 101.4237037  44.7010920 106.0301548
 100.9083661  45.4715524 106.2689936 101.1514346  44.0276056 106.6534610
  99.0084148  39.5460621 111.0886787  98.1525745  39.1567471 110.9092425
  99.4211100  39.6252581 110.2286572  96.7826181  37.1645694 114.4944528
  97.6479178  36.9688502 114.1350418  96.8503690  36.9356045 115.4213885
 106.3971312  47.4543274 107.9654722 105.6200754  47.1154434 107.5209884
 107.0762793  47.4595898 107.2909687 101.2123341  42.5738012 107.8561329
 100.9073476  42.8884161 108.7071473 102.1653783  42.6519432 107.8988662
  99.6569772  48.7328235 109.5054283  99.1291134  47.9980995 109.1927521
  99.1557275  49.5102912 109.2594252 104.6362618  46.9277256 114.6221330
 103.9786293  47.6176517 114.7101458 105.4403018  47.3173688 114.9655316
  94.3888500  39.3947902 111.8660895  94.9632252  39.1723083 111.1334088
  94.9759483  39.4636596 112.6189496 103.4468077  45.2821628 112.6725271
 103.9599959  45.9151620 113.1746981 104.0969301  44.6822824 112.3068631
  94.7158087  41.4252363 105.8856780  93.8795399  41.7627049 106.2066055
  94.5762857  41.2901342 104.9483917  96.6911168  36.2689150 110.5935964
  96.0375580  35.9538168 109.9692579  96.6491642  35.6464891 111.3195787
  97.8022373  46.5508445 102.5089256  96.8949434  46.3197699 102.7080405
  98.2993405  45.7546065 102.6963238 100.7090452  55.2605953 105.4285943
 100.0352150  55.5637649 106.0370900 101.0956274  56.0635033 105.0791400
  99.9248908  42.7571084 114.9183612  99.0071470  42.9786031 114.7605300
 100.3409052  42.8317394 114.0595319 100.7083956  44.1562500 110.0486292
 101.4555775  44.6683897 109.7393414 100.9775545  43.8346552 110.9090686
  98.9810606  46.6521040 107.0313246  98.0721825  46.3680073 107.1285716
  99.0105690  47.0720119 106.1716553 104.2129874  50.2627630 110.8004414
 103.7592201  49.4218540 110.8569605 103.5823840  50.8989028 111.1379194
 103.1562793  41.1919616 112.0305081 102.4185550  40.6797002 112.3615324
 103.4089567  40.7519997 111.2188358 102.6562813  52.1004127 111.7354232
 102.9485787  52.6609184 111.0166598 103.1661433  52.3932688 112.4907391
  89.5498776  44.3726554 111.0128449  89.3523176  43.7795915 110.2879515
  88.9945440  44.0678765 111.7304387  97.5295500  44.2649661 113.1323042
  97.5844110  43.3123497 113.0565518  96.7186702  44.4209100 113.6164340
  98.6786694  48.1929784 104.3701325  98.2406124  47.4765643 103.9106962
  99.4197135  48.4205899 103.8086416  95.4687860  42.8826721 110.8913421
  94.6555726  43.1820891 111.2978613  95.9646854  42.4882409 111.6087903
  97.6196438  52.8784478 112.8247685  97.5772617  53.1045324 111.8956217
  98.5359137  52.6447852 112.9733487 106.7959809  46.4686981 110.4277644
 106.6577707  46.6588577 109.4998833 106.4396027  47.2306364 110.8845695
  94.9601935  40.4545076 116.5074656  95.6001314  40.3133835 115.8097619
  94.1279465  40.1679590 116.1313258  95.7362239  49.7547507 112.6209648
  96.5302837  49.2597827 112.4192223  95.0253931  49.2265370 112.2577354
 100.5557083  52.1365602 116.9722016 100.6094105  52.7056538 117.7399732
  99.6871865  52.3067487 116.6076053  92.0445002  43.8990588 108.6969401
  91.1142590  43.8375044 108.9139363  92.1402474  43.3766541 107.9006042
  91.9630551  40.4245401 111.2847642  92.2237369  41.3390734 111.1756803
  92.7847724  39.9569844 111.4344255  93.4355477  41.8383158 118.4546467
  94.1078530  41.6300521 117.8059116  92.6085263  41.6405244 118.0151699
  99.5145183  46.3025864 118.5308948 100.4437243  46.4537024 118.3577915
  99.0936213  46.3909885 117.6757594  98.3133515  50.3276529 116.3007485
  98.1744600  49.9595313 117.1733423  97.5248111  50.8424168 116.1291443
  98.9081667  55.4285625 107.6433022  99.0833422  54.9573668 108.4578644
  98.2214455  56.0551391 107.8714282  99.8638730  49.7058131 113.6896323
  99.5288562  49.6658901 114.5853973  99.3642676  49.0402847 113.2166733
  93.8382974  45.1125761 119.2148904  93.7002772  44.3806000 119.8160443
  94.7487897  45.0234661 118.9333092 102.7997922  47.0514166 103.9633383
 102.1827092  46.3260994 103.8666435 102.3314410  47.8123526 103.6200457
  96.4665274  44.8245721 118.7032584  97.1764893  44.1838913 118.6619202
  96.4234583  45.0758616 119.6258765  93.4742752  58.5774988 114.4172882
  93.7139350  59.2093512 115.0951900  92.6311948  58.2263028 114.7038241
  94.5896467  41.2699590 103.0854687  93.7125934  41.1488391 102.7216934
  95.0654220  40.4785668 102.8333576  86.1098608  46.0576750 113.1796194
  86.7969647  45.7438480 112.5917209  85.9546736  46.9618114 112.9063445
  90.9133330  40.9466946 117.6081218  90.8291518  40.3392616 116.8731628
  90.0916036  41.4375965 117.6090714  97.9870614  54.3854110 116.8214386
  97.9140785  55.1909082 117.3333690  97.5448007  54.5846076 115.9962407
  97.7760393  53.6225880 110.3317207  96.9927915  54.1647561 110.4255432
  98.4753139  54.1399860 110.7311449 101.0857044  39.4320510 112.9751413
 101.5825743  38.6790472 112.6552483 100.3144025  39.4684826 112.4094622
 100.4469297  54.2840944 118.9772545 101.1597270  54.9188409 118.9048446
  99.9559326  54.3804810 118.1612546 102.1686824  48.1892197 110.5489836
 101.2343103  48.3093659 110.3794541 102.3463493  47.2864664 110.2849846
  97.6692012  41.5737893 112.7023097  97.2989800  41.0208933 113.3904003
  98.1651105  40.9696026 112.1498097 105.5559376  44.0309516 111.0839870
 106.0219828  44.8637508 111.0100173 106.0066876  43.5654498 111.7885129
  95.4981211  52.0335388 119.7978115  96.1990670  52.6671871 119.9507510
  95.0276326  52.3750119 119.0373755 103.6235607  50.3753338 108.0826022
 103.8995451  50.2609932 108.9919896 102.7540105  49.9770822 108.0438195
 100.2589671  54.6239688 111.7258836 100.4412065  53.8061344 112.1886588
 101.0822657  54.8407381 111.2883726 100.5931836  53.5507874 108.9873885
 101.1219603  53.0400328 108.3744047 100.8560056  53.2350404 109.8519418
  91.0948929  51.5671743 116.7309218  91.6802366  50.8215431 116.8637122
  90.8973767  51.8775700 117.6145882  93.9487584  54.6022990 111.7471660
  93.2797959  55.0869118 111.2635700  93.8100454  54.8492211 112.6615039
  85.6866584  44.1377343 115.4513661  85.7250683  43.6040934 116.2450779
  85.1806877  43.6112549 114.8324638  98.0892853  56.6366734 118.3454319
  98.6411161  56.7998355 119.1103404  98.4299046  57.2271172 117.6734344
  93.0657346  38.9841884 118.9476203  93.1298672  39.8456714 118.5353601
  93.0024466  38.3715885 118.2148562  89.3175161  42.8641445 108.5267593
  89.6128602  41.9552124 108.4734646  88.4163197  42.8429185 108.2048595
 101.2261240  54.5848709 115.3318001 101.1012379  53.7838449 114.8228946
 101.8840331  55.0794903 114.8431971  92.8469408  40.9397442 114.5095141
  92.1255994  41.5533409 114.3702614  93.6362664  41.4755207 114.4311787
 103.2896148  52.3857729 116.9597551 102.3426484  52.2663081 116.8875878
 103.6378922  51.4980227 117.0423812  91.0463003  40.5455543 108.6506918
  90.7175709  39.6652922 108.4682024  91.4002374  40.4903212 109.5383307
 100.2942582  52.1810446 113.1601903 100.1467544  51.2527153 113.3409473
 101.1196075  52.2030536 112.6758979  94.1604826  40.8328513 109.0182395
  94.5000899  41.3614434 108.2961004  94.6076946  41.1708919 109.7940962
 103.8976704  53.0039004 114.2466776 104.8223251  52.7981866 114.1091227
 103.7292007  52.7555405 115.1556118  96.1472973  39.3303134 107.2175688
  96.8681336  39.7084387 106.7139405  95.5238277  40.0492011 107.3210666
 100.2904096  40.0348283 108.1534021 100.5067710  40.9172921 107.8522849
  99.8098163  39.6434497 107.4239663  95.0303317  42.9933996 114.7304765
  94.8847898  43.3074300 115.6229047  94.5528521  43.6118897 114.1775664
  96.8899700  39.9836544 114.7785655  96.8761269  39.0877638 114.4417953
  97.6072128  39.9907208 115.4123941 103.6872020  53.5224672 109.6028867
 103.8608897  52.9571094 108.8502720 104.1800911  54.3225567 109.4208357
  89.5048980  45.5339341 117.6692426  88.9602448  46.3099149 117.8012701
  90.3828329  45.8810145 117.5111548  96.2936596  38.8650925 110.0473225
  96.4152507  37.9367571 110.2464112  96.0038639  38.8789611 109.1351540
  99.1627787  36.5505835 113.1839945  99.1849483  36.6145168 112.2291924
  99.5795846  35.7110344 113.3780451 109.5411411  46.2861095 111.2219167
 109.9842557  45.5368420 110.8238290 108.6637921  46.2771231 110.8392899
 104.6747192  52.8391436 106.7025766 105.3698097  53.4598129 106.9213080
 105.0170342  51.9886787 106.9778144  90.2915001  44.6609237 120.5622583
  89.5496737  44.8091872 121.1487214  89.9707746  44.9217503 119.6989333
 106.5738615  50.2891142 108.2313097 107.0989939  50.6278414 107.5062417
 106.4860968  49.3538157 108.0476231  98.2358664  54.2025215 120.3602973
  98.5445791  53.9574362 121.2325673  99.0334146  54.4071854 119.8721843
  98.2579276  56.3563125 112.5908350  97.8184266  55.8639504 113.2841206
  99.0087393  55.8136093 112.3500425  90.7371615  52.5474666 112.5932978
  91.5629635  52.2478438 112.2131621  90.3865667  51.7782288 113.0422766
  95.7053148  51.9001134 114.6630651  95.0833158  51.2371839 114.3632879
  96.3758015  51.9262266 113.9804299  88.9380220  50.4660992 113.5521911
  88.1012128  50.0383167 113.3705913  88.9103866  50.6593436 114.4892703
  95.2666655  50.4505057 108.1389112  95.4154776  51.1340522 107.4855785
  96.0733099  50.4310147 108.6538568  93.0219288  46.4770235 109.1450181
  92.7765330  45.5732565 109.3430391  93.1915203  46.4787385 108.2029659
  92.2914936  42.2098593 106.6436342  91.5984181  42.2842948 105.9876378
  92.0466688  41.4458936 107.1657859  98.7662061  52.9453188 105.6100859
  98.1936028  53.5643375 105.1571331  99.3394854  53.4952550 106.1440781
 101.9859320  53.2290338 106.7409442 102.9189994  53.1635900 106.9442317
 101.8982533  54.0646605 106.2823974 104.6147337  52.5456208 103.7013389
 104.5360969  52.2116072 104.5949147 105.4357004  53.0377976 103.7004862
  99.1508859  44.2814001 102.9516912 100.0967964  44.1520209 103.0205330
  98.7723104  43.5428663 103.4286340  97.3351776  42.2063977 102.8871797
  96.4283232  41.9097090 102.9634511  97.6127757  41.9093795 102.0206083
  88.2529717  43.5270340 113.3370843  87.9332501  42.6735649 113.0445217
  87.7063145  43.7418919 114.0928811  92.0309624  46.2432781 117.0540350
  92.2495634  47.1749889 117.0728384  92.4435398  45.8840756 117.8395154
  98.9513842  36.7500867 109.0416038  98.1414570  36.4047952 109.4171284
  99.6398259  36.4408410 109.6303650 100.8804390  35.8278914 110.6640335
 101.4335429  36.2474367 111.3230358 101.1174477  34.9014662 110.7063291
  96.1050561  39.0650912 103.0283776  96.9669725  39.3905811 103.2879594
  96.2900905  38.2782408 102.5156842  88.1217977  47.1473252 115.3063965
  87.4281448  46.7327205 114.7933919  88.8690968  47.1893788 114.7097384
 104.2583197  37.9379439 110.1718999 103.6781867  38.5964243 109.7897052
 103.9919130  37.1156783 109.7606417  90.0354719  47.0791506 113.1829980
  90.0125407  47.1779193 112.2311863  90.3455356  47.9256656 113.5047146
  92.6942097  49.1367661 117.2976594  93.6485351  49.1051603 117.2306526
  92.4954621  48.6758284 118.1126820  93.2841479  47.7068777 119.8647392
  94.1034368  48.2012855 119.8882229  93.5578287  46.7900745 119.8364960
 103.0408075  40.0979529 109.2275348 102.1533931  40.3829180 109.0095542
 103.4562065  39.9373292 108.3802624  91.0492326  54.6787280 114.3146792
  90.9146794  53.9187681 113.7484790  90.6324388  55.4028180 113.8475581
 102.1851289  49.8624204 103.3223368 102.8887139  50.0674206 103.9381023
 101.4613938  50.4300966 103.5872451 103.0149099  45.6134065 109.4425638
 102.9584301  46.0702616 108.6033270 103.5677442  44.8524750 109.2648480
 106.8253905  41.4023797 110.2675757 106.5690839  41.0020433 111.0983965
 106.2006773  42.1167591 110.1425896  94.2061452  55.5756597 114.5265235
  94.0893836  56.5202030 114.4243925  93.3853898  55.2730159 114.9151034
 104.0937986  50.3006733 105.3721828 104.9283590  49.8687931 105.1899302
 103.9322329  50.1288747 106.2998722 103.7483879  46.8038846 106.7378167
 103.6932682  46.6383118 105.7966611 103.1229934  47.5114879 106.8940357
  88.5376394  42.0406911 120.5639589  89.1835257  41.5305865 121.0526814
  88.3293545  42.7775592 121.1383014  97.0580004  36.3046955 106.3163485
  97.0458674  37.2488795 106.4731756  97.9503426  36.1217101 106.0222946
  95.2315966  56.2284859 117.7421163  96.1343213  56.2608469 118.0587658
  95.0053336  55.2985310 117.7567499  96.9869568  54.9815846 114.4031242
  96.0365199  54.9817707 114.2895614  97.2902054  54.2348580 113.8867277
 105.3898783  62.6239289 111.3935420 104.8263649  62.5329225 110.6251708
 105.2751178  61.8039193 111.8737912 102.9363215  64.1190480 114.2319640
 103.7284507  63.7781305 113.8165940 103.1759866  64.2285455 115.1521794
 110.9698342  66.2910256 106.7049885 110.3186322  66.8764337 106.3183899
 111.7642705  66.8216451 106.7644922 104.8953969  63.3799393 107.1037019
 105.6684845  62.8328380 106.9649895 105.2479368  64.2443643 107.3151481
 107.2320247  59.5392060 104.7355469 107.4845768  59.0173581 103.9738932
 106.2944806  59.3758205 104.8382153 112.2763530  58.5427838 112.5430212
 113.0626619  58.1247261 112.1920629 112.5402234  59.4473930 112.7111861
 112.4473607  63.9800688 107.2418869 111.8119440  64.0535315 107.9539774
 112.1171014  64.5694287 106.5637948 106.9516536  61.4420165 106.9379844
 106.8352794  60.7665069 107.6060928 107.0618796  60.9552539 106.1211997
 109.2948077  60.9030313 110.6426533 108.9306284  60.3760934 111.3539455
 110.1515193  60.5128782 110.4693019 108.9353564  55.9320212 105.6387882
 109.1027966  56.8000449 106.0058353 108.7450733  56.0947494 104.7149171
 105.1441378  60.8450988 113.3390417 104.2191875  60.7127202 113.5468108
 105.3925792  61.6245207 113.8360359 108.9142785  58.3877870 106.6234549
 108.7942410  58.8334921 107.4620029 108.2195373  58.7363187 106.0648087
 102.5050189  60.4884262 114.1734206 102.6342571  60.7418741 115.0873617
 101.8247641  61.0811970 113.8538861 114.6127851  58.8599343 107.4514883
 115.5245707  59.0926730 107.2762580 114.1037498  59.4436387 106.8889961
 108.7725395  63.5799570 112.1078549 109.2363741  63.8587272 111.3183172
 108.5082193  62.6783014 111.9251640 107.7094281  59.7022722 108.9168114
 108.4118324  60.1543766 109.3842041 107.3774910  59.0606541 109.5448008
 101.4519615  57.9606275 114.2185248 100.6618669  58.2163803 113.7425359
 101.9430862  58.7754612 114.3237289 103.4034360  58.3250854 111.1768725
 102.6065524  58.4369548 111.6952220 103.1759953  58.6637506 110.3109615
  99.7357318  58.2136765 116.6500239  99.9865356  59.0983775 116.9157815
 100.2716866  58.0341367 115.8775331 108.9488046  66.5163664 108.9930220
 108.8133720  67.3615200 109.4215067 109.4897858  66.7182942 108.2296153
 102.4017443  64.0339103 109.5658145 102.9141964  64.8282353 109.7163709
 103.0540156  63.3365393 109.4991746 104.2112328  67.1504859 111.6480898
 104.3878956  68.0722824 111.4601882 105.0069161  66.8363278 112.0775278
 100.3666360  62.3627757 110.3417715 101.2041582  62.7724765 110.1251423
 100.5444628  61.4227199 110.3117909 112.2630792  60.0302837 106.0301548
 111.7477415  60.8007442 106.2689936 111.9908100  59.3567974 106.6534610
 109.8477903  54.8752538 111.0886787 108.9919499  54.4859389 110.9092425
 110.2604855  54.9544499 110.2286572 107.6219935  52.4937611 114.4944528
 108.4872932  52.2980420 114.1350418 107.6897444  52.2647963 115.4213885
 117.2365066  62.7835192 107.9654722 116.4594509  62.4446352 107.5209884
 117.9156547  62.7887815 107.2909687 112.0517095  57.9029930 107.8561329
 111.7467231  58.2176079 108.7071473 113.0047537  57.9811349 107.8988662
 110.4963527  64.0620153 109.5054283 109.9684889  63.3272912 109.1927521
 109.9951030  64.8394829 109.2594252 105.2282255  54.7239819 111.8660895
 105.8026006  54.5015001 111.1334088 105.8153237  54.7928514 112.6189496
 105.5551842  56.7544280 105.8856780 104.7189154  57.0918967 106.2066055
 105.4156611  56.6193260 104.9483917 107.5304922  51.5981068 110.5935964
 106.8769335  51.2830085 109.9692579 107.4885396  50.9756809 111.3195787
 108.6416127  61.8800363 102.5089256 107.7343189  61.6489617 102.7080405
 109.1387159  61.0837982 102.6963238 111.5484206  70.5897870 105.4285943
 110.8745905  70.8929567 106.0370900 111.9350028  71.3926951 105.0791400
 110.7642663  58.0863002 114.9183612 109.8465224  58.3077949 114.7605300
 111.1802806  58.1609312 114.0595319 111.5477710  59.4854417 110.0486292
 112.2949529  59.9975815 109.7393414 111.8169300  59.1638470 110.9090686
 109.8204361  61.9812958 107.0313246 108.9115580  61.6971991 107.1285716
 109.8499444  62.4012037 106.1716553 113.9956548  56.5211534 112.0305081
 113.2579304  56.0088920 112.3615324 114.2483321  56.0811915 111.2188358
 100.3892531  59.7018472 111.0128449 100.1916931  59.1087833 110.2879515
  99.8339195  59.3970682 111.7304387 108.3689255  59.5941579 113.1323042
 108.4237864  58.6415415 113.0565518 107.5580457  59.7501018 113.6164340
 109.5180448  63.5221702 104.3701325 109.0799878  62.8057561 103.9106962
 110.2590889  63.7497817 103.8086416 106.3081615  58.2118638 110.8913421
 105.4949480  58.5112809 111.2978613 106.8040609  57.8174327 111.6087903
 117.6353563  61.7978899 110.4277644 117.4971462  61.9880495 109.4998833
 117.2789782  62.5598282 110.8845695 105.7995689  55.7836994 116.5074656
 106.4395069  55.6425753 115.8097619 104.9673220  55.4971507 116.1313258
 106.5755993  65.0839424 112.6209648 107.3696592  64.5889744 112.4192223
 105.8647686  64.5557287 112.2577354 102.8838757  59.2282506 108.6969401
 101.9536345  59.1666962 108.9139363 102.9796229  58.7058459 107.9006042
 102.8024306  55.7537319 111.2847642 103.0631123  56.6682652 111.1756803
 103.6241478  55.2861761 111.4344255 104.2749231  57.1675076 118.4546467
 104.9472284  56.9592438 117.8059116 103.4479018  56.9697162 118.0151699
 109.7475421  70.7577543 107.6433022 109.9227177  70.2865586 108.4578644
 109.0608209  71.3843309 107.8714282 113.6391676  62.3806083 103.9633383
 113.0220847  61.6552912 103.8666435 113.1708164  63.1415444 103.6200457
 105.4290222  56.5991508 103.0854687 104.5519688  56.4780308 102.7216934
 105.9047975  55.8077586 102.8333576  96.9492362  61.3868667 113.1796194
  97.6363402  61.0730397 112.5917209  96.7940491  62.2910032 112.9063445
 101.7527084  56.2758864 117.6081218 101.6685273  55.6684533 116.8731628
 100.9309791  56.7667882 117.6090714 111.9250798  54.7612427 112.9751413
 112.4219498  54.0082390 112.6552483 111.1537780  54.7976744 112.4094622
 113.0080579  63.5184115 110.5489836 112.0736857  63.6385577 110.3794541
 113.1857247  62.6156581 110.2849846 108.5085767  56.9029810 112.7023097
 108.1383554  56.3500851 113.3904003 109.0044859  56.2987944 112.1498097
 116.3953130  59.3601434 111.0839870 116.8613582  60.1929426 111.0100173
 116.8460631  58.8946416 111.7885129 114.4629361  65.7045255 108.0826022
 114.7389205  65.5901850 108.9919896 113.5933860  65.3062740 108.0438195
 111.4325591  68.8799791 108.9873885 111.9613357  68.3692246 108.3744047
 111.6953810  68.5642321 109.8519418  96.5260338  59.4669261 115.4513661
  96.5644438  58.9332851 116.2450779  96.0200631  58.9404466 114.8324638
 103.9051100  54.3133801 118.9476203 103.9692427  55.1748632 118.5353601
 103.8418221  53.7007803 118.2148562 100.1568916  58.1933363 108.5267593
 100.4522357  57.2844041 108.4734646  99.2556952  58.1721102 108.2048595
 103.6863163  56.2689359 114.5095141 102.9649749  56.8825327 114.3702614
 104.4756419  56.8047124 114.4311787 101.8856757  55.8747461 108.6506918
 101.5569463  54.9944839 108.4682024 102.2396128  55.8195129 109.5383307
 104.9998580  56.1620430 109.0182395 105.3394653  56.6906352 108.2961004
 105.4470701  56.5000836 109.7940962 106.9866728  54.6595052 107.2175688
 107.7075090  55.0376305 106.7139405 106.3632032  55.3783929 107.3210666
 111.1297851  55.3640201 108.1534021 111.3461465  56.2464839 107.8522849
 110.6491918  54.9726414 107.4239663 105.8697072  58.3225914 114.7304765
 105.7241653  58.6366217 115.6229047 105.3922276  58.9410814 114.1775664
 107.7293455  55.3128462 114.7785655 107.7155024  54.4169555 114.4417953
 108.4465883  55.3199126 115.4123941 100.3442734  60.8631259 117.6692426
  99.7996202  61.6391066 117.8012701 101.2222084  61.2102063 117.5111548
 107.1330351  54.1942842 110.0473225 107.2546262  53.2659489 110.2464112
 106.8432393  54.2081528 109.1351540 110.0021541  51.8797753 113.1839945
 110.0243238  51.9437086 112.2291924 110.4189600  51.0402261 113.3780451
 115.5140947  68.1683354 106.7025766 116.2091851  68.7890047 106.9213080
 115.8564097  67.3178705 106.9778144 117.4132370  65.6183059 108.2313097
 117.9383694  65.9570332 107.5062417 117.3254722  64.6830075 108.0476231
 101.5765370  67.8766584 112.5932978 102.4023390  67.5770355 112.2131621
 101.2259422  67.1074206 113.0422766  99.7773975  65.7952910 113.5521911
  98.9405883  65.3675084 113.3705913  99.7497620  65.9885353 114.4892703
 106.1060410  65.7796975 108.1389112 106.2548530  66.4632439 107.4855785
 106.9126853  65.7602065 108.6538568 103.8613043  61.8062153 109.1450181
 103.6159085  60.9024483 109.3430391 104.0308957  61.8079303 108.2029659
 103.1308690  57.5390510 106.6436342 102.4377935  57.6134865 105.9876378
 102.8860442  56.7750854 107.1657859 109.6055815  68.2745106 105.6100859
 109.0329782  68.8935293 105.1571331 110.1788609  68.8244467 106.1440781
 112.8253075  68.5582256 106.7409442 113.7583748  68.4927817 106.9442317
 112.7376288  69.3938523 106.2823974 115.4541092  67.8748126 103.7013389
 115.3754723  67.5407990 104.5949147 116.2750758  68.3669894 103.7004862
 109.9902614  59.6105918 102.9516912 110.9361718  59.4812126 103.0205330
 109.6116859  58.8720580 103.4286340 108.1745531  57.5355895 102.8871797
 107.2676986  57.2389007 102.9634511 108.4521512  57.2385713 102.0206083
  99.0923471  58.8562258 113.3370843  98.7726256  58.0027566 113.0445217
  98.5456899  59.0710836 114.0928811 109.7907597  52.0792784 109.0416038
 108.9808325  51.7339869 109.4171284 110.4792014  51.7700328 109.6303650
 111.7198145  51.1570831 110.6640335 112.2729183  51.5766285 111.3230358
 111.9568231  50.2306579 110.7063291 106.9444315  54.3942830 103.0283776
 107.8063479  54.7197728 103.2879594 107.1294660  53.6074326 102.5156842
  98.9611731  62.4765170 115.3063965  98.2675203  62.0619122 114.7933919
  99.7084722  62.5185706 114.7097384 115.0976952  53.2671356 110.1718999
 114.5175621  53.9256160 109.7897052 114.8312885  52.4448701 109.7606417
 100.8748474  62.4083423 113.1829980 100.8519162  62.5071111 112.2311863
 101.1849110  63.2548574 113.5047146 113.8801830  55.4271447 109.2275348
 112.9927685  55.7121097 109.0095542 114.2955819  55.2665210 108.3802624
 113.0245043  65.1916121 103.3223368 113.7280894  65.3966124 103.9381023
 112.3007692  65.7592883 103.5872451 113.8542854  60.9425983 109.4425638
 113.7978055  61.3994534 108.6033270 114.4071196  60.1816667 109.2648480
 117.6647660  56.7315715 110.2675757 117.4084594  56.3312350 111.0983965
 117.0400528  57.4459508 110.1425896 114.9331741  65.6298651 105.3721828
 115.7677345  65.1979849 105.1899302 114.7716084  65.4580664 106.2998722
 114.5877633  62.1330764 106.7378167 114.5326437  61.9675035 105.7966611
 113.9623688  62.8406797 106.8940357  99.3770148  57.3698828 120.5639589
 100.0229012  56.8597782 121.0526814  99.1687299  58.1067510 121.1383014
 107.8973758  51.6338873 106.3163485 107.8852428  52.5780713 106.4731756
 108.7897180  51.4509018 106.0222946 116.3945596  72.0836198 105.8856780
 115.5582908  72.4210884 106.2066055 116.2550366  71.9485178 104.9483917
 116.2683976  71.9283425 103.0854687 115.3913443  71.8072226 102.7216934
 116.7441729  71.1369504 102.8333576 119.0139285  72.8647812 102.8871797
 118.1070741  72.5680925 102.9634511 119.2915266  72.5677630 102.0206083
 117.7838070  69.7234748 103.0283776 118.6457234  70.0489646 103.2879594
 117.9688414  68.9366243 102.5156842 118.7367513  66.9630791 106.3163485
 118.7246183  67.9072631 106.4731756 119.6290935  66.7800936 106.0222946
  74.1568415   2.1767881  96.9969987  74.0792444   3.1275706  97.0758467
  73.5530058   1.8313754  97.6544913  71.7955244   4.9253275 101.1418189
  72.0351842   5.5571799 101.8197207  70.9524441   4.5741315 101.4283548
  72.2700076   0.9501277  98.4716967  71.6010452   1.4347405  97.9881007
  72.1312946   1.1970498  99.3860346  76.4105345   2.9845021 105.0699625
  76.9623653   3.1476642 105.8348711  76.7511538   3.5749459 104.3979650
  69.3704818   1.0265567 101.0392099  69.2359286   0.2665968 100.4730097
  68.9536880   1.7506467 100.5720888  72.5273944   1.9234884 101.2510542
  72.4106328   2.8680317 101.1489232  71.7066390   1.6208446 101.6396341
  73.5528458   2.5763146 104.4666470  74.4555705   2.6086757 104.7832965
  73.3265828   1.6463597 104.4812806  87.8524460   7.1182099 102.1283836
  87.5142972   7.0023164 101.2404371  88.7214228   6.7173264 102.1084842
  83.7111276   8.9717576  98.1180727  83.1476141   8.8807513  97.3497014
  83.5963671   8.1517480  98.5983219  81.2575708  10.4668767 100.9564947
  82.0497000  10.1259592 100.5411246  81.4972358  10.5763742 101.8767100
  89.2910834  12.6388543  93.4295192  88.6398814  13.2242624  93.0429205
  90.0855197  13.1694738  93.4890229  83.2166462   9.7277681  93.8282326
  83.9897338   9.1806668  93.6895202  83.5691860  10.5921930  94.0396787
  85.0551504  11.0554063 107.0349225  84.7641370  11.9599694 106.9195891
  85.6908488  11.0970591 107.7493295  85.9807711   8.4330911 103.6250585
  86.5771283   8.2086934 102.9107548  86.0382683   7.6915657 104.2276033
  90.7686100  10.3278975  93.9664176  90.1331933  10.4013602  94.6785080
  90.4383506  10.9172574  93.2883255  85.2729028   7.7898453  93.6625151
  85.1565286   7.1143356  94.3306235  85.3831288   7.3030827  92.8457304
  87.6160569   7.2508600  97.3671840  87.2518776   6.7239221  98.0784761
  88.4727685   6.8607069  97.1938325  90.0141389  10.7415478 104.0299019
  89.7142112  11.6440517 103.9214826  89.6692449  10.4747662 104.8820172
  83.4653871   7.1929275 100.0635723  82.5404367   7.0605489 100.2713415
  83.7138284   7.9723495 100.5605666  80.8262682   6.8362549 100.8979512
  80.9555063   7.0897028 101.8118924  80.1460133   7.4290257 100.5784167
  84.9962169  17.5059799  96.9969987  84.9186199  18.4567624  97.0758467
  84.3923813  17.1605671  97.6544913  91.5409925  10.1903449 101.5673771
  90.9118788  10.3549163 100.8649839  91.1535587  10.6045058 102.3384735
  95.4199157  11.1257887  98.9218135  94.7350195  11.5056788  98.3715168
  95.5043007  11.7353213  99.6550082  87.0937887   9.9277857  98.8323856
  87.5576233  10.2065560  98.0428478  86.8294685   9.0261301  98.6496947
  83.9861968   9.4749338 101.7703619  84.5563325   9.9036607 101.1321104
  84.5770080   9.1931923 102.4687805  79.7732107   4.3084562 100.9430555
  78.9831161   4.5642090 100.4670665  80.2643355   5.1232900 101.0482595
  81.7246853   4.6729141  97.9014031  80.9278016   4.7847835  98.4197527
  81.4972445   5.0115793  97.0354922  87.5552520  11.1973844 105.8496546
  87.6196953  11.6594251 106.6854718  86.8463444  10.5671209 105.9778856
  78.0569810   4.5615052 103.3745545  78.3077849   5.4462062 103.6403121
  78.5929359   4.3819654 102.6020637  87.2700538  12.8641952  95.7175526
  87.1346213  13.7093487  96.1460374  87.8110350  13.0661229  94.9541460
  80.7229935  10.3817390  96.2903451  81.2354456  11.1760640  96.4409016
  81.3752648   9.6843680  96.2237053  82.5324820  13.4983146  98.3726205
  82.7091448  14.4201111  98.1847188  83.3281654  13.1841565  98.8020584
  81.8177177   5.5447778 108.2488368  81.7030692   4.6433035 108.5495467
  80.9621694   5.7911475 107.8973184  83.6556135  15.0161320 104.3736547
  84.2063561  14.8878383 103.6013541  82.8167611  15.3156209 104.0231440
  87.4523307  11.2812448 108.7180778  87.9851643  10.5200736 108.4880086
  86.9237388  10.9886099 109.4604932  78.6878852   8.7106044  97.0663022
  79.5254074   9.1203052  96.8496730  78.8657120   7.7705486  97.0363216
  88.8176019  10.4098440  96.2299590  88.2897381   9.6751200  95.9172827
  88.3163522  11.1873116  95.9839558  93.7968865   8.6047461 101.3466636
  93.1392540   9.2946722 101.4346765  94.6009264   8.9943893 101.6900623
  86.9628619   8.2278650  89.2334563  86.0555681   7.9967904  89.4325712
  87.4599651   7.4316270  89.4208545  89.8696698  16.9376158  92.1531249
  89.1958397  17.2407854  92.7616207  90.2562520  17.7405238  91.8036706
  88.1416853   8.3291245  93.7558553  87.2328072   8.0450278  93.8531023
  88.1711937   8.7490324  92.8961860  93.3736120  11.9397835  97.5249721
  92.9198447  11.0988745  97.5814911  92.7430087  12.5759233  97.8624501
  91.8169060  13.7774331  98.4599539  92.1092034  14.3379389  97.7411904
  92.3267680  14.0702892  99.2152698  78.7105023   6.0496759  97.7373755
  78.5129423   5.4566120  97.0124822  78.1551687   5.7448970  98.4549694
  87.8392941   9.8699989  91.0946632  87.4012371   9.1535848  90.6352269
  88.5803382  10.0976104  90.5331723  86.7802685  14.5554683  99.5492992
  86.7378864  14.7815529  98.6201524  87.6965384  14.3218057  99.6978793
  84.8968485  11.4317712  99.3454955  85.6909084  10.9368032  99.1437530
  84.1860178  10.9035575  98.9822660  89.7163330  13.8135807 103.6967322
  89.7700352  14.3826743 104.4645038  88.8478111  13.9837692 103.3321360
  81.2051249   5.5760793  95.4214707  80.2748837   5.5145249  95.6384670
  81.3008721   5.0536746  94.6251349  88.6751430   7.9796069 105.2554254
  89.6043490   8.1307229 105.0823222  88.2542460   8.0680090 104.4002901
  87.4739761  12.0046734 103.0252792  87.3350847  11.6365518 103.8978730
  86.6854358  12.5194373 102.8536750  88.0687913  17.1055830  94.3678328
  88.2439669  16.6343873  95.1823951  87.3820701  17.7321596  94.5959589
  89.0244977  11.3828336 100.4141630  88.6894809  11.3429106 101.3099280
  88.5248922  10.7173052  99.9412040  82.9989221   6.7895966 105.9394211
  82.8609019   6.0576205 106.5405750  83.9094144   6.7004866 105.6578399
  91.9604168   8.7284371  90.6878689  91.3433339   8.0031199  90.5911742
  91.4920657   9.4893731  90.3445764  85.6271521   6.5015926 105.4277890
  86.3371140   5.8609118 105.3864509  85.5840829   6.7528820 106.3504071
  82.6348999  20.2545193 101.1418189  82.8745597  20.8863717 101.8197207
  81.7918195  19.9033233 101.4283548  75.2704854   7.7346955  99.9041501
  75.9575894   7.4208685  99.3162516  75.1152983   8.6388319  99.6308752
  87.1476861  16.0624315 103.5459693  87.0747032  16.8679287 104.0578997
  86.7054254  16.2616281 102.7207714  86.9366640  15.2996085  97.0562514
  86.1534162  15.8417765  97.1500739  87.6359385  15.8170065  97.4556755
  89.6075544  15.9611149 105.7017851  90.3203516  16.5958614 105.6293753
  89.1165573  16.0575015 104.8857853  91.3293071   9.8662402  97.2735143
  90.3949350   9.9863864  97.1039847  91.5069739   8.9634869  97.0095153
  84.6587458  13.7105593 106.5223422  85.3596917  14.3442076 106.6752816
  84.1882573  14.0520324 105.7619061  92.7841853  12.0523543  94.8071329
  93.0601697  11.9380137  95.7165203  91.9146352  11.6541027  94.7683502
  89.4195917  16.3009893  98.4504143  89.6018312  15.4831549  98.9131895
  90.2428904  16.5177586  98.0129033  89.7538083  15.2278078  95.7119191
  90.2825849  14.7170533  95.0989353  90.0166303  14.9120609  96.5764724
  80.2555176  13.2441948 103.4554525  80.8408613  12.4985636 103.5882429
  80.0580014  13.5545904 104.3391189  83.1093831  16.2793195  98.4716967
  82.4404206  16.7639323  97.9881007  82.9706701  16.5262416  99.3860346
  74.8472830   5.8147548 102.1758968  74.8856930   5.2811139 102.9696086
  74.3413123   5.2882753 101.5569945  87.2499100  18.3136939 105.0699625
  87.8017408  18.4768560 105.8348711  87.5905293  18.9041376 104.3979650
  78.4781408   4.5411650  95.2512899  78.7734849   3.6322329  95.1979953
  77.5769444   4.5199390  94.9293902  90.3867487  16.2618914 102.0563308
  90.2618626  15.4608654 101.5474253  91.0446578  16.7565108 101.5677278
  92.4502395  14.0627934 103.6842858  91.5032731  13.9433285 103.6121184
  92.7985168  13.1750432 103.7669119  89.4548828  13.8580651  99.8847210
  89.3073791  12.9297358 100.0654780  90.2802322  13.8800741  99.4004285
  93.0582950  14.6809209 100.9712083  93.9829498  14.4752071 100.8336534
  92.8898254  14.4325610 101.8801424  92.8478267  15.1994877  96.3274174
  93.0215144  14.6341299  95.5748027  93.3407158  15.9995772  96.1453664
  78.6655226   7.2109546 104.3937733  78.1208694   7.9869354 104.5258007
  79.5434576   7.5580350 104.2356854  93.8353439  14.5161641  93.4271072
  94.5304344  15.1368334  93.6458387  94.1776589  13.6656992  93.7023450
  79.4521248   6.3379442 107.2867890  78.7102984   6.4862077 107.8732520
  79.1313992   6.5987708 106.4234639  95.7344862  11.9661347  94.9558403
  96.2596186  12.3048619  94.2307723  95.6467215  11.0308362  94.7721538
  87.3964911  15.8795420 107.0848280  87.7052037  15.6344567 107.9570979
  88.1940393  16.0842059 106.5967150  87.4185523  18.0333330  99.3153656
  86.9790513  17.5409709 100.0086513  88.1693640  17.4906298  99.0745732
  79.8977862  14.2244871  99.3178284  80.7235882  13.9248643  98.9376928
  79.5471914  13.4552493  99.7668073  84.8659395  13.5771339 101.3875958
  84.2439404  12.9142044 101.0878186  85.5364262  13.6032471 100.7049606
  78.0986467  12.1431197 100.2767218  77.2618375  11.7153372 100.0951219
  78.0710112  12.3363641 101.2138009  84.4272902  12.1275262  94.8634419
  84.5761022  12.8110727  94.2101091  85.2339345  12.1080352  95.3783874
  82.1825535   8.1540440  95.8695487  81.9371577   7.2502770  96.0675698
  82.3521449   8.1557590  94.9274965  87.9268307  14.6223393  92.3346166
  87.3542275  15.2413580  91.8816638  88.5001101  15.1722754  92.8686088
  91.1465567  14.9060543  93.4654748  92.0796240  14.8406105  93.6687624
  91.0588780  15.7416810  93.0069281  93.7753584  14.2226413  90.4258696
  93.6967215  13.8886277  91.3194454  94.5963251  14.7148181  90.4250168
  77.4135964   5.2040545 100.0616150  77.0938748   4.3505854  99.7690524
  76.8669392   5.4189123 100.8174117  81.1915871   7.9202986 103.7785657
  81.4101881   8.8520094 103.7973690  81.6041645   7.5610961 104.5640460
  77.2824224   8.8243457 102.0309272  76.5887695   8.4097410 101.5179226
  78.0297215   8.8663993 101.4342691  79.1960966   8.7561711  99.9075287
  79.1731654   8.8549398  98.9557170  79.5061603   9.6026861 100.2292453
  81.8548344  10.8137866 104.0221901  82.8091597  10.7821808 103.9551833
  81.6560867  10.3528489 104.8372127  82.4447726   9.3838982 106.5892699
  83.2640615   9.8783060 106.6127536  82.7184534   8.4670950 106.5610266
  80.2098573  16.3557485 101.0392099  80.0753041  15.5957886 100.4730097
  79.7930635  17.0798385 100.5720888  91.3457536  11.5394409  90.0468674
  92.0493386  11.7444411  90.6626330  90.6220184  12.1071171  90.3117758
  83.3667699  17.2526802 101.2510542  83.2500083  18.1972235 101.1489232
  82.5460145  16.9500364 101.6396341  93.2544233  11.9776938  92.0967134
  94.0889837  11.5458136  91.9144609  93.0928576  11.8058952  93.0244029
  92.9090125   8.4809051  93.4623474  92.8538929   8.3153323  92.5211918
  92.2836181   9.1885084  93.6185663  77.6982640   3.7177116 107.2884896
  78.3441504   3.2076070 107.7772121  77.4899791   4.4545797 107.8628321
  84.3922213  17.9055064 104.4666470  85.2949459  17.9378674 104.7832965
  84.1659583  16.9755515 104.4812806  86.1475815  16.6586051 101.1276549
  85.1971446  16.6587912 101.0140921  86.4508301  15.9118785 100.6112583
 101.8828508  22.4946589 102.1922311 102.5206918  22.3753336 101.4885651
 101.7649351  23.4427433 102.2510263  98.6918214  22.4474017 102.1283836
  98.3536726  22.3315082 101.2404371  99.5607983  22.0465182 102.1084842
  94.5505030  24.3009493  98.1180727  93.9869895  24.2099430  97.3497014
  94.4357425  23.4809398  98.5983219  92.0969462  25.7960685 100.9564947
  92.8890754  25.4551510 100.5411246  92.3366112  25.9055660 101.8767100
 100.1304589  27.9680461  93.4295192  99.4792569  28.5534542  93.0429205
 100.9248952  28.4986656  93.4890229  94.0560216  25.0569598  93.8282326
  94.8291092  24.5098585  93.6895202  94.4085615  25.9213848  94.0396787
  95.8945259  26.3845981 107.0349225  95.6035125  27.2891611 106.9195891
  96.5302243  26.4262508 107.7493295  96.8201465  23.7622829 103.6250585
  97.4165038  23.5378852 102.9107548  96.8776437  23.0207575 104.2276033
  96.3926494  21.2162264  91.4600776  96.6452015  20.6943786  90.6984239
  95.4551053  21.0528410  91.5627459 101.4369777  20.2198043  99.2675519
 102.2232866  19.8017466  98.9165936 101.7008481  21.1244135  99.4357167
 101.6079854  25.6570893  93.9664176 100.9725687  25.7305520  94.6785080
 101.2777260  26.2464492  93.2883255  96.1122783  23.1190370  93.6625151
  95.9959041  22.4435274  94.3306235  96.2225043  22.6322744  92.8457304
  98.4554324  22.5800518  97.3671840  98.0912531  22.0531138  98.0784761
  99.3121439  22.1898987  97.1938325  98.0959811  17.6090417  92.3633188
  98.2634213  18.4770654  92.7303660  97.9056980  17.7717699  91.4394478
 100.8535144  26.0707396 104.0299019 100.5535867  26.9732435 103.9214826
 100.5086203  25.8039579 104.8820172  94.3047625  22.5221193 100.0635723
  93.3798122  22.3897407 100.2713415  94.5532038  23.3015412 100.5605666
  98.0749031  20.0648075  93.3479855  97.9548657  20.5105125  94.1865336
  97.3801620  20.4133392  92.7893393  91.6656436  22.1654466 100.8979512
  91.7948817  22.4188945 101.8118924  90.9853888  22.7582174 100.5784167
  95.8355924  32.8351716  96.9969987  95.7579953  33.7859542  97.0758467
  95.2317567  32.4897589  97.6544913 103.7734098  20.5369548  94.1760189
 104.6851954  20.7696935  94.0007887 103.2643745  21.1206592  93.6135268
 102.3803680  25.5195366 101.5673771 101.7512542  25.6841080 100.8649839
 101.9929342  25.9336976 102.3384735 106.2592912  26.4549804  98.9218135
 105.5743950  26.8348706  98.3715168 106.3436761  27.0645131  99.6550082
  97.9331642  25.2569774  98.8323856  98.3969987  25.5357477  98.0428478
  97.6688440  24.3553219  98.6496947  94.8255723  24.8041256 101.7703619
  95.3957080  25.2328524 101.1321104  95.4163835  24.5223841 102.4687805
  96.8700528  21.3792927  95.6413421  97.5724571  21.8313970  96.1087347
  96.5381156  20.7376746  96.2693314  90.6125862  19.6376479 100.9430555
  89.8224916  19.8934008 100.4670665  91.1037109  20.4524817 101.0482595
  92.5640607  20.0021059  97.9014031  91.7671770  20.1139753  98.4197527
  92.3366199  20.3407711  97.0354922  98.3946275  26.5265762 105.8496546
  98.4590707  26.9886169 106.6854718  97.6857199  25.8963127 105.9778856
  88.8963565  19.8906970 103.3745545  89.1471603  20.7753980 103.6403121
  89.4323113  19.7111571 102.6020637  98.1094292  28.1933869  95.7175526
  97.9739967  29.0385405  96.1460374  98.6504105  28.3953147  94.9541460
  91.5623690  25.7109307  96.2903451  92.0748210  26.5052558  96.4409016
  92.2146403  25.0135598  96.2237053  93.3718575  28.8275064  98.3726205
  93.5485203  29.7493028  98.1847188  94.1675408  28.5133483  98.8020584
  92.6570931  20.8739696 108.2488368  92.5424446  19.9724953 108.5495467
  91.8015449  21.1203392 107.8973184  94.4949890  30.3453238 104.3736547
  95.0457315  30.2170301 103.6013541  93.6561366  30.6448127 104.0231440
  98.2917061  26.6104365 108.7180778  98.8245398  25.8492654 108.4880086
  97.7631142  26.3178017 109.4604932  89.5272607  24.0397962  97.0663022
  90.3647829  24.4494970  96.8496730  89.7050874  23.0997404  97.0363216
 101.4237039  21.7073042  92.7546855 100.9083662  22.4777647  92.9935242
 101.1514347  21.0338179  93.3779916  99.0084150  16.5522743  97.8132093
  98.1525746  16.1629594  97.6337732  99.4211102  16.6314704  96.9531879
  96.7826182  14.1707816 101.2189835  97.6479179  13.9750625 100.8595724
  96.8503691  13.9418168 102.1459191 106.3971313  24.4605397  94.6900028
 105.6200756  24.1216557  94.2455190 107.0762794  24.4658020  94.0154993
 101.2123342  19.5800134  94.5806636 100.9073477  19.8946284  95.4316779
 102.1653784  19.6581554  94.6233969  99.6569774  25.7390358  96.2299590
  99.1291135  25.0043117  95.9172827  99.1557276  26.5165034  95.9839558
 104.6362620  23.9339378 101.3466636 103.9786294  24.6238640 101.4346765
 105.4403019  24.3235810 101.6900623  94.3888501  16.4010024  98.5906202
  94.9632253  16.1785206  97.8579394  94.9759484  16.4698719  99.3434803
 103.4468079  22.2883751  99.3970578 103.9599960  22.9213743  99.8992288
 104.0969302  21.6884947  99.0313938  94.7158088  18.4314485  92.6102087
  93.8795401  18.7689172  92.9311362  94.5762858  18.2963465  91.6729224
  96.6911169  13.2751273  97.3181271  96.0375581  12.9600290  96.6937886
  96.6491643  12.6527013  98.0441094  97.8022374  23.5570568  89.2334563
  96.8949436  23.3259822  89.4325712  98.2993406  22.7608187  89.4208545
 100.7090453  32.2668075  92.1531249 100.0352152  32.5699772  92.7616207
 101.0956275  33.0697156  91.8036706  99.9248909  19.7633207 101.6428919
  99.0071471  19.9848154 101.4850607 100.3409053  19.8379517 100.7840626
 100.7083957  21.1624622  96.7731599 101.4555776  21.6746019  96.4638721
 100.9775547  20.8408675  97.6335992  98.9810607  23.6583163  93.7558553
  98.0721827  23.3742196  93.8531023  99.0105691  24.0782242  92.8961860
 104.2129875  27.2689752  97.5249721 103.7592202  26.4280662  97.5814911
 103.5823841  27.9051151  97.8624501 103.1562794  18.1981738  98.7550388
 102.4185551  17.6859125  99.0860631 103.4089568  17.7582120  97.9433665
 102.6562814  29.1066249  98.4599539 102.9485788  29.6671306  97.7411904
 103.1661435  29.3994810  99.2152698  89.5498778  21.3788677  97.7373755
  89.3523178  20.7858038  97.0124822  88.9945442  21.0740887  98.4549694
  97.5295501  21.2711784  99.8568348  97.5844111  20.3185620  99.7810825
  96.7186703  21.4271223 100.3409647  98.6786695  25.1991907  91.0946632
  98.2406125  24.4827766  90.6352269  99.4197136  25.4268021  90.5331723
  95.4687861  19.8888843  97.6158727  94.6555727  20.1883014  98.0223919
  95.9646855  19.4944532  98.3333210  97.6196439  29.8846600  99.5492992
  97.5772618  30.1107447  98.6201524  98.5359138  29.6509975  99.6978793
 106.7959810  23.4749104  97.1522950 106.6577709  23.6650700  96.2244139
 106.4396029  24.2368486  97.6091001  94.9601936  17.4607199 103.2319962
  95.6001315  17.3195958 102.5342926  94.1279467  17.1741712 102.8558564
  95.7362240  26.7609629  99.3454955  96.5302838  26.2659949  99.1437530
  95.0253932  26.2327492  98.9822660 100.5557084  29.1427725 103.6967322
 100.6094107  29.7118661 104.4645038  99.6871866  29.3129610 103.3321360
  92.0445003  20.9052711  95.4214707  91.1142592  20.8437166  95.6384670
  92.1402475  20.3828664  94.6251349  91.9630552  17.4307524  98.0092949
  92.2237370  18.3452857  97.9002110  92.7847725  16.9631966  98.1589562
  93.4355478  18.8445281 105.1791774  94.1078531  18.6362643 104.5304423
  92.6085264  18.6467367 104.7397006  99.5145184  23.3087987 105.2554254
 100.4437244  23.4599146 105.0823222  99.0936214  23.3972008 104.4002901
  98.3133516  27.3338651 103.0252792  98.1744602  26.9657436 103.8978730
  97.5248112  27.8486291 102.8536750  98.9081668  32.4347748  94.3678328
  99.0833424  31.9635791  95.1823951  98.2214456  33.0613514  94.5959589
  99.8638731  26.7120254 100.4141630  99.5288564  26.6721024 101.3099280
  99.3642677  26.0464970  99.9412040  93.8382975  22.1187884 105.9394211
  93.7002773  21.3868123 106.5405750  94.7487899  22.0296784 105.6578399
 102.7997923  24.0576288  90.6878689 102.1827093  23.3323116  90.5911742
 102.3314411  24.8185649  90.3445764  96.4665276  21.8307843 105.4277890
  97.1764894  21.1901035 105.3864509  96.4234584  22.0820738 106.3504071
  93.4742753  35.5837110 101.1418189  93.7139351  36.2155635 101.8197207
  92.6311950  35.2325150 101.4283548  94.5896469  18.2761713  89.8099994
  93.7125935  18.1550513  89.4462240  95.0654222  17.4847791  89.5578882
  86.1098609  23.0638872  99.9041501  86.7969649  22.7500602  99.3162516
  85.9546738  23.9680237  99.6308752  90.9133331  17.9529069 104.3326524
  90.8291520  17.3454738 103.5976934  90.0916037  18.4438087 104.3336021
  97.9870615  31.3916233 103.5459693  97.9140787  32.1971204 104.0578997
  97.5448008  31.5908199 102.7207714  97.7760395  30.6288003  97.0562514
  96.9927917  31.1709683  97.1500739  98.4753140  31.1461983  97.4556755
 101.0857045  16.4382632  99.6996719 101.5825744  15.6852595  99.3797790
 100.3144026  16.4746949  99.1339929 100.4469299  31.2903067 105.7017851
 101.1597271  31.9250532 105.6293753  99.9559327  31.3866933 104.8857853
 102.1686826  25.1954320  97.2735143 101.2343104  25.3155782  97.1039847
 102.3463494  24.2926786  97.0095153  97.6692014  18.5800015  99.4268404
  97.2989801  18.0271056 100.1149310  98.1651106  17.9758149  98.8743404
 105.5559377  21.0371639  97.8085177 106.0219829  21.8699630  97.7345480
 106.0066877  20.5716620  98.5130435  95.4981212  29.0397510 106.5223422
  96.1990672  29.6733993 106.6752816  95.0276327  29.3812242 105.7619061
 103.6235608  27.3815460  94.8071329 103.8995452  27.2672055  95.7165203
 102.7540107  26.9832945  94.7683502 100.2589672  31.6301811  98.4504143
 100.4412067  30.8123467  98.9131895 101.0822658  31.8469503  98.0129033
 100.5931837  30.5569996  95.7119191 101.1219604  30.0462451  95.0989353
 100.8560057  30.2412526  96.5764724  91.0948930  28.5733865 103.4554525
  91.6802367  27.8277553 103.5882429  90.8973769  28.8837822 104.3391189
  93.9487585  31.6085113  98.4716967  93.2797961  32.0931240  97.9881007
  93.8100455  31.8554333  99.3860346  85.6866585  21.1439466 102.1758968
  85.7250684  20.6103056 102.9696086  85.1806878  20.6174671 101.5569945
  98.0892854  33.6428856 105.0699625  98.6411162  33.8060478 105.8348711
  98.4299047  34.2333294 104.3979650  93.0657347  15.9904006 105.6721510
  93.1298674  16.8518837 105.2598908  93.0024467  15.3778008 104.9393869
  89.3175163  19.8703568  95.2512899  89.6128604  18.9614246  95.1979953
  88.4163198  19.8491307  94.9293902 101.2261241  31.5910832 102.0563308
 101.1012381  30.7900572 101.5474253 101.8840332  32.0857025 101.5677278
  92.8469410  17.9459564 101.2340448  92.1255995  18.5595532 101.0947921
  93.6362665  18.4817329 101.1557094 103.2896150  29.3919852 103.6842858
 102.3426485  29.2725203 103.6121184 103.6378923  28.5042350 103.7669119
  91.0463004  17.5517665  95.3752224  90.7175710  16.6715044  95.1927330
  91.4002375  17.4965334  96.2628614 100.2942583  29.1872568  99.8847210
 100.1467545  28.2589276 100.0654780 101.1196076  29.2092659  99.4004285
  94.1604827  17.8390635  95.7427702  94.5000900  18.3676557  95.0206310
  94.6076948  18.1771041  96.5186269 103.8976705  30.0101127 100.9712083
 104.8223252  29.8043988 100.8336534 103.7292008  29.7617528 101.8801424
  96.1472974  16.3365257  93.9420995  96.8681337  16.7146510  93.4384712
  95.5238279  17.0554134  94.0455973 100.2904097  17.0410406  94.8779327
 100.5067712  17.9235044  94.5768155  99.8098164  16.6496619  94.1484969
  95.0303319  19.9996119 101.4550072  94.8847899  20.3136422 102.3474353
  94.5528522  20.6181019 100.9020970  96.8899702  16.9898667 101.5030961
  96.8761270  16.0939760 101.1663259  97.6072130  16.9969331 102.1369247
 103.6872021  30.5286794  96.3274174 103.8608899  29.9633217  95.5748027
 104.1800912  31.3287689  96.1453664  89.5048981  22.5401463 104.3937733
  88.9602449  23.3161271 104.5258007  90.3828331  22.8872268 104.2356854
  96.2936597  15.8713047  96.7718531  96.4152509  14.9429693  96.9709419
  96.0038640  15.8851733  95.8596847  99.1627788  13.5567958  99.9085251
  99.1849485  13.6207291  98.9537231  99.5795847  12.7172466 100.1025757
 109.5411412  23.2923217  97.9464474 109.9842558  22.5430543  97.5483597
 108.6637922  23.2833354  97.5638206 104.6747194  29.8453559  93.4271072
 105.3698098  30.4660251  93.6458387 105.0170344  28.9948910  93.7023450
  90.2915003  21.6671360 107.2867890  89.5496739  21.8153995 107.8732520
  89.9707747  21.9279625 106.4234639 106.5738617  27.2953264  94.9558403
 107.0989941  27.6340537  94.2307723 106.4860969  26.3600280  94.7721538
  98.2358665  31.2087338 107.0848280  98.5445792  30.9636485 107.9570979
  99.0334147  31.4133976 106.5967150  98.2579277  33.3625248  99.3153656
  97.8184268  32.8701626 100.0086513  99.0087394  32.8198215  99.0745732
  90.7371616  29.5536788  99.3178284  91.5629636  29.2540560  98.9376928
  90.3865668  28.7844411  99.7668073  95.7053150  28.9063257 101.3875958
  95.0833159  28.2433962 101.0878186  96.3758016  28.9324389 100.7049606
  88.9380221  27.4723115 100.2767218  88.1012130  27.0445289 100.0951219
  88.9103867  27.6655558 101.2138009  95.2666656  27.4567180  94.8634419
  95.4154777  28.1402644  94.2101091  96.0733100  27.4372270  95.3783874
  93.0219289  23.4832358  95.8695487  92.7765331  22.5794688  96.0675698
  93.1915204  23.4849508  94.9274965  92.2914937  19.2160715  93.3681649
  91.5984182  19.2905070  92.7121685  92.0466689  18.4521059  93.8903166
  98.7662062  29.9515310  92.3346166  98.1936029  30.5705498  91.8816638
  99.3394856  30.5014672  92.8686088 101.9859322  30.2352461  93.4654748
 102.9189995  30.1698022  93.6687624 101.8982535  31.0708727  93.0069281
 104.6147338  29.5518331  90.4258696 104.5360970  29.2178195  91.3194454
 105.4357005  30.0440099  90.4250168  99.1508860  21.2876123  89.6762218
 100.0967965  21.1582331  89.7450637  98.7723105  20.5490785  90.1531647
  97.3351778  19.2126100  89.6117104  96.4283233  18.9159212  89.6879817
  97.6127759  18.9155918  88.7451390  88.2529718  20.5332463 100.0616150
  87.9332502  19.6797771  99.7690524  87.7063146  20.7481041 100.8174117
  92.0309626  23.2494904 103.7785657  92.2495635  24.1812012 103.7973690
  92.4435399  22.8902878 104.5640460  98.9513843  13.7562989  95.7661345
  98.1414572  13.4110074  96.1416591  99.6398260  13.4470533  96.3548957
 100.8804392  12.8341036  97.3885642 101.4335430  13.2536490  98.0475665
 101.1174478  11.9076784  97.4308598  96.1050562  16.0713035  89.7529083
  96.9669726  16.3967933  90.0124900  96.2900906  15.2844531  89.2402149
  88.1217978  24.1535374 102.0309272  87.4281449  23.7389327 101.5179226
  88.8690969  24.1955911 101.4342691 104.2583199  14.9441561  96.8964306
 103.6781868  15.6026365  96.5142358 103.9919131  14.1218906  96.4851723
  90.0354721  24.0853628  99.9075287  90.0125409  24.1841316  98.9557170
  90.3455357  24.9318779 100.2292453  92.6942098  26.1429783 104.0221901
  93.6485352  26.1113726 103.9551833  92.4954622  25.6820407 104.8372127
  93.2841481  24.7130899 106.5892699  94.1034370  25.2074978 106.6127536
  93.5578288  23.7962867 106.5610266 103.0408077  17.1041652  95.9520654
 102.1533932  17.3891302  95.7340849 103.4562066  16.9435415  95.1047931
  91.0492327  31.6849403 101.0392099  90.9146795  30.9249804 100.4730097
  90.6324389  32.4090303 100.5720888 102.1851290  26.8686326  90.0468674
 102.8887140  27.0736329  90.6626330 101.4613939  27.4363088  90.3117758
 103.0149100  22.6196188  96.1670944 102.9584302  23.0764739  95.3278577
 103.5677443  21.8586872  95.9893787 106.8253906  18.4085919  96.9921064
 106.5690841  18.0082555  97.8229272 106.2006774  19.1229713  96.8671203
  94.2061453  32.5818720 101.2510542  94.0893837  33.5264152 101.1489232
  93.3853899  32.2792281 101.6396341 104.0937988  27.3068856  92.0967134
 104.9283592  26.8750054  91.9144609 103.9322331  27.1350869  93.0244029
 103.7483880  23.8100969  93.4623474 103.6932684  23.6445240  92.5211918
 103.1229935  24.5177002  93.6185663  88.5376395  19.0469033 107.2884896
  89.1835258  18.5367987 107.7772121  88.3293546  19.7837715 107.8628321
  97.0580005  13.3109078  93.0408792  97.0458675  14.2550918  93.1977063
  97.9503427  13.1279223  92.7468253  95.2315967  33.2346982 104.4666470
  96.1343214  33.2670592 104.7832965  95.0053337  32.3047433 104.4812806
  96.9869569  31.9877968 101.1276549  96.0365200  31.9879830 101.0140921
  97.2902055  31.2410703 100.6112583 112.7222263  37.8238507 102.1922311
 113.3600673  37.7045254 101.4885651 112.6043106  38.7719351 102.2510263
 109.5311969  37.7765935 102.1283836 109.1930481  37.6606999 101.2404371
 110.4001737  37.3757100 102.1084842 105.3898785  39.6301411  98.1180727
 104.8263650  39.5391348  97.3497014 105.2751180  38.8101316  98.5983219
 102.9363217  41.1252603 100.9564947 103.7284509  40.7843427 100.5411246
 103.1759867  41.2347578 101.8767100 110.9698343  43.2972379  93.4295192
 110.3186323  43.8826459  93.0429205 111.7642706  43.8278574  93.4890229
 104.8953971  40.3861516  93.8282326 105.6684847  39.8390503  93.6895202
 105.2479369  41.2505765  94.0396787 106.7339013  41.7137898 107.0349225
 106.4428879  42.6183529 106.9195891 107.3695997  41.7554426 107.7493295
 107.6595220  39.0914747 103.6250585 108.2558792  38.8670769 102.9107548
 107.7170192  38.3499492 104.2276033 107.2320248  36.5454182  91.4600776
 107.4845769  36.0235703  90.6984239 106.2944807  36.3820328  91.5627459
 112.2763531  35.5489960  99.2675519 113.0626620  35.1309384  98.9165936
 112.5402236  36.4536053  99.4357167 112.4473609  40.9862811  93.9664176
 111.8119442  41.0597437  94.6785080 112.1171015  41.5756410  93.2883255
 106.9516537  38.4482288  93.6625151 106.8352795  37.7727191  94.3306235
 107.0618797  37.9614662  92.8457304 109.2948078  37.9092435  97.3671840
 108.9306285  37.3823056  98.0784761 110.1515194  37.5190904  97.1938325
 108.9353565  32.9382335  92.3633188 109.1027967  33.8062571  92.7303660
 108.7450734  33.1009617  91.4394478 111.6928898  41.3999314 104.0299019
 111.3929621  42.3024353 103.9214826 111.3479958  41.1331497 104.8820172
 105.1441380  37.8513111 100.0635723 104.2191876  37.7189325 100.2713415
 105.3925793  38.6307330 100.5605666 108.9142786  35.3939992  93.3479855
 108.7942411  35.8397043  94.1865336 108.2195374  35.7425310  92.7893393
 102.5050191  37.4946384 100.8979512 102.6342572  37.7480863 101.8118924
 101.8247642  38.0874092 100.5784167 106.6749678  48.1643634  96.9969987
 106.5973708  49.1151459  97.0758467 106.0711322  47.8189507  97.6544913
 114.6127852  35.8661466  94.1760189 115.5245708  36.0988852  94.0007887
 114.1037499  36.4498510  93.6135268 113.2197434  40.8487284 101.5673771
 112.5906297  41.0132998 100.8649839 112.8323096  41.2628894 102.3384735
 117.0986666  41.7841722  98.9218135 116.4137704  42.1640623  98.3715168
 117.1830516  42.3937049  99.6550082 108.7725396  40.5861692  98.8323856
 109.2363742  40.8649395  98.0428478 108.5082194  39.6845137  98.6496947
 105.6649477  40.1333174 101.7703619 106.2350834  40.5620442 101.1321104
 106.2557589  39.8515758 102.4687805 107.7094282  36.7084844  95.6413421
 108.4118326  37.1605888  96.1087347 107.3774911  36.0668663  96.2693314
 101.4519616  34.9668397 100.9430555 100.6618670  35.2225926 100.4670665
 101.9430864  35.7816735 101.0482595 103.4034362  35.3312976  97.9014031
 102.6065525  35.4431671  98.4197527 103.1759954  35.6699629  97.0354922
 109.2340029  41.8557680 105.8496546 109.2984462  42.3178087 106.6854718
 108.5250953  41.2255045 105.9778856  99.7357319  35.2198888 103.3745545
  99.9865358  36.1045897 103.6403121 100.2716868  35.0403489 102.6020637
 108.9488047  43.5225787  95.7175526 108.8133722  44.3677323  96.1460374
 109.4897859  43.7245065  94.9541460 102.4017444  41.0401225  96.2903451
 102.9141965  41.8344475  96.4409016 103.0540157  40.3427516  96.2237053
 104.2112329  44.1566981  98.3726205 104.3878957  45.0784946  98.1847188
 105.0069163  43.8425401  98.8020584 103.4964686  36.2031613 108.2488368
 103.3818201  35.3016871 108.5495467 102.6409203  36.4495310 107.8973184
 105.3343644  45.6745155 104.3736547 105.8851070  45.5462219 103.6013541
 104.4955120  45.9740044 104.0231440 109.1310816  41.9396283 108.7180778
 109.6639152  41.1784571 108.4880086 108.6024897  41.6469935 109.4604932
 100.3666361  39.3689879  97.0663022 101.2041583  39.7786888  96.8496730
 100.5444629  38.4289322  97.0363216 112.2630793  37.0364960  92.7546855
 111.7477417  37.8069565  92.9935242 111.9908102  36.3630096  93.3779916
 109.8477904  31.8814661  97.8132093 108.9919501  31.4921511  97.6337732
 110.2604856  31.9606622  96.9531879 107.6219937  29.4999734 101.2189835
 108.4872934  29.3042543 100.8595724 107.6897446  29.2710086 102.1459191
 117.2365067  39.7897315  94.6900028 116.4594510  39.4508474  94.2455190
 117.9156548  39.7949938  94.0154993 112.0517096  34.9092052  94.5806636
 111.7467232  35.2238201  95.4316779 113.0047539  34.9873472  94.6233969
 110.4963528  41.0682275  96.2299590 109.9684890  40.3335035  95.9172827
 109.9951031  41.8456952  95.9839558 115.4756374  39.2631296 101.3466636
 114.8180049  39.9530557 101.4346765 116.2796773  39.6527728 101.6900623
 105.2282256  31.7301942  98.5906202 105.8026008  31.5077123  97.8579394
 105.8153238  31.7990636  99.3434803 114.2861833  37.6175669  99.3970578
 114.7993715  38.2505661  99.8992288 114.9363057  37.0176864  99.0313938
 105.5551843  33.7606403  92.6102087 104.7189155  34.0981089  92.9311362
 105.4156613  33.6255383  91.6729224 107.5304924  28.6043191  97.3181271
 106.8769336  28.2892208  96.6937886 107.4885398  27.9818931  98.0441094
 108.6416128  38.8862486  89.2334563 107.7343190  38.6551739  89.4325712
 109.1387160  38.0900105  89.4208545 111.5484207  47.5959993  92.1531249
 110.8745906  47.8991690  92.7616207 111.9350029  48.3989073  91.8036706
 110.7642664  35.0925124 101.6428919 109.8465225  35.3140071 101.4850607
 111.1802808  35.1671435 100.7840626 111.5477712  36.4916540  96.7731599
 112.2949531  37.0037937  96.4638721 111.8169301  36.1700593  97.6335992
 109.8204362  38.9875081  93.7558553 108.9115581  38.7034113  93.8531023
 109.8499446  39.4074159  92.8961860 115.0523629  42.5981670  97.5249721
 114.5985956  41.7572580  97.5814911 114.4217596  43.2343068  97.8624501
 113.9956549  33.5273656  98.7550388 113.2579306  33.0151042  99.0860631
 114.2483322  33.0874038  97.9433665 113.4956569  44.4358167  98.4599539
 113.7879543  44.9963224  97.7411904 114.0055189  44.7286728  99.2152698
 100.3892532  36.7080595  97.7373755 100.1916932  36.1149955  97.0124822
  99.8339196  36.4032805  98.4549694 108.3689256  36.6003701  99.8568348
 108.4237866  35.6477538  99.7810825 107.5580458  36.7563140 100.3409647
 109.5180450  40.5283824  91.0946632 109.0799880  39.8119683  90.6352269
 110.2590891  40.7559939  90.5331723 106.3081616  35.2180761  97.6158727
 105.4949481  35.5174932  98.0223919 106.8040610  34.8236450  98.3333210
 108.4590194  45.2138518  99.5492992 108.4166372  45.4399364  98.6201524
 109.3752893  44.9801892  99.6978793 117.6353564  38.8041021  97.1522950
 117.4971463  38.9942617  96.2244139 117.2789783  39.5660404  97.6091001
 105.7995691  32.7899116 103.2319962 106.4395070  32.6487876 102.5342926
 104.9673221  32.5033630 102.8558564 106.5755994  42.0901547  99.3454955
 107.3696593  41.5951867  99.1437530 105.8647687  41.5619410  98.9822660
 111.3950839  44.4719642 103.6967322 111.4487861  45.0410579 104.4645038
 110.5265620  44.6421527 103.3321360 102.8838758  36.2344629  95.4214707
 101.9536346  36.1729084  95.6384670 102.9796230  35.7120581  94.6251349
 102.8024307  32.7599441  98.0092949 103.0631124  33.6744775  97.9002110
 103.6241479  32.2923884  98.1589562 104.2749232  34.1737199 105.1791774
 104.9472286  33.9654561 104.5304423 103.4479019  33.9759285 104.7397006
 110.3538939  38.6379904 105.2554254 111.2830999  38.7891064 105.0823222
 109.9329969  38.7263925 104.4002901 109.1527270  42.6630569 103.0252792
 109.0138356  42.2949353 103.8978730 108.3641867  43.1778208 102.8536750
 109.7475422  47.7639665  94.3678328 109.9227178  47.2927709  95.1823951
 109.0608210  48.3905432  94.5959589 110.7032486  42.0412172 100.4141630
 110.3682318  42.0012942 101.3099280 110.2036431  41.3756888  99.9412040
 104.6776730  37.4479802 105.9394211 104.5396528  36.7160040 106.5405750
 105.5881653  37.3588702 105.6578399 113.6391677  39.3868206  90.6878689
 113.0220848  38.6615034  90.5911742 113.1708166  40.1477566  90.3445764
 107.3059030  37.1599761 105.4277890 108.0158649  36.5192953 105.3864509
 107.2628338  37.4112656 106.3504071 104.3136508  50.9129028 101.1418189
 104.5533106  51.5447552 101.8197207 103.4705704  50.5617068 101.4283548
 105.4290223  33.6053630  89.8099994 104.5519689  33.4842431  89.4462240
 105.9047976  32.8139709  89.5578882  96.9492363  38.3930790  99.9041501
  97.6363403  38.0792520  99.3162516  96.7940492  39.2972155  99.6308752
 101.7527085  33.2820987 104.3326524 101.6685274  32.6746656 103.5976934
 100.9309792  33.7730005 104.3336021 108.8264370  46.7208151 103.5459693
 108.7534541  47.5263122 104.0578997 108.3841763  46.9200116 102.7207714
 108.6154149  45.9579921  97.0562514 107.8321671  46.5001601  97.1500739
 109.3146894  46.4753900  97.4556755 111.9250799  31.7674550  99.6996719
 112.4219499  31.0144512  99.3797790 111.1537781  31.8038867  99.1339929
 111.2863053  46.6194985 105.7017851 111.9991025  47.2542449 105.6293753
 110.7953082  46.7158851 104.8857853 113.0080580  40.5246237  97.2735143
 112.0736859  40.6447700  97.1039847 113.1857248  39.6218704  97.0095153
 108.5085768  33.9091933  99.4268404 108.1383556  33.3562973 100.1149310
 109.0044861  33.3050067  98.8743404 116.3953131  36.3663557  97.8085177
 116.8613584  37.1991548  97.7345480 116.8460632  35.9008538  98.5130435
 106.3374967  44.3689428 106.5223422 107.0384426  45.0025911 106.6752816
 105.8670082  44.7104160 105.7619061 114.4629362  42.7107378  94.8071329
 114.7389206  42.5963972  95.7165203 113.5933861  42.3124863  94.7683502
 111.0983426  46.9593729  98.4504143 111.2805821  46.1415385  98.9131895
 111.9216412  47.1761421  98.0129033 111.4325592  45.8861914  95.7119191
 111.9613358  45.3754368  95.0989353 111.6953812  45.5704444  96.5764724
 101.9342685  43.9025783 103.4554525 102.5196122  43.1569471 103.5882429
 101.7367523  44.2129740 104.3391189 104.7881340  46.9377031  98.4716967
 104.1191715  47.4223158  97.9881007 104.6494210  47.1846251  99.3860346
  96.5260339  36.4731383 102.1758968  96.5644439  35.9394974 102.9696086
  96.0200632  35.9466589 101.5569945 108.9286609  48.9720774 105.0699625
 109.4804917  49.1352396 105.8348711 109.2692802  49.5625212 104.3979650
 103.9051102  31.3195924 105.6721510 103.9692428  32.1810755 105.2598908
 103.8418222  30.7069925 104.9393869 100.1568917  35.1995485  95.2512899
 100.4522358  34.2906164  95.1979953  99.2556953  35.1783225  94.9293902
 112.0654996  46.9202750 102.0563308 111.9406135  46.1192489 101.5474253
 112.7234087  47.4148943 101.5677278 103.6863164  33.2751482 101.2340448
 102.9649750  33.8887450 101.0947921 104.4756420  33.8109247 101.1557094
 114.1289904  44.7211770 103.6842858 113.1820240  44.6017121 103.6121184
 114.4772677  43.8334268 103.7669119 101.8856759  32.8809583  95.3752224
 101.5569465  32.0006962  95.1927330 102.2396129  32.8257252  96.2628614
 111.1336337  44.5164486  99.8847210 110.9861300  43.5881193 100.0654780
 111.9589831  44.5384577  99.4004285 104.9998582  33.1682553  95.7427702
 105.3394654  33.6968474  95.0206310 105.4470702  33.5062959  96.5186269
 114.7370459  45.3393045 100.9712083 115.6617007  45.1335906 100.8336534
 114.5685763  45.0909446 101.8801424 106.9866729  31.6657175  93.9420995
 107.7075091  32.0438427  93.4384712 106.3632033  32.3846051  94.0455973
 111.1297852  32.3702324  94.8779327 111.3461466  33.2526961  94.5768155
 110.6491919  31.9788537  94.1484969 105.8697073  35.3288037 101.4550072
 105.7241654  35.6428340 102.3474353 105.3922277  35.9472937 100.9020970
 107.7293456  32.3190585 101.5030961 107.7155025  31.4231678 101.1663259
 108.4465884  32.3261248 102.1369247 114.5265776  45.8578712  96.3274174
 114.7002653  45.2925135  95.5748027 115.0194667  46.6579607  96.1453664
 100.3442735  37.8693381 104.3937733  99.7996203  38.6453189 104.5258007
 101.2222085  38.2164186 104.2356854 107.1330352  31.2004965  96.7718531
 107.2546263  30.2721611  96.9709419 106.8432394  31.2143651  95.8596847
 110.0021542  28.8859875  99.9085251 110.0243239  28.9499209  98.9537231
 110.4189601  28.0464384 100.1025757 120.3805167  38.6215135  97.9464474
 120.8236313  37.8722460  97.5483597 119.5031677  38.6125271  97.5638206
 115.5140948  45.1745476  93.4271072 116.2091853  45.7952169  93.6458387
 115.8564098  44.3240828  93.7023450 101.1308757  36.9963277 107.2867890
 100.3890493  37.1445913 107.8732520 100.8101501  37.2571543 106.4234639
 117.4132371  42.6245182  94.9558403 117.9383695  42.9632455  94.2307723
 117.3254724  41.6892197  94.7721538 109.0752420  46.5379256 107.0848280
 109.3839546  46.2928402 107.9570979 109.8727902  46.7425894 106.5967150
 109.0973032  48.6917165  99.3153656 108.6578022  48.1993544 100.0086513
 109.8481149  48.1490133  99.0745732 101.5765371  44.8828706  99.3178284
 102.4023391  44.5832478  98.9376928 101.2259423  44.1136329  99.7668073
 106.5446904  44.2355174 101.3875958 105.9226913  43.5725879 101.0878186
 107.2151771  44.2616306 100.7049606  99.7773976  42.8015033 100.2767218
  98.9405884  42.3737207 100.0951219  99.7497621  42.9947476 101.2138009
 106.1060411  42.7859098  94.8634419 106.2548531  43.4694562  94.2101091
 106.9126854  42.7664188  95.3783874 103.8613044  38.8124275  95.8695487
 103.6159086  37.9086605  96.0675698 104.0308958  38.8141426  94.9274965
 103.1308691  34.5452633  93.3681649 102.4377936  34.6196988  92.7121685
 102.8860443  33.7812977  93.8903166 109.6055816  45.2807228  92.3346166
 109.0329784  45.8997415  91.8816638 110.1788610  45.8306590  92.8686088
 112.8253076  45.5644378  93.4654748 113.7583749  45.4989940  93.6687624
 112.7376289  46.4000645  93.0069281 115.4541093  44.8810249  90.4258696
 115.3754724  44.5470112  91.3194454 116.2750760  45.3732017  90.4250168
 109.9902615  36.6168041  89.6762218 110.9361720  36.4874249  89.7450637
 109.6116860  35.8782703  90.1531647 108.1745532  34.5418017  89.6117104
 107.2676988  34.2451130  89.6879817 108.4521513  34.2447835  88.7451390
  99.0923472  35.8624381 100.0616150  98.7726257  35.0089689  99.7690524
  98.5456901  36.0772959 100.8174117 102.8703380  38.5786822 103.7785657
 103.0889390  39.5103929 103.7973690 103.2829154  38.2194796 104.5640460
 109.7907598  29.0854907  95.7661345 108.9808326  28.7401992  96.1416591
 110.4792015  28.7762451  96.3548957 111.7198146  28.1632954  97.3885642
 112.2729185  28.5828407  98.0475665 111.9568232  27.2368702  97.4308598
 106.9444317  31.4004952  89.7529083 107.8063481  31.7259851  90.0124900
 107.1294661  30.6136448  89.2402149  98.9611732  39.4827292 102.0309272
  98.2675204  39.0681245 101.5179226  99.7084723  39.5247829 101.4342691
 115.0976953  30.2733479  96.8964306 114.5175622  30.9318283  96.5142358
 114.8312886  29.4510824  96.4851723 100.8748475  39.4145546  99.9075287
 100.8519163  39.5133233  98.9557170 101.1849112  40.2610697 100.2292453
 103.5335853  41.4721701 104.0221901 104.4879106  41.4405643 103.9551833
 103.3348376  41.0112325 104.8372127 104.1235235  40.0422817 106.5892699
 104.9428124  40.5366896 106.6127536 104.3972043  39.1254785 106.5610266
 113.8801831  32.4333569  95.9520654 112.9927686  32.7183220  95.7340849
 114.2955820  32.2727333  95.1047931 101.8886082  47.0141320 101.0392099
 101.7540550  46.2541721 100.4730097 101.4718144  47.7382220 100.5720888
 113.0245045  42.1978244  90.0468674 113.7280895  42.4028246  90.6626330
 112.3007693  42.7655006  90.3117758 113.8542855  37.9488105  96.1670944
 113.7978056  38.4056657  95.3278577 114.4071197  37.1878790  95.9893787
 117.6647661  33.7377837  96.9921064 117.4084595  33.3374473  97.8229272
 117.0400529  34.4521631  96.8671203 105.0455208  47.9110637 101.2510542
 104.9287592  48.8556070 101.1489232 104.2247654  47.6084199 101.6396341
 114.9331742  42.6360773  92.0967134 115.7677346  42.2041972  91.9144609
 114.7716085  42.4642787  93.0244029 114.5877634  39.1392887  93.4623474
 114.5326438  38.9737158  92.5211918 113.9623690  39.8468919  93.6185663
  99.3770149  34.3760951 107.2884896 100.0229013  33.8659905 107.7772121
  99.1687300  35.1129633 107.8628321 107.8973760  28.6400996  93.0408792
 107.8852430  29.5842835  93.1977063 108.7897182  28.4571141  92.7468253
 106.0709722  48.5638899 104.4666470 106.9736968  48.5962510 104.7832965
 105.8447092  47.6339350 104.4812806 107.8263324  47.3169886 101.1276549
 106.8758955  47.3171748 101.0140921 108.1295810  46.5702620 100.6112583
 120.3705723  53.1057852 102.1283836 120.0324235  52.9898917 101.2404371
 121.2395492  52.7049018 102.1084842 116.2292539  54.9593329  98.1180727
 115.6657404  54.8683266  97.3497014 116.1144934  54.1393233  98.5983219
 113.7756971  56.4544520 100.9564947 114.5678263  56.1135345 100.5411246
 114.0153621  56.5639495 101.8767100 115.7347725  55.7153434  93.8282326
 116.5078601  55.1682421  93.6895202 116.0873124  56.5797683  94.0396787
 117.5732768  57.0429816 107.0349225 117.2822634  57.9475447 106.9195891
 118.2089752  57.0846344 107.7493295 118.4988974  54.4206664 103.6250585
 119.0952547  54.1962687 102.9107548 118.5563946  53.6791410 104.2276033
 118.0714003  51.8746100  91.4600776 118.3239524  51.3527621  90.6984239
 117.1338562  51.7112245  91.5627459 117.7910292  53.7774206  93.6625151
 117.6746550  53.1019109  94.3306235 117.9012551  53.2906580  92.8457304
 120.1341833  53.2384353  97.3671840 119.7700040  52.7114974  98.0784761
 120.9908948  52.8482822  97.1938325 119.7747320  48.2674253  92.3633188
 119.9421722  49.1354489  92.7303660 119.5844489  48.4301534  91.4394478
 115.9835134  53.1805028 100.0635723 115.0585631  53.0481242 100.2713415
 116.2319547  53.9599248 100.5605666 119.7536540  50.7231910  93.3479855
 119.6336166  51.1688961  94.1865336 119.0589129  51.0717228  92.7893393
 113.3443945  52.8238302 100.8979512 113.4736326  53.0772781 101.8118924
 112.6641397  53.4166010 100.5784167 117.5143432  63.4935552  96.9969987
 117.4367462  64.4443377  97.0758467 116.9105076  63.1481424  97.6544913
 119.6119151  55.9153610  98.8323856 120.0757496  56.1941313  98.0428478
 119.3475949  55.0137054  98.6496947 116.5043232  55.4625091 101.7703619
 117.0744589  55.8912360 101.1321104 117.0951344  55.1807676 102.4687805
 118.5488037  52.0376762  95.6413421 119.2512080  52.4897806  96.1087347
 118.2168665  51.3960581  96.2693314 112.2913371  50.2960315 100.9430555
 111.5012425  50.5517843 100.4670665 112.7824618  51.1108653 101.0482595
 114.2428116  50.6604894  97.9014031 113.4459279  50.7723588  98.4197527
 114.0153708  50.9991546  97.0354922 120.0733784  57.1849597 105.8496546
 120.1378216  57.6470005 106.6854718 119.3644708  56.5546962 105.9778856
 110.5751074  50.5490805 103.3745545 110.8259112  51.4337815 103.6403121
 111.1110622  50.3695407 102.6020637 119.7881801  58.8517705  95.7175526
 119.6527476  59.6969240  96.1460374 120.3291614  59.0536982  94.9541460
 113.2411199  56.3693143  96.2903451 113.7535719  57.1636393  96.4409016
 113.8933912  55.6719433  96.2237053 115.0506084  59.4858899  98.3726205
 115.2272712  60.4076864  98.1847188 115.8462917  59.1717318  98.8020584
 114.3358440  51.5323531 108.2488368 114.2211955  50.6308788 108.5495467
 113.4802958  51.7787228 107.8973184 116.1737399  61.0037073 104.3736547
 116.7244824  60.8754136 103.6013541 115.3348875  61.3031962 104.0231440
 119.9704570  57.2688201 108.7180778 120.5032907  56.5076489 108.4880086
 119.4418651  56.9761852 109.4604932 111.2060116  54.6981797  97.0663022
 112.0435338  55.1078805  96.8496730 111.3838383  53.7581239  97.0363216
 120.6871659  47.2106579  97.8132093 119.8313255  46.8213429  97.6337732
 121.0998610  47.2898539  96.9531879 118.4613691  44.8291652 101.2189835
 119.3266688  44.6334460 100.8595724 118.5291200  44.6002003 102.1459191
 121.3357283  56.3974193  96.2299590 120.8078644  55.6626953  95.9172827
 120.8344785  57.1748870  95.9839558 116.0676010  47.0593859  98.5906202
 116.6419762  46.8369041  97.8579394 116.6546993  47.1282554  99.3434803
 116.3945597  49.0898320  92.6102087 115.5582910  49.4273007  92.9311362
 116.2550367  48.9547300  91.6729224 118.3698678  43.9335108  97.3181271
 117.7163090  43.6184126  96.6937886 118.3279152  43.3110849  98.0441094
 119.4809883  54.2154403  89.2334563 118.5736945  53.9843657  89.4325712
 119.9780915  53.4192023  89.4208545 120.6598116  54.3166998  93.7558553
 119.7509336  54.0326031  93.8531023 120.6893200  54.7366077  92.8961860
 111.2286287  52.0372512  97.7373755 111.0310687  51.4441873  97.0124822
 110.6732951  51.7324723  98.4549694 119.2083010  51.9295619  99.8568348
 119.2631620  50.9769455  99.7810825 118.3974212  52.0855058 100.3409647
 120.3574204  55.8575742  91.0946632 119.9193634  55.1411601  90.6352269
 121.0984645  56.0851857  90.5331723 117.1475370  50.5472679  97.6158727
 116.3343236  50.8466849  98.0223919 117.6434364  50.1528367  98.3333210
 119.2983948  60.5430436  99.5492992 119.2560127  60.7691282  98.6201524
 120.2146647  60.3093810  99.6978793 116.6389445  48.1191034 103.2319962
 117.2788824  47.9779793 102.5342926 115.8066976  47.8325548 102.8558564
 117.4149749  57.4193465  99.3454955 118.2090347  56.9243785  99.1437530
 116.7041441  56.8911328  98.9822660 113.7232512  51.5636546  95.4214707
 112.7930101  51.5021002  95.6384670 113.8189984  51.0412499  94.6251349
 113.6418061  48.0891359  98.0092949 113.9024879  49.0036692  97.9002110
 114.4635234  47.6215802  98.1589562 115.1142987  49.5029116 105.1791774
 115.7866040  49.2946478 104.5304423 114.2872773  49.3051202 104.7397006
 119.9921025  57.9922487 103.0252792 119.8532111  57.6241271 103.8978730
 119.2035621  58.5070126 102.8536750 120.5869177  63.0931583  94.3678328
 120.7620933  62.6219626  95.1823951 119.9001965  63.7197349  94.5959589
 115.5170484  52.7771719 105.9394211 115.3790282  52.0451958 106.5405750
 116.4275408  52.6880619 105.6578399 118.1452785  52.4891679 105.4277890
 118.8552403  51.8484871 105.3864509 118.1022093  52.7404573 106.3504071
 115.1530262  66.2420946 101.1418189 115.3926860  66.8739470 101.8197207
 114.3099459  65.8908986 101.4283548 116.2683978  48.9345548  89.8099994
 115.3913444  48.8134349  89.4462240 116.7441731  48.1431626  89.5578882
 107.7886118  53.7222708  99.9041501 108.4757158  53.4084438  99.3162516
 107.6334246  54.6264072  99.6308752 112.5920840  48.6112904 104.3326524
 112.5079029  48.0038574 103.5976934 111.7703546  49.1021923 104.3336021
 119.6658124  62.0500068 103.5459693 119.5928296  62.8555040 104.0578997
 119.2235517  62.2492034 102.7207714 119.4547904  61.2871838  97.0562514
 118.6715426  61.8293518  97.1500739 120.1540649  61.8045818  97.4556755
 119.3479523  49.2383851  99.4268404 118.9777310  48.6854891 100.1149310
 119.8438615  48.6341984  98.8743404 117.1768721  59.6981346 106.5223422
 117.8778181  60.3317829 106.6752816 116.7063836  60.0396077 105.7619061
 112.7736439  59.2317701 103.4554525 113.3589876  58.4861389 103.5882429
 112.5761278  59.5421658 104.3391189 115.6275094  62.2668948  98.4716967
 114.9585470  62.7515076  97.9881007 115.4887964  62.5138169  99.3860346
 107.3654094  51.8023301 102.1758968 107.4038193  51.2686892 102.9696086
 106.8594387  51.2758507 101.5569945 119.7680363  64.3012692 105.0699625
 120.3198671  64.4644313 105.8348711 120.1086556  64.8917130 104.3979650
 114.7444856  46.6487842 105.6721510 114.8086183  47.5102672 105.2598908
 114.6811976  46.0361843 104.9393869 110.9962672  50.5287403  95.2512899
 111.2916113  49.6198082  95.1979953 110.0950707  50.5075143  94.9293902
 114.5256919  48.6043400 101.2340448 113.8043504  49.2179367 101.0947921
 115.3150174  49.1401165 101.1557094 112.7250513  48.2101501  95.3752224
 112.3963219  47.3298880  95.1927330 113.0789884  48.1549170  96.2628614
 115.8392336  48.4974471  95.7427702 116.1788409  49.0260392  95.0206310
 116.2864457  48.8354877  96.5186269 117.8260483  46.9949092  93.9420995
 118.5468846  47.3730345  93.4384712 117.2025788  47.7137969  94.0455973
 116.7090828  50.6579954 101.4550072 116.5635408  50.9720257 102.3474353
 116.2316031  51.2764855 100.9020970 118.5687211  47.6482502 101.5030961
 118.5548779  46.7523596 101.1663259 119.2859639  47.6553166 102.1369247
 111.1836490  53.1985299 104.3937733 110.6389958  53.9745107 104.5258007
 112.0615840  53.5456103 104.2356854 117.9724106  46.5296883  96.7718531
 118.0940018  45.6013529  96.9709419 117.6826149  46.5435569  95.8596847
 120.8415297  44.2151793  99.9085251 120.8636994  44.2791126  98.9537231
 121.2583356  43.3756302 100.1025757 111.9702512  52.3255195 107.2867890
 111.2284248  52.4737830 107.8732520 111.6495256  52.5863461 106.4234639
 119.9146174  61.8671173 107.0848280 120.2233301  61.6220320 107.9570979
 120.7121656  62.0717812 106.5967150 119.9366786  64.0209083  99.3153656
 119.4971777  63.5285462 100.0086513 120.6874903  63.4782051  99.0745732
 112.4159125  60.2120624  99.3178284 113.2417145  59.9124396  98.9376928
 112.0653177  59.4428246  99.7668073 117.3840659  59.5647092 101.3875958
 116.7620668  58.9017797 101.0878186 118.0545525  59.5908224 100.7049606
 110.6167730  58.1306950 100.2767218 109.7799639  57.7029125 100.0951219
 110.5891376  58.3239394 101.2138009 116.9454165  58.1151015  94.8634419
 117.0942286  58.7986480  94.2101091 117.7520609  58.0956105  95.3783874
 114.7006798  54.1416193  95.8695487 114.4552840  53.2378523  96.0675698
 114.8702713  54.1433343  94.9274965 113.9702446  49.8744551  93.3681649
 113.2771691  49.9488906  92.7121685 113.7254198  49.1104894  93.8903166
 120.4449571  60.6099146  92.3346166 119.8723538  61.2289333  91.8816638
 121.0182365  61.1598507  92.8686088 119.0139287  49.8709935  89.6117104
 118.1070742  49.5743048  89.6879817 119.2915268  49.5739753  88.7451390
 109.9317227  51.1916298 100.0616150 109.6120011  50.3381607  99.7690524
 109.3850655  51.4064876 100.8174117 113.7097135  53.9078739 103.7785657
 113.9283144  54.8395847 103.7973690 114.1222908  53.5486714 104.5640460
 120.6301352  44.4146825  95.7661345 119.8202081  44.0693910  96.1416591
 121.3185769  44.1054368  96.3548957 117.7838071  46.7296870  89.7529083
 118.6457235  47.0551768  90.0124900 117.9688415  45.9428366  89.2402149
 109.8005487  54.8119210 102.0309272 109.1068958  54.3973163 101.5179226
 110.5478478  54.8539746 101.4342691 111.7142230  54.7437464  99.9075287
 111.6912918  54.8425151  98.9557170 112.0242866  55.5902614 100.2292453
 114.3729607  56.8013619 104.0221901 115.3272861  56.7697561 103.9551833
 114.1742131  56.3404242 104.8372127 114.9628990  55.3714735 106.5892699
 115.7821879  55.8658813 106.6127536 115.2365797  54.4546703 106.5610266
 112.7279836  62.3433238 101.0392099 112.5934304  61.5833639 100.4730097
 112.3111898  63.0674138 100.5720888 115.8848962  63.2402555 101.2510542
 115.7681346  64.1847988 101.1489232 115.0641408  62.9376117 101.6396341
 110.2163904  49.7052869 107.2884896 110.8622767  49.1951823 107.7772121
 110.0081055  50.4421550 107.8628321 118.7367514  43.9692913  93.0408792
 118.7246184  44.9134753  93.1977063 119.6290936  43.7863059  92.7468253
 116.9103476  63.8930817 104.4666470 117.8130723  63.9254427 104.7832965
 116.6840846  62.9631268 104.4812806 118.6657078  62.6461804 101.1276549
 117.7152709  62.6463665 101.0140921 118.9689564  61.8994538 100.6112583
 118.6279872  69.0514625  99.9041501 119.3150912  68.7376355  99.3162516
 118.4728001  69.9555990  99.6308752 118.2047848  67.1315219 102.1758968
 118.2431948  66.5978809 102.9696086 117.6988141  66.6050424 101.5569945
 121.4561485  73.4598868 100.2767218 120.6193393  73.0321042 100.0951219
 121.4285130  73.6531311 101.2138009 120.7710981  66.5208216 100.0616150
 120.4513766  65.6673524  99.7690524 120.2244410  66.7356794 100.8174117
 120.6399241  70.1411128 102.0309272 119.9462713  69.7265080 101.5179226
 121.3872232  70.1831664 101.4342691  95.8355925   9.8413839  83.7215293
  95.7579954  10.7921664  83.8003774  95.2317568   9.4959712  84.3790219
  93.4742754  12.5899233  87.8663495  93.7139353  13.2217757  88.5442514
  92.6311951  12.2387273  88.1528854  93.9487587   8.6147235  85.1962274
  93.2797962   9.0993363  84.7126314  93.8100456   8.8616456  86.1105652
  98.0892855  10.6490979  91.7944932  98.6411163  10.8122600  92.5594017
  98.4299049  11.2395417  91.1224957  91.0492328   8.6911525  87.7637406
  90.9146796   7.9311926  87.1975404  90.6324391   9.4152425  87.2966194
  94.2061454   9.5880842  87.9755848  94.0893838  10.5326275  87.8734538
  93.3853901   9.2854404  88.3641647  95.2315968  10.2409104  91.1911777
  96.1343215  10.2732715  91.5078272  95.0053339   9.3109555  91.2058112
 109.5311970  14.7828057  88.8529142 109.1930482  14.6669122  87.9649677
 110.4001738  14.3819222  88.8330148 105.3898786  16.6363534  84.8426033
 104.8263651  16.5453471  84.0742321 105.2751181  15.8163438  85.3228526
 102.9363218  18.1314725  87.6810254 103.7284510  17.7905550  87.2656553
 103.1759868  18.2409700  88.6012407 110.9698345  20.3034501  80.1540498
 110.3186324  20.8888582  79.7674512 111.7642707  20.8340696  80.2135536
 104.8953972  17.3923639  80.5527632 105.6684848  16.8452626  80.4140508
 105.2479371  18.2567888  80.7642094 106.7339014  18.7200021  93.7594532
 106.4428880  19.6245652  93.6441198 107.3695999  18.7616548  94.4738601
 107.6595221  16.0976869  90.3495891 108.2558793  15.8732892  89.6352854
 107.7170193  15.3561615  90.9521339 112.4473610  17.9924933  80.6909482
 111.8119443  18.0659560  81.4030387 112.1171016  18.5818532  80.0128562
 106.9516538  15.4544411  80.3870457 106.8352796  14.7789314  81.0551542
 107.0618798  14.9676785  79.5702610 109.2948079  14.9154558  84.0917147
 108.9306287  14.3885179  84.8030068 110.1515195  14.5253027  83.9183632
 111.6928899  18.4061436  90.7544325 111.3929623  19.3086475  90.6460133
 111.3479959  18.1393620  91.6065478 105.1441381  14.8575233  86.7881030
 104.2191877  14.7251447  86.9958722 105.3925794  15.6369452  87.2850972
 102.5050192  14.5008507  87.6224819 102.6342573  14.7542986  88.5364231
 101.8247643  15.0936215  87.3029474 106.6749679  25.1705757  83.7215293
 106.5973709  26.1213582  83.8003774 106.0711323  24.8251629  84.3790219
 113.2197436  17.8549407  88.2919077 112.5906298  18.0195121  87.5895145
 112.8323098  18.2691016  89.0630041 117.0986668  18.7903844  85.6463441
 116.4137706  19.1702746  85.0960475 117.1830517  19.3999171  86.3795389
 108.7725397  17.5923815  85.5569163 109.2363743  17.8711518  84.7673785
 108.5082196  16.6907259  85.3742253 105.6649479  17.1395296  88.4948926
 106.2350836  17.5682565  87.8566410 106.2557590  16.8577881  89.1933111
 101.4519618  11.9730520  87.6675861 100.6618671  12.2288048  87.1915972
 101.9430865  12.7878858  87.7727902 103.4034363  12.3375099  84.6259338
 102.6065526  12.4493793  85.1442834 103.1759955  12.6761751  83.7600228
 109.2340031  18.8619802  92.5741853 109.2984463  19.3240209  93.4100024
 108.5250954  18.2317167  92.7024162  99.7357320  12.2261010  90.0990852
  99.9865359  13.1108020  90.3648428 100.2716869  12.0465612  89.3265944
 108.9488048  20.5287910  82.4420833 108.8133723  21.3739445  82.8705681
 109.4897861  20.7307187  81.6786767 102.4017446  18.0463348  83.0148758
 102.9141966  18.8406598  83.1654323 103.0540158  17.3489638  82.9482359
 104.2112330  21.1629104  85.0971511 104.3878959  22.0847069  84.9092495
 105.0069164  20.8487523  85.5265891 103.4964687  13.2093736  94.9733674
 103.3818202  12.3078993  95.2740773 102.6409205  13.4557433  94.6218491
 105.3343646  22.6807278  91.0981854 105.8851071  22.5524341  90.3258847
 104.4955122  22.9802167  90.7476746 109.1310817  18.9458406  95.4426085
 109.6639154  18.1846694  95.2125393 108.6024898  18.6532057  96.1850239
 100.3666362  16.3752002  83.7908329 101.2041584  16.7849010  83.5742036
 100.5444630  15.4351444  83.7608522 110.4963529  18.0744398  82.9544897
 109.9684891  17.3397158  82.6418134 109.9951032  18.8519074  82.7084865
 115.4756376  16.2693419  88.0711943 114.8180050  16.9592680  88.1592072
 116.2796775  16.6589851  88.4145929 108.6416130  15.8924608  75.9579870
 107.7343191  15.6613862  76.1571019 109.1387162  15.0962228  76.1453851
 111.5484209  24.6022116  78.8776556 110.8745907  24.9053812  79.4861514
 111.9350031  25.4051196  78.5282013 109.8204363  15.9937203  80.4803860
 108.9115582  15.7096236  80.5776330 109.8499447  16.4136282  79.6207167
 115.0523631  19.6043793  84.2495027 114.5985958  18.7634703  84.3060218
 114.4217597  20.2405191  84.5869807 113.4956570  21.4420289  85.1844845
 113.7879544  22.0025347  84.4657211 114.0055190  21.7348850  85.9398005
 100.3892533  13.7142717  84.4619062 100.1916933  13.1212078  83.7370129
  99.8339197  13.4094928  85.1795001 109.5180451  17.5345947  77.8191938
 109.0799881  16.8181806  77.3597576 110.2590892  17.7622062  77.2577030
 108.4590195  22.2200640  86.2738299 108.4166374  22.4461487  85.3446831
 109.3752894  21.9864015  86.4224100 106.5755996  19.0963670  86.0700261
 107.3696594  18.6013990  85.8682836 105.8647688  18.5681533  85.7067967
 111.3950840  21.4781765  90.4212629 111.4487862  22.0472701  91.1890345
 110.5265622  21.6483650  90.0566666 102.8838759  13.2406751  82.1460014
 101.9536347  13.1791207  82.3629976 102.9796231  12.7182704  81.3496655
 110.3538940  15.6442027  91.9799561 111.2831000  15.7953187  91.8068528
 109.9329970  15.7326048  91.1248207 109.1527272  19.6692691  89.7498098
 109.0138357  19.3011476  90.6224037 108.3641868  20.1840331  89.5782056
 109.7475424  24.7701788  81.0923635 109.9227179  24.2989831  81.9069258
 109.0608212  25.3967554  81.3204896 110.7032487  19.0474294  87.1386936
 110.3682319  19.0075064  88.0344586 110.2036433  18.3819010  86.6657347
 104.6776731  14.4541924  92.6639517 104.5396529  13.7222163  93.2651056
 105.5881654  14.3650824  92.3823705 113.6391679  16.3930329  77.4123996
 113.0220849  15.6677157  77.3157049 113.1708167  17.1539689  77.0691070
 107.3059031  14.1661884  92.1523197 108.0158650  13.5255076  92.1109816
 107.2628340  14.4174778  93.0749378 104.3136509  27.9191151  87.8663495
 104.5533107  28.5509675  88.5442514 103.4705705  27.5679191  88.1528854
  96.9492365  15.3992913  86.6286807  97.6363404  15.0854643  86.0407823
  96.7940493  16.3034277  86.3554059 108.8264371  23.7270273  90.2704999
 108.7534542  24.5325245  90.7824304 108.3841764  23.9262239  89.4453021
 108.6154150  22.9642043  83.7807821 107.8321672  23.5063723  83.8746045
 109.3146896  23.4816023  84.1802062 111.2863054  23.6257107  92.4263158
 111.9991027  24.2604572  92.3539059 110.7953083  23.7220973  91.6103160
 113.0080581  17.5308360  83.9980450 112.0736860  17.6509822  83.8285154
 113.1857250  16.6280827  83.7340459 106.3374968  21.3751551  93.2468729
 107.0384427  22.0088034  93.3998123 105.8670083  21.7166282  92.4864368
 114.4629364  19.7169500  81.5316636 114.7389208  19.6026095  82.4410510
 113.5933862  19.3186985  81.4928809 111.0983428  23.9655851  85.1749449
 111.2805822  23.1477507  85.6377202 111.9216414  24.1823544  84.7374339
 111.4325593  22.8924036  82.4364498 111.9613360  22.3816491  81.8234660
 111.6953813  22.5766567  83.3010031 101.9342686  20.9087906  90.1799831
 102.5196123  20.1631594  90.3127736 101.7367524  21.2191862  91.0636495
 104.7881341  23.9439153  85.1962274 104.1191716  24.4285281  84.7126314
 104.6494211  24.1908374  86.1105652  96.5260341  13.4793506  88.9004274
  96.5644440  12.9457097  89.6941393  96.0200634  12.9528711  88.2815252
 108.9286610  25.9782897  91.7944932 109.4804918  26.1414518  92.5594017
 109.2692803  26.5687334  91.1224957 100.1568918  12.2057608  81.9758206
 100.4522359  11.2968286  81.9225260  99.2556954  12.1845348  81.6539208
 112.0654997  23.9264872  88.7808614 111.9406136  23.1254612  88.2719560
 112.7234088  24.4211066  88.2922584 114.1289905  21.7273892  90.4088164
 113.1820241  21.6079243  90.3366491 114.4772679  20.8396390  90.4914426
 111.1336339  21.5226608  86.6092517 110.9861301  20.5943316  86.7900087
 111.9589832  21.5446699  86.1249592 114.7370461  22.3455167  87.6957389
 115.6617008  22.1398029  87.5581840 114.5685764  22.0971568  88.6046731
 114.5265777  22.8640835  83.0519481 114.7002654  22.2987257  82.2993333
 115.0194668  23.6641730  82.8698971 100.3442737  14.8755504  91.1183040
  99.7996205  15.6515312  91.2503314 101.2222086  15.2226308  90.9602161
 115.5140949  22.1807599  80.1516379 116.2091854  22.8014292  80.3703694
 115.8564099  21.3302950  80.4268757 101.1308758  14.0025400  94.0113196
 100.3890494  14.1508035  94.5977827 100.8101503  14.2633666  93.1479946
 117.4132372  19.6307305  81.6803710 117.9383696  19.9694577  80.9553030
 117.3254725  18.6954320  81.4966844 109.0752421  23.5441378  93.8093586
 109.3839548  23.2990525  94.6816286 109.8727903  23.7488017  93.3212457
 109.0973033  25.6979288  86.0398963 108.6578023  25.2055667  86.7331820
 109.8481150  25.1552256  85.7991038 101.5765372  21.8890829  86.0423591
 102.4023392  21.5894601  85.6622235 101.2259424  21.1198451  86.4913380
 106.5446905  21.2417297  88.1121265 105.9226915  20.5788002  87.8123493
 107.2151772  21.2678429  87.4294912  99.7773977  19.8077155  87.0012525
  98.9405885  19.3799330  86.8196526  99.7497623  20.0009599  87.9383316
 106.1060412  19.7921220  81.5879725 106.2548533  20.4756685  80.9346398
 106.9126856  19.7726310  82.1029181 103.8613045  15.8186398  82.5940794
 103.6159087  14.9148728  82.7921004 104.0308960  15.8203548  81.6520272
 109.6055818  22.2869351  79.0591473 109.0329785  22.9059538  78.6061944
 110.1788611  22.8368712  79.5931395 112.8253077  22.5706501  80.1900055
 113.7583751  22.5052063  80.3932930 112.7376290  23.4062768  79.7314588
 115.4541094  21.8872371  77.1504002 115.3754726  21.5532235  78.0439760
 116.2750761  22.3794139  77.1495475  99.0923474  12.8686503  86.7861457
  98.7726258  12.0151811  86.4935831  98.5456902  13.0835081  87.5419424
 102.8703381  15.5848944  90.5030963 103.0889391  16.5166052  90.5218997
 103.2829155  15.2256919  91.2885767  98.9611734  16.4889415  88.7554578
  98.2675205  16.0743368  88.2424533  99.7084725  16.5309951  88.1587997
 100.8748476  16.4207669  86.6320593 100.8519164  16.5195356  85.6802476
 101.1849113  17.2672819  86.9537759 103.5335854  18.4783824  90.7467208
 104.4879108  18.4467766  90.6797139 103.3348378  18.0174447  91.5617434
 104.1235236  17.0484940  93.3138005 104.9428125  17.5429018  93.3372843
 104.3972044  16.1316908  93.2855573 101.8886083  24.0203443  87.7637406
 101.7540551  23.2603844  87.1975404 101.4718145  24.7444343  87.2966194
 113.0245046  19.2040367  76.7713981 113.7280896  19.4090369  77.3871636
 112.3007695  19.7717128  77.0363064 105.0455209  24.9172760  87.9755848
 104.9287593  25.8618193  87.8734538 104.2247655  24.6146322  88.3641647
 114.9331743  19.6422896  78.8212441 115.7677347  19.2104094  78.6389916
 114.7716086  19.4704909  79.7489335 114.5877636  16.1455009  80.1868780
 114.5326439  15.9799281  79.2457224 113.9623691  16.8531042  80.3430970
  99.3770151  11.3823073  94.0130202 100.0229014  10.8722027  94.5017428
  99.1687302  12.1191755  94.5873628 106.0709723  25.5701022  91.1911777
 106.9736970  25.6024632  91.5078272 105.8447093  24.6401473  91.2058112
 107.8263325  24.3232009  87.8521855 106.8758956  24.3233870  87.7386227
 108.1295811  23.5764743  87.3357890 120.3705725  30.1119975  88.8529142
 120.0324236  29.9961040  87.9649677 121.2395493  29.7111140  88.8330148
 116.2292540  31.9655451  84.8426033 115.6657406  31.8745388  84.0742321
 116.1144935  31.1455356  85.3228526 113.7756972  33.4606643  87.6810254
 114.5678264  33.1197468  87.2656553 114.0153623  33.5701618  88.6012407
 115.7347726  32.7215556  80.5527632 116.5078602  32.1744543  80.4140508
 116.0873125  33.5859806  80.7642094 117.5732769  34.0491939  93.7594532
 117.2822635  34.9537569  93.6441198 118.2089753  34.0908466  94.4738601
 118.4988976  31.4268787  90.3495891 119.0952548  31.2024809  89.6352854
 118.5563947  30.6853533  90.9521339 118.0714004  28.8808222  78.1846082
 118.3239525  28.3589744  77.4229545 117.1338563  28.7174368  78.2872766
 117.7910293  30.7836328  80.3870457 117.6746551  30.1081232  81.0551542
 117.9012553  30.2968702  79.5702610 120.1341834  30.2446475  84.0917147
 119.7700041  29.7177096  84.8030068 120.9908950  29.8544945  83.9183632
 119.7747321  25.2736375  79.0878495 119.9421723  26.1416612  79.4548966
 119.5844490  25.4363657  78.1639784 115.9835135  30.1867151  86.7881030
 115.0585632  30.0543365  86.9958722 116.2319549  30.9661370  87.2850972
 119.7536542  27.7294033  80.0725162 119.6336167  28.1751083  80.9110642
 119.0589130  28.0779350  79.5138700 113.3443946  29.8300424  87.6224819
 113.4736328  30.0834903  88.5364231 112.6641398  30.4228132  87.3029474
 117.5143434  40.4997674  83.7215293 117.4367463  41.4505499  83.8003774
 116.9105077  40.1543547  84.3790219 119.6119152  32.9215732  85.5569163
 120.0757498  33.2003435  84.7673785 119.3475950  32.0199177  85.3742253
 116.5043233  32.4687214  88.4948926 117.0744590  32.8974482  87.8566410
 117.0951345  32.1869799  89.1933111 118.5488038  29.0438885  82.3658728
 119.2512081  29.4959928  82.8332654 118.2168667  28.4022704  82.9938621
 112.2913372  27.3022437  87.6675861 111.5012426  27.5579966  87.1915972
 112.7824619  28.1170775  87.7727902 114.2428117  27.6667017  84.6259338
 113.4459281  27.7785711  85.1442834 114.0153710  28.0053669  83.7600228
 120.0733785  34.1911720  92.5741853 120.1378218  34.6532127  93.4100024
 119.3644709  33.5609085  92.7024162 110.5751075  27.5552928  90.0990852
 110.8259113  28.4399938  90.3648428 111.1110623  27.3757529  89.3265944
 119.7881803  35.8579827  82.4420833 119.6527477  36.7031363  82.8705681
 120.3291615  36.0599105  81.6786767 113.2411200  33.3755265  83.0148758
 113.7535721  34.1698516  83.1654323 113.8933913  32.6781556  82.9482359
 115.0506085  36.4921022  85.0971511 115.2272713  37.4138986  84.9092495
 115.8462918  36.1779441  85.5265891 114.3358441  28.5385654  94.9733674
 114.2211956  27.6370911  95.2740773 113.4802959  28.7849350  94.6218491
 116.1737400  38.0099195  91.0981854 116.7244825  37.8816259  90.3258847
 115.3348876  38.3094084  90.7476746 119.9704571  34.2750323  95.4426085
 120.5032908  33.5138611  95.2125393 119.4418652  33.9823975  96.1850239
 111.2060117  31.7043920  83.7908329 112.0435339  32.1140928  83.5742036
 111.3838385  30.7643362  83.7608522 120.6871660  24.2168701  84.5377400
 119.8313256  23.8275552  84.3583039 121.0998612  24.2960662  83.6777185
 118.4613693  21.8353774  87.9435141 119.3266689  21.6396583  87.5841031
 118.5291201  21.6064126  88.8704498 121.3357284  33.4036316  82.9544897
 120.8078646  32.6689075  82.6418134 120.8344787  34.1810992  82.7084865
 116.0676012  24.0655982  85.3151508 116.6419763  23.8431164  84.5824701
 116.6546994  24.1344677  86.0680109 116.3945599  26.0960443  79.3347393
 115.5582911  26.4335130  79.6556668 116.2550368  25.9609423  78.3974530
 118.3698679  20.9397231  84.0426578 117.7163092  20.6246248  83.4183192
 118.3279153  20.3172971  84.7686401 119.4809884  31.2216526  75.9579870
 118.5736946  30.9905779  76.1571019 119.9780916  30.4254145  76.1453851
 120.6598118  31.3229121  80.4803860 119.7509337  31.0388154  80.5776330
 120.6893201  31.7428199  79.6207167 111.2286288  29.0434635  84.4619062
 111.0310688  28.4503996  83.7370129 110.6732952  28.7386845  85.1795001
 119.2083012  28.9357741  86.5813655 119.2631621  27.9831578  86.5056132
 118.3974214  29.0917181  87.0654954 120.3574205  32.8637865  77.8191938
 119.9193635  32.1473723  77.3597576 121.0984646  33.0913979  77.2577030
 117.1475372  27.5534801  84.3404034 116.3343237  27.8528972  84.7469226
 117.6434366  27.1590490  85.0578516 119.2983949  37.5492558  86.2738299
 119.2560128  37.7753404  85.3446831 120.2146648  37.3155933  86.4224100
 116.6389446  25.1253157  89.9565269 117.2788826  24.9841916  89.2588232
 115.8066977  24.8387670  89.5803871 117.4149750  34.4255587  86.0700261
 118.2090349  33.9305907  85.8682836 116.7041443  33.8973450  85.7067967
 113.7232514  28.5698669  82.1460014 112.7930102  28.5083124  82.3629976
 113.8189986  28.0474622  81.3496655 113.6418063  25.0953482  84.7338256
 113.9024880  26.0098815  84.6247416 114.4635235  24.6277924  84.8834869
 115.1142988  26.5091239  91.9037080 115.7866041  26.3008601  91.2549729
 114.2872775  26.3113325  91.4642313 119.9921026  34.9984609  89.7498098
 119.8532112  34.6303394  90.6224037 119.2035622  35.5132249  89.5782056
 120.5869178  40.0993706  81.0923635 120.7620934  39.6281749  81.9069258
 119.9001966  40.7259472  81.3204896 115.5170485  29.7833842  92.6639517
 115.3790283  29.0514081  93.2651056 116.4275409  29.6942742  92.3823705
 118.1452786  29.4953801  92.1523197 118.8552405  28.8546993  92.1109816
 118.1022094  29.7466696  93.0749378 115.1530263  43.2483068  87.8663495
 115.3926862  43.8801593  88.5442514 114.3099460  42.8971108  88.1528854
 116.2683979  25.9407671  76.5345300 115.3913445  25.8196471  76.1707547
 116.7441732  25.1493749  76.2824189 107.7886119  30.7284830  86.6286807
 108.4757159  30.4146560  86.0407823 107.6334248  31.6326195  86.3554059
 112.5920841  25.6175027  91.0571831 112.5079030  25.0100696  90.3222241
 111.7703548  26.1084045  91.0581327 119.6658125  39.0562191  90.2704999
 119.5928297  39.8617162  90.7824304 119.2235518  39.2554157  89.4453021
 119.4547905  38.2933961  83.7807821 118.6715427  38.8355641  83.8746045
 120.1540650  38.8107941  84.1802062 119.3479524  26.2445973  86.1513711
 118.9777311  25.6917014  86.8394616 119.8438616  25.6404107  85.5988711
 117.1768722  36.7043468  93.2468729 117.8778182  37.3379951  93.3998123
 116.7063837  37.0458200  92.4864368 112.7736440  36.2379823  90.1799831
 113.3589877  35.4923511  90.3127736 112.5761279  36.5483780  91.0636495
 115.6275096  39.2731071  85.1962274 114.9585471  39.7577198  84.7126314
 115.4887965  39.5200291  86.1105652 107.3654095  28.8085424  88.9004274
 107.4038195  28.2749014  89.6941393 106.8594388  28.2820629  88.2815252
 119.7680364  41.3074814  91.7944932 120.3198672  41.4706436  92.5594017
 120.1086558  41.8979252  91.1224957 114.7444857  23.6549964  92.3966817
 114.8086184  24.5164795  91.9844214 114.6811978  23.0423966  91.6639175
 110.9962673  27.5349526  81.9758206 111.2916114  26.6260204  81.9225260
 110.0950709  27.5137265  81.6539208 114.5256920  25.6105522  87.9585754
 113.8043506  26.2241490  87.8193228 115.3150176  26.1463287  87.8802400
 112.7250514  25.2163623  82.0997531 112.3963220  24.3361002  81.9172637
 113.0789885  25.1611292  82.9873920 115.8392338  25.5036593  82.4673009
 116.1788410  26.0322514  81.7451617 116.2864458  25.8416999  83.2431575
 117.8260485  24.0011215  80.6666301 118.5468847  24.3792468  80.1630018
 117.2025789  24.7200092  80.7701279 116.7090829  27.6642077  88.1795378
 116.5635410  27.9782380  89.0719660 116.2316033  28.2826977  87.6266277
 118.5687212  24.6544625  88.2276268 118.5548781  23.7585718  87.8908566
 119.2859640  24.6615289  88.8614554 111.1836491  30.2047421  91.1183040
 110.6389959  30.9807229  91.2503314 112.0615841  30.5518226  90.9602161
 117.9724108  23.5359005  83.4963838 118.0940019  22.6075651  83.6954726
 117.6826150  23.5497691  82.5842154 120.8415298  21.2213916  86.6330558
 120.8636995  21.2853249  85.6782537 121.2583357  20.3818424  86.8271064
 111.9702513  29.3317318  94.0113196 111.2284249  29.4799953  94.5977827
 111.6495257  29.5925583  93.1479946 119.9146176  38.8733296  93.8093586
 120.2233302  38.6282443  94.6816286 120.7121658  39.0779934  93.3212457
 119.9366788  41.0271206  86.0398963 119.4971778  40.5347584  86.7331820
 120.6874905  40.4844173  85.7991038 112.4159127  37.2182746  86.0423591
 113.2417147  36.9186518  85.6622235 112.0653179  36.4490369  86.4913380
 117.3840660  36.5709215  88.1121265 116.7620669  35.9079920  87.8123493
 118.0545527  36.5970346  87.4294912 110.6167732  35.1369073  87.0012525
 109.7799640  34.7091247  86.8196526 110.5891377  35.3301516  87.9383316
 116.9454167  35.1213138  81.5879725 117.0942287  35.8048602  80.9346398
 117.7520610  35.1018228  82.1029181 114.7006800  31.1478316  82.5940794
 114.4552842  30.2440646  82.7921004 114.8702714  31.1495466  81.6520272
 113.9702447  26.8806673  80.0926956 113.2771692  26.9551028  79.4366992
 113.7254199  26.1167017  80.6148473 120.4449572  37.6161268  79.0591473
 119.8723539  38.2351456  78.6061944 121.0182366  38.1660630  79.5931395
 119.0139288  26.8772058  76.3362410 118.1070743  26.5805170  76.4125124
 119.2915269  26.5801876  75.4696697 109.9317228  28.1978421  86.7861457
 109.6120013  27.3443729  86.4935831 109.3850656  28.4126999  87.5419424
 113.7097136  30.9140862  90.5030963 113.9283146  31.8457970  90.5218997
 114.1222910  30.5548836  91.2885767 120.6301354  21.4208947  82.4906652
 119.8202082  21.0756032  82.8661898 121.3185771  21.1116491  83.0794263
 117.7838072  23.7358993  76.4774390 118.6457236  24.0613891  76.7370207
 117.9688417  22.9490489  75.9647455 109.8005488  31.8181332  88.7554578
 109.1068960  31.4035285  88.2424533 110.5478479  31.8601869  88.1587997
 111.7142231  31.7499586  86.6320593 111.6912919  31.8487273  85.6802476
 112.0242867  32.5964737  86.9537759 114.3729609  33.8075741  90.7467208
 115.3272862  33.7759684  90.6797139 114.1742132  33.3466365  91.5617434
 114.9628991  32.3776857  93.3138005 115.7821880  32.8720936  93.3372843
 115.2365798  31.4608825  93.2855573 112.7279837  39.3495361  87.7637406
 112.5934305  38.5895762  87.1975404 112.3111900  40.0736261  87.2966194
 115.8848963  40.2464678  87.9755848 115.7681347  41.1910110  87.8734538
 115.0641410  39.9438239  88.3641647 110.2163905  26.7114991  94.0130202
 110.8622769  26.2013945  94.5017428 110.0081056  27.4483673  94.5873628
 118.7367515  20.9755036  79.7654099 118.7246185  21.9196876  79.9222369
 119.6290937  20.7925181  79.4713560 116.9103477  40.8992940  91.1911777
 117.8130724  40.9316550  91.5078272 116.6840848  39.9693391  91.2058112
 118.6657079  39.6523926  87.8521855 117.7152710  39.6525788  87.7386227
 118.9689566  38.9056661  87.3357890 118.6279874  46.0576748  86.6286807
 119.3150913  45.7438478  86.0407823 118.4728002  46.9618113  86.3554059
 118.2047850  44.1377341  88.9004274 118.2431949  43.6040932  89.6941393
 117.6988142  43.6112547  88.2815252 121.4561486  50.4660991  87.0012525
 120.6193394  50.0383165  86.8196526 121.4285132  50.6593434  87.9383316
 120.7710983  43.5270339  86.7861457 120.4513767  42.6735647  86.4935831
 120.2244411  43.7418917  87.5419424 120.6399243  47.1473250  88.7554578
 119.9462714  46.7327203  88.2424533 121.3872234  47.1893787  88.1587997
 117.5143435  17.5059797  70.4460600 117.4367465  18.4567622  70.5249080
 116.9105079  17.1605669  71.1035526 115.1530265  20.2545191  74.5908802
 115.3926863  20.8863715  75.2687820 114.3099461  19.9033231  74.8774161
 115.6275097  16.2793193  71.9207580 114.9585472  16.7639321  71.4371620
 115.4887967  16.5262414  72.8350959 119.7680366  18.3136937  78.5190239
 120.3198674  18.4768558  79.2839324 120.1086559  18.9041375  77.8470264
 112.7279839  16.3557483  74.4882712 112.5934307  15.5957884  73.9220710
 112.3111901  17.0798383  74.0211501 115.8848965  17.2526800  74.7001155
 115.7681349  18.1972233  74.5979845 115.0641411  16.9500362  75.0886954
 116.9103479  17.9055062  77.9157083 117.8130725  17.9378673  78.2323578
 116.6840849  16.9755513  77.9303419 118.6279875  23.0638871  73.3532114
 119.3150915  22.7500601  72.7653129 118.4728003  23.9680235  73.0799365
 118.2047851  21.1439464  75.6249581 118.2431950  20.6103055  76.4186699
 117.6988144  20.6174669  75.0060558 121.4561487  27.4723113  73.7257831
 120.6193396  27.0445287  73.5441833 121.4285133  27.6655556  74.6628622
 120.7710984  20.5332461  73.5106763 120.4513768  19.6797769  73.2181137
 120.2244412  20.7481039  74.2664731 120.6399244  24.1535373  75.4799885
 119.9462715  23.7389326  74.9669839 121.3872235  24.1955909  74.8833304
  46.5121677  70.5897872 131.9795326  45.8383375  70.8929569 132.5880284
  46.8987499  71.3926952 131.6300783  50.4778417  68.1683356 133.2535149
  51.1729322  68.7890048 133.4722464  50.8201567  67.3178707 133.5287527
  44.5693286  68.2745107 132.1610243  43.9967253  68.8935294 131.7080715
  45.1426079  68.8244469 132.6950165  47.7890546  68.5582257 133.2918825
  48.7221219  68.4927819 133.4951701  47.7013758  69.3938524 132.8333358
  50.4178562  67.8748128 130.2522773  50.3392194  67.5407991 131.1458531
  51.2388229  68.3669896 130.2514245  47.9882514  65.1916123 129.8732751
  48.6918364  65.3966126 130.4890407  47.2645163  65.7592885 130.1381835
  49.8969211  65.6298652 131.9231211  50.7314815  65.1979851 131.7408686
  49.7353554  65.4580666 132.8508106  51.3583067  72.0836200 132.4366164
  50.5220379  72.4210886 132.7575439  51.2187836  71.9485179 131.4993301
  51.2321447  71.9283427 129.6364071  50.3550913  71.8072228 129.2726317
  51.7079200  71.1369505 129.3842959  53.9776756  72.8647814 129.4381181
  53.0708211  72.5680927 129.5143894  54.2552737  72.5677632 128.5715467
  52.7475541  69.7234749 129.5793160  53.6094705  70.0489648 129.8388977
  52.9325885  68.9366245 129.0666226  53.7004984  66.9630792 132.8672869
  53.6883653  67.9072632 133.0241140  54.5928405  66.7800938 132.5732330
  46.5121678  47.5959995 118.7040633  45.8383377  47.8991691 119.3125591
  46.8987500  48.3989075 118.3546090  50.4778419  45.1745478 119.9780456
  51.1729323  45.7952171 120.1967771  50.8201569  44.3240829 120.2532834
  44.5693287  45.2807230 118.8855550  43.9967254  45.8997417 118.4326022
  45.1426081  45.8306592 119.4195472  47.7890547  45.5644380 120.0164132
  48.7221220  45.4989942 120.2197007  47.7013760  46.4000647 119.5578665
  50.4178563  44.8810250 116.9768079  50.3392195  44.5470114 117.8703837
  51.2388230  45.3732018 116.9759552  47.9882515  42.1978246 116.5978058
  48.6918365  42.4028248 117.2135713  47.2645164  42.7655008 116.8627141
  49.8969213  42.6360775 118.6476518  50.7314817  42.2041973 118.4653993
  49.7353556  42.4642789 119.5753412  58.5253488  53.1530426 128.7431695
  59.1631898  53.0337173 128.0395035  58.4074331  54.1011270 128.8019647
  51.1930010  54.9593331 124.6690110  50.6294875  54.8683268 123.9006398
  51.0782405  54.1393235 125.1492603  56.7729568  58.6264298 119.9804575
  56.1217548  59.2118379 119.5938589  57.5673931  59.1570493 120.0399613
  50.6985196  55.7153435 120.3791710  51.4716072  55.1682423 120.2404585
  51.0510594  56.5797685 120.5906171  53.0351473  51.8746102 118.0110159
  53.2876994  51.3527623 117.2493622  52.0976032  51.7112247 118.1136843
  58.0794756  50.8781880 125.8184903  58.8657845  50.4601303 125.4675320
  58.3433461  51.7827972 125.9866551  58.2504834  56.3154730 120.5173559
  57.6150667  56.3889357 121.2294464  57.9202240  56.9048329 119.8392639
  63.4803183  50.8157113 126.7217881  64.2128355  50.2456330 126.9555711
  62.7242539  50.4278714 127.1624387  52.7547762  53.7774208 120.2134534
  52.6384020  53.1019111 120.8815619  52.8650022  53.2906581 119.3966687
  55.0979303  53.2384355 123.9181224  54.7337510  52.7114976 124.6294145
  55.9546419  52.8482824 123.7447709  54.7384790  48.2674254 118.9142572
  54.9059192  49.1354491 119.2813043  54.5481959  48.4301536 117.9903861
  54.7174011  50.7231912 119.8989239  54.5973636  51.1688963 120.7374719
  54.0226599  51.0717230 119.3402777  52.4780903  63.4935554 123.5479370
  52.4004933  64.4443379 123.6267851  51.8742547  63.1481426 124.2054296
  60.4159077  51.1953385 120.7269573  61.3276933  51.4280772 120.5517271
  59.9068724  51.7790429 120.1644652  59.0228659  56.1779203 128.1183154
  58.3937522  56.3424918 127.4159222  58.6354321  56.5920813 128.8894118
  62.9017891  57.1133641 125.4727518  62.2168929  57.4932543 124.9224552
  62.9861741  57.7228968 126.2059466  54.5756621  55.9153612 125.3833240
  55.0394967  56.1941315 124.5937862  54.3113419  55.0137056 125.2006330
  53.5125507  52.0376764 122.1922805  54.2149551  52.4897808 122.6596731
  53.1806136  51.3960583 122.8202698  61.2714651  57.6365556 130.2445219
  62.0932095  57.2345743 129.9627901  61.2677054  57.5333790 131.1961335
  69.3620644  53.9804304 126.5930191  68.6084352  53.4111702 126.4374195
  69.4968185  53.9466969 127.5400825  54.7519272  58.8517707 122.2684910
  54.6164947  59.6969242 122.6969758  55.2929084  59.0536984 121.5050844
  48.2048669  56.3693145 122.8412835  48.7173190  57.1636395 122.9918400
  48.8571382  55.6719435 122.7746436  50.0143554  59.4858901 124.9235588
  50.1910182  60.4076866 124.7356572  50.8100388  59.1717320 125.3529968
  51.1374870  61.0037075 130.9245931  51.6882295  60.8754138 130.1522924
  50.2986345  61.3031964 130.5740823  46.1697586  54.6981799 123.6172406
  47.0072808  55.1078807 123.4006113  46.3475854  53.7581241 123.5872599
  58.0662018  52.3656880 119.3056238  57.5508642  53.1361484 119.5444626
  57.7939327  51.6922016 119.9289300  55.6509129  47.2106580 124.3641477
  54.7950726  46.8213431 124.1847116  56.0636081  47.2898541 123.5041262
  63.0396292  55.1189234 121.2409412  62.2625735  54.7800394 120.7964574
  63.7187773  55.1241857 120.5664377  57.8548321  50.2383972 121.1316020
  57.5498457  50.5530121 121.9826163  58.8078764  50.3165392 121.1743353
  56.2994753  56.3974195 122.7808974  55.7716115  55.6626955 122.4682211
  55.7982256  57.1748871 122.5348942  61.2787599  54.5923215 127.8976020
  60.6211274  55.2822477 127.9856149  62.0827998  54.9819647 128.2410006
  60.0893058  52.9467588 125.9479962  60.6024940  53.5797580 126.4501671
  60.7394282  52.3468784 125.5823322  51.3583068  49.0898322 119.1611470
  50.5220380  49.4273009 119.4820745  51.2187838  48.9547302 118.2238607
  54.4447353  54.2154405 115.7843947  53.5374415  53.9843659 115.9835096
  54.9418385  53.4192024 115.9717928  57.3515432  62.9251912 118.7040633
  56.6777131  63.2283609 119.3125591  57.7381254  63.7280993 118.3546090
  57.3508937  51.8208459 123.3240982  58.0980756  52.3329857 123.0148105
  57.6200526  51.4992512 124.1845376  55.6235587  54.3167000 120.3067937
  54.7146806  54.0326033 120.4040407  55.6530671  54.7366079 119.4471244
  60.8554854  57.9273590 124.0759104  60.4017181  57.0864499 124.1324295
  60.2248821  58.5634988 124.4133884  59.7987774  48.8565576 125.3059772
  59.0610531  48.3442962 125.6370014  60.0514547  48.4165957 124.4943049
  59.2987794  59.7650086 125.0108922  59.5910768  60.3255143 124.2921288
  59.8086414  60.0578647 125.7662082  54.1720481  51.9295621 126.4077732
  54.2269091  50.9769457 126.3320209  53.3611683  52.0855060 126.8919031
  55.3211675  55.8575744 117.6456015  54.8831105  55.1411603 117.1861653
  56.0622116  56.0851859 117.0841107  52.1112841  50.5472680 124.1668111
  51.2980706  50.8466851 124.5733303  52.6071835  50.1528369 124.8842593
  54.2621419  60.5430437 126.1002376  54.2197598  60.7691284 125.1710908
  55.1784118  60.3093812 126.2488177  63.4384789  54.1332941 123.7032334
  63.3002688  54.3234537 122.7753523  63.0821008  54.8952324 124.1600385
  63.4654169  56.2009468 128.7143605  63.8990676  56.1084757 129.5626659
  64.1785750  56.1766968 128.0763621  52.3787219  57.4193466 125.8964338
  53.1727818  56.9243787 125.6946913  51.6678912  56.8911330 125.5332044
  57.1982064  59.8011562 130.2476706  57.2519086  60.3702498 131.0154422
  56.3296845  59.9713447 129.8830743  48.6869983  51.5636548 121.9724091
  47.7567571  51.5021004 122.1894053  48.7827455  51.0412501 121.1760732
  64.3269719  56.2433168 131.2476491  64.5205609  57.1478979 131.4935766
  64.2270337  55.7840588 132.0815076  54.9558495  57.9922488 129.5762176
  54.8169581  57.6241273 130.4488114  54.1673092  58.5070128 129.4046133
  55.5506647  63.0931585 120.9187712  55.7258403  62.6219628 121.7333335
  54.8639435  63.7197351 121.1468973  56.5063711  57.3704091 126.9651013
  56.1713543  57.3304861 127.8608663  56.0067656  56.7048807 126.4921424
  59.4422902  54.7160125 117.2388073  58.8252073  53.9906954 117.1421126
  58.9739391  55.4769486 116.8955147  50.1167733  66.2420948 127.6927572
  50.3564331  66.8739472 128.3706591  49.2736929  65.8908988 127.9792931
  51.2321448  48.9345550 116.3609377  50.3550915  48.8134350 115.9971624
  51.7079201  48.1431628 116.1088266  54.6295595  62.0500070 130.0969076
  54.5565766  62.8555042 130.6088381  54.1872988  62.2492036 129.2717098
  54.4185374  61.2871840 123.6071898  53.6352896  61.8293520 123.7010122
  55.1178119  61.8045820 124.0066139  65.5811782  52.8006835 127.8924395
  65.5701658  53.6831550 127.5218328  64.7129161  52.4478386 127.6978932
  57.0894278  61.9486904 132.2527235  57.8022250  62.5834369 132.1803136
  56.5984307  62.0450770 131.4367237  58.8111805  55.8538157 123.8244527
  57.8768084  55.9739619 123.6549231  58.9888474  54.9510624 123.5604536
  62.1984356  51.6955476 124.3594561  62.6644809  52.5283468 124.2854863
  62.6491857  51.2300458 125.0639819  60.2660588  58.0399297 121.3580713
  60.5420431  57.9255892 122.2674587  59.3965086  57.6416782 121.3192886
  56.9014652  62.2885648 125.0013526  57.0837046  61.4707304 125.4641279
  57.7247638  62.5053340 124.5638416  57.2356817  61.2153833 122.2628575
  57.7644583  60.7046288 121.6498737  57.4985037  60.8996363 123.1274108
  50.5912565  62.2668950 125.0226351  49.9222940  62.7515078 124.5390391
  50.4525435  62.5138170 125.9369729  54.7317834  64.3012693 131.6209009
  55.2836142  64.4644315 132.3858094  55.0724027  64.8917131 130.9489034
  45.9600142  50.5287405 121.8022283  46.2553583  49.6198083 121.7489337
  45.0588178  50.5075144 121.4803285  57.8686221  62.2494669 128.6072691
  57.7437360  61.4484409 128.0983637  58.5265312  62.7440862 128.1186661
  59.9321129  60.0503689 130.2352241  58.9851465  59.9309040 130.1630568
  60.2803902  59.1626187 130.3178503  56.9367563  59.8456405 126.4356594
  56.7892525  58.9173113 126.6164164  57.7621056  59.8676496 125.9513669
  50.8029807  48.4974472 122.2937086  51.1425879  49.0260394 121.5715694
  51.2501927  48.8354879 123.0695652  60.5401684  60.6684964 127.5221466
  61.4648232  60.4627825 127.3845917  60.3716988  60.4201365 128.4310808
  52.7897954  46.9949094 120.4930378  53.5106316  47.3730347 119.9894095
  52.1663258  47.7137971 120.5965356  56.9329077  47.6994243 121.4288711
  57.1492691  48.5818881 121.1277539  56.4523144  47.3080456 120.6994353
  60.3297001  61.1870631 122.8783558  60.5033878  60.6217054 122.1257410
  60.8225892  61.9871526 122.6963048  66.1836392  53.9507054 124.4973858
  66.6267538  53.2014380 124.0992981  65.3062902  53.9417191 124.1147589
  61.3172173  60.5037396 119.9780456  62.0123078  61.1244089 120.1967771
  61.6595323  59.6532747 120.2532834  63.2163596  57.9537101 121.5067787
  63.7414920  58.2924374 120.7817107  63.1285949  57.0184117 121.3230921
  54.9004257  64.0209085 125.8663040  54.4609247  63.5285463 126.5595897
  55.6512374  63.4782052 125.6255115  47.3796596  60.2120626 125.8687668
  48.2054616  59.9124397 125.4886312  47.0290648  59.4428248 126.3177457
  52.3478129  59.5647094 127.9385342  51.7258138  58.9017799 127.6387570
  53.0182996  59.5908226 127.2558989  51.9091636  58.1151017 121.4143802
  52.0579756  58.7986482 120.7610475  52.7158079  58.0956107 121.9293258
  65.7269256  55.4212293 126.8896305  66.5616148  55.8602097 127.0533865
  65.8628385  54.9450946 126.0704551  49.6644269  54.1416195 122.4204871
  49.4190311  53.2378525 122.6185081  49.8340183  54.1433345 121.4784349
  48.9339916  49.8744552 119.9191033  48.2409161  49.9488907 119.2631069
  48.6891668  49.1104896 120.4412550  55.4087041  60.6099148 118.8855550
  54.8361009  61.2289335 118.4326022  55.9819835  61.1598509 119.4195472
  58.6284301  60.8936298 120.0164132  59.5614974  60.8281859 120.2197007
  58.5407514  61.7292565 119.5578665  61.2572318  60.2102168 116.9768079
  61.1785949  59.8762032 117.8703837  62.0781985  60.7023936 116.9759552
  63.9550509  53.0763907 130.1844398  63.9226829  52.1379908 130.3704082
  64.5651133  53.1547944 129.4510223  55.7933840  51.9459960 116.2271602
  56.7392945  51.8166168 116.2960020  55.4148085  51.2074622 116.7041030
  69.7727059  54.1379914 129.3250435  70.5030447  53.8765202 129.8858138
  69.1634004  53.4008636 129.3652503  67.8542356  52.2787777 129.9224886
  67.1275520  52.1443742 129.3141378  67.4389643  52.5864605 130.7281604
  53.9776757  49.8709937 116.1626487  53.0708213  49.5743049 116.2389201
  54.2552738  49.5739755 115.2960774  55.5938823  44.4146826 122.3170729
  54.7839551  44.0693911 122.6925975  56.2823240  44.1054370 122.9058340
  52.7475542  46.7296872 116.3038467  53.6094706  47.0551770 116.5634284
  52.9325886  45.9428368 115.7911532  60.9008178  45.6025398 123.4473690
  60.3206847  46.2610202 123.0651742  60.6344111  44.7802743 123.0361107
  59.6833056  47.7625489 122.5030038  58.7958911  48.0475139 122.2850233
  60.0987045  47.6019252 121.6557315  63.0347592  47.7872010 126.2184377
  63.8107983  48.2768462 126.4908994  62.3095727  48.2130064 126.6756247
  65.4720151  48.4999629 127.2758318  66.0664642  48.2595365 126.5651626
  65.5446735  47.7806760 127.9031854  47.6917307  62.3433240 127.5901483
  47.5571775  61.5833641 127.0239481  47.2749369  63.0674140 127.1230271
  58.8276270  57.5270163 116.5978058  59.5312120  57.7320166 117.2135713
  58.1038918  58.0946925 116.8627141  59.6574080  53.2780025 122.7180328
  59.6009281  53.7348576 121.8787960  60.2102422  52.5170709 122.5403171
  63.4678886  49.0669757 123.5430447  63.2115820  48.6666392 124.3738655
  62.8431754  49.7813551 123.4180587  67.7791224  51.8065830 126.0501739
  67.2190782  51.8759019 126.8233301  67.1734727  51.6306814 125.3301235
  50.8486433  63.2402557 127.8019925  50.7318817  64.1847989 127.6998615
  50.0278879  62.9376118 128.1905724  60.7362967  57.9652693 118.6476518
  61.5708571  57.5333891 118.4653993  60.5747310  57.7934706 119.5753412
  60.3908859  54.4684806 120.0132857  60.3357663  54.3029077 119.0721301
  59.7654915  55.1760839 120.1695047  53.7004985  43.9692915 119.5918176
  53.6883655  44.9134755 119.7486446  54.5928407  43.7863060 119.2977637
  51.8740947  63.8930819 131.0175854  52.7768193  63.9254429 131.3342349
  51.6478317  62.9631270 131.0322189  53.6294549  62.6461805 127.6785932
  52.6790180  62.6463667 127.5650304  53.9327035  61.8994540 127.1621967
  62.0323764  70.2885248 124.6690110  61.4688629  70.1975185 123.9006398
  61.9176159  69.4685153 125.1492603  59.5788196  71.7836440 127.5074331
  60.3709488  71.4427265 127.0920630  59.8184846  71.8931415 128.4276484
  67.6123323  73.9556216 119.9804575  66.9611303  74.5410296 119.5938589
  68.4067686  74.4862411 120.0399613  61.5378950  71.0445353 120.3791710
  62.3109826  70.4974340 120.2404585  61.8904349  71.9089602 120.5906171
  63.8745228  67.2038019 118.0110159  64.1270749  66.6819541 117.2493622
  62.9369787  67.0404165 118.1136843  68.9188511  66.2073798 125.8184903
  69.7051600  65.7893221 125.4675320  69.1827215  67.1119890 125.9866551
  69.0898588  71.6446648 120.5173559  68.4544421  71.7181274 121.2294464
  68.7595994  72.2340247 119.8392639  63.5941517  69.1066125 120.2134534
  63.4777775  68.4311029 120.8815619  63.7043777  68.6198499 119.3966687
  65.9373058  68.5676272 123.9181224  65.5731265  68.0406893 124.6294145
  66.7940173  68.1774741 123.7447709  65.5778545  63.5966172 118.9142572
  65.7452947  64.4646408 119.2813043  65.3875714  63.7593454 117.9903861
  61.7866359  68.5096948 126.6145107  60.8616856  68.3773162 126.8222799
  62.0350772  69.2891167 127.1115049  65.5567765  66.0523830 119.8989239
  65.4367391  66.4980880 120.7374719  64.8620354  66.4009147 119.3402777
  59.1475170  68.1530221 127.4488896  59.2767551  68.4064700 128.3628308
  58.4672622  68.7457929 127.1293551  71.2552832  66.5245303 120.7269573
  72.1670688  66.7572689 120.5517271  70.7462479  67.1082347 120.1644652
  68.5988806  62.7003339 128.9759434  67.7373285  62.9984592 129.2676171
  68.6251241  62.9173738 128.0440467  65.4150376  71.2445529 125.3833240
  65.8788721  71.5233232 124.5937862  65.1507174  70.3428974 125.2006330
  64.3519262  67.3668682 122.1922805  65.0543305  67.8189725 122.6596731
  64.0199890  66.7252500 122.8202698  58.0944596  65.6252234 127.4939938
  57.3043650  65.8809763 127.0180049  58.5855843  66.4400572 127.5991979
  60.0459341  65.9896814 124.4523415  59.2490504  66.1015508 124.9706911
  59.8184933  66.3283466 123.5864305  56.3782299  65.8782725 129.9254929
  56.6290337  66.7629735 130.1912505  56.9141847  65.6987326 129.1530021
  65.5913026  74.1809624 122.2684910  65.4558701  75.0261160 122.6969758
  66.1322839  74.3828902 121.5050844  59.0442424  71.6985062 122.8412835
  59.5566944  72.4928313 122.9918400  59.6965137  71.0011353 122.7746436
  60.8537309  74.8150819 124.9235588  61.0303937  75.7368783 124.7356572
  61.6494142  74.5009238 125.3529968  68.9405490  57.7040186 130.7983803
  68.5969759  58.5941828 130.7222914  69.3084453  57.5141844 129.9353388
  57.0091341  70.0273717 123.6172406  57.8466563  70.4370725 123.4006113
  57.1869608  69.0873159 123.5872599  68.9055773  67.6948797 119.3056238
  68.3902396  68.4653402 119.5444626  68.6333081  67.0213933 119.9289300
  66.4902884  62.5398498 124.3641477  65.6344480  62.1505348 124.1847116
  66.9029836  62.6190459 123.5041262  68.0202030  60.0744841 128.7633037
  67.5166826  60.0374976 127.9500842  68.3132637  60.9837584 128.8229693
  64.2644916  60.1583571 127.7699218  65.1297913  59.9626380 127.4105108
  64.3322425  59.9293923 128.6968575  73.8790047  70.4481152 121.2409412
  73.1019490  70.1092311 120.7964574  74.5581528  70.4533775 120.5664377
  68.6942076  65.5675889 121.1316020  68.3892211  65.8822038 121.9826163
  69.6472518  65.6457309 121.1743353  67.1388508  71.7266113 122.7808974
  66.6109869  70.9918872 122.4682211  66.6376010  72.5040789 122.5348942
  61.8707235  62.3885779 125.1415585  62.4450987  62.1660960 124.4088778
  62.4578218  62.4574473 125.8944186  62.1976822  64.4190240 119.1611470
  61.3614135  64.7564926 119.4820745  62.0581592  64.2839220 118.2238607
  64.1729903  59.2627028 123.8690655  63.5194315  58.9476045 123.2447269
  64.1310377  58.6402768 124.5950478  65.2841108  69.5446323 115.7843947
  64.3768170  69.3135576 115.9835096  65.7812140  68.7483942 115.9717928
  68.1909187  78.2543830 118.7040633  67.5170886  78.5575527 119.3125591
  68.5775009  79.0572910 118.3546090  67.4067643  65.7508961 128.1938302
  66.4890205  65.9723908 128.0359990  67.8227787  65.8255272 127.3350010
  68.1902691  67.1500377 123.3240982  68.9374510  67.6621774 123.0148105
  68.4594281  66.8284430 124.1845376  66.4629341  69.6458918 120.3067937
  65.5540561  69.3617951 120.4040407  66.4924425  70.0657996 119.4471244
  70.6381528  64.1857493 125.3059772  69.9004285  63.6734879 125.6370014
  70.8908302  63.7457875 124.4943049  70.7393156  56.9633745 125.9001541
  71.0452032  56.1031109 125.6127456  71.4645760  57.5551365 125.7000535
  57.0317512  67.3664432 124.2883139  56.8341912  66.7733793 123.5634206
  56.4764176  67.0616642 125.0059078  65.0114235  67.2587538 126.4077732
  65.0662845  66.3061375 126.3320209  64.2005437  67.4146977 126.8919031
  66.1605429  71.1867661 117.6456015  65.7224859  70.4703520 117.1861653
  66.9015870  71.4143776 117.0841107  62.9506595  65.8764598 124.1668111
  62.1374461  66.1758769 124.5733303  63.4465590  65.4820287 124.8842593
  74.2778544  69.4624858 123.7032334  74.1396443  69.6526454 122.7753523
  73.9214763  70.2244241 124.1600385  62.4420670  63.4482954 129.7829346
  63.0820049  63.3071713 129.0852309  61.6098201  63.1617467 129.4067948
  63.2180974  72.7485384 125.8964338  64.0121572  72.2535704 125.6946913
  62.5072666  72.2203247 125.5332044  59.5263737  66.8928466 121.9724091
  58.5961326  66.8312921 122.1894053  59.6221209  66.3704419 121.1760732
  59.4449287  63.4183279 124.5602333  59.7056104  64.3328612 124.4511493
  60.2666459  62.9507721 124.7098946  60.9174212  64.8321036 131.7301157
  61.5897265  64.6238398 131.0813806  60.0903998  64.6343122 131.2906390
  66.3900402  78.4223502 120.9187712  66.5652158  77.9511546 121.7333335
  65.7033190  79.0489269 121.1468973  70.2816657  70.0452043 117.2388073
  69.6645827  69.3198871 117.1421126  69.8133145  70.8061403 116.8955147
  62.0715203  64.2637467 116.3609377  61.1944669  64.1426268 115.9971624
  62.5472956  63.4723546 116.1088266  53.5917343  69.0514627 126.4550884
  54.2788383  68.7376357 125.8671900  53.4365472  69.9555992 126.1818136
  58.3952065  63.9404824 130.8835908  58.3110254  63.3330493 130.1486318
  57.5734771  64.4313842 130.8845404  68.5675779  62.4258387 126.2506103
  69.0644478  61.6728350 125.9307173  67.7962760  62.4622704 125.6849312
  69.6505560  71.1830074 123.8244527  68.7161838  71.3031537 123.6549231
  69.8282228  70.2802541 123.5604536  65.1510748  64.5675770 125.9777788
  64.7808535  64.0146811 126.6658693  65.6469840  63.9633904 125.4252788
  73.0378111  67.0247394 124.3594561  73.5038563  67.8575385 124.2854863
  73.4885611  66.5592375 125.0639819  71.1054342  73.3691215 121.3580713
  71.3814186  73.2547810 122.2674587  70.2358841  72.9708700 121.3192886
  71.0094774  59.3927981 128.3985462  70.0957853  59.6232208 128.5667669
  71.4387875  59.4766425 129.2499494  68.0750572  76.5445751 122.2628575
  68.6038338  76.0338206 121.6498737  68.3378791  76.2288281 123.1274108
  53.1685319  67.1315220 128.7268351  53.2069418  66.5978811 129.5205470
  52.6625612  66.6050426 128.1079329  60.5476081  61.9779761 132.2230894
  60.6117408  62.8394592 131.8108291  60.4843201  61.3653763 131.4903252
  56.7993897  65.8579323 121.8022283  57.0947338  64.9490001 121.7489337
  55.8981932  65.8367062 121.4803285  60.3288144  63.9335319 127.7849831
  59.6074729  64.5471287 127.6457305  61.1181399  64.4693084 127.7066477
  58.5281738  63.5393420 121.9261608  58.1994444  62.6590799 121.7436714
  58.8821109  63.4841089 122.8137997  61.6423561  63.8266390 122.2937086
  61.9819634  64.3552311 121.5715694  62.0895682  64.1646796 123.0695652
  64.3367002  62.2103441 131.7440154  63.9963822  61.4111254 132.1460834
  63.6306008  62.5105152 131.1716987  64.9883474  59.2952753 130.1967477
  65.8109543  58.8213231 130.0746367  65.2321537  60.0743237 130.6966163
  63.6291708  62.3241012 120.4930378  64.3500071  62.7022264 119.9894095
  63.0057013  63.0429888 120.5965356  67.7722831  63.0286161 121.4288711
  67.9886446  63.9110799 121.1277539  67.2916898  62.6372374 120.6994353
  62.5122053  65.9871874 128.0059455  62.3666633  66.3012177 128.8983737
  62.0347256  66.6056774 127.4530354  64.3718436  62.9774422 128.0540345
  64.3580004  62.0815515 127.7172643  65.0890864  62.9845086 128.6878631
  66.2244566  63.4111762 130.0993472  65.9662344  64.3328833 130.0977803
  65.6929607  63.0142197 130.7893937  56.9867715  68.5277218 130.9447117
  56.4421183  69.3037026 131.0767391  57.8647065  68.8748023 130.7866238
  63.7755331  61.8588802 123.3227915  63.8971243  60.9305448 123.5218803
  63.4857374  61.8727488 122.4106231  66.6446522  59.5443713 126.4594635
  66.6668219  59.6083046 125.5046614  67.0614581  58.7048221 126.6535141
  72.1565928  75.8329314 119.9780456  72.8516832  76.4536006 120.1967771
  72.4989078  74.9824665 120.2532834  74.0557351  73.2829019 121.5067787
  74.5808675  73.6216292 120.7817107  73.9679703  72.3476034 121.3230921
  58.2190350  75.5412543 125.8687668  59.0448370  75.2416315 125.4886312
  57.8684402  74.7720166 126.3177457  56.4198955  73.4598870 126.8276602
  55.5830864  73.0321044 126.6460603  56.3922601  73.6531313 127.7647393
  62.7485390  73.4442935 121.4143802  62.8973511  74.1278399 120.7610475
  63.5551834  73.4248025 121.9293258  60.5038023  69.4708112 122.4204871
  60.2584065  68.5670442 122.6185081  60.6733938  69.4725263 121.4784349
  59.7733671  65.2036470 119.9191033  59.0802916  65.2780825 119.2631069
  59.5285423  64.4396814 120.4412550  68.4447327  56.7632071 127.3230523
  68.7249081  56.0955260 127.9490950  69.2297934  56.9561167 126.8105187
  66.2480796  75.9391065 118.8855550  65.6754763  76.5581252 118.4326022
  66.8213590  76.4890427 119.4195472  69.4678056  76.2228215 120.0164132
  70.4008729  76.1573777 120.2197007  69.3801269  77.0584482 119.5578665
  72.0966072  75.5394086 116.9768079  72.0179704  75.2053949 117.8703837
  72.9175739  76.0315854 116.9759552  66.6327594  67.2751878 116.2271602
  67.5786699  67.1458086 116.2960020  66.2541839  66.5366540 116.7041030
  72.6049479  58.9407884 126.1898494  72.4074300  58.6322972 127.0741826
  73.2149185  59.6669523 126.3196424  64.8170512  65.2001854 116.1626487
  63.9101967  64.9034967 116.2389201  65.0946493  64.9031672 115.2960774
  55.7348452  66.5208218 126.6125534  55.4151236  65.6673526 126.3199908
  55.1881880  66.7356796 127.3683501  66.4332577  59.7438744 122.3170729
  65.6233306  59.3985829 122.6925975  67.1216994  59.4346288 122.9058340
  68.3623126  58.8216791 123.9395025  68.9154164  59.2412244 124.5985048
  68.5993212  57.8952539 123.9817981  63.5869296  62.0588790 116.3038467
  64.4488460  62.3843688 116.5634284  63.7719640  61.2720286 115.7911532
  55.6036712  70.1411129 128.5818655  54.9100183  69.7265082 128.0688610
  56.3509703  70.1831666 127.9852074  71.7401933  60.9317316 123.4473690
  71.1600602  61.5902120 123.0651742  71.4737865  60.1094661 123.0361107
  70.1905499  60.3322374 125.6495010  70.6905277  60.4438908 124.8409329
  70.8341107  60.0283427 126.2895818  57.5173455  70.0729383 126.4584670
  57.4944143  70.1717070 125.5066553  57.8274091  70.9194534 126.7801836
  70.5226811  63.0917406 122.5030038  69.6352666  63.3767057 122.2850233
  70.9380800  62.9311170 121.6557315  73.8741347  63.1163927 126.2184377
  74.6501737  63.6060380 126.4908994  73.1489481  63.5421982 126.6756247
  69.6670024  72.8562081 116.5978058  70.3705874  73.0612084 117.2135713
  68.9432673  73.4238843 116.8627141  70.4967834  68.6071942 122.7180328
  70.4403036  69.0640494 121.8787960  71.0496177  67.8462627 122.5403171
  74.3072640  64.3961674 123.5430447  74.0509575  63.9958310 124.3738655
  73.6825508  65.1105468 123.4180587  71.5756722  73.2944610 118.6476518
  72.4102326  72.8625809 118.4653993  71.4141065  73.1226624 119.5753412
  71.2302614  69.7976724 120.0132857  71.1751418  69.6320995 119.0721301
  70.6048669  70.5052757 120.1695047  56.0195129  65.0344788 133.8394279
  56.6653992  64.5243742 134.3281505  55.8112280  65.7713470 134.4137705
  64.5398739  59.2984833 119.5918176  64.5277409  60.2426673 119.7486446
  65.4322161  59.1154978 119.2977637  68.3550859  55.8927609 123.8464112
  67.5883255  55.3386096 123.9920795  68.7661564  55.9649478 124.7078264
  73.0370577  79.7482158 119.1611470  72.2007889  80.0856844 119.4820745
  72.8975347  79.6131137 118.2238607  72.9108957  79.5929385 116.3609377
  72.0338424  79.4718186 115.9971624  73.3866710  78.8015463 116.1088266
  75.6564266  80.5293772 116.1626487  74.7495722  80.2326885 116.2389201
  75.9340247  80.2323590 115.2960774  74.4263051  77.3880707 116.3038467
  75.2882215  77.7135606 116.5634284  74.6113395  76.6012203 115.7911532
  75.3792494  74.6276750 119.5918176  75.3671164  75.5718590 119.7486446
  76.2715916  74.4446896 119.2977637  46.5121679  24.6022117 105.4285939
  45.8383378  24.9053814 106.0370897  46.8987501  25.4051198 105.0791397
  50.4778420  22.1807601 106.7025763  51.1729324  22.8014293 106.9213077
  50.8201570  21.3302952 106.9778141  44.5693288  22.2869352 105.6100856
  43.9967255  22.9059540 105.1571328  45.1426082  22.8368714 106.1440778
  47.7890548  22.5706503 106.7409439  48.7221221  22.5052064 106.9442314
  47.7013761  23.4062769 106.2823971  50.4178565  21.8872373 103.7013386
  50.3392196  21.5532237 104.5949144  51.2388232  22.3794141 103.7004858
  47.9882516  19.2040368 103.3223364  48.6918367  19.4090371 103.9381020
  47.2645165  19.7717130 103.5872448  49.8969214  19.6422898 105.3721824
  50.7314818  19.2104096 105.1899299  49.7353557  19.4704911 106.2998719
  58.5253489  30.1592549 115.4677001  59.1631899  30.0399296 114.7640341
  58.4074332  31.1073393 115.5264953  51.1930011  31.9655453 111.3935417
  50.6294876  31.8745390 110.6251705  51.0782406  31.1455358 111.8737909
  56.7729570  35.6326421 106.7049882  56.1217549  36.2180501 106.3183896
  57.5673932  36.1632616 106.7644919  50.6985197  32.7215558 107.1037016
  51.4716073  32.1744545 106.9649892  51.0510596  33.5859807 107.3151478
  53.0351475  28.8808224 104.7355466  53.2876995  28.3589745 103.9738929
  52.0976034  28.7174370 104.8382150  58.0794757  27.8844003 112.5430209
  58.8657847  27.4663426 112.1920626  58.3433462  28.7890095 112.7111858
  58.2504835  33.3216853 107.2418866  57.6150668  33.3951479 107.9539771
  57.9202241  33.9110452 106.5637945  63.4803185  27.8219236 113.4463188
  64.2128357  27.2518453 113.6801017  62.7242540  27.4340836 113.8869693
  52.7547763  30.7836330 106.9379841  52.6384021  30.1081234 107.6060925
  52.8650023  30.2968704 106.1211994  55.0979304  30.2446477 110.6426530
  54.7337512  29.7177098 111.3539452  55.9546420  29.8544946 110.4693016
  54.7384791  25.2736377 105.6387879  54.9059194  26.1416613 106.0058350
  54.5481960  25.4363659 104.7149168  54.7174012  27.7294034 106.6234546
  54.5973637  28.1751085 107.4620026  54.0226601  28.0779352 106.0648084
  52.4780904  40.4997676 110.2724677  52.4004934  41.4505501 110.3513157
  51.8742548  40.1543549 110.9299603  60.4159078  28.2015508 107.4514880
  61.3276934  28.4342894 107.2762577  59.9068725  28.7852552 106.8889958
  59.0228661  33.1841326 114.8428461  58.3937523  33.3487040 114.1404529
  58.6354323  33.5982936 115.6139425  62.9017893  34.1195764 112.1972825
  62.2168931  34.4994665 111.6469858  62.9861742  34.7291091 112.9304773
  54.5756623  32.9215734 112.1078546  55.0394968  33.2003437 111.3183169
  54.3113421  32.0199179 111.9251637  53.5125509  29.0438887 108.9168111
  54.2149552  29.4959930 109.3842038  53.1806137  28.4022705 109.5448004
  61.2714652  34.6427678 116.9690526  62.0932096  34.2407866 116.6873207
  61.2677055  34.5395913 117.9206642  69.3620645  30.9866427 113.3175497
  68.6084354  30.4173825 113.1619502  69.4968186  30.9529091 114.2646132
  54.7519273  35.8579829 108.9930217  54.6164948  36.7031365 109.4215064
  55.2929086  36.0599107 108.2296150  48.2048671  33.3755267 109.5658142
  48.7173191  34.1698517 109.7163706  48.8571383  32.6781558 109.4991743
  50.0143555  36.4921023 111.6480895  50.1910184  37.4138988 111.4601879
  50.8100389  36.1779443 112.0775275  51.1374871  38.0099197 117.6491237
  51.6882296  37.8816261 116.8768231  50.2986347  38.3094086 117.2986130
  46.1697587  31.7043921 110.3417712  47.0072809  32.1140930 110.1251420
  46.3475855  30.7643364 110.3117906  58.0662019  29.3719002 106.0301545
  57.5508643  30.1423607 106.2689933  57.7939328  28.6984138 106.6534607
  55.6509131  24.2168703 111.0886784  54.7950727  23.8275553 110.9092422
  56.0636082  24.2960664 110.2286569  63.0396294  32.1251357 107.9654719
  62.2625736  31.7862516 107.5209881  63.7187775  32.1303980 107.2909684
  57.8548323  27.2446094 107.8561326  57.5498458  27.5592243 108.7071469
  58.8078765  27.3227514 107.8988659  56.2994755  33.4036318 109.5054280
  55.7716116  32.6689077 109.1927518  55.7982257  34.1810994 109.2594249
  61.2787601  31.5985338 114.6221327  60.6211275  32.2884599 114.7101455
  62.0828000  31.9881770 114.9655313  60.0893059  29.9529711 112.6725268
  60.6024941  30.5859703 113.1746978  60.7394283  29.3530906 112.3068628
  51.3583069  26.0960445 105.8856777  50.5220381  26.4335131 106.2066052
  51.2187839  25.9609425 104.9483914  54.4447355  31.2216528 102.5089253
  53.5374416  30.9905781 102.7080402  54.9418387  30.4254147 102.6963235
  57.3515434  39.9314035 105.4285939  56.6777132  40.2345732 106.0370897
  57.7381256  40.7343115 105.0791397  57.3508938  28.8270582 110.0486289
  58.0980757  29.3391979 109.7393411  57.6200528  28.5054635 110.9090683
  55.6235588  31.3229123 107.0313243  54.7146807  31.0388155 107.1285713
  55.6530672  31.7428201 106.1716550  60.8554856  34.9335712 110.8004411
  60.4017183  34.0926622 110.8569601  60.2248822  35.5697111 111.1379191
  59.7987775  25.8627698 112.0305078  59.0610532  25.3505084 112.3615321
  60.0514549  25.4228080 111.2188355  59.2987795  36.7712209 111.7354229
  59.5910769  37.3317266 111.0166595  59.8086415  37.0640770 112.4907388
  54.1720482  28.9357743 113.1323039  54.2269092  27.9831580 113.0565515
  53.3611684  29.0917182 113.6164337  55.3211676  32.8637866 104.3701322
  54.8831106  32.1473725 103.9106959  56.0622117  33.0913981 103.8086413
  52.1112842  27.5534803 110.8913418  51.2980708  27.8528974 111.2978610
  52.6071836  27.1590492 111.6087900  54.2621420  37.5492560 112.8247682
  54.2197599  37.7753406 111.8956214  55.1784119  37.3155935 112.9733483
  63.4384791  31.1395063 110.4277641  63.3002689  31.3296659 109.4998830
  63.0821010  31.9014446 110.8845692  63.4654170  33.2071590 115.4388912
  63.8990677  33.1146879 116.2871966  64.1785751  33.1829091 114.8008928
  52.3787221  34.4255589 112.6209645  53.1727819  33.9305909 112.4192220
  51.6678913  33.8973452 112.2577351  57.1982065  36.8073684 116.9722013
  57.2519088  37.3764621 117.7399729  56.3296847  36.9775570 116.6076050
  48.6869984  28.5698671 108.6969398  47.7567572  28.5083126 108.9139360
  48.7827456  28.0474623 107.9006039  64.3269720  33.2495291 117.9721797
  64.5205610  34.1541102 118.2181072  64.2270338  32.7902710 118.8060382
  54.9558497  34.9984611 116.3007482  54.8169582  34.6303395 117.1733420
  54.1673093  35.5132250 116.1291440  55.5506649  40.0993707 107.6433019
  55.7258404  39.6281751 108.4578641  54.8639437  40.7259474 107.8714279
  56.5063712  34.3766214 113.6896320  56.1713545  34.3366984 114.5853970
  56.0067658  33.7110930 113.2166730  59.4422904  31.7222248 103.9633380
  58.8252074  30.9969076 103.8666432  58.9739392  32.4831608 103.6200454
  50.1167734  43.2483070 114.4172879  50.3564332  43.8801594 115.0951897
  49.2736930  42.8971110 114.7038238  51.2321449  25.9407672 103.0854684
  50.3550916  25.8196473 102.7216931  51.7079203  25.1493751 102.8333573
  54.6295596  39.0562193 116.8214383  54.5565767  39.8617164 117.3333687
  54.1872989  39.2554158 115.9962404  54.4185375  38.2933963 110.3317204
  53.6352897  38.8355643 110.4255429  55.1178121  38.8107942 110.7311446
  65.5811783  29.8068958 114.6169701  65.5701659  30.6893673 114.2463634
  64.7129162  29.4540508 114.4224238  57.0894279  38.9549027 118.9772541
  57.8022252  39.5896491 118.9048443  56.5984308  39.0512893 118.1612543
  58.8111806  32.8600279 110.5489833  57.8768085  32.9801742 110.3794537
  58.9888475  31.9572746 110.2849843  62.1984358  28.7017599 111.0839867
  62.6644810  29.5345590 111.0100170  62.6491858  28.2362580 111.7885126
  60.2660589  35.0461420 108.0826019  60.5420433  34.9318014 108.9919893
  59.3965087  34.6478905 108.0438192  56.9014653  39.2947771 111.7258833
  57.0837047  38.4769427 112.1886585  57.7247639  39.5115463 111.2883723
  57.2356818  38.2215956 108.9873881  57.7644585  37.7108410 108.3744044
  57.4985038  37.9058486 109.8519414  50.5912566  39.2731073 111.7471657
  49.9222941  39.7577200 111.2635697  50.4525436  39.5200293 112.6615036
  54.7317835  41.3074816 118.3454316  55.2836143  41.4706438 119.1103401
  55.0724028  41.8979254 117.6734341  45.9600143  27.5349528 108.5267590
  46.2553584  26.6260206 108.4734643  45.0588179  27.5137267 108.2048592
  57.8686222  39.2556792 115.3317998  57.7437362  38.4546531 114.8228943
  58.5265313  39.7502985 114.8431968  59.9321130  37.0565812 116.9597548
  58.9851466  36.9371163 116.8875875  60.2803904  36.1688310 117.0423809
  56.9367564  36.8518528 113.1601900  56.7892526  35.9235235 113.3409470
  57.7621057  36.8738619 112.6758975  50.8029808  25.5036595 109.0182392
  51.1425881  26.0322516 108.2961001  51.2501929  25.8417001 109.7940959
  60.5401686  37.6747087 114.2466773  61.4648233  37.4689948 114.1091224
  60.3716989  37.4263488 115.1556114  52.7897955  24.0011217 107.2175685
  53.5106318  24.3792469 106.7139402  52.1663259  24.7200093 107.3210663
  56.9329078  24.7056366 108.1534017  57.1492692  25.5881003 107.8522846
  56.4523145  24.3142579 107.4239659  60.3297002  38.1932754 109.6028864
  60.5033879  37.6279177 108.8502717  60.8225893  38.9933649 109.4208354
  66.1836393  30.9569177 111.2219164  66.6267539  30.2076502 110.8238287
  65.3062903  30.9479313 110.8392896  61.3172174  37.5099518 106.7025763
  62.0123079  38.1306211 106.9213077  61.6595324  36.6594870 106.9778141
  63.2163597  34.9599224 108.2313093  63.7414922  35.2986497 107.5062413
  63.1285950  34.0246239 108.0476228  54.9004258  41.0271207 112.5908347
  54.4609248  40.5347586 113.2841203  55.6512375  40.4844175 112.3500422
  47.3796597  37.2182748 112.5932975  48.2054617  36.9186520 112.2131618
  47.0290649  36.4490371 113.0422763  52.3478130  36.5709216 114.6630648
  51.7258140  35.9079921 114.3632876  53.0182997  36.5970348 113.9804296
  51.9091637  35.1213140 108.1389109  52.0579758  35.8048604 107.4855782
  52.7158081  35.1018230 108.6538565  65.7269258  32.4274415 113.6141612
  66.5616149  32.8664219 113.7779172  65.8628386  31.9513069 112.7949857
  49.6644270  31.1478317 109.1450178  49.4190312  30.2440647 109.3430388
  49.8340185  31.1495468 108.2029656  48.9339918  26.8806675 106.6436339
  48.2409163  26.9551030 105.9876375  48.6891670  26.1167019 107.1657856
  55.4087043  37.6161270 105.6100856  54.8361010  38.2351457 105.1571328
  55.9819836  38.1660632 106.1440778  58.6284303  37.8998420 106.7409439
  59.5614976  37.8343982 106.9442314  58.5407515  38.7354687 106.2823971
  61.2572319  37.2164291 103.7013386  61.1785951  36.8824154 104.5949144
  62.0781986  37.7086059 103.7004858  63.9550510  30.0826030 116.9089705
  63.9226830  29.1442031 117.0949389  64.5651134  30.1610067 116.1755530
  55.7933841  28.9522083 102.9516909  56.7392946  28.8228291 103.0205327
  55.4148086  28.2136745 103.4286337  69.7727060  31.1442037 116.0495742
  70.5030449  30.8827325 116.6103445  69.1634006  30.4070759 116.0897809
  67.8542357  29.2849899 116.6470193  67.1275521  29.1505864 116.0386684
  67.4389644  29.5926728 117.4526911  53.9776758  26.8772059 102.8871794
  53.0708214  26.5805172 102.9634508  54.2552739  26.5801877 102.0206080
  55.5938824  21.4208949 109.0416035  54.7839552  21.0756034 109.4171281
  56.2823241  21.1116493 109.6303647  52.7475543  23.7358995 103.0283773
  53.6094707  24.0613893 103.2879591  52.9325887  22.9490490 102.5156839
  60.9008179  22.6087521 110.1718996  60.3206849  23.2672325 109.7897049
  60.6344112  21.7864866 109.7606414  59.6833058  24.7687611 109.2275344
  58.7958913  25.0537262 109.0095539  60.0987047  24.6081375 108.3802621
  63.0347594  24.7934132 112.9429684  63.8107984  25.2830585 113.2154301
  62.3095728  25.2192187 113.4001553  65.4720152  25.5061752 114.0003624
  66.0664643  25.2657488 113.2896933  65.5446736  24.7868882 114.6277161
  47.6917308  39.3495363 114.3146789  47.5571776  38.5895763 113.7484787
  47.2749370  40.0736262 113.8475578  58.8276271  34.5332286 103.3223364
  59.5312121  34.7382289 103.9381020  58.1038920  35.1009048 103.5872448
  59.6574081  30.2842147 109.4425635  59.6009283  30.7410699 108.6033267
  60.2102424  29.5232832 109.2648477  63.4678887  26.0731879 110.2675754
  63.2115821  25.6728515 111.0983962  62.8431755  26.7875673 110.1425893
  67.7791225  28.8127952 112.7747046  67.2190783  28.8821142 113.5478608
  67.1734728  28.6368937 112.0546542  50.8486434  40.2464680 114.5265232
  50.7318818  41.1910112 114.4243922  50.0278880  39.9438241 114.9151031
  60.7362968  34.9714815 105.3721824  61.5708572  34.5396014 105.1899299
  60.5747311  34.7996829 106.2998719  60.3908861  31.4746929 106.7378164
  60.3357664  31.3091200 105.7966608  59.7654916  32.1822961 106.8940354
  53.7004986  20.9755038 106.3163482  53.6883656  21.9196877 106.4731753
  54.5928408  20.7925183 106.0222943  51.8740948  40.8992941 117.7421160
  52.7768195  40.9316552 118.0587655  51.6478318  39.9693392 117.7567496
  53.6294550  39.6523928 114.4031239  52.6790181  39.6525790 114.2895611
  53.9327036  38.9056663 113.8867273  69.3647243  45.4884466 115.4677001
  70.0025653  45.3691214 114.7640341  69.2468086  46.4365310 115.5264953
  66.1736950  45.4411894 115.4038526  65.8355461  45.3252959 114.5159061
  67.0426718  45.0403060 115.3839532  62.0323765  47.2947371 111.3935417
  61.4688631  47.2037308 110.6251705  61.9176161  46.4747275 111.8737909
  66.6556733  46.5946746 121.3624731  66.6445374  46.1999544 120.4905235
  66.8177372  45.8612819 121.9558503  59.5788197  48.7898562 114.2319637
  60.3709489  48.4489387 113.8165937  59.8184848  48.8993538 115.1521791
  67.6123324  50.9618339 106.7049882  66.9611304  51.5472419 106.3183896
  68.4067687  51.4924533 106.7644919  61.5378951  48.0507476 107.1037016
  62.3109827  47.5036463 106.9649892  61.8904350  48.9151725 107.3151478
  63.3763994  49.3783858 120.3103915  63.0853860  50.2829489 120.1950582
  64.0120978  49.4200386 121.0247985  64.3020201  46.7560707 116.9005275
  64.8983773  46.5316729 116.1862238  64.3595172  46.0145452 117.5030723
  63.8745229  44.2100142 104.7355466  64.1270750  43.6881663 103.9738929
  62.9369788  44.0466287 104.8382150  68.9188512  43.2135920 112.5430209
  69.7051601  42.7955343 112.1920626  69.1827216  44.1182012 112.7111858
  69.0898589  48.6508771 107.2418866  68.4544422  48.7243397 107.9539771
  68.7595996  49.2402369 106.5637945  74.3196939  43.1511153 113.4463188
  75.0522111  42.5810370 113.6801017  73.5636295  42.7632754 113.8869693
  63.5941518  46.1128248 106.9379841  63.4777776  45.4373151 107.6060925
  63.7043778  45.6260622 106.1211994  65.9373059  45.5738395 110.6426530
  65.5731266  45.0469016 111.3539452  66.7940175  45.1836864 110.4693016
  71.8422359  36.8632728 117.9057796  71.5105684  37.7328138 117.6819011
  71.2467973  36.5469012 118.5851827  65.5778546  40.6028295 105.6387879
  65.7452948  41.4708531 106.0058350  65.3875715  40.7655576 104.7149168
  68.3353879  49.0645274 117.3053709  68.0354602  49.9670312 117.1969516
  67.9904938  48.7977457 118.1574862  61.7866360  45.5159070 113.3390414
  60.8616857  45.3835284 113.5468105  62.0350774  46.2953290 113.8360356
  71.7351023  41.5827814 114.9851146  70.8267900  41.5143222 114.6909907
  71.6838619  42.0599759 115.8132972  65.5567767  43.0585952 106.6234546
  65.4367392  43.5043003 107.4620026  64.8620355  43.4071270 106.0648084
  59.1475171  45.1592344 114.1734203  59.2767553  45.4126823 115.0873614
  58.4672623  45.7520052 113.8538858  63.3174659  55.8289594 110.2724677
  63.2398688  56.7797419 110.3513157  62.7136302  55.4835466 110.9299603
  65.8091889  43.0017459 122.9286044  65.0325223  43.5611379 122.9188908
  66.4482452  43.4874242 123.4500914  73.6012669  39.7844252 116.7629020
  72.9587049  40.0776785 116.1168815  73.0967598  39.6697172 117.5682217
  71.2552833  43.5307425 107.4514880  72.1670689  43.7634812 107.2762577
  70.7462480  44.1144469 106.8889958  64.0638261  45.8102913 122.4904011
  64.8052945  46.3487957 122.2138834  63.3575246  46.4369201 122.6475563
  69.5393600  47.9532053 121.0876172  69.9476957  47.5114464 120.3430805
  68.8170862  47.3784681 121.3410365  65.8924671  42.8904660 118.4609729
  66.7385866  43.3144073 118.6044378  65.8323308  42.2338284 119.1548292
  69.8622415  48.5133244 114.8428461  69.2331278  48.6778958 114.1404529
  69.4748077  48.9274853 115.6139425  73.7411647  49.4487682 112.1972825
  73.0562685  49.8286583 111.6469858  73.8255496  50.0583008 112.9304773
  69.0424116  40.5509028 120.1190903  68.7985048  41.3051089 119.5825178
  69.3184046  40.9294376 120.9538150  70.9962579  47.0947641 118.7968168
  71.2079474  47.7379401 118.1202549  70.9492327  46.2609957 118.3290098
  68.5988808  39.7065461 115.7004741  67.7373287  40.0046715 115.9921478
  68.6251242  39.9235860 114.7685773  65.4150377  48.2507652 112.1078546
  65.8788723  48.5295355 111.3183169  65.1507175  47.3491096 111.9251637
  62.3074458  47.7979133 115.0458309  62.8775815  48.2266402 114.4075794
  62.8982570  47.5161718 115.7442495  64.3519263  44.3730804 108.9168111
  65.0543306  44.8251848 109.3842038  64.0199892  43.7314623 109.5448004
  62.7999625  42.9642561 123.2919321  62.1698285  43.6458842 123.5254718
  62.6935712  42.8525642 122.3472459  58.0944597  42.6314357 114.2185245
  57.3043651  42.8871885 113.7425356  58.5855844  43.4462695 114.3237285
  72.1108407  49.9719596 116.9690526  72.9325850  49.5699783 116.6873207
  72.1070809  49.8687830 117.9206642  60.0459342  42.9958936 111.1768722
  59.2490506  43.1077630 111.6952217  59.8184935  43.3345588 110.3109612
  65.8765010  49.5203639 119.1251236  65.9409443  49.9824047 119.9609408
  65.1675934  48.8901004 119.2533546  56.3782300  42.8844847 116.6500236
  56.6290338  43.7691857 116.9157812  56.9141848  42.7049449 115.8775328
  80.2014400  46.3158345 113.3175497  79.4478108  45.7465743 113.1619502
  80.3361941  46.2821009 114.2646132  65.5913028  51.1871747 108.9930217
  65.4558702  52.0323283 109.4215064  66.1322840  51.3891024 108.2296150
  59.0442425  48.7047185 109.5658142  59.5566946  49.4990435 109.7163706
  59.6965138  48.0073475 109.4991743  60.8537310  51.8212941 111.6480895
  61.0303938  52.7430906 111.4601879  61.6494143  51.5071360 112.0775275
  64.9948328  38.6821206 123.2464828  65.7358042  39.2828359 123.1669291
  65.2266251  37.9398844 122.6882871  60.1389666  43.8677573 121.5243058
  60.0243181  42.9662830 121.8250157  59.2834184  44.1141270 121.1727875
  67.2181504  51.8095313 123.1230559  66.7745358  51.0231692 122.8051463
  67.8798718  51.9974464 122.4574449  61.9768625  53.3391115 117.6491237
  62.5276050  53.2108178 116.8768231  61.1380101  53.6386004 117.2986130
  69.3162742  52.0898113 121.1511960  69.2981217  52.9106994 120.6592229
  70.2382662  51.9652188 121.3762101  65.7735796  49.6042243 121.9935468
  66.3064133  48.8430531 121.7634776  65.2449877  49.3115895 122.7359623
  68.9405491  34.7102309 117.5229110  68.5969761  35.6003950 117.4468221
  69.3084454  34.5203966 116.6598695  57.0091342  47.0335839 110.3417712
  57.8466564  47.4432848 110.1251420  57.1869610  46.0935281 110.3117906
  68.9055774  44.7010920 106.0301545  68.3902397  45.4715524 106.2689933
  68.6333082  44.0276056 106.6534607  66.4902885  39.5460621 111.0886784
  65.6344481  39.1567471 110.9092422  66.9029837  39.6252581 110.2286569
  68.0202032  37.0806964 115.4878343  67.5166827  37.0437099 114.6746149
  68.3132639  37.9899707 115.5475000  64.2644918  37.1645694 114.4944525
  65.1297914  36.9688502 114.1350414  64.3322426  36.9356045 115.4213882
  73.8790048  47.4543274 107.9654719  73.1019491  47.1154434 107.5209881
  74.5581529  47.4595898 107.2909684  68.6942077  42.5738012 107.8561326
  68.3892213  42.8884161 108.7071469  69.6472519  42.6519432 107.8988659
  67.1388509  48.7328235 109.5054280  66.6109871  47.9980995 109.1927518
  66.6376012  49.5102912 109.2594249  72.1181355  46.9277256 114.6221327
  71.4605029  47.6176517 114.7101455  72.9221754  47.3173688 114.9655313
  61.8707237  39.3947902 111.8660892  62.4450989  39.1723083 111.1334085
  62.4578219  39.4636596 112.6189493  70.9286814  45.2821628 112.6725268
  71.4418696  45.9151620 113.1746978  71.5788038  44.6822824 112.3068628
  62.1976824  41.4252363 105.8856777  61.3614136  41.7627049 106.2066052
  62.0581593  41.2901342 104.9483914  64.1729904  36.2689150 110.5935961
  63.5194317  35.9538168 109.9692576  64.1310378  35.6464891 111.3195784
  65.2841109  46.5508445 102.5089253  64.3768171  46.3197699 102.7080402
  65.7812141  45.7546065 102.6963235  68.1909188  55.2605953 105.4285939
  67.5170887  55.5637649 106.0370897  68.5775010  56.0635033 105.0791397
  67.4067645  42.7571084 114.9183609  66.4890206  42.9786031 114.7605297
  67.8227788  42.8317394 114.0595316  68.1902692  44.1562500 110.0486289
  68.9374511  44.6683897 109.7393411  68.4594282  43.8346552 110.9090683
  66.4629343  46.6521040 107.0313243  65.5540562  46.3680073 107.1285713
  66.4924426  47.0720119 106.1716550  71.6948610  50.2627630 110.8004411
  71.2410937  49.4218540 110.8569601  71.0642577  50.8989028 111.1379191
  70.6381530  41.1919616 112.0305078  69.9004286  40.6797002 112.3615321
  70.8908303  40.7519997 111.2188355  70.1381549  52.1004127 111.7354229
  70.4304524  52.6609184 111.0166595  70.6480170  52.3932688 112.4907388
  70.7393157  33.9695868 112.6246848  71.0452034  33.1093231 112.3372763
  71.4645762  34.5613488 112.4245842  57.0317513  44.3726554 111.0128446
  56.8341913  43.7795915 110.2879512  56.4764177  44.0678765 111.7304384
  65.0114237  44.2649661 113.1323039  65.0662846  43.3123497 113.0565515
  64.2005439  44.4209100 113.6164337  66.1605430  48.1929784 104.3701322
  65.7224860  47.4765643 103.9106959  66.9015871  48.4205899 103.8086413
  62.9506597  42.8826721 110.8913418  62.1374462  43.1820891 111.2978610
  63.4465591  42.4882409 111.6087900  65.1015174  52.8784478 112.8247682
  65.0591353  53.1045324 111.8956214  66.0177873  52.6447852 112.9733483
  68.5480808  43.3468545 119.7228312  68.9030196  43.5740018 120.5822777
  69.1952939  43.6786922 119.1005567  74.2778545  46.4686981 110.4277641
  74.1396444  46.6588577 109.4998830  73.9214764  47.2306364 110.8845692
  62.4420671  40.4545076 116.5074653  63.0820051  40.3133835 115.8097616
  61.6098202  40.1679590 116.1313255  74.3047925  48.5363508 115.4388912
  74.7384431  48.4438797 116.2871966  75.0179506  48.5121009 114.8008928
  63.2180975  49.7547507 112.6209645  64.0121574  49.2597827 112.4192220
  62.5072668  49.2265370 112.2577351  68.0375820  52.1365602 116.9722013
  68.0912842  52.7056538 117.7399729  67.1690601  52.3067487 116.6076050
  59.5263739  43.8990588 108.6969398  58.5961327  43.8375044 108.9139360
  59.6221211  43.3766541 107.9006039  59.4449288  40.4245401 111.2847639
  59.7056105  41.3390734 111.1756800  60.2666460  39.9569844 111.4344252
  60.9174213  41.8383158 118.4546464  61.5897267  41.6300521 117.8059113
  60.0904000  41.6405244 118.0151696  75.1663474  48.5787209 117.9721797
  75.3599364  49.4833019 118.2181072  75.0664093  48.1194628 118.8060382
  66.8199785  38.4645099 120.4712125  66.1727700  39.1635049 120.3776601
  67.5900801  38.8981243 120.8388373  70.2278583  48.7293951 123.5462678
  70.0764089  48.5004503 122.6292762  70.2183263  49.6864553 123.5594023
  66.9963919  46.3025864 118.5308945  67.9255979  46.4537024 118.3577912
  66.5754949  46.3909885 117.6757591  65.7952251  50.3276529 116.3007482
  65.6563337  49.9595313 117.1733420  65.0066847  50.8424168 116.1291440
  66.3900403  55.4285625 107.6433019  66.5652159  54.9573668 108.4578641
  65.7033191  56.0551391 107.8714279  67.3457466  49.7058131 113.6896320
  67.0107299  49.6658901 114.5853970  66.8461412  49.0402847 113.2166730
  61.3201710  45.1125761 119.2148901  61.1821508  44.3806000 119.8160440
  62.2306634  45.0234661 118.9333089  70.2816658  47.0514166 103.9633380
  69.6645829  46.3260994 103.8666432  69.8133146  47.8123526 103.6200454
  63.9484011  44.8245721 118.7032581  64.6583630  44.1838913 118.6619199
  63.9053319  45.0758616 119.6258762  71.9370790  51.7613074 121.6239160
  71.8783336  51.0772294 120.9569743  72.3390308  52.5032064 121.1719786
  62.6612945  41.8110939 120.5228220  62.1250302  41.3601677 121.1749817
  62.0729653  41.9456847 119.7798685  60.9561488  58.5774988 114.4172879
  61.1958087  59.2093512 115.0951897  60.1130685  58.2263028 114.7038238
  62.0715204  41.2699590 103.0854684  61.1944670  41.1488391 102.7216931
  62.5472957  40.4785668 102.8333573  71.9388197  49.7252658 119.8553140
  71.0514976  49.3878580 119.9779538  72.5086748  48.9935689 120.0921905
  53.5917344  46.0576750 113.1796191  54.2788384  45.7438480 112.5917206
  53.4365473  46.9618114 112.9063442  58.3952066  40.9466946 117.6081215
  58.3110255  40.3392616 116.8731625  57.5734773  41.4375965 117.6090711
  65.4689350  54.3854110 116.8214383  65.3959522  55.1909082 117.3333687
  65.0266743  54.5846076 115.9962404  65.2579130  53.6225880 110.3317204
  64.4746652  54.1647561 110.4255429  65.9571875  54.1399860 110.7311446
  68.5675780  39.4320510 112.9751410  69.0644480  38.6790472 112.6552480
  67.7962762  39.4684826 112.4094619  76.4205538  45.1360875 114.6169701
  76.4095414  46.0185591 114.2463634  75.5522917  44.7832426 114.4224238
  67.9288034  54.2840944 118.9772541  68.6416006  54.9188409 118.9048443
  67.4378063  54.3804810 118.1612543  69.6505561  48.1892197 110.5489833
  68.7161840  48.3093659 110.3794537  69.8282229  47.2864664 110.2849843
  65.1510749  41.5737893 112.7023094  64.7808536  41.0208933 113.3904000
  65.6469841  40.9696026 112.1498094  73.0378112  44.0309516 111.0839867
  73.5038564  44.8637508 111.0100170  73.4885613  43.5654498 111.7885126
  62.9799947  52.0335388 119.7978112  63.6809407  52.6671871 119.9507507
  62.5095062  52.3750119 119.0373752  71.1054343  50.3753338 108.0826019
  71.3814187  50.2609932 108.9919893  70.2358842  49.9770822 108.0438192
  71.0094775  36.3990103 115.1230769  70.0957855  36.6294330 115.2912976
  71.4387876  36.4828547 115.9744801  70.7801233  44.5879995 117.6230663
  70.1272684  44.8355903 116.9683115  71.1581613  43.7744133 117.2893140
  67.7408407  54.6239688 111.7258833  67.9230802  53.8061344 112.1886585
  68.5641393  54.8407381 111.2883723  68.0750573  53.5507874 108.9873881
  68.6038339  53.0400328 108.3744044  68.3378792  53.2350404 109.8519414
  66.8288806  45.3299806 124.1096700  66.1529443  45.2293936 124.7799075
  67.6516440  45.1739020 124.5732697  58.5767665  51.5671743 116.7309215
  59.1621102  50.8215431 116.8637119  58.3792504  51.8775700 117.6145879
  61.4306321  54.6022990 111.7471657  60.7616696  55.0869118 111.2635697
  61.2919190  54.8492211 112.6615036  53.1685320  44.1377343 115.4513658
  53.2069420  43.6040934 116.2450776  52.6625613  43.6112549 114.8324635
  65.5711589  56.6366734 118.3454316  66.1229897  56.7998355 119.1103401
  65.9117783  57.2271172 117.6734341  60.5476083  38.9841884 118.9476200
  60.6117409  39.8456714 118.5353598  60.4843203  38.3715885 118.2148559
  70.4222464  51.4627991 124.2002970  70.9662368  52.0757950 123.7057925
  69.8409308  52.0207570 124.7169983  56.7993898  42.8641445 108.5267590
  57.0947339  41.9552124 108.4734643  55.8981934  42.8429185 108.2048592
  68.7079977  54.5848709 115.3317998  68.5831116  53.7838449 114.8228943
  69.3659068  55.0794903 114.8431968  60.3288145  40.9397442 114.5095138
  59.6074731  41.5533409 114.3702611  61.1181401  41.4755207 114.4311784
  70.7714885  52.3857729 116.9597548  69.8245220  52.2663081 116.8875875
  71.1197658  51.4980227 117.0423809  63.1314458  38.2751868 120.7835790
  63.6548860  38.5214165 121.5462099  62.9126792  39.1071903 120.3638927
  58.5281739  40.5455543 108.6506915  58.1994446  39.6652922 108.4682021
  58.8821110  40.4903212 109.5383304  67.7761318  52.1810446 113.1601900
  67.6286281  51.2527153 113.3409470  68.6014812  52.2030536 112.6758975
  61.6423563  40.8328513 109.0182392  61.9819635  41.3614434 108.2961001
  62.0895683  41.1708919 109.7940959  71.3795440  53.0039004 114.2466773
  72.3041988  52.7981866 114.1091224  71.2110743  52.7555405 115.1556114
  64.3367003  39.2165563 118.4685460  63.9963824  38.4173376 118.8706140
  63.6306010  39.5167274 117.8962294  64.9883475  36.3014876 116.9212783
  65.8109544  35.8275354 116.7991674  65.2321539  37.0805360 117.4211470
  63.6291710  39.3303134 107.2175685  64.3500072  39.7084387 106.7139402
  63.0057014  40.0492011 107.3210663  67.7722833  40.0348283 108.1534017
  67.9886447  40.9172921 107.8522846  67.2916900  39.6434497 107.4239659
  62.5122054  42.9933996 114.7304762  62.3666635  43.3074300 115.6229044
  62.0347258  43.6118897 114.1775661  64.3718437  39.9836544 114.7785652
  64.3580006  39.0877638 114.4417950  65.0890865  39.9907208 115.4123938
  66.2244568  40.4173885 116.8238779  65.9662345  41.3390955 116.8223109
  65.6929608  40.0204319 117.5139243  71.1690756  53.5224672 109.6028864
  71.3427634  52.9571094 108.8502717  71.6619648  54.3225567 109.4208354
  56.9867716  45.5339341 117.6692423  56.4421184  46.3099149 117.8012698
  57.8647066  45.8810145 117.5111545  63.7755333  38.8650925 110.0473222
  63.8971244  37.9367571 110.2464109  63.4857375  38.8789611 109.1351537
  66.6446523  36.5505835 113.1839942  66.6668220  36.6145168 112.2291921
  67.0614582  35.7110344 113.3780448  77.0230147  46.2861095 111.2219164
  77.4661294  45.5368420 110.8238287  76.1456658  46.2771231 110.8392896
  72.1565929  52.8391436 106.7025763  72.8516833  53.4598129 106.9213077
  72.4989079  51.9886787 106.9778141  57.7733738  44.6609237 120.5622580
  57.0315474  44.8091872 121.1487210  57.4526482  44.9217503 119.6989329
  74.0557352  50.2891142 108.2313093  74.5808676  50.6278414 107.5062413
  73.9679704  49.3538157 108.0476228  65.7177401  54.2025215 120.3602970
  66.0264527  53.9574362 121.2325670  66.5152883  54.4071854 119.8721840
  65.7398013  56.3563125 112.5908347  65.3003003  55.8639504 113.2841203
  66.4906130  55.8136093 112.3500422  58.2190352  52.5474666 112.5932975
  59.0448372  52.2478438 112.2131618  57.8684404  51.7782288 113.0422763
  63.1871885  51.9001134 114.6630648  62.5651894  51.2371839 114.3632876
  63.8576752  51.9262266 113.9804296  56.4198957  50.4660992 113.5521908
  55.5830865  50.0383167 113.3705910  56.3922602  50.6593436 114.4892699
  73.7451258  50.9224045 123.5364291  72.9546802  50.9048184 122.9968791
  73.5084613  51.4612339 124.2913328  73.8649133  47.7716512 120.8497020
  73.9147138  47.6066519 121.7912543  73.7563056  46.9043771 120.4594901
  62.7485392  50.4505057 108.1389109  62.8973512  51.1340522 107.4855782
  63.5551835  50.4310147 108.6538565  71.1552895  43.7547440 122.1656327
  72.0562758  43.6153905 121.8740324  71.2300870  43.9201895 123.1054504
  65.4895701  41.1314294 121.0109513  64.6199010  41.4247861 120.7392102
  65.7255181  41.7154739 121.7316777  75.3667330  50.1913453 121.0939041
  75.0752138  50.5543434 121.9302502  74.7539461  49.4780462 120.9152374
  76.5663012  47.7566333 113.6141612  77.4009904  48.1956137 113.7779172
  76.7022141  47.2804986 112.7949857  73.6154518  45.3146068 119.5619099
  74.0908640  45.5073714 118.7537951  72.6920083  45.3705254 119.3162483
  60.5038025  46.4770235 109.1450178  60.2584067  45.5732565 109.3430388
  60.6733939  46.4787385 108.2029656  68.1934735  37.3493911 118.5274933
  68.7116678  38.0854938 118.2021422  67.8389867  37.6557905 119.3621692
  59.7733672  42.2098593 106.6436339  59.0802917  42.2842948 105.9876375
  59.5285424  41.4458936 107.1657856  68.4447329  33.7694194 114.0475830
  68.7249083  33.1017383 114.6736256  69.2297936  33.9623290 113.5350494
  66.2480797  52.9453188 105.6100856  65.6754764  53.5643375 105.1571328
  66.8213591  53.4952550 106.1440778  72.3156187  42.1911828 117.7947405
  73.2673610  42.2909926 117.8159629  72.1459638  41.3990096 118.3045489
  70.3370567  39.2767411 117.9806806  69.7420499  39.5572424 117.2853295
  70.0520263  39.7661312 118.7523547  69.4678057  53.2290338 106.7409439
  70.4008730  53.1635900 106.9442314  69.3801270  54.0646605 106.2823971
  72.0966074  52.5456208 103.7013386  72.0179705  52.2116072 104.5949144
  72.9175740  53.0377976 103.7004858  74.7944265  45.4117948 116.9089705
  74.7620585  44.4733948 117.0949389  75.4044889  45.4901984 116.1755530
  66.6327596  44.2814001 102.9516909  67.5786700  44.1520209 103.0205327
  66.2541841  43.5428663 103.4286337  74.9438753  42.2028991 116.9547988
  74.4277802  41.4187448 116.7677917  75.8278702  41.8747708 117.1194507
  72.6049480  35.9470007 112.9143801  72.4074301  35.6385095 113.7987133
  73.2149186  36.6731646 113.0441730  80.6120815  46.4733954 116.0495742
  81.3424203  46.2119243 116.6103445  80.0027760  45.7362676 116.0897809
  78.6936112  44.6141817 116.6470193  77.9669275  44.4797782 116.0386684
  78.2783399  44.9218646 117.4526911  66.5166288  48.3331747 124.4117566
  67.4369298  48.5110346 124.6057612  66.4815871  47.3887792 124.2597265
  64.8170513  42.2063977 102.8871794  63.9101968  41.9097090 102.9634508
  65.0946494  41.9093795 102.0206080  55.7348453  43.5270340 113.3370840
  55.4151238  42.6735649 113.0445214  55.1881881  43.7418919 114.0928808
  59.5128361  46.2432781 117.0540347  59.7314371  47.1749889 117.0728381
  59.9254135  45.8840756 117.8395151  66.4332579  36.7500867 109.0416035
  65.6233307  36.4047952 109.4171281  67.1216996  36.4408410 109.6303647
  68.3623127  35.8278914 110.6640332  68.9154166  36.2474367 111.3230355
  68.5993213  34.9014662 110.7063288  63.5869298  39.0650912 103.0283773
  64.4488462  39.3905811 103.2879591  63.7719642  38.2782408 102.5156839
  55.6036713  47.1473252 115.3063962  54.9100185  46.7327205 114.7933916
  56.3509704  47.1893788 114.7097381  71.7401934  37.9379439 110.1718996
  71.1600603  38.5964243 109.7897049  71.4737867  37.1156783 109.7606414
  70.1905500  37.3384496 112.3740317  70.6905279  37.4501031 111.5654635
  70.8341108  37.0345549 113.0141125  64.2487496  45.2463126 125.2608157
  63.7654578  46.0463486 125.4672047  64.3348435  45.2571071 124.3075601
  57.5173456  47.0791506 113.1829977  57.4944144  47.1779193 112.2311860
  57.8274092  47.9256656 113.5047143  60.1760834  49.1367661 117.2976591
  61.1304087  49.1051603 117.2306523  59.9773357  48.6758284 118.1126817
  60.7660216  47.7068777 119.8647389  61.5853105  48.2012855 119.8882226
  61.0397024  46.7900745 119.8364956  70.5226812  40.0979529 109.2275344
  69.6352667  40.3829180 109.0095539  70.9380801  39.9373292 108.3802621
  73.8741348  40.1226050 112.9429684  74.6501738  40.6122502 113.2154301
  73.1489482  40.5484104 113.4001553  76.3113907  40.8353669 114.0003624
  76.9058398  40.5949405 113.2896933  76.3840490  40.1160800 114.6277161
  58.5311062  54.6787280 114.3146789  58.3965530  53.9187681 113.7484787
  58.1143125  55.4028180 113.8475578  69.6670025  49.8624204 103.3223364
  70.3705876  50.0674206 103.9381020  68.9432674  50.4300966 103.5872448
  70.4967836  45.6134065 109.4425635  70.4403037  46.0702616 108.6033267
  71.0496178  44.8524750 109.2648477  74.3072642  41.4023797 110.2675754
  74.0509576  41.0020433 111.0983962  73.6825510  42.1167591 110.1425893
  78.6184980  44.1419870 112.7747046  78.0584537  44.2113059 113.5478608
  78.0128483  43.9660855 112.0546542  61.6880188  55.5756597 114.5265232
  61.5712572  56.5202030 114.4243922  60.8672635  55.2730159 114.9151031
  71.5756723  50.3006733 105.3721824  72.4102327  49.8687931 105.1899299
  71.4141066  50.1288747 106.2998719  71.2302615  46.8038846 106.7378164
  71.1751419  46.6383118 105.7966608  70.6048670  47.5114879 106.8940354
  56.0195130  42.0406911 120.5639586  56.6653994  41.5305865 121.0526811
  55.8112281  42.7775592 121.1383011  68.5448522  49.1087758 126.0631727
  69.4139682  49.2828410 125.7018361  68.0655274  49.9282175 125.9407456
  64.5398741  36.3046955 106.3163482  64.5277410  37.2488795 106.4731753
  65.4322162  36.1217101 106.0222943  62.7134702  56.2284859 117.7421160
  63.6161949  56.2608469 118.0587655  62.4872073  55.2985310 117.7567496
  64.4688304  54.9815846 114.4031239  63.5183935  54.9817707 114.2895611
  64.7720791  54.2348580 113.8867273  68.3550860  32.8989732 110.5709419
  67.5883256  32.3448219 110.7166101  68.7661565  32.9711601 111.4323571
  80.2040998  60.8176384 115.4677001  80.8419408  60.6983131 114.7640341
  80.0861841  61.7657228 115.5264953  77.0130704  60.7703812 115.4038526
  76.6749216  60.6544877 114.5159061  77.8820472  60.3694977 115.3839532
  72.8717520  62.6239289 111.3935417  72.3082385  62.5329225 110.6251705
  72.7569915  61.8039193 111.8737909  77.4950487  61.9238664 121.3624731
  77.4839128  61.5291462 120.4905235  77.6571127  61.1904736 121.9558503
  70.4181952  64.1190480 114.2319637  71.2103244  63.7781305 113.8165937
  70.6578602  64.2285455 115.1521791  78.4517079  66.2910256 106.7049882
  77.8005058  66.8764337 106.3183896  79.2461441  66.8216451 106.7644919
  72.3772706  63.3799393 107.1037016  73.1503582  62.8328380 106.9649892
  72.7298105  64.2443643 107.3151478  74.2157748  64.7075776 120.3103915
  73.9247614  65.6121407 120.1950582  74.8514733  64.7492303 121.0247985
  75.1413955  62.0852624 116.9005275  75.7377527  61.8608647 116.1862238
  75.1988927  61.3437370 117.5030723  74.7138984  59.5392060 104.7355466
  74.9664504  59.0173581 103.9738929  73.7763543  59.3758205 104.8382150
  79.7582266  58.5427838 112.5430209  80.5445356  58.1247261 112.1920626
  80.0220971  59.4473930 112.7111858  79.9292344  63.9800688 107.2418866
  79.2938177  64.0535315 107.9539771  79.5989750  64.5694287 106.5637945
  85.1590694  58.4803071 113.4463188  85.8915866  57.9102288 113.6801017
  84.4030049  58.0924672 113.8869693  74.4335272  61.4420165 106.9379841
  74.3171530  60.7665069 107.6060925  74.5437532  60.9552539 106.1211994
  76.7766813  60.9030313 110.6426530  76.4125021  60.3760934 111.3539452
  77.6333929  60.5128782 110.4693016  82.6816114  52.1924645 117.9057796
  82.3499439  53.0620056 117.6819011  82.0861727  51.8760929 118.5851827
  76.4172300  55.9320212 105.6387879  76.5846703  56.8000449 106.0058350
  76.2269469  56.0947494 104.7149168  79.1747633  64.3937191 117.3053709
  78.8748357  65.2962230 117.1969516  78.8298693  64.1269374 118.1574862
  72.6260115  60.8450988 113.3390414  71.7010611  60.7127202 113.5468105
  72.8744528  61.6245207 113.8360356  82.5744777  56.9119731 114.9851146
  81.6661655  56.8435140 114.6909907  82.5232373  57.3891676 115.8132972
  76.3961521  58.3877870 106.6234546  76.2761146  58.8334921 107.4620026
  75.7014110  58.7363187 106.0648084  69.9868926  60.4884262 114.1734203
  70.1161307  60.7418741 115.0873614  69.3066377  61.0811970 113.8538858
  74.1568413  71.1581512 110.2724677  74.0792443  72.1089337 110.3513157
  73.5530057  70.8127384 110.9299603  76.6485643  58.3309377 122.9286044
  75.8718977  58.8903297 122.9188908  77.2876206  58.8166160 123.4500914
  84.4406424  55.1136170 116.7629020  83.7980804  55.4068703 116.1168815
  83.9361352  54.9989090 117.5682217  82.0946587  58.8599343 107.4514880
  83.0064443  59.0926730 107.2762577  81.5856234  59.4436387 106.8889958
  74.9032015  61.1394830 122.4904011  75.6446700  61.6779874 122.2138834
  74.1969001  61.7661119 122.6475563  80.3787355  63.2823971 121.0876172
  80.7870711  62.8406381 120.3430805  79.6564616  62.7076598 121.3410365
  76.7318425  58.2196578 118.4609729  77.5779620  58.6435991 118.6044378
  76.6717063  57.5630202 119.1548292  80.7016170  63.8425161 114.8428461
  80.0725032  64.0070876 114.1404529  80.3141832  64.2566771 115.6139425
  84.5805402  64.7779599 112.1972825  83.8956440  65.1578501 111.6469858
  84.6649251  65.3874926 112.9304773  79.8817870  55.8800946 120.1190903
  79.6378802  56.6343006 119.5825178  80.1577801  56.2586294 120.9538150
  81.8356333  62.4239558 118.7968168  82.0473228  63.0671318 118.1202549
  81.7886081  61.5901875 118.3290098  79.4382562  55.0357379 115.7004741
  78.5767041  55.3338633 115.9921478  79.4644997  55.2527778 114.7685773
  76.2544132  63.5799570 112.1078546  76.7182477  63.8587272 111.3183169
  75.9900930  62.6783014 111.9251637  73.1468213  63.1271051 115.0458309
  73.7169570  63.5558319 114.4075794  73.7376324  62.8453636 115.7442495
  75.1913018  59.7022722 108.9168111  75.8937061  60.1543766 109.3842038
  74.8593646  59.0606541 109.5448004  73.6393379  58.2934478 123.2919321
  73.0092040  58.9750759 123.5254718  73.5329467  58.1817560 122.3472459
  68.9338352  57.9606275 114.2185245  68.1437406  58.2163803 113.7425356
  69.4249599  58.7754612 114.3237285  82.9502161  65.3011514 116.9690526
  83.7719605  64.8991701 116.6873207  82.9464564  65.1979748 117.9206642
  70.8853097  58.3250854 111.1768722  70.0884260  58.4369548 111.6952217
  70.6578689  58.6637506 110.3109612  76.7158765  64.8495557 119.1251236
  76.7803197  65.3115964 119.9609408  76.0069688  64.2192922 119.2533546
  67.2176055  58.2136765 116.6500236  67.4684093  59.0983775 116.9157812
  67.7535603  58.0341367 115.8775328  91.0408154  61.6450262 113.3175497
  90.2871863  61.0757660 113.1619502  91.1755695  61.6112927 114.2646132
  76.4306782  66.5163664 108.9930217  76.2952457  67.3615200 109.4215064
  76.9716595  66.7182942 108.2296150  72.9174122  52.5955244 125.6544572
  72.5241067  52.0421443 126.3292216  73.7340262  52.9065823 126.0451089
  69.8836180  64.0339103 109.5658142  70.3960700  64.8282353 109.7163706
  70.5358892  63.3365393 109.4991743  71.6931064  67.1504859 111.6480895
  71.8697693  68.0722824 111.4601879  72.4887898  66.8363278 112.0775275
  75.8342083  54.0113123 123.2464828  76.5751796  54.6120277 123.1669291
  76.0660006  53.2690761 122.6882871  70.9783421  59.1969491 121.5243058
  70.8636936  58.2954748 121.8250157  70.1227939  59.4433187 121.1727875
  78.0575259  67.1387231 123.1230559  77.6139113  66.3523610 122.8051463
  78.7192472  67.3266382 122.4574449  72.8162380  68.6683033 117.6491237
  73.3669805  68.5400096 116.8768231  71.9773856  68.9677922 117.2986130
  80.1556497  67.4190031 121.1511960  80.1374972  68.2398912 120.6592229
  81.0776417  67.2944106 121.3762101  76.6129551  64.9334160 121.9935468
  77.1457888  64.1722449 121.7634776  76.0843632  64.6407812 122.7359623
  79.7799246  50.0394226 117.5229110  79.4363515  50.9295868 117.4468221
  80.1478208  49.8495884 116.6598695  67.8485096  62.3627757 110.3417712
  68.6860318  62.7724765 110.1251420  68.0263364  61.4227199 110.3117906
  79.7449528  60.0302837 106.0301545  79.2296152  60.8007442 106.2689933
  79.4726837  59.3567974 106.6534607  77.3296640  54.8752538 111.0886784
  76.4738236  54.4859389 110.9092422  77.7423591  54.9544499 110.2286569
  78.8595786  52.4098882 115.4878343  78.3560582  52.3729017 114.6746149
  79.1526393  53.3191624 115.5475000  75.1038672  52.4937611 114.4944525
  75.9691669  52.2980420 114.1350414  75.1716181  52.2647963 115.4213882
  84.7183803  62.7835192 107.9654719  83.9413245  62.4446352 107.5209881
  85.3975284  62.7887815 107.2909684  79.5335832  57.9029930 107.8561326
  79.2285967  58.2176079 108.7071469  80.4866274  57.9811349 107.8988659
  77.9782263  64.0620153 109.5054280  77.4503625  63.3272912 109.1927518
  77.4769766  64.8394829 109.2594249  82.9575110  62.2569173 114.6221327
  82.2998784  62.9468435 114.7101455  83.7615509  62.6465605 114.9655313
  72.7100991  54.7239819 111.8660892  73.2844743  54.5015001 111.1334085
  73.2971974  54.7928514 112.6189493  81.7680568  60.6113546 112.6725268
  82.2812450  61.2443538 113.1746978  82.4181792  60.0114742 112.3068628
  73.0370578  56.7544280 105.8856777  72.2007890  57.0918967 106.2066052
  72.8975348  56.6193260 104.9483914  75.0123659  51.5981068 110.5935961
  74.3588071  51.2830085 109.9692576  74.9704133  50.9756809 111.3195784
  76.1234864  61.8800363 102.5089253  75.2161925  61.6489617 102.7080402
  76.6205896  61.0837982 102.6963235  79.0302943  70.5897870 105.4285939
  78.3564641  70.8929567 106.0370897  79.4168765  71.3926951 105.0791397
  78.2461399  58.0863002 114.9183609  77.3283961  58.3077949 114.7605297
  78.6621543  58.1609312 114.0595316  79.0296447  59.4854417 110.0486289
  79.7768266  59.9975815 109.7393411  79.2988036  59.1638470 110.9090683
  77.3023097  61.9812958 107.0313243  76.3934316  61.6971991 107.1285713
  77.3318181  62.4012037 106.1716550  82.5342365  65.5919548 110.8004411
  82.0804692  64.7510457 110.8569601  81.9036331  66.2280946 111.1379191
  81.4775284  56.5211534 112.0305078  80.7398041  56.0088920 112.3615321
  81.7302058  56.0811915 111.2188355  80.9775304  67.4296044 111.7354229
  81.2698278  67.9901101 111.0166595  81.4873924  67.7224605 112.4907388
  81.5786911  49.2987786 112.6246848  81.8845788  48.4385149 112.3372763
  82.3039516  49.8905406 112.4245842  67.8711267  59.7018472 111.0128446
  67.6735667  59.1087833 110.2879512  67.3157931  59.3970682 111.7304384
  75.8507991  59.5941579 113.1323039  75.9056601  58.6415415 113.0565515
  75.0399193  59.7501018 113.6164337  76.9999185  63.5221702 104.3701322
  76.5618615  62.8057561 103.9106959  77.7409626  63.7497817 103.8086413
  73.7900351  58.2118638 110.8913418  72.9768217  58.5112809 111.2978610
  74.2859345  57.8174327 111.6087900  75.9408929  68.2076395 112.8247682
  75.8985108  68.4337242 111.8956214  76.8571628  67.9739770 112.9733483
  79.3874563  58.6760463 119.7228312  79.7423950  58.9031936 120.5822777
  80.0346694  59.0078840 119.1005567  85.1172300  61.7978899 110.4277641
  84.9790198  61.9880495 109.4998830  84.7608519  62.5598282 110.8845692
  73.2814426  55.7836994 116.5074653  73.9213805  55.6425753 115.8097616
  72.4491956  55.4971507 116.1313255  85.1441679  63.8655426 115.4388912
  85.5778186  63.7730715 116.2871966  85.8573260  63.8412926 114.8008928
  74.0574730  65.0839424 112.6209645  74.8515328  64.5889744 112.4192220
  73.3466422  64.5557287 112.2577351  78.8769574  67.4657520 116.9722013
  78.9306596  68.0348456 117.7399729  78.0084356  67.6359405 116.6076050
  70.3657493  59.2282506 108.6969398  69.4355081  59.1666962 108.9139360
  70.4614965  58.7058459 107.9006039  70.2843042  55.7537319 111.2847639
  70.5449860  56.6682652 111.1756800  71.1060215  55.2861761 111.4344252
  71.7567968  57.1675076 118.4546464  72.4291021  56.9592438 117.8059113
  70.9297754  56.9697162 118.0151696  86.0057229  63.9079126 117.9721797
  86.1993119  64.8124937 118.2181072  85.9057847  63.4486545 118.8060382
  77.6593540  53.7937017 120.4712125  77.0121455  54.4926967 120.3776601
  78.4294555  54.2273161 120.8388373  81.0672338  64.0585869 123.5462678
  80.9157844  63.8296421 122.6292762  81.0577017  65.0156471 123.5594023
  77.8357674  61.6317782 118.5308945  78.7649734  61.7828941 118.3577912
  77.4148704  61.7201803 117.6757591  76.6346006  65.6568446 116.3007482
  76.4957091  65.2887231 117.1733420  75.8460602  66.1716086 116.1291440
  77.2294158  70.7577543 107.6433019  77.4045913  70.2865586 108.4578641
  76.5426946  71.3843309 107.8714279  78.1851221  65.0350049 113.6896320
  77.8501053  64.9950819 114.5853970  77.6855167  64.3694765 113.2166730
  72.1595465  60.4417679 119.2148901  72.0215263  59.7097918 119.8160440
  73.0700388  60.3526579 118.9333089  81.1210413  62.3806083 103.9633380
  80.5039583  61.6552912 103.8666432  80.6526901  63.1415444 103.6200454
  74.7877766  60.1537638 118.7032581  75.4977384  59.5130831 118.6619199
  74.7447074  60.4050533 119.6258762  82.7764544  67.0904992 121.6239160
  82.7177090  66.4064212 120.9569743  83.1784063  67.8323982 121.1719786
  73.5006699  57.1402856 120.5228220  72.9644057  56.6893595 121.1749817
  72.9123408  57.2748765 119.7798685  71.7955243  73.9066906 114.4172879
  72.0351841  74.5385430 115.0951897  70.9524439  73.5554946 114.7038238
  72.9108958  56.5991508 103.0854684  72.0338425  56.4780308 102.7216931
  73.3866712  55.8077586 102.8333573  82.7781951  65.0544576 119.8553140
  81.8908730  64.7170497 119.9779538  83.3480503  64.3227607 120.0921905
  64.4311099  61.3868667 113.1796191  65.1182138  61.0730397 112.5917206
  64.2759227  62.2910032 112.9063442  69.2345821  56.2758864 117.6081215
  69.1504009  55.6684533 116.8731625  68.4128527  56.7667882 117.6090711
  76.3083105  69.7146028 116.8214383  76.2353276  70.5200999 117.3333687
  75.8660498  69.9137994 115.9962404  76.0972884  68.9517798 110.3317204
  75.3140406  69.4939478 110.4255429  76.7965630  69.4691778 110.7311446
  79.4069535  54.7612427 112.9751410  79.9038234  54.0082390 112.6552480
  78.6356516  54.7976744 112.4094619  87.2599292  60.4652793 114.6169701
  87.2489168  61.3477508 114.2463634  86.3916671  60.1124344 114.4224238
  78.7681788  69.6132862 118.9772541  79.4809761  70.2480327 118.9048443
  78.2771817  69.7096728 118.1612543  80.4899315  63.5184115 110.5489833
  79.5555594  63.6385577 110.3794537  80.6675984  62.6156581 110.2849843
  75.9904503  56.9029810 112.7023094  75.6202291  56.3500851 113.3904000
  76.4863596  56.2987944 112.1498094  83.8771867  59.3601434 111.0839867
  84.3432319  60.1929426 111.0100170  84.3279367  58.8946416 111.7885126
  73.8193702  67.3627305 119.7978112  74.5203161  67.9963788 119.9507507
  73.3488817  67.7042037 119.0373752  81.9448098  65.7045255 108.0826019
  82.2207942  65.5901850 108.9919893  81.0752596  65.3062740 108.0438192
  81.8488529  51.7282021 115.1230769  80.9351609  51.9586248 115.2912976
  82.2781631  51.8120465 115.9744801  81.6194988  59.9171913 117.6230663
  80.9666438  60.1647820 116.9683115  81.9975368  59.1036051 117.2893140
  78.5802162  69.9531606 111.7258833  78.7624556  69.1353262 112.1886585
  79.4035148  70.1699298 111.2883723  78.9144327  68.8799791 108.9873881
  79.4432094  68.3692246 108.3744044  79.1772547  68.5642321 109.8519414
  77.6682561  60.6591724 124.1096700  76.9923198  60.5585853 124.7799075
  78.4910195  60.5030938 124.5732697  69.4161420  66.8963661 116.7309215
  70.0014857  66.1507348 116.8637119  69.2186258  67.2067617 117.6145879
  72.2700075  69.9314908 111.7471657  71.6010450  70.4161036 111.2635697
  72.1312945  70.1784128 112.6615036  64.0079075  59.4669261 115.4513658
  64.0463174  58.9332851 116.2450776  63.5019368  58.9404466 114.8324635
  76.4105344  71.9658651 118.3454316  76.9623652  72.1290273 119.1103401
  76.7511537  72.5563089 117.6734341  71.3869837  54.3133801 118.9476200
  71.4511163  55.1748632 118.5353598  71.3236957  53.7007803 118.2148559
  70.8622110  56.3856934 122.5949235  71.4894148  56.0034011 123.2086759
  70.0050028  56.1671136 122.9604927  67.6387652  58.1933363 108.5267590
  67.9341093  57.2844041 108.4734643  66.7375688  58.1721102 108.2048592
  79.5473731  69.9140627 115.3317998  79.4224871  69.1130367 114.8228943
  80.2052822  70.4086820 114.8431968  71.1681899  56.2689359 114.5095138
  70.4468485  56.8825327 114.3702611  71.9575155  56.8047124 114.4311784
  81.6108639  67.7149647 116.9597548  80.6638975  67.5954998 116.8875875
  81.9591413  66.8272145 117.0423809  73.9708213  53.6043786 120.7835790
  74.4942615  53.8506083 121.5462099  73.7520546  54.4363821 120.3638927
  69.3675494  55.8747461 108.6506915  69.0388200  54.9944839 108.4682021
  69.7214865  55.8195129 109.5383304  78.6155073  67.5102363 113.1601900
  78.4680035  66.5819071 113.3409470  79.4408566  67.5322454 112.6758975
  72.4817317  56.1620430 109.0182392  72.8213390  56.6906352 108.2961001
  72.9289437  56.5000836 109.7940959  82.2189195  68.3330922 114.2466773
  83.1435742  68.1273783 114.1091224  82.0504498  68.0847323 115.1556114
  75.1760758  54.5457481 118.4685460  74.8357578  53.7465294 118.8706140
  74.4699764  54.8459192 117.8962294  75.8277230  51.6306793 116.9212783
  76.6503299  51.1567272 116.7991674  76.0715293  52.4097277 117.4211470
  74.4685464  54.6595052 107.2175685  75.1893827  55.0376305 106.7139402
  73.8450768  55.3783929 107.3210663  78.6116587  55.3640201 108.1534017
  78.8280201  56.2464839 107.8522846  78.1310654  54.9726414 107.4239659
  73.3515808  58.3225914 114.7304762  73.2060389  58.6366217 115.6229044
  72.8741012  58.9410814 114.1775661  75.2112191  55.3128462 114.7785652
  75.1973760  54.4169555 114.4417950  75.9284619  55.3199126 115.4123938
  77.0638322  55.7465802 116.8238779  76.8056100  56.6682873 116.8223109
  76.5323362  55.3496237 117.5139243  82.0084511  68.8516589 109.6028864
  82.1821388  68.2863012 108.8502717  82.5013402  69.6517484 109.4208354
  67.8261471  60.8631259 117.6692423  67.2814939  61.6391066 117.8012698
  68.7040820  61.2102063 117.5111545  74.6149087  54.1942842 110.0473222
  74.7364998  53.2659489 110.2464109  74.3251130  54.2081528 109.1351537
  77.4840278  51.8797753 113.1839942  77.5061974  51.9437086 112.2291921
  77.9008337  51.0402261 113.3780448  87.8623902  61.6153012 111.2219164
  88.3055048  60.8660338 110.8238287  86.9850412  61.6063149 110.8392896
  82.9959683  68.1683354 106.7025763  83.6910588  68.7890047 106.9213077
  83.3382833  67.3178705 106.9778141  68.6127492  59.9901155 120.5622580
  67.8709228  60.1383790 121.1487210  68.2920237  60.2509420 119.6989329
  84.8951106  65.6183059 108.2313093  85.4202430  65.9570332 107.5062413
  84.8073459  64.6830075 108.0476228  76.5571155  69.5317133 120.3602970
  76.8658282  69.2866280 121.2325670  77.3546637  69.7363771 119.8721840
  76.5791767  71.6855043 112.5908347  76.1396757  71.1931421 113.2841203
  77.3299884  71.1428010 112.3500422  69.0584106  67.8766584 112.5932975
  69.8842126  67.5770355 112.2131618  68.7078158  67.1074206 113.0422763
  74.0265639  67.2293052 114.6630648  73.4045649  66.5663757 114.3632876
  74.6970506  67.2554184 113.9804296  67.2592711  65.7952910 113.5521908
  66.4224619  65.3675084 113.3705910  67.2316357  65.9885353 114.4892699
  74.0990167  55.7074840 124.2563154  74.1478322  56.5836963 123.8740924
  74.6412681  55.1652233 123.6834798  84.7042888  63.1008429 120.8497020
  84.7540892  62.9358437 121.7912543  84.5956811  62.2335688 120.4594901
  73.5879146  65.7796975 108.1389109  73.7367267  66.4632439 107.4855782
  74.3945590  65.7602065 108.6538565  81.9946650  59.0839357 122.1656327
  82.8956513  58.9445822 121.8740324  82.0694624  59.2493812 123.1054504
  76.3289455  56.4606212 121.0109513  75.4592765  56.7539778 120.7392102
  76.5648936  57.0446657 121.7316777  86.2061084  65.5205371 121.0939041
  85.9145893  65.8835351 121.9302502  85.5933216  64.8072379 120.9152374
  87.4056767  63.0858251 113.6141612  88.2403658  63.5248055 113.7779172
  87.5415895  62.6096904 112.7949857  84.4548273  60.6437986 119.5619099
  84.9302394  60.8365632 118.7537951  83.5313838  60.6997171 119.3162483
  71.3431779  61.8062153 109.1450178  71.0977821  60.9024483 109.3430388
  71.5127694  61.8079303 108.2029656  79.0328489  52.6785829 118.5274933
  79.5510433  53.4146856 118.2021422  78.6783622  52.9849822 119.3621692
  70.6127427  57.5390510 106.6436339  69.9196672  57.6134865 105.9876375
  70.3679179  56.7750854 107.1657856  79.2841083  49.0986112 114.0475830
  79.5642837  48.4309301 114.6736256  80.0691690  49.2915207 113.5350494
  77.0874552  68.2745106 105.6100856  76.5148519  68.8935293 105.1571328
  77.6607345  68.8244467 106.1440778  83.1549942  57.5203746 117.7947405
  84.1067364  57.6201843 117.8159629  82.9853392  56.7282014 118.3045489
  81.1764321  54.6059329 117.9806806  80.5814253  54.8864342 117.2853295
  80.8914018  55.0953230 118.7523547  80.3071812  68.5582256 106.7409439
  81.2402485  68.4927817 106.9442314  80.2195024  69.3938523 106.2823971
  82.9359828  67.8748126 103.7013386  82.8573460  67.5407990 104.5949144
  83.7569495  68.3669894 103.7004858  85.6338019  60.7409865 116.9089705
  85.6014339  59.8025866 117.0949389  86.2438643  60.8193902 116.1755530
  77.4721350  59.6105918 102.9516909  78.4180455  59.4812126 103.0205327
  77.0935595  58.8720580 103.4286337  85.7832508  57.5320909 116.9547988
  85.2671556  56.7479365 116.7677917  86.6672456  57.2039625 117.1194507
  83.4443235  51.2761924 112.9143801  83.2468056  50.9677012 113.7987133
  84.0542940  52.0023563 113.0441730  91.4514569  61.8025872 116.0495742
  92.1817958  61.5411160 116.6103445  90.8421515  61.0654594 116.0897809
  89.5329866  59.9433735 116.6470193  88.8063030  59.8089700 116.0386684
  89.1177153  60.2510563 117.4526911  77.3560043  63.6623664 124.4117566
  78.2763052  63.8402263 124.6057612  77.3209626  62.7179710 124.2597265
  75.6564267  57.5355895 102.8871794  74.7495723  57.2389007 102.9634508
  75.9340248  57.2385713 102.0206080  66.5742208  58.8562258 113.3370840
  66.2544992  58.0027566 113.0445214  66.0275636  59.0710836 114.0928808
  70.3522115  61.5724699 117.0540347  70.5708125  62.5041807 117.0728381
  70.7647889  61.2132673 117.8395151  77.2726333  52.0792784 109.0416035
  76.4627061  51.7339869 109.4171281  77.9610750  51.7700328 109.6303647
  79.2016881  51.1570831 110.6640332  79.7547920  51.5766285 111.3230355
  79.4386968  50.2306579 110.7063288  75.2249981  57.1457905 126.4443096
  75.1246708  58.0952262 126.3755187  75.0071523  56.8176144 125.5719166
  74.4263052  54.3942830 103.0283773  75.2882216  54.7197728 103.2879591
  74.6113396  53.6074326 102.5156839  66.4430468  62.4765170 115.3063962
  65.7493939  62.0619122 114.7933916  67.1903459  62.5185706 114.7097381
  82.5795688  53.2671356 110.1718996  81.9994358  53.9256160 109.7897049
  82.3131621  52.4448701 109.7606414  81.0299255  52.6676414 112.3740317
  81.5299033  52.7792949 111.5654635  81.6734863  52.3637467 113.0141125
  75.0881251  60.5755044 125.2608157  74.6048332  61.3755404 125.4672047
  75.1742190  60.5862989 124.3075601  68.3567210  62.4083423 113.1829977
  68.3337898  62.5071111 112.2311860  68.6667847  63.2548574 113.5047143
  71.0154588  64.4659578 117.2976591  71.9697842  64.4343521 117.2306523
  70.8167112  64.0050202 118.1126817  71.6053970  63.0360694 119.8647389
  72.4246859  63.5304773 119.8882226  71.8790778  62.1192663 119.8364956
  81.3620567  55.4271447 109.2275344  80.4746422  55.7121097 109.0095539
  81.7774556  55.2665210 108.3802621  84.7135103  55.4517968 112.9429684
  85.4895493  55.9414420 113.2154301  83.9883237  55.8776022 113.4001553
  87.1507661  56.1645587 114.0003624  87.7452152  55.9241323 113.2896933
  87.2234245  55.4452718 114.6277161  69.3704817  70.0079198 114.3146789
  69.2359285  69.2479599 113.7484787  68.9536879  70.7320098 113.8475578
  80.5063780  65.1916121 103.3223364  81.2099630  65.3966124 103.9381020
  79.7826429  65.7592883 103.5872448  81.3361590  60.9425983 109.4425635
  81.2796792  61.3994534 108.6033267  81.8889933  60.1816667 109.2648477
  85.1466396  56.7315715 110.2675754  84.8903330  56.3312350 111.0983962
  84.5219264  57.4459508 110.1425893  89.4578734  59.4711788 112.7747046
  88.8978292  59.5404977 113.5478608  88.8522237  59.2952772 112.0546542
  72.5273943  70.9048515 114.5265232  72.4106327  71.8493947 114.4243922
  71.7066389  70.6022076 114.9151031  82.4150477  65.6298651 105.3721824
  83.2496081  65.1979849 105.1899299  82.2534820  65.4580664 106.2998719
  82.0696370  62.1330764 106.7378164  82.0145173  61.9675035 105.7966608
  81.4442425  62.8406797 106.8940354  66.8588885  57.3698828 120.5639586
  67.5047748  56.8597782 121.0526811  66.6506036  58.1067510 121.1383011
  75.3792495  51.6338873 106.3163482  75.3671165  52.5780713 106.4731753
  76.2715917  51.4509018 106.0222943  73.5528457  71.5576777 117.7421160
  74.4555704  71.5900387 118.0587655  73.3265827  70.6277228 117.7567496
  75.3082059  70.3107763 114.4031239  74.3577690  70.3109625 114.2895611
  75.6114545  69.5640498 113.8867273  79.1944614  48.2281650 110.5709419
  78.4277010  47.6740136 110.7166101  79.6055319  48.3003518 111.4323571
  71.1986376  54.5166445 124.6614600  72.0617837  54.1603250 124.8717925
  70.6251786  54.1780340 125.3490005  83.7111274  77.9531206 111.3935417
  83.1476140  77.8621143 110.6251705  83.5963669  77.1331111 111.8737909
  81.2575706  79.4482398 114.2319637  82.0496998  79.1073222 113.8165937
  81.4972357  79.5577373 115.1521791  89.2910833  81.6202174 106.7049882
  88.6398813  82.2056254 106.3183896  90.0855196  82.1508369 106.7644919
  83.2166460  78.7091311 107.1037016  83.9897336  78.1620298 106.9649892
  83.5691859  79.5735560 107.3151478  85.5532738  74.8683977 104.7355466
  85.8058259  74.3465498 103.9738929  84.6157297  74.7050123 104.8382150
  90.5976021  73.8719756 112.5430209  91.3839110  73.4539179 112.1920626
  90.8614725  74.7765848 112.7111858  90.7686098  79.3092606 107.2418866
  90.1331931  79.3827232 107.9539771  90.4383505  79.8986205 106.5637945
  85.2729027  76.7712083 106.9379841  85.1565285  76.0956987 107.6060925
  85.3831287  76.2844457 106.1211994  87.6160568  76.2322230 110.6426530
  87.2518775  75.7052851 111.3539452  88.4727684  75.8420699 110.4693016
  87.2566055  71.2612130 105.6387879  87.4240457  72.1292366 106.0058350
  87.0663224  71.4239412 104.7149168  83.4653869  76.1742906 113.3390414
  82.5404366  76.0419120 113.5468105  83.7138283  76.9537125 113.8360356
  87.2355276  73.7169787 106.6234546  87.1154901  74.1626838 107.4620026
  86.5407864  74.0655105 106.0648084  80.8262680  75.8176179 114.1734203
  80.9555062  76.0710658 115.0873614  80.1460132  76.4103887 113.8538858
  92.9340342  74.1891261 107.4514880  93.8458198  74.4218647 107.2762577
  92.4249989  74.7728305 106.8889958  90.2776317  70.3649297 115.7004741
  89.4160796  70.6630550 115.9921478  90.3038751  70.5819696 114.7685773
  87.0937886  78.9091487 112.1078546  87.5576232  79.1879190 111.3183169
  86.8294684  78.0074932 111.9251637  86.0306772  75.0314640 108.9168111
  86.7330815  75.4835683 109.3842038  85.6987401  74.3898458 109.5448004
  79.7732106  73.2898192 114.2185245  78.9831160  73.5455721 113.7425356
  80.2643353  74.1046530 114.3237285  81.7246851  73.6542771 111.1768722
  80.9278015  73.7661466 111.6952217  81.4972444  73.9929424 110.3109612
  78.0569809  73.5428683 116.6500236  78.3077847  74.4275693 116.9157812
  78.5929357  73.3633284 115.8775328  87.2700537  81.8455582 108.9930217
  87.1346211  82.6907118 109.4215064  87.8110349  82.0474860 108.2296150
  80.7229934  79.3631020 109.5658142  81.2354455  80.1574270 109.7163706
  81.3752647  78.6657311 109.4991743  82.5324819  82.4796776 111.6480895
  82.7091447  83.4014741 111.4601879  83.3281652  82.1655196 112.0775275
  90.6193000  65.3686144 117.5229110  90.2757270  66.2587786 117.4468221
  90.9871963  65.1787802 116.6598695  78.6878851  77.6919675 110.3417712
  79.5254073  78.1016683 110.1251420  78.8657119  76.7519117 110.3117906
  90.5843283  75.3594755 106.0301545  90.0689906  76.1299360 106.2689933
  90.3120591  74.6859891 106.6534607  88.1690394  70.2044456 111.0886784
  87.3131990  69.8151306 110.9092422  88.5817346  70.2836417 110.2286569
  89.6989541  67.7390799 115.4878343  89.1954336  67.7020934 114.6746149
  89.9920147  68.6483542 115.5475000  85.9432427  67.8229529 114.4944525
  86.8085423  67.6272338 114.1350414  86.0109935  67.5939881 115.4213882
  95.5577557  78.1127110 107.9654719  94.7807000  77.7738269 107.5209881
  96.2369038  78.1179733 107.2909684  90.3729586  73.2321847 107.8561326
  90.0679722  73.5467996 108.7071469  91.3260028  73.3103267 107.8988659
  88.8176018  79.3912071 109.5054280  88.2897380  78.6564830 109.1927518
  88.3163521  80.1686747 109.2594249  83.5494746  70.0531737 111.8660892
  84.1238497  69.8306918 111.1334085  84.1365728  70.1220431 112.6189493
  83.8764333  72.0836198 105.8856777  83.0401645  72.4210884 106.2066052
  83.7369102  71.9485178 104.9483914  85.8517413  66.9272986 110.5935961
  85.1981826  66.6122003 109.9692576  85.8097887  66.3048726 111.3195784
  86.9628618  77.2092281 102.5089253  86.0555680  76.9781534 102.7080402
  87.4599650  76.4129900 102.6963235  89.8696697  85.9189788 105.4285939
  89.1958396  86.2221485 106.0370897  90.2562519  86.7218868 105.0791397
  89.0855154  73.4154919 114.9183609  88.1677715  73.6369866 114.7605297
  89.5015297  73.4901230 114.0595316  89.8690201  74.8146335 110.0486289
  90.6162020  75.3267732 109.7393411  90.1381791  74.4930388 110.9090683
  88.1416852  77.3104876 107.0313243  87.2328071  77.0263909 107.1285713
  88.1711935  77.7303954 106.1716550  92.3169039  71.8503451 112.0305078
  91.5791795  71.3380837 112.3615321  92.5695812  71.4103833 111.2188355
  92.4180666  64.6279703 112.6246848  92.7239543  63.7677067 112.3372763
  93.1433271  65.2197323 112.4245842  78.7105022  75.0310390 111.0128446
  78.5129422  74.4379751 110.2879512  78.1551686  74.7262600 111.7304384
  86.6901746  74.9233496 113.1323039  86.7450355  73.9707333 113.0565515
  85.8792948  75.0792935 113.6164337  87.8392939  78.8513619 104.3701322
  87.4012369  78.1349478 103.9106959  88.5803380  79.0789734 103.8086413
  84.6294106  73.5410556 110.8913418  83.8161971  73.8404727 111.2978610
  85.1253100  73.1466245 111.6087900  95.9566054  77.1270816 110.4277641
  95.8183953  77.3172412 109.4998830  95.6002273  77.8890199 110.8845692
  84.1208180  71.1128912 116.5074653  84.7607560  70.9717671 115.8097616
  83.2885711  70.8263425 116.1313255  84.8968484  80.4131342 112.6209645
  85.6909083  79.9181662 112.4192220  84.1860177  79.8849205 112.2577351
  81.2051248  74.5574424 108.6969398  80.2748836  74.4958879 108.9139360
  81.3008720  74.0350376 107.9006039  81.1236797  71.0829237 111.2847639
  81.3843614  71.9974570 111.1756800  81.9453969  70.6153679 111.4344252
  82.5961722  72.4966994 118.4546464  83.2684775  72.2884356 117.8059113
  81.7691509  72.2989080 118.0151696  88.0687912  86.0869460 107.6433019
  88.2439668  85.6157504 108.4578641  87.3820700  86.7135227 107.8714279
  91.9604167  77.7098001 103.9633380  91.3433338  76.9844829 103.8666432
  91.4920655  78.4707361 103.6200454  83.7502713  71.9283425 103.0854684
  82.8732179  71.8072226 102.7216931  84.2260466  71.1369504 102.8333573
  75.2704853  76.7160585 113.1796191  75.9575893  76.4022315 112.5917206
  75.1152982  77.6201950 112.9063442  80.0739575  71.6050782 117.6081215
  79.9897764  70.9976451 116.8731625  79.2522282  72.0959800 117.6090711
  90.2463289  70.0904345 112.9751410  90.7431989  69.3374307 112.6552480
  89.4750271  70.1268662 112.4094619  91.3293070  78.8476032 110.5489833
  90.3949349  78.9677495 110.3794537  91.5069738  77.9448499 110.2849843
  86.8298258  72.2321728 112.7023094  86.4596045  71.6792769 113.3904000
  87.3257350  71.6279862 112.1498094  94.7165621  74.6893352 111.0839867
  95.1826073  75.5221343 111.0100170  95.1673122  74.2238333 111.7885126
  92.7841852  81.0337173 108.0826019  93.0601696  80.9193768 108.9919893
  91.9146351  80.6354658 108.0438192  92.6882284  67.0573939 115.1230769
  91.7745364  67.2878165 115.2912976  93.1175385  67.1412383 115.9744801
  89.7538082  84.2091709 108.9873881  90.2825848  83.6984163 108.3744044
  90.0166301  83.8934239 109.8519414  74.8472829  74.7961178 115.4513658
  74.8856929  74.2624769 116.2450776  74.3413122  74.2696384 114.8324635
  82.2263591  69.6425719 118.9476200  82.2904918  70.5040550 118.5353598
  82.1630712  69.0299721 118.2148559  78.4781407  73.5225281 108.5267590
  78.7734848  72.6135959 108.4734643  77.5769443  73.5013020 108.2048592
  82.0075654  71.5981277 114.5095138  81.2862240  72.2117245 114.3702611
  82.7968910  72.1339042 114.4311784  80.2069248  71.2039378 108.6506915
  79.8781955  70.3236757 108.4682021  80.5608619  71.1487047 109.5383304
  83.3211072  71.4912348 109.0182392  83.6607144  72.0198269 108.2961001
  83.7683192  71.8292754 109.7940959  86.0154512  69.8749399 118.4685460
  85.6751333  69.0757212 118.8706140  85.3093519  70.1751110 117.8962294
  86.6670984  66.9598711 116.9212783  87.4897053  66.4859189 116.7991674
  86.9109048  67.7389195 117.4211470  85.3079219  69.9886970 107.2175685
  86.0287581  70.3668222 106.7139402  84.6844523  70.7075846 107.3210663
  89.4510342  70.6932119 108.1534017  89.6673956  71.5756756 107.8522846
  88.9704409  70.3018332 107.4239659  84.1909563  73.6517832 114.7304762
  84.0454144  73.9658135 115.6229044  83.7134767  74.2702732 114.1775661
  86.0505946  70.6420380 114.7785652  86.0367515  69.7461473 114.4417950
  86.7678374  70.6491044 115.4123938  87.9032077  71.0757720 116.8238779
  87.6449854  71.9974791 116.8223109  87.3717117  70.6788155 117.5139243
  78.6655225  76.1923176 117.6692423  78.1208693  76.9682984 117.8012698
  79.5434575  76.5393981 117.5111545  85.4542842  69.5234760 110.0473222
  85.5758753  68.5951406 110.2464109  85.1644884  69.5373446 109.1351537
  88.3234032  67.2089671 113.1839942  88.3455729  67.2729004 112.2291921
  88.7402091  66.3694179 113.3780448  93.8353438  83.4975272 106.7025763
  94.5304342  84.1181964 106.9213077  94.1776588  82.6470623 106.9778141
  95.7344861  80.9474977 108.2313093  96.2596185  81.2862250 107.5062413
  95.6467213  80.0121992 108.0476228  79.8977861  83.2058501 112.5932975
  80.7235881  82.9062273 112.2131618  79.5471913  82.4366124 113.0422763
  78.0986466  81.1244828 113.5521908  77.2618374  80.6967002 113.3705910
  78.0710111  81.3177271 114.4892699  84.4272901  81.1088893 108.1389109
  84.5761021  81.7924357 107.4855782  85.2339344  81.0893983 108.6538565
  82.1825534  77.1354070 109.1450178  81.9371576  76.2316400 109.3430388
  82.3521448  77.1371221 108.2029656  81.4521181  72.8682428 106.6436339
  80.7590426  72.9426783 105.9876375  81.2072933  72.1042772 107.1657856
  90.1234838  64.4278029 114.0475830  90.4036591  63.7601218 114.6736256
  90.9085445  64.6207125 113.5350494  87.9268306  83.6037023 105.6100856
  87.3542273  84.2227210 105.1571328  88.5001100  84.1536385 106.1440778
  91.1465566  83.8874173 106.7409439  92.0796239  83.8219735 106.9442314
  91.0588779  84.7230440 106.2823971  93.7753583  83.2040044 103.7013386
  93.6967214  82.8699907 104.5949144  94.5963249  83.6961812 103.7004858
  88.3115105  74.9397836 102.9516909  89.2574209  74.8104044 103.0205327
  87.9329350  74.2012498 103.4286337  94.2836989  66.6053842 112.9143801
  94.0861810  66.2968930 113.7987133  94.8936695  67.3315481 113.0441730
  86.4958022  72.8647812 102.8871794  85.5889477  72.5680925 102.9634508
  86.7734003  72.5677630 102.0206080  77.4135962  74.1854176 113.3370840
  77.0938747  73.3319484 113.0445214  76.8669390  74.4002754 114.0928808
  88.1120088  67.4084702 109.0416035  87.3020816  67.0631787 109.4171281
  88.8004505  67.0992246 109.6303647  90.0410636  66.4862749 110.6640332
  90.5941674  66.9058202 111.3230355  90.2780722  65.5598497 110.7063288
  85.2656807  69.7234748 103.0283773  86.1275970  70.0489646 103.2879591
  85.4507151  68.9366243 102.5156839  77.2824222  77.8057087 115.3063962
  76.5887694  77.3911040 114.7933916  78.0297213  77.8477624 114.7097381
  93.4189443  68.5963274 110.1718996  92.8388112  69.2548078 109.7897049
  93.1525376  67.7740619 109.7606414  91.8693009  67.9968332 112.3740317
  92.3692788  68.1084866 111.5654635  92.5128617  67.6929385 113.0141125
  79.1960965  77.7375341 113.1829977  79.1731653  77.8363028 112.2311860
  79.5061601  78.5840492 113.5047143  92.2014321  70.7563364 109.2275344
  91.3140176  71.0413015 109.0095539  92.6168310  70.5957128 108.3802621
  95.5528857  70.7809885 112.9429684  96.3289247  71.2706338 113.2154301
  94.8276991  71.2067940 113.4001553  91.3457534  80.5208039 103.3223364
  92.0493385  80.7258042 103.9381020  90.6220183  81.0884801 103.5872448
  92.1755345  76.2717900 109.4425635  92.1190546  76.7286452 108.6033267
  92.7283687  75.5108585 109.2648477  95.9860151  72.0607632 110.2675754
  95.7297085  71.6604268 111.0983962  95.3613019  72.7751426 110.1425893
  93.2544232  80.9590568 105.3721824  94.0889836  80.5271767 105.1899299
  93.0928575  80.7872582 106.2998719  92.9090124  77.4622682 106.7378164
  92.8538928  77.2966953 105.7966608  92.2836179  78.1698714 106.8940354
  77.6982639  72.6990746 120.5639586  78.3441503  72.1889700 121.0526811
  77.4899790  73.4359428 121.1383011  86.2186250  66.9630791 106.3163482
  86.2064919  67.9072631 106.4731753  87.1109671  66.7800936 106.0222943
  90.0338369  63.5573567 110.5709419  89.2670765  63.0032054 110.7166101
  90.4449074  63.6295436 111.4323571  94.7158087  87.4128116 105.8856777
  93.8795399  87.7502802 106.2066052  94.5762857  87.2777095 104.9483914
  94.5896467  87.2575343 103.0854684  93.7125934  87.1364144 102.7216931
  95.0654220  86.4661421 102.8333573  97.3351776  88.1939730 102.8871794
  96.4283232  87.8972843 102.9634508  97.6127757  87.8969548 102.0206080
  96.1050561  85.0526665 103.0283773  96.9669725  85.3781564 103.2879591
  96.2900905  84.2658161 102.5156839  97.0580004  82.2922708 106.3163482
  97.0458674  83.2364548 106.4731753  97.9503426  82.1092854 106.0222943
  46.5121680   1.6084240  92.1531246  45.8383379   1.9115937  92.7616204
  46.8987502   2.4113320  91.8036703  50.4778421  -0.8130277  93.4271069
  51.1729326  -0.1923584  93.6458384  50.8201571  -1.6634925  93.7023447
  44.5693290  -0.7068525  92.3346163  43.9967257  -0.0878338  91.8816635
  45.1426083  -0.1569163  92.8686085  47.7890549  -0.4231375  93.4654745
  48.7221222  -0.4885813  93.6687621  47.7013762   0.4124892  93.0069278
  50.4178566  -1.1065504  90.4258693  50.3392197  -1.4405641  91.3194451
  51.2388233  -0.6143737  90.4250165  47.9882518  -3.7897509  90.0468671
  48.6918368  -3.5847507  90.6626327  47.2645167  -3.2220747  90.3117755
  49.8969215  -3.3514980  92.0967131  50.7314819  -3.7833781  91.9144606
  49.7353558  -3.5232966  93.0244026  58.5253490   7.1654671 102.1922308
  59.1631900   7.0461419 101.4885648  58.4074333   8.1135515 102.2510260
  51.1930012   8.9717576  98.1180724  50.6294877   8.8807513  97.3497011
  51.0782407   8.1517480  98.5983216  56.7729571  12.6388543  93.4295188
  56.1217551  13.2242624  93.0429202  57.5673934  13.1694738  93.4890226
  50.6985198   9.7277681  93.8282323  51.4716074   9.1806668  93.6895199
  51.0510597  10.5921930  94.0396784  53.0351476   5.8870347  91.4600773
  53.2876997   5.3651868  90.6984236  52.0976035   5.7236492  91.5627456
  58.0794759   4.8906125  99.2675516  58.8657848   4.4725548  98.9165933
  58.3433463   5.7952217  99.4357164  58.2504836  10.3278975  93.9664173
  57.6150669  10.4013602  94.6785077  57.9202243  10.9172574  93.2883252
  63.4803186   4.8281358 100.1708494  64.2128358   4.2580575 100.4046324
  62.7242542   4.4402959 100.6115000  52.7547765   7.7898453  93.6625148
  52.6384023   7.1143356  94.3306232  52.8650025   7.3030827  92.8457301
  55.0979306   7.2508600  97.3671837  54.7337513   6.7239221  98.0784758
  55.9546422   6.8607069  97.1938322  54.7384793   2.2798500  92.3633185
  54.9059195   3.1478736  92.7303656  54.5481962   2.4425781  91.4394475
  54.7174013   4.7356157  93.3479852  54.5973639   5.1813208  94.1865333
  54.0226602   5.0841475  92.7893390  52.4780906  17.5059799  96.9969983
  52.4004935  18.4567624  97.0758464  51.8742549  17.1605671  97.6544910
  60.4159080   5.2077630  94.1760186  61.3276936   5.4405017  94.0007884
  59.9068727   5.7914674  93.6135265  59.0228662  10.1903449 101.5673768
  58.3937524  10.3549163 100.8649836  58.6354324  10.6045058 102.3384732
  62.9017894  11.1257887  98.9218131  62.2168932  11.5056788  98.3715165
  62.9861743  11.7353213  99.6550079  54.5756624   9.9277857  98.8323853
  55.0394969  10.2065560  98.0428475  54.3113422   9.0261301  98.6496944
  53.5125510   6.0501009  95.6413418  54.2149553   6.5022053  96.1087344
  53.1806138   5.4084828  96.2693311  61.2714653  11.6489801 103.6935832
  62.0932097  11.2469988 103.4118514  61.2677056  11.5458035 104.6451948
  69.3620646   7.9928549 100.0420804  68.6084355   7.4235948  99.8864808
  69.4968188   7.9591214 100.9891439  54.7519274  12.8641952  95.7175523
  54.6164949  13.7093487  96.1460371  55.2929087  13.0661229  94.9541457
  48.2048672  10.3817390  96.2903448  48.7173192  11.1760640  96.4409013
  48.8571385   9.6843680  96.2237050  50.0143557  13.4983146  98.3726201
  50.1910185  14.4201111  98.1847185  50.8100390  13.1841565  98.8020581
  51.1374872  15.0161320 104.3736544  51.6882297  14.8878383 103.6013538
  50.2986348  15.3156209 104.0231437  46.1697589   8.7106044  97.0663019
  47.0072811   9.1203052  96.8496727  46.3475856   7.7705486  97.0363213
  58.0662021   6.3781125  92.7546852  57.5508644   7.1485729  92.9935239
  57.7939329   5.7046261  93.3779913  55.6509132   1.2230826  97.8132090
  54.7950728   0.8337676  97.6337729  56.0636084   1.3022786  96.9531876
  63.0396295   9.1313479  94.6900025  62.2625738   8.7924639  94.2455187
  63.7187776   9.1366103  94.0154990  57.8548324   4.2508217  94.5806633
  57.5498459   4.5654366  95.4316776  58.8078766   4.3289637  94.6233966
  56.2994756  10.4098440  96.2299587  55.7716117   9.6751200  95.9172824
  55.7982258  11.1873116  95.9839555  61.2787602   8.6047461 101.3466633
  60.6211276   9.2946722 101.4346762  62.0828001   8.9943893 101.6900620
  60.0893061   6.9591833  99.3970575  60.6024942   7.5921825  99.8992285
  60.7394284   6.3593029  99.0313935  51.3583070   3.1022567  92.6102084
  50.5220383   3.4397254  92.9311358  51.2187840   2.9671547  91.6729221
  54.4447356   8.2278650  89.2334560  53.5374418   7.9967904  89.4325709
  54.9418388   7.4316270  89.4208542  57.3515435  16.9376158  92.1531246
  56.6777134  17.2407854  92.7616204  57.7381257  17.7405238  91.8036703
  57.3508939   5.8332705  96.7731596  58.0980758   6.3454102  96.4638718
  57.6200529   5.5116757  97.6335989  55.6235589   8.3291245  93.7558550
  54.7146809   8.0450278  93.8531020  55.6530673   8.7490324  92.8961857
  60.8554857  11.9397835  97.5249718  60.4017184  11.0988745  97.5814908
  60.2248824  12.5759233  97.8624498  59.7987776   2.8689821  98.7550385
  59.0610533   2.3567207  99.0860628  60.0514550   2.4290202  97.9433662
  59.2987796  13.7774331  98.4599536  59.5910770  14.3379389  97.7411901
  59.8086417  14.0702892  99.2152695  54.1720483   5.9419866  99.8568345
  54.2269093   4.9893702  99.7810822  53.3611685   6.0979305 100.3409644
  55.3211677   9.8699989  91.0946629  54.8831107   9.1535848  90.6352266
  56.0622118  10.0976104  90.5331720  52.1112843   4.5596926  97.6158724
  51.2980709   4.8591096  98.0223916  52.6071838   4.1652614  98.3333207
  54.2621421  14.5554683  99.5492989  54.2197600  14.7815529  98.6201521
  55.1784120  14.3218057  99.6978790  63.4384792   8.1457186  97.1522947
  63.3002691   8.3358782  96.2244136  63.0821011   8.9076569  97.6090998
  63.4654172  10.2133713 102.1634219  63.8990678  10.1209002 103.0117273
  64.1785752  10.1891213 101.5254235  52.3787222  11.4317712  99.3454952
  53.1727821  10.9368032  99.1437527  51.6678914  10.9035575  98.9822657
  57.1982066  13.8135807 103.6967319  57.2519089  14.3826743 104.4645035
  56.3296848  13.9837692 103.3321356  48.6869985   5.5760793  95.4214704
  47.7567574   5.5145249  95.6384667  48.7827457   5.0536746  94.6251346
  64.3269721  10.2557414 104.6967104  64.5205611  11.1603224 104.9426379
  64.2270339   9.7964833 105.5305689  54.9558498  12.0046734 103.0252789
  54.8169584  11.6365518 103.8978727  54.1673094  12.5194373 102.8536747
  55.5506650  17.1055830  94.3678325  55.7258406  16.6343873  95.1823948
  54.8639438  17.7321596  94.5959586  56.5063713  11.3828336 100.4141627
  56.1713546  11.3429106 101.3099276  56.0067659  10.7173052  99.9412037
  59.4422905   8.7284371  90.6878686  58.8252075   8.0031199  90.5911739
  58.9739393   9.4893731  90.3445760  50.1167735  20.2545193 101.1418185
  50.3564333  20.8863717 101.8197204  49.2736932  19.9033233 101.4283545
  51.2321451   2.9469795  89.8099990  50.3550917   2.8258596  89.4462237
  51.7079204   2.1555873  89.5578879  54.6295597  16.0624315 103.5459689
  54.5565769  16.8679287 104.0578994  54.1872990  16.2616281 102.7207711
  54.4185377  15.2996085  97.0562511  53.6352899  15.8417765  97.1500736
  55.1178122  15.8170065  97.4556752  65.5811784   6.8131080 101.3415008
  65.5701661   7.6955796 100.9708941  64.7129164   6.4602631 101.1469545
  57.0894281  15.9611149 105.7017848  57.8022253  16.5958614 105.6293750
  56.5984309  16.0575015 104.8857850  58.8111808   9.8662402  97.2735140
  57.8768086   9.9863864  97.1039844  58.9888476   8.9634869  97.0095150
  62.1984359   5.7079721  97.8085174  62.6644811   6.5407713  97.7345477
  62.6491859   5.2424703  98.5130432  60.2660590  12.0523543  94.8071326
  60.5420434  11.9380137  95.7165200  59.3965089  11.6541027  94.7683499
  56.9014654  16.3009893  98.4504140  57.0837049  15.4831549  98.9131892
  57.7247640  16.5177586  98.0129030  57.2356820  15.2278078  95.7119188
  57.7644586  14.7170533  95.0989350  57.4985039  14.9120609  96.5764721
  50.5912567  16.2793195  98.4716964  49.9222943  16.7639323  97.9881004
  50.4525437  16.5262416  99.3860343  54.7317836  18.3136939 105.0699622
  55.2836144  18.4768560 105.8348708  55.0724030  18.9041376 104.3979647
  45.9600145   4.5411650  95.2512896  46.2553586   3.6322329  95.1979950
  45.0588180   4.5199390  94.9293899  57.8686223  16.2618914 102.0563305
  57.7437363  15.4608654 101.5474250  58.5265314  16.7565108 101.5677274
  59.9321132  14.0627934 103.6842855  58.9851467  13.9433285 103.6121181
  60.2803905  13.1750432 103.7669116  56.9367565  13.8580651  99.8847207
  56.7892527  12.9297358 100.0654777  57.7621059  13.8800741  99.4004282
  50.8029809   2.5098718  95.7427699  51.1425882   3.0384639  95.0206307
  51.2501930   2.8479124  96.5186266  60.5401687  14.6809209 100.9712080
  61.4648234  14.4752071 100.8336531  60.3716990  14.4325610 101.8801421
  52.7897956   1.0073339  93.9420992  53.5106319   1.3854592  93.4384709
  52.1663261   1.7262216  94.0455970  56.9329079   1.7118488  94.8779324
  57.1492694   2.5943126  94.5768152  56.4523146   1.3204702  94.1484966
  60.3297003  15.1994877  96.3274171  60.5033881  14.6341299  95.5748024
  60.8225894  15.9995772  96.1453661  66.1836394   7.9631300  97.9464471
  66.6267540   7.2138625  97.5483594  65.3062905   7.9541436  97.5638203
  61.3172176  14.5161641  93.4271069  62.0123080  15.1368334  93.6458384
  61.6595326  13.6656992  93.7023447  63.2163599  11.9661347  94.9558400
  63.7414923  12.3048619  94.2307720  63.1285951  11.0308362  94.7721535
  54.9004259  18.0333330  99.3153653  54.4609250  17.5409709 100.0086510
  55.6512376  17.4906298  99.0745729  47.3796598  14.2244871  99.3178281
  48.2054618  13.9248643  98.9376925  47.0290650  13.4552493  99.7668070
  52.3478132  13.5771339 101.3875955  51.7258141  12.9142044 101.0878183
  53.0182998  13.6032471 100.7049603  51.9091638  12.1275262  94.8634416
  52.0579759  12.8110727  94.2101088  52.7158082  12.1080352  95.3783871
  65.7269259   9.4336538 100.3386918  66.5616150   9.8726342 100.5024479
  65.8628388   8.9575191  99.5195164  49.6644271   8.1540440  95.8695484
  49.4190313   7.2502770  96.0675695  49.8340186   8.1557590  94.9274962
  48.9339919   3.8868798  93.3681646  48.2409164   3.9613153  92.7121682
  48.6891671   3.1229141  93.8903163  55.4087044  14.6223393  92.3346163
  54.8361011  15.2413580  91.8816635  55.9819838  15.1722754  92.8686085
  58.6284304  14.9060543  93.4654745  59.5614977  14.8406105  93.6687621
  58.5407517  15.7416810  93.0069278  61.2572320  14.2226413  90.4258693
  61.1785952  13.8886277  91.3194451  62.0781987  14.7148181  90.4250165
  63.9550512   7.0888153 103.6335011  63.9226832   6.1504153 103.8194695
  64.5651135   7.1672189 102.9000836  55.7933842   5.9584206  89.6762215
  56.7392947   5.8290414  89.7450633  55.4148087   5.2198867  90.1531644
  69.7727061   8.1504159 102.7741048  70.5030450   7.8889448 103.3348751
  69.1634007   7.4132881 102.8143116  67.8542359   6.2912022 103.3715499
  67.1275522   6.1567987 102.7631991  67.4389645   6.5988851 104.1772217
  53.9776760   3.8834182  89.6117101  53.0708215   3.5867295  89.6879814
  54.2552741   3.5864000  88.7451387  55.5938825  -1.5728928  95.7661342
  54.7839554  -1.9181843  96.1416588  56.2823242  -1.8821385  96.3548954
  52.7475544   0.7421117  89.7529080  53.6094708   1.0676015  90.0124897
  52.9325888  -0.0447387  89.2402146  60.9008181  -0.3850356  96.8964303
  60.3206850   0.2734448  96.5142355  60.6344113  -1.2073012  96.4851720
  59.6833059   1.7749734  95.9520651  58.7958914   2.0599385  95.7340846
  60.0987048   1.6143497  95.1047928  63.0347595   1.7996255  99.6674990
  63.8107985   2.2892707  99.9399607  62.3095729   2.2254309 100.1246860
  65.4720154   2.5123874 100.7248931  66.0664644   2.2719610 100.0142239
  65.5446737   1.7931005 101.3522467  47.6917309  16.3557485 101.0392096
  47.5571777  15.5957886 100.4730094  47.2749371  17.0798385 100.5720885
  58.8276272  11.5394409  90.0468671  59.5312122  11.7444411  90.6626327
  58.1038921  12.1071171  90.3117755  59.6574083   7.2904270  96.1670941
  59.6009284   7.7472821  95.3278574  60.2102425   6.5294955  95.9893784
  63.4678888   3.0794002  96.9921061  63.2115823   2.6790637  97.8229268
  62.8431756   3.7937796  96.8671200  67.7791226   5.8190075  99.4992352
  67.2190784   5.8883264 100.2723914  67.1734730   5.6431060  98.7791848
  50.8486435  17.2526802 101.2510538  50.7318819  18.1972235 101.1489229
  50.0278881  16.9500364 101.6396338  60.7362970  11.9776938  92.0967131
  61.5708574  11.5458136  91.9144606  60.5747313  11.8058952  93.0244026
  60.3908862   8.4809051  93.4623470  60.3357666   8.3153323  92.5211915
  59.7654917   9.1885084  93.6185660  53.7004987  -2.0182840  93.0408789
  53.6883657  -1.0741000  93.1977060  54.5928409  -2.2012694  92.7468250
  51.8740949  17.9055064 104.4666467  52.7768196  17.9378674 104.7832962
  51.6478319  16.9755515 104.4812803  53.6294551  16.6586051 101.1276545
  52.6790182  16.6587912 101.0140918  53.9327037  15.9118785 100.6112580
  69.3647245  22.4946589 102.1922308  70.0025655  22.3753336 101.4885648
  69.2468088  23.4427433 102.2510260  66.1736951  22.4474017 102.1283833
  65.8355463  22.3315082 101.2404367  67.0426719  22.0465182 102.1084839
  62.0323767  24.3009493  98.1180724  61.4688632  24.2099430  97.3497011
  61.9176162  23.4809398  98.5983216  66.6556734  23.6008869 108.0870038
  66.6445375  23.2061667 107.2150542  66.8177373  22.8674941 108.6803810
  59.5788199  25.7960685 100.9564944  60.3709491  25.4551510 100.5411243
  59.8184849  25.9055660 101.8767097  67.6123325  27.9680461  93.4295188
  66.9611305  28.5534542  93.0429202  68.4067688  28.4986656  93.4890226
  61.5378953  25.0569598  93.8282323  62.3109829  24.5098585  93.6895199
  61.8904351  25.9213848  94.0396784  63.3763995  26.3845981 107.0349222
  63.0853861  27.2891611 106.9195888  64.0120980  26.4262508 107.7493292
  64.3020202  23.7622829 103.6250582  64.8983774  23.5378852 102.9107545
  64.3595174  23.0207575 104.2276030  63.8745230  21.2162264  91.4600773
  64.1270751  20.6943786  90.6984236  62.9369789  21.0528410  91.5627456
  68.9188513  20.2198043  99.2675516  69.7051602  19.8017466  98.9165933
  69.1827218  21.1244135  99.4357164  69.0898591  25.6570893  93.9664173
  68.4544424  25.7305520  94.6785077  68.7595997  26.2464492  93.2883252
  74.3196940  20.1573276 100.1708494  75.0522112  19.5872493 100.4046324
  73.5636296  19.7694876 100.6115000  63.5941519  23.1190370  93.6625148
  63.4777777  22.4435274  94.3306232  63.7043779  22.6322744  92.8457301
  65.9373060  22.5800518  97.3671837  65.5731267  22.0531138  98.0784758
  66.7940176  22.1898987  97.1938322  71.8422361  13.8694850 104.6303103
  71.5105685  14.7390261 104.4064318  71.2467974  13.5531134 105.3097133
  65.5778547  17.6090417  92.3633185  65.7452949  18.4770654  92.7303656
  65.3875716  17.7717699  91.4394475  68.3353880  26.0707396 104.0299016
  68.0354603  26.9732435 103.9214823  67.9904940  25.8039579 104.8820169
  61.7866362  22.5221193 100.0635720  60.8616858  22.3897407 100.2713412
  62.0350775  23.3015412 100.5605663  71.7351024  18.5889936 101.7096453
  70.8267901  18.5205345 101.4155214  71.6838620  19.0661881 102.5378279
  65.5567768  20.0648075  93.3479852  65.4367393  20.5105125  94.1865333
  64.8620356  20.4133392  92.7893390  59.1475173  22.1654466 100.8979509
  59.2767554  22.4188945 101.8118921  58.4672624  22.7582174 100.5784164
  63.3174660  32.8351716  96.9969983  63.2398690  33.7859542  97.0758464
  62.7136304  32.4897589  97.6544910  65.8091890  20.0079582 109.6531350
  65.0325224  20.5673502 109.6434215  66.4482453  20.4936365 110.1746220
  73.6012670  16.7906375 103.4874327  72.9587051  17.0838908 102.8414122
  73.0967599  16.6759295 104.2927524  71.2552834  20.5369548  94.1760186
  72.1670690  20.7696935  94.0007884  70.7462481  21.1206592  93.6135265
  64.0638262  22.8165035 109.2149317  64.8052946  23.3550079 108.9384141
  63.3575248  23.4431324 109.3720869  69.5393602  24.9594176 107.8121479
  69.9476958  24.5176586 107.0676111  68.8170863  24.3846803 108.0655672
  65.8924672  19.8966782 105.1855036  66.7385867  20.3206196 105.3289685
  65.8323309  19.2400407 105.8793599  69.8622416  25.5195366 101.5673768
  69.2331279  25.6841080 100.8649836  69.4748078  25.9336976 102.3384732
  73.7411648  26.4549804  98.9218131  73.0562686  26.8348706  98.3715165
  73.8255498  27.0645131  99.6550079  69.0424117  17.5571151 106.8436209
  68.7985049  18.3113211 106.3070485  69.3184048  17.9356498 107.6783457
  70.9962580  24.1009763 105.5213475  71.2079475  24.7441523 104.8447856
  70.9492328  23.2672080 105.0535405  68.5988809  16.7127584 102.4250047
  67.7373288  17.0108837 102.7166785  68.6251244  16.9297983 101.4931080
  65.4150378  25.2569774  98.8323853  65.8788724  25.5357477  98.0428475
  65.1507176  24.3553219  98.6496944  62.3074459  24.8041256 101.7703616
  62.8775816  25.2328524 101.1321101  62.8982571  24.5223841 102.4687802
  64.3519264  21.3792927  95.6413418  65.0543308  21.8313970  96.1087344
  64.0199893  20.7376746  96.2693311  62.7999626  19.9704683 110.0164627
  62.1698286  20.6520964 110.2500024  62.6935714  19.8587765 109.0717766
  58.0944598  19.6376479 100.9430552  57.3043652  19.8934008 100.4670662
  58.5855846  20.4524817 101.0482592  72.1108408  26.9781719 103.6935832
  72.9325852  26.5761906 103.4118514  72.1070811  26.8749953 104.6451948
  60.0459344  20.0021059  97.9014028  59.2490507  20.1139753  98.4197524
  59.8184936  20.3407711  97.0354919  65.8765011  26.5265762 105.8496543
  65.9409444  26.9886169 106.6854715  65.1675935  25.8963127 105.9778853
  56.3782301  19.8906970 103.3745542  56.6290340  20.7753980 103.6403118
  56.9141850  19.7111571 102.6020634  80.2014401  23.3220467 100.0420804
  79.4478109  22.7527865  99.8864808  80.3361942  23.2883132 100.9891439
  65.5913029  28.1933869  95.7175523  65.4558704  29.0385405  96.1460371
  66.1322841  28.3953147  94.9541457  59.0442426  25.7109307  96.2903448
  59.5566947  26.5052558  96.4409013  59.6965139  25.0135598  96.2237050
  60.8537311  28.8275064  98.3726201  61.0303939  29.7493028  98.1847185
  61.6494145  28.5133483  98.8020581  64.9948330  15.6883328 109.9710135
  65.7358043  16.2890481 109.8914597  65.2266252  14.9460966 109.4128178
  60.1389668  20.8739696 108.2488365  60.0243183  19.9724953 108.5495464
  59.2834185  21.1203392 107.8973181  67.2181505  28.8157436 109.8475865
  66.7745360  28.0293814 109.5296770  67.8798719  29.0036586 109.1819756
  61.9768627  30.3453238 104.3736544  62.5276052  30.2170301 103.6013538
  61.1380102  30.6448127 104.0231437  69.3162743  29.0960236 107.8757267
  69.2981219  29.9169117 107.3837536  70.2382663  28.9714311 108.1007408
  65.7735798  26.6104365 108.7180775  66.3064134  25.8492654 108.4880083
  65.2449879  26.3178017 109.4604929  68.9405493  11.7164431 104.2474417
  68.5969762  12.6066073 104.1713527  69.3084455  11.5266089 103.3844002
  57.0091343  24.0397962  97.0663019  57.8466565  24.4494970  96.8496727
  57.1869611  23.0997404  97.0363213  68.9055775  21.7073042  92.7546852
  68.3902399  22.4777647  92.9935239  68.6333084  21.0338179  93.3779913
  66.4902886  16.5522743  97.8132090  65.6344483  16.1629594  97.6337729
  66.9029838  16.6314704  96.9531876  68.0202033  14.0869086 102.2123650
  67.5166828  14.0499222 101.3991455  68.3132640  14.9961829 102.2720307
  64.2644919  14.1707816 101.2189832  65.1297916  13.9750625 100.8595721
  64.3322428  13.9418168 102.1459188  73.8790049  24.4605397  94.6900025
  73.1019492  24.1216557  94.2455187  74.5581530  24.4658020  94.0154990
  68.6942078  19.5800134  94.5806633  68.3892214  19.8946284  95.4316776
  69.6472521  19.6581554  94.6233966  67.1388510  25.7390358  96.2299587
  66.6109872  25.0043117  95.9172824  66.6376013  26.5165034  95.9839555
  72.1181356  23.9339378 101.3466633  71.4605031  24.6238640 101.4346762
  72.9221755  24.3235810 101.6900620  61.8707238  16.4010024  98.5906198
  62.4450990  16.1785206  97.8579391  62.4578220  16.4698719  99.3434800
  70.9286815  22.2883751  99.3970575  71.4418697  22.9213743  99.8992285
  71.5788039  21.6884947  99.0313935  62.1976825  18.4314485  92.6102084
  61.3614137  18.7689172  92.9311358  62.0581595  18.2963465  91.6729221
  64.1729906  13.2751273  97.3181268  63.5194318  12.9600290  96.6937883
  64.1310380  12.6527013  98.0441091  65.2841110  23.5570568  89.2334560
  64.3768172  23.3259822  89.4325709  65.7812142  22.7608187  89.4208542
  68.1909189  32.2668075  92.1531246  67.5170888  32.5699772  92.7616204
  68.5775011  33.0697156  91.8036703  67.4067646  19.7633207 101.6428916
  66.4890207  19.9848154 101.4850604  67.8227790  19.8379517 100.7840623
  68.1902694  21.1624622  96.7731596  68.9374513  21.6746019  96.4638718
  68.4594283  20.8408675  97.6335989  66.4629344  23.6583163  93.7558550
  65.5540563  23.3742196  93.8531020  66.4924428  24.0782242  92.8961857
  71.6948611  27.2689752  97.5249718  71.2410938  26.4280662  97.5814908
  71.0642578  27.9051151  97.8624498  70.6381531  18.1981738  98.7550385
  69.9004288  17.6859125  99.0860628  70.8908304  17.7582120  97.9433662
  70.1381551  29.1066249  98.4599536  70.4304525  29.6671306  97.7411901
  70.6480171  29.3994810  99.2152695  70.7393158  10.9757990  99.3492154
  71.0452035  10.1155354  99.0618069  71.4645763  11.5675611  99.1491148
  57.0317514  21.3788677  97.7373752  56.8341914  20.7858038  97.0124819
  56.4764178  21.0740887  98.4549691  65.0114238  21.2711784  99.8568345
  65.0662848  20.3185620  99.7810822  64.2005440  21.4271223 100.3409644
  66.1605432  25.1991907  91.0946629  65.7224862  24.4827766  90.6352266
  66.9015873  25.4268021  90.5331720  62.9506598  19.8888843  97.6158724
  62.1374463  20.1883014  98.0223916  63.4465592  19.4944532  98.3333207
  65.1015176  29.8846600  99.5492989  65.0591355  30.1107447  98.6201521
  66.0177875  29.6509975  99.6978790  68.5480810  20.3530668 106.4473618
  68.9030197  20.5802141 107.3068084  69.1952941  20.6849045 105.8250873
  74.2778546  23.4749104  97.1522947  74.1396445  23.6650700  96.2244136
  73.9214765  24.2368486  97.6090998  62.4420673  17.4607199 103.2319959
  63.0820052  17.3195958 102.5342923  61.6098203  17.1741712 102.8558561
  74.3047926  25.5425631 102.1634219  74.7384433  25.4500920 103.0117273
  75.0179507  25.5183131 101.5254235  63.2180977  26.7609629  99.3454952
  64.0121575  26.2659949  99.1437527  62.5072669  26.2327492  98.9822657
  68.0375821  29.1427725 103.6967319  68.0912843  29.7118661 104.4645035
  67.1690602  29.3129610 103.3321356  59.5263740  20.9052711  95.4214704
  58.5961328  20.8437166  95.6384667  59.6221212  20.3828664  94.6251346
  59.4449289  17.4307524  98.0092946  59.7056106  18.3452857  97.9002106
  60.2666461  16.9631966  98.1589559  60.9174214  18.8445281 105.1791771
  61.5897268  18.6362643 104.5304419  60.0904001  18.6467367 104.7397003
  75.1663476  25.5849331 104.6967104  75.3599366  26.4895142 104.9426379
  75.0664094  25.1256750 105.5305689  66.8199786  15.4707222 107.1957431
  66.1727701  16.1697172 107.1021908  67.5900802  15.9043366 107.5633680
  70.2278584  25.7356074 110.2707985  70.0764091  25.5066626 109.3538068
  70.2183264  26.6926675 110.2839330  66.9963921  23.3087987 105.2554251
  67.9255981  23.4599146 105.0823218  66.5754951  23.3972008 104.4002898
  65.7952252  27.3338651 103.0252789  65.6563338  26.9657436 103.8978727
  65.0066849  27.8486291 102.8536747  66.3900404  32.4347748  94.3678325
  66.5652160  31.9635791  95.1823948  65.7033192  33.0613514  94.5959586
  67.3457468  26.7120254 100.4141627  67.0107300  26.6721024 101.3099276
  66.8461413  26.0464970  99.9412037  61.3201712  22.1187884 105.9394208
  61.1821510  21.3868123 106.5405747  62.2306635  22.0296784 105.6578395
  70.2816659  24.0576288  90.6878686  69.6645830  23.3323116  90.5911739
  69.8133148  24.8185649  90.3445760  63.9484012  21.8307843 105.4277887
  64.6583631  21.1901035 105.3864506  63.9053320  22.0820738 106.3504068
  71.9370791  28.7675197 108.3484467  71.8783337  28.0834417 107.6815050
  72.3390309  29.5094187 107.8965093  62.6612946  18.8173061 107.2473527
  62.1250303  18.3663800 107.8995123  62.0729655  18.9518970 106.5043991
  60.9561490  35.5837110 101.1418185  61.1958088  36.2155635 101.8197204
  60.1130686  35.2325150 101.4283545  62.0715205  18.2761713  89.8099990
  61.1944672  18.1550513  89.4462237  62.5472958  17.4847791  89.5578879
  71.9388198  26.7314781 106.5798446  71.0514977  26.3940702 106.7024845
  72.5086749  25.9997812 106.8167212  53.5917345  23.0638872  99.9041498
  54.2788385  22.7500602  99.3162513  53.4365474  23.9680237  99.6308749
  58.3952067  17.9529069 104.3326521  58.3110256  17.3454738 103.5976931
  57.5734774  18.4438087 104.3336018  65.4689352  31.3916233 103.5459689
  65.3959523  32.1971204 104.0578994  65.0266745  31.5908199 102.7207711
  65.2579131  30.6288003  97.0562511  64.4746653  31.1709683  97.1500736
  65.9571876  31.1461983  97.4556752  68.5675781  16.4382632  99.6996716
  69.0644481  15.6852595  99.3797787  67.7962763  16.4746949  99.1339926
  76.4205539  22.1422998 101.3415008  76.4095415  23.0247713 100.9708941
  75.5522918  21.7894549 101.1469545  67.9288035  31.2903067 105.7017848
  68.6416007  31.9250532 105.6293750  67.4378064  31.3866933 104.8857850
  69.6505562  25.1954320  97.2735140  68.7161841  25.3155782  97.1039844
  69.8282231  24.2926786  97.0095150  65.1510750  18.5800015  99.4268401
  64.7808538  18.0271056 100.1149307  65.6469843  17.9758149  98.8743401
  73.0378113  21.0371639  97.8085174  73.5038566  21.8699630  97.7345477
  73.4885614  20.5716620  98.5130432  62.9799949  29.0397510 106.5223419
  63.6809408  29.6733993 106.6752813  62.5095064  29.3812242 105.7619058
  71.1054345  27.3815460  94.8071326  71.3814188  27.2672055  95.7165200
  70.2358843  26.9832945  94.7683499  71.0094776  13.4052226 101.8476075
  70.0957856  13.6356453 102.0158282  71.4387878  13.4890670 102.6990108
  70.7801235  21.5942118 104.3475969  70.1272685  21.8418025 103.6928422
  71.1581615  20.7806256 104.0138447  67.7408409  31.6301811  98.4504140
  67.9230803  30.8123467  98.9131892  68.5641395  31.8469503  98.0129030
  68.0750574  30.5569996  95.7119188  68.6038340  30.0462451  95.0989350
  68.3378794  30.2412526  96.5764721  66.8288808  22.3361929 110.8342006
  66.1529445  22.2356058 111.5044382  67.6516442  22.1801143 111.2978004
  58.5767667  28.5733865 103.4554522  59.1621104  27.8277553 103.5882426
  58.3792505  28.8837822 104.3391186  61.4306322  31.6085113  98.4716964
  60.7616697  32.0931240  97.9881004  61.2919192  31.8554333  99.3860343
  53.1685321  21.1439466 102.1758965  53.2069421  20.6103056 102.9696083
  52.6625614  20.6174671 101.5569942  65.5711591  33.6428856 105.0699622
  66.1229899  33.8060478 105.8348708  65.9117784  34.2333294 104.3979647
  60.5476084  15.9904006 105.6721507  60.6117410  16.8518837 105.2598905
  60.4843204  15.3778008 104.9393866  70.4222465  28.4690114 110.9248277
  70.9662369  29.0820072 110.4303232  69.8409310  29.0269692 111.4415290
  56.7993899  19.8703568  95.2512896  57.0947340  18.9614246  95.1979950
  55.8981935  19.8491307  94.9293899  68.7079978  31.5910832 102.0563305
  68.5831117  30.7900572 101.5474250  69.3659069  32.0857025 101.5677274
  60.3288146  17.9459564 101.2340445  59.6074732  18.5595532 101.0947918
  61.1181402  18.4817329 101.1557091  70.7714886  29.3919852 103.6842855
  69.8245222  29.2725203 103.6121181  71.1197659  28.5042350 103.7669116
  63.1314460  15.2813991 107.5081097  63.6548861  15.5276287 108.2707406
  62.9126793  16.1134026 107.0884234  58.5281741  17.5517665  95.3752221
  58.1994447  16.6715044  95.1927327  58.8821111  17.4965334  96.2628611
  67.7761320  29.1872568  99.8847207  67.6286282  28.2589276 100.0654777
  68.6014813  29.2092659  99.4004282  61.6423564  17.8390635  95.7427699
  61.9819636  18.3676557  95.0206307  62.0895684  18.1771041  96.5186266
  71.3795441  30.0101127 100.9712080  72.3041989  29.8043988 100.8336531
  71.2110745  29.7617528 101.8801421  64.3367005  16.2227686 105.1930767
  63.9963825  15.4235499 105.5951447  63.6306011  16.5229397 104.6207600
  64.9883476  13.3076998 103.6458090  65.8109546  12.8337477 103.5236980
  65.2321540  14.0867482 104.1456776  63.6291711  16.3365257  93.9420992
  64.3500073  16.7146510  93.4384709  63.0057015  17.0554134  94.0455970
  67.7722834  17.0410406  94.8779324  67.9886448  17.9235044  94.5768152
  67.2916901  16.6496619  94.1484966  62.5122055  19.9996119 101.4550069
  62.3666636  20.3136422 102.3474350  62.0347259  20.6181019 100.9020967
  64.3718438  16.9898667 101.5030958  64.3580007  16.0939760 101.1663256
  65.0890866  16.9969331 102.1369244  66.2244569  17.4236007 103.5484086
  65.9662347  18.3453078 103.5468416  65.6929609  17.0266442 104.2384550
  71.1690758  30.5286794  96.3274171  71.3427635  29.9633217  95.5748024
  71.6619649  31.3287689  96.1453661  56.9867717  22.5401463 104.3937730
  56.4421185  23.3161271 104.5258004  57.8647067  22.8872268 104.2356851
  63.7755334  15.8713047  96.7718528  63.8971245  14.9429693  96.9709416
  63.4857376  15.8851733  95.8596844  66.6446524  13.5567958  99.9085248
  66.6668221  13.6207291  98.9537228  67.0614583  12.7172466 100.1025754
  77.0230149  23.2923217  97.9464471  77.4661295  22.5430543  97.5483594
  76.1456659  23.2833354  97.5638203  72.1565930  29.8453559  93.4271069
  72.8516835  30.4660251  93.6458384  72.4989080  28.9948910  93.7023447
  57.7733739  21.6671360 107.2867887  57.0315475  21.8153995 107.8732517
  57.4526484  21.9279625 106.4234636  74.0557353  27.2953264  94.9558400
  74.5808677  27.6340537  94.2307720  73.9679706  26.3600280  94.7721535
  65.7177402  31.2087338 107.0848277  66.0264528  30.9636485 107.9570976
  66.5152884  31.4133976 106.5967147  65.7398014  33.3625248  99.3153653
  65.3003004  32.8701626 100.0086510  66.4906131  32.8198215  99.0745729
  58.2190353  29.5536788  99.3178281  59.0448373  29.2540560  98.9376925
  57.8684405  28.7844411  99.7668070  63.1871886  28.9063257 101.3875955
  62.5651895  28.2433962 101.0878183  63.8576753  28.9324389 100.7049603
  56.4198958  27.4723115 100.2767215  55.5830866  27.0445289 100.0951216
  56.3922603  27.6655558 101.2138006  73.7451259  27.9286168 110.2609598
  72.9546803  27.9110307 109.7214097  73.5084614  28.4674462 111.0158635
  73.8649134  24.7778634 107.5742327  73.9147139  24.6128642 108.5157849
  73.7563058  23.9105893 107.1840207  62.7485393  27.4567180  94.8634416
  62.8973513  28.1402644  94.2101088  63.5551836  27.4372270  95.3783871
  71.1552897  20.7609562 108.8901633  72.0562759  20.6216027 108.5985631
  71.2300871  20.9264017 109.8299811  65.4895702  18.1376417 107.7354820
  64.6199011  18.4309983 107.4637408  65.7255182  18.7216862 108.4562083
  75.3667331  27.1975576 107.8184348  75.0752139  27.5605556 108.6547809
  74.7539462  26.4842584 107.6397680  76.5663013  24.7628456 100.3386918
  77.4009905  25.2018260 100.5024479  76.7022142  24.2867109  99.5195164
  73.6154519  22.3208190 106.2864406  74.0908641  22.5135837 105.4783258
  72.6920085  22.3767376 106.0407790  60.5038026  23.4832358  95.8695484
  60.2584068  22.5794688  96.0675695  60.6733940  23.4849508  94.9274962
  68.1934736  14.3556034 105.2520240  68.7116680  15.0917061 104.9266729
  67.8389869  14.6620027 106.0866999  59.7733673  19.2160715  93.3681646
  59.0802918  19.2905070  92.7121682  59.5285425  18.4521059  93.8903163
  68.4447330  10.7756317 100.7721137  68.7249084  10.1079506 101.3981563
  69.2297937  10.9685412 100.2595800  66.2480798  29.9515310  92.3346163
  65.6754766  30.5705498  91.8816635  66.8213592  30.5014672  92.8686085
  72.3156188  19.1973951 104.5192712  73.2673611  19.2972048 104.5404936
  72.1459639  18.4052219 105.0290796  70.3370568  16.2829534 104.7052113
  69.7420500  16.5634546 104.0098601  70.0520265  16.7723435 105.4768854
  69.4678058  30.2352461  93.4654745  70.4008731  30.1698022  93.6687621
  69.3801271  31.0708727  93.0069278  72.0966075  29.5518331  90.4258693
  72.0179706  29.2178195  91.3194451  72.9175742  30.0440099  90.4250165
  74.7944266  22.4180070 103.6335011  74.7620586  21.4796071 103.8194695
  75.4044890  22.4964107 102.9000836  66.6327597  21.2876123  89.6762215
  67.5786702  21.1582331  89.7450633  66.2541842  20.5490785  90.1531644
  74.9438755  19.2091114 103.6793295  74.4277803  18.4249570 103.4923223
  75.8278703  18.8809830 103.8439814  72.6049482  12.9532129  99.6389107
  72.4074303  12.6447217 100.5232439  73.2149187  13.6793768  99.7687037
  80.6120816  23.4796077 102.7741048  81.3424204  23.2181365 103.3348751
  80.0027761  22.7424799 102.8143116  78.6936113  21.6203940 103.3715499
  77.9669277  21.4859905 102.7631991  78.2783400  21.9280768 104.1772217
  66.5166290  25.3393869 111.1362872  67.4369299  25.5172468 111.3302919
  66.4815873  24.3949915 110.9842572  64.8170514  19.2126100  89.6117101
  63.9101970  18.9159212  89.6879814  65.0946495  18.9155918  88.7451387
  55.7348455  20.5332463 100.0616147  55.4151239  19.6797771  99.7690521
  55.1881883  20.7481041 100.8174114  59.5128362  23.2494904 103.7785654
  59.7314372  24.1812012 103.7973687  59.9254136  22.8902878 104.5640457
  66.4332580  13.7562989  95.7661342  65.6233308  13.4110074  96.1416588
  67.1216997  13.4470533  96.3548954  68.3623128  12.8341036  97.3885639
  68.9154167  13.2536490  98.0475662  68.5993215  11.9076784  97.4308595
  63.5869299  16.0713035  89.7529080  64.4488463  16.3967933  90.0124897
  63.7719643  15.2844531  89.2402146  55.6036715  24.1535374 102.0309269
  54.9100186  23.7389327 101.5179223  56.3509706  24.1955911 101.4342688
  71.7401935  14.9441561  96.8964303  71.1600604  15.6026365  96.5142355
  71.4737868  14.1218906  96.4851720  70.1905502  14.3446619  99.0985623
  70.6905280  14.4563154  98.2899942  70.8341110  14.0407672  99.7386432
  64.2487497  22.2525249 111.9853464  63.7654579  23.0525609 112.1917353
  64.3348436  22.2633193 111.0320908  57.5173457  24.0853628  99.9075284
  57.4944145  24.1841316  98.9557167  57.8274094  24.9318779 100.2292450
  60.1760835  26.1429783 104.0221898  61.1304088  26.1113726 103.9551829
  59.9773359  25.6820407 104.8372124  60.7660217  24.7130899 106.5892696
  61.5853106  25.2074978 106.6127533  61.0397025  23.7962867 106.5610263
  70.5226813  17.1041652  95.9520651  69.6352668  17.3891302  95.7340846
  70.9380802  16.9435415  95.1047928  73.8741349  17.1288173  99.6674990
  74.6501740  17.6184625  99.9399607  73.1489484  17.5546227 100.1246860
  76.3113908  17.8415792 100.7248931  76.9058399  17.6011528 100.0142239
  76.3840492  17.1222922 101.3522467  58.5311064  31.6849403 101.0392096
  58.3965532  30.9249804 100.4730094  58.1143126  32.4090303 100.5720885
  69.6670027  26.8686326  90.0468671  70.3705877  27.0736329  90.6626327
  68.9432676  27.4363088  90.3117755  70.4967837  22.6196188  96.1670941
  70.4403038  23.0764739  95.3278574  71.0496179  21.8586872  95.9893784
  74.3072643  18.4085919  96.9921061  74.0509577  18.0082555  97.8229268
  73.6825511  19.1229713  96.8671200  78.6184981  21.1481993  99.4992352
  78.0584539  21.2175182 100.2723914  78.0128484  20.9722977  98.7791848
  61.6880190  32.5818720 101.2510538  61.5712574  33.5264152 101.1489229
  60.8672636  32.2792281 101.6396338  71.5756724  27.3068856  92.0967131
  72.4102328  26.8750054  91.9144606  71.4141067  27.1350869  93.0244026
  71.2302616  23.8100969  93.4623470  71.1751420  23.6445240  92.5211915
  70.6048672  24.5177002  93.6185660  56.0195131  19.0469033 107.2884893
  56.6653995  18.5367987 107.7772118  55.8112282  19.7837715 107.8628318
  68.5448524  26.1149881 112.7877033  69.4139683  26.2890533 112.4263668
  68.0655275  26.9344298 112.6652763  64.5398742  13.3109078  93.0408789
  64.5277412  14.2550918  93.1977060  65.4322164  13.1279223  92.7468250
  62.7134704  33.2346982 104.4666467  63.6161950  33.2670592 104.7832962
  62.4872074  32.3047433 104.4812803  64.4688306  31.9877968 101.1276545
  63.5183937  31.9879830 101.0140918  64.7720792  31.2410703 100.6112580
  68.3550861   9.9051854  97.2954726  67.5883257   9.3510341  97.4411408
  68.7661566   9.9773723  98.1568877  80.2040999  37.8238507 102.1922308
  80.8419409  37.7045254 101.4885648  80.0861842  38.7719351 102.2510260
  77.0130706  37.7765935 102.1283833  76.6749217  37.6606999 101.2404367
  77.8820474  37.3757100 102.1084839  72.8717521  39.6301411  98.1180724
  72.3082386  39.5391348  97.3497011  72.7569916  38.8101316  98.5983216
  77.4950489  38.9300786 108.0870038  77.4839129  38.5353585 107.2150542
  77.6571128  38.1966859 108.6803810  70.4181953  41.1252603 100.9564944
  71.2103245  40.7843427 100.5411243  70.6578603  41.2347578 101.8767097
  78.4517080  43.2972379  93.4295188  77.8005060  43.8826459  93.0429202
  79.2461443  43.8278574  93.4890226  72.3772707  40.3861516  93.8282323
  73.1503583  39.8390503  93.6895199  72.7298106  41.2505765  94.0396784
  74.2157750  41.7137898 107.0349222  73.9247616  42.6183529 106.9195888
  74.8514734  41.7554426 107.7493292  75.1413957  39.0914747 103.6250582
  75.7377529  38.8670769 102.9107545  75.1988928  38.3499492 104.2276030
  74.7138985  36.5454182  91.4600773  74.9664506  36.0235703  90.6984236
  73.7763544  36.3820328  91.5627456  79.7582268  35.5489960  99.2675516
  80.5445357  35.1309384  98.9165933  80.0220972  36.4536053  99.4357164
  79.9292345  40.9862811  93.9664173  79.2938178  41.0597437  94.6785077
  79.5989751  41.5756410  93.2883252  85.1590695  35.4865194 100.1708494
  85.8915867  34.9164410 100.4046324  84.4030051  35.0986794 100.6115000
  74.4335274  38.4482288  93.6625148  74.3171532  37.7727191  94.3306232
  74.5437534  37.9614662  92.8457301  76.7766815  37.9092435  97.3671837
  76.4125022  37.3823056  98.0784758  77.6333930  37.5190904  97.1938322
  82.6816115  29.1986768 104.6303103  82.3499440  30.0682179 104.4064318
  82.0861729  28.8823052 105.3097133  76.4172302  32.9382335  92.3633185
  76.5846704  33.8062571  92.7303656  76.2269471  33.1009617  91.4394475
  79.1747635  41.3999314 104.0299016  78.8748358  42.3024353 103.9214823
  78.8298694  41.1331497 104.8820169  72.6260116  37.8513111 100.0635720
  71.7010613  37.7189325 100.2713412  72.8744529  38.6307330 100.5605663
  82.5744779  33.9181854 101.7096453  81.6661656  33.8497262 101.4155214
  82.5232374  34.3953799 102.5378279  76.3961522  35.3939992  93.3479852
  76.2761148  35.8397043  94.1865333  75.7014111  35.7425310  92.7893390
  69.9868927  37.4946384 100.8979509  70.1161308  37.7480863 101.8118921
  69.3066379  38.0874092 100.5784164  74.1568415  48.1643634  96.9969983
  74.0792444  49.1151459  97.0758464  73.5530058  47.8189507  97.6544910
  76.6485644  35.3371500 109.6531350  75.8718978  35.8965420 109.6434215
  77.2876207  35.8228283 110.1746220  84.4406425  32.1198292 103.4874327
  83.7980805  32.4130826 102.8414122  83.9361353  32.0051213 104.2927524
  82.0946589  35.8661466  94.1760186  83.0064445  36.0988852  94.0007884
  81.5856236  36.4498510  93.6135265  74.9032017  38.1456953 109.2149317
  75.6446701  38.6841997 108.9384141  74.1969002  38.7723242 109.3720869
  80.3787356  40.2886093 107.8121479  80.7870712  39.8468504 107.0676111
  79.6564618  39.7138721 108.0655672  76.7318426  35.2258700 105.1855036
  77.5779621  35.6498114 105.3289685  76.6717064  34.5692324 105.8793599
  80.7016171  40.8487284 101.5673768  80.0725033  41.0132998 100.8649836
  80.3141833  41.2628894 102.3384732  84.5805403  41.7841722  98.9218131
  83.8956441  42.1640623  98.3715165  84.6649252  42.3937049  99.6550079
  79.8817872  32.8863069 106.8436209  79.6378804  33.6405129 106.3070485
  80.1577802  33.2648416 107.6783457  81.8356334  39.4301681 105.5213475
  82.0473230  40.0733441 104.8447856  81.7886083  38.5963997 105.0535405
  79.4382563  32.0419502 102.4250047  78.5767042  32.3400755 102.7166785
  79.4644998  32.2589900 101.4931080  76.2544133  40.5861692  98.8323853
  76.7182478  40.8649395  98.0428475  75.9900931  39.6845137  98.6496944
  73.1468214  40.1333174 101.7703616  73.7169571  40.5620442 101.1321101
  73.7376326  39.8515758 102.4687802  75.1913019  36.7084844  95.6413418
  75.8937062  37.1605888  96.1087344  74.8593647  36.0668663  96.2693311
  73.6393380  35.2996601 110.0164627  73.0092041  35.9812882 110.2500024
  73.5329468  35.1879683 109.0717766  68.9338353  34.9668397 100.9430552
  68.1437407  35.2225926 100.4670662  69.4249600  35.7816735 101.0482592
  82.9502162  42.3073636 103.6935832  83.7719606  41.9053824 103.4118514
  82.9464565  42.2041870 104.6451948  70.8853098  35.3312976  97.9014028
  70.0884261  35.4431671  98.4197524  70.6578690  35.6699629  97.0354919
  76.7158766  41.8557680 105.8496543  76.7803198  42.3178087 106.6854715
  76.0069690  41.2255045 105.9778853  67.2176056  35.2198888 103.3745542
  67.4684094  36.1045897 103.6403118  67.7535604  35.0403489 102.6020634
  91.0408155  38.6512385 100.0420804  90.2871864  38.0819783  99.8864808
  91.1755697  38.6175049 100.9891439  76.4306783  43.5225787  95.7175523
  76.2952458  44.3677323  96.1460371  76.9716596  43.7245065  94.9541457
  72.9174123  29.6017367 112.3789878  72.5241069  29.0483565 113.0537523
  73.7340263  29.9127945 112.7696396  69.8836181  41.0401225  96.2903448
  70.3960701  41.8344475  96.4409013  70.5358894  40.3427516  96.2237050
  71.6931066  44.1566981  98.3726201  71.8697694  45.0784946  98.1847185
  72.4887899  43.8425401  98.8020581  75.8342084  31.0175246 109.9710135
  76.5751797  31.6182399 109.8914597  76.0660007  30.2752884 109.4128178
  70.9783422  36.2031613 108.2488365  70.8636937  35.3016871 108.5495464
  70.1227940  36.4495310 107.8973181  78.0575260  44.1449354 109.8475865
  77.6139114  43.3585732 109.5296770  78.7192473  44.3328504 109.1819756
  72.8162381  45.6745155 104.3736544  73.3669806  45.5462219 103.6013538
  71.9773857  45.9740044 104.0231437  80.1556498  44.4252154 107.8757267
  80.1374973  45.2461035 107.3837536  81.0776418  44.3006229 108.1007408
  76.6129552  41.9396283 108.7180775  77.1457889  41.1784571 108.4880083
  76.0843633  41.6469935 109.4604929  79.7799247  27.0456349 104.2474417
  79.4363516  27.9357991 104.1713527  80.1478210  26.8558007 103.3844002
  67.8485098  39.3689879  97.0663019  68.6860320  39.7786888  96.8496727
  68.0263365  38.4289322  97.0363213  79.7449530  37.0364960  92.7546852
  79.2296153  37.8069565  92.9935239  79.4726838  36.3630096  93.3779913
  77.3296641  31.8814661  97.8132090  76.4738237  31.4921511  97.6337729
  77.7423593  31.9606622  96.9531876  78.8595787  29.4161004 102.2123650
  78.3560583  29.3791139 101.3991455  79.1526394  30.3253747 102.2720307
  75.1038673  29.4999734 101.2189832  75.9691670  29.3042543 100.8595721
  75.1716182  29.2710086 102.1459188  84.7183804  39.7897315  94.6900025
  83.9413247  39.4508474  94.2455187  85.3975285  39.7949938  94.0154990
  79.5335833  34.9092052  94.5806633  79.2285968  35.2238201  95.4316776
  80.4866275  34.9873472  94.6233966  77.9782265  41.0682275  96.2299587
  77.4503626  40.3335035  95.9172824  77.4769767  41.8456952  95.9839555
  82.9575111  39.2631296 101.3466633  82.2998785  39.9530557 101.4346762
  83.7615510  39.6527728 101.6900620  72.7100992  31.7301942  98.5906198
  73.2844744  31.5077123  97.8579391  73.2971975  31.7990636  99.3434800
  81.7680570  37.6175669  99.3970575  82.2812451  38.2505661  99.8992285
  82.4181793  37.0176864  99.0313935  73.0370579  33.7606403  92.6102084
  72.2007892  34.0981089  92.9311358  72.8975349  33.6255383  91.6729221
  75.0123660  28.6043191  97.3181268  74.3588072  28.2892208  96.6937883
  74.9704134  27.9818931  98.0441091  76.1234865  38.8862486  89.2334560
  75.2161927  38.6551739  89.4325709  76.6205897  38.0900105  89.4208542
  79.0302944  47.5959993  92.1531246  78.3564643  47.8991690  92.7616204
  79.4168766  48.3989073  91.8036703  78.2461400  35.0925124 101.6428916
  77.3283962  35.3140071 101.4850604  78.6621544  35.1671435 100.7840623
  79.0296448  36.4916540  96.7731596  79.7768267  37.0037937  96.4638718
  79.2988038  36.1700593  97.6335989  77.3023098  38.9875081  93.7558550
  76.3934318  38.7034113  93.8531020  77.3318182  39.4074159  92.8961857
  82.5342366  42.5981670  97.5249718  82.0804693  41.7572580  97.5814908
  81.9036332  43.2343068  97.8624498  81.4775285  33.5273656  98.7550385
  80.7398042  33.0151042  99.0860628  81.7302059  33.0874038  97.9433662
  80.9775305  44.4358167  98.4599536  81.2698279  44.9963224  97.7411901
  81.4873926  44.7286728  99.2152695  81.5786913  26.3049908  99.3492154
  81.8845789  25.4447272  99.0618069  82.3039517  26.8967528  99.1491148
  67.8711269  36.7080595  97.7373752  67.6735669  36.1149955  97.0124819
  67.3157933  36.4032805  98.4549691  75.8507992  36.6003701  99.8568345
  75.9056602  35.6477538  99.7810822  75.0399194  36.7563140 100.3409644
  76.9999186  40.5283824  91.0946629  76.5618616  39.8119683  90.6352266
  77.7409627  40.7559939  90.5331720  73.7900352  35.2180761  97.6158724
  72.9768218  35.5174932  98.0223916  74.2859347  34.8236450  98.3333207
  75.9408930  45.2138518  99.5492989  75.8985109  45.4399364  98.6201521
  76.8571629  44.9801892  99.6978790  79.3874564  35.6822585 106.4473618
  79.7423952  35.9094059 107.3068084  80.0346695  36.0140962 105.8250873
  85.1172301  38.8041021  97.1522947  84.9790200  38.9942617  96.2244136
  84.7608520  39.5660404  97.6090998  73.2814427  32.7899116 103.2319959
  73.9213806  32.6487876 102.5342923  72.4491958  32.5033630 102.8558561
  85.1441681  40.8717548 102.1634219  85.5778187  40.7792837 103.0117273
  85.8573261  40.8475049 101.5254235  74.0574731  42.0901547  99.3454952
  74.8515329  41.5951867  99.1437527  73.3466423  41.5619410  98.9822657
  78.8769575  44.4719642 103.6967319  78.9306598  45.0410579 104.4645035
  78.0084357  44.6421527 103.3321356  70.3657494  36.2344629  95.4214704
  69.4355083  36.1729084  95.6384667  70.4614966  35.7120581  94.6251346
  70.2843044  32.7599441  98.0092946  70.5449861  33.6744775  97.9002106
  71.1060216  32.2923884  98.1589559  71.7567969  34.1737199 105.1791771
  72.4291022  33.9654561 104.5304419  70.9297755  33.9759285 104.7397003
  86.0057230  40.9141249 104.6967104  86.1993120  41.8187059 104.9426379
  85.9057848  40.4548668 105.5305689  77.6593541  30.7999140 107.1957431
  77.0121456  31.4989089 107.1021908  78.4294556  31.2335283 107.5633680
  81.0672339  41.0647992 110.2707985  80.9157845  40.8358543 109.3538068
  81.0577018  42.0218593 110.2839330  77.8357675  38.6379904 105.2554251
  78.7649735  38.7891064 105.0823218  77.4148705  38.7263925 104.4002898
  76.6346007  42.6630569 103.0252789  76.4957093  42.2949353 103.8978727
  75.8460603  43.1778208 102.8536747  77.2294159  47.7639665  94.3678325
  77.4045915  47.2927709  95.1823948  76.5426947  48.3905432  94.5959586
  78.1851222  42.0412172 100.4141627  77.8501055  42.0012942 101.3099276
  77.6855168  41.3756888  99.9412037  72.1595466  37.4479802 105.9394208
  72.0215264  36.7160040 106.5405747  73.0700390  37.3588702 105.6578395
  81.1210414  39.3868206  90.6878686  80.5039584  38.6615034  90.5911739
  80.6526902  40.1477566  90.3445760  74.7877767  37.1599761 105.4277887
  75.4977385  36.5192953 105.3864506  74.7447075  37.4112656 106.3504068
  82.7764545  44.0967114 108.3484467  82.7177092  43.4126334 107.6815050
  83.1784064  44.8386104 107.8965093  73.5006701  34.1464979 107.2473527
  72.9644058  33.6955717 107.8995123  72.9123409  34.2810888 106.5043991
  71.7955244  50.9129028 101.1418185  72.0351842  51.5447552 101.8197204
  70.9524441  50.5617068 101.4283545  72.9108960  33.6053630  89.8099990
  72.0338426  33.4842431  89.4462237  73.3866713  32.8139709  89.5578879
  82.7781953  42.0606698 106.5798446  81.8908731  41.7232620 106.7024845
  83.3480504  41.3289729 106.8167212  64.4311100  38.3930790  99.9041498
  65.1182140  38.0792520  99.3162513  64.2759229  39.2972155  99.6308749
  69.2345822  33.2820987 104.3326521  69.1504011  32.6746656 103.5976931
  68.4128528  33.7730005 104.3336018  76.3083106  46.7208151 103.5459689
  76.2353278  47.5263122 104.0578994  75.8660499  46.9200116 102.7207711
  76.0972886  45.9579921  97.0562511  75.3140408  46.5001601  97.1500736
  76.7965631  46.4753900  97.4556752  79.4069536  31.7674550  99.6996716
  79.9038235  31.0144512  99.3797787  78.6356517  31.8038867  99.1339926
  87.2599293  37.4714916 101.3415008  87.2489169  38.3539631 100.9708941
  86.3916673  37.1186466 101.1469545  78.7681790  46.6194985 105.7017848
  79.4809762  47.2542449 105.6293750  78.2771818  46.7158851 104.8857850
  80.4899317  40.5246237  97.2735140  79.5555595  40.6447700  97.1039844
  80.6675985  39.6218704  97.0095150  75.9904505  33.9091933  99.4268401
  75.6202292  33.3562973 100.1149307  76.4863597  33.3050067  98.8743401
  83.8771868  36.3663557  97.8085174  84.3432320  37.1991548  97.7345477
  84.3279368  35.9008538  98.5130432  73.8193703  44.3689428 106.5223419
  74.5203163  45.0025911 106.6752813  73.3488818  44.7104160 105.7619058
  81.9448099  42.7107378  94.8071326  82.2207943  42.5963972  95.7165200
  81.0752598  42.3124863  94.7683499  81.8488531  28.7344144 101.8476075
  80.9351610  28.9648370 102.0158282  82.2781632  28.8182588 102.6990108
  81.6194989  36.9234036 104.3475969  80.9666439  37.1709943 103.6928422
  81.9975369  36.1098174 104.0138447  78.5802163  46.9593729  98.4504140
  78.7624558  46.1415385  98.9131892  79.4035149  47.1761421  98.0129030
  78.9144329  45.8861914  95.7119188  79.4432095  45.3754368  95.0989350
  79.1772548  45.5704444  96.5764721  77.6682562  37.6653847 110.8342006
  76.9923199  37.5647976 111.5044382  78.4910196  37.5093060 111.2978004
  69.4161421  43.9025783 103.4554522  70.0014858  43.1569471 103.5882426
  69.2186260  44.2129740 104.3391186  72.2700076  46.9377031  98.4716964
  71.6010452  47.4223158  97.9881004  72.1312946  47.1846251  99.3860343
  64.0079076  36.4731383 102.1758965  64.0463175  35.9394974 102.9696083
  63.5019369  35.9466589 101.5569942  76.4105345  48.9720774 105.0699622
  76.9623653  49.1352396 105.8348708  76.7511538  49.5625212 104.3979647
  71.3869838  31.3195924 105.6721507  71.4511165  32.1810755 105.2598905
  71.3236959  30.7069925 104.9393866  70.8622111  33.3919056 109.3194541
  71.4894150  33.0096134 109.9332066  70.0050030  33.1733258 109.6850234
  81.2616219  43.7982032 110.9248277  81.8056123  44.4111990 110.4303232
  80.6803064  44.3561610 111.4415290  67.6387654  35.1995485  95.2512896
  67.9341095  34.2906164  95.1979950  66.7375689  35.1783225  94.9293899
  79.5473732  46.9202750 102.0563305  79.4224872  46.1192489 101.5474250
  80.2052823  47.4148943 101.5677274  71.1681901  33.2751482 101.2340445
  70.4468486  33.8887450 101.0947918  71.9575156  33.8109247 101.1557091
  81.6108641  44.7211770 103.6842855  80.6638976  44.6017121 103.6121181
  81.9591414  43.8334268 103.7669116  73.9708214  30.6105909 107.5081097
  74.4942616  30.8568205 108.2707406  73.7520547  31.4425943 107.0884234
  69.3675495  32.8809583  95.3752221  69.0388201  32.0006962  95.1927327
  69.7214866  32.8257252  96.2628611  78.6155074  44.5164486  99.8847207
  78.4680036  43.5881193 100.0654777  79.4408567  44.5384577  99.4004282
  72.4817318  33.1682553  95.7427699  72.8213391  33.6968474  95.0206307
  72.9289439  33.5062959  96.5186266  82.2189196  45.3393045 100.9712080
  83.1435743  45.1335906 100.8336531  82.0504499  45.0909446 101.8801421
  75.1760759  31.5519604 105.1930767  74.8357579  30.7527417 105.5951447
  74.4699765  31.8521315 104.6207600  75.8277231  28.6368916 103.6458090
  76.6503300  28.1629394 103.5236980  76.0715294  29.4159400 104.1456776
  74.4685465  31.6657175  93.9420992  75.1893828  32.0438427  93.4384709
  73.8450770  32.3846051  94.0455970  78.6116588  32.3702324  94.8779324
  78.8280203  33.2526961  94.5768152  78.1310655  31.9788537  94.1484966
  73.3515810  35.3288037 101.4550069  73.2060390  35.6428340 102.3474350
  72.8741013  35.9472937 100.9020967  75.2112193  32.3190585 101.5030958
  75.1973761  31.4231678 101.1663256  75.9284621  32.3261248 102.1369244
  77.0638323  32.7527925 103.5484086  76.8056101  33.6744996 103.5468416
  76.5323364  32.3558359 104.2384550  82.0084512  45.8578712  96.3274171
  82.1821390  45.2925135  95.5748024  82.5013403  46.6579607  96.1453661
  67.8261472  37.8693381 104.3937730  67.2814940  38.6453189 104.5258004
  68.7040822  38.2164186 104.2356851  74.6149089  31.2004965  96.7718528
  74.7365000  30.2721611  96.9709416  74.3251131  31.2143651  95.8596844
  77.4840279  28.8859875  99.9085248  77.5061976  28.9499209  98.9537228
  77.9008338  28.0464384 100.1025754  87.8623903  38.6215135  97.9464471
  88.3055049  37.8722460  97.5483594  86.9850414  38.6125271  97.5638203
  82.9959685  45.1745476  93.4271069  83.6910589  45.7952169  93.6458384
  83.3382835  44.3240828  93.7023447  68.6127494  36.9963277 107.2867887
  67.8709230  37.1445913 107.8732517  68.2920238  37.2571543 106.4234636
  84.8951108  42.6245182  94.9558400  85.4202432  42.9632455  94.2307720
  84.8073460  41.6892197  94.7721535  76.5571156  46.5379256 107.0848277
  76.8658283  46.2928402 107.9570976  77.3546638  46.7425894 106.5967147
  76.5791768  48.6917165  99.3153653  76.1396759  48.1993544 100.0086510
  77.3299885  48.1490133  99.0745729  69.0584107  44.8828706  99.3178281
  69.8842127  44.5832478  98.9376925  68.7078159  44.1136329  99.7668070
  74.0265641  44.2355174 101.3875955  73.4045650  43.5725879 101.0878183
  74.6970507  44.2616306 100.7049603  67.2592712  42.8015033 100.2767215
  66.4224621  42.3737207 100.0951216  67.2316358  42.9947476 101.2138006
  74.0990168  32.7136962 110.9808461  74.1478324  33.5899085 110.5986231
  74.6412682  32.1714355 110.4080104  84.5845014  43.2578086 110.2609598
  83.7940557  43.2402224 109.7214097  84.3478368  43.7966379 111.0158635
  84.7042889  40.1070552 107.5742327  84.7540894  39.9420559 108.5157849
  84.5956812  39.2397811 107.1840207  73.5879147  42.7859098  94.8634416
  73.7367268  43.4694562  94.2101088  74.3945591  42.7664188  95.3783871
  81.9946651  36.0901480 108.8901633  82.8956514  35.9507945 108.5985631
  82.0694626  36.2555935 109.8299811  76.3289456  33.4668335 107.7354820
  75.4592766  33.7601901 107.4637408  76.5648937  34.0508780 108.4562083
  86.2061086  42.5267493 107.8184348  85.9145894  42.8897474 108.6547809
  85.5933217  41.8134502 107.6397680  87.4056768  40.0920373 100.3386918
  88.2403659  40.5310177 100.5024479  87.5415897  39.6159026  99.5195164
  84.4548274  37.6500108 106.2864406  84.9302395  37.8427754 105.4783258
  83.5313839  37.7059294 106.0407790  71.3431780  38.8124275  95.8695484
  71.0977822  37.9086605  96.0675695  71.5127695  38.8141426  94.9274962
  79.0328490  29.6847952 105.2520240  79.5510434  30.4208979 104.9266729
  78.6783623  29.9911945 106.0866999  70.6127428  34.5452633  93.3681646
  69.9196673  34.6196988  92.7121682  70.3679180  33.7812977  93.8903163
  79.2841084  26.1048234 100.7721137  79.5642838  25.4371423 101.3981563
  80.0691691  26.2977330 100.2595800  77.0874553  45.2807228  92.3346163
  76.5148520  45.8997415  91.8816635  77.6607347  45.8306590  92.8686085
  83.1549943  34.5265868 104.5192712  84.1067366  34.6263966 104.5404936
  82.9853393  33.7344137 105.0290796  81.1764322  31.6121451 104.7052113
  80.5814254  31.8926464 104.0098601  80.8914019  32.1015352 105.4768854
  80.3071813  45.5644378  93.4654745  81.2402486  45.4989940  93.6687621
  80.2195026  46.4000645  93.0069278  82.9359829  44.8810249  90.4258693
  82.8573461  44.5470112  91.3194451  83.7569496  45.3732017  90.4250165
  85.6338021  37.7471988 103.6335011  85.6014341  36.8087989 103.8194695
  86.2438644  37.8256025 102.9000836  77.4721351  36.6168041  89.6762215
  78.4180456  36.4874249  89.7450633  77.0935596  35.8782703  90.1531644
  85.7832509  34.5383031 103.6793295  85.2671558  33.7541488 103.4923223
  86.6672458  34.2101748 103.8439814  83.4443236  28.2824047  99.6389107
  83.2468057  27.9739135 100.5232439  84.0542942  29.0085686  99.7687037
  91.4514570  38.8087995 102.7741048  92.1817959  38.5473283 103.3348751
  90.8421516  38.0716717 102.8143116  89.5329868  36.9495857 103.3715499
  88.8063031  36.8151822 102.7631991  89.1177154  37.2572686 104.1772217
  77.3560044  40.6685787 111.1362872  78.2763053  40.8464386 111.3302919
  77.3209627  39.7241832 110.9842572  75.6564269  34.5418017  89.6117101
  74.7495724  34.2451130  89.6879814  75.9340250  34.2447835  88.7451387
  66.5742209  35.8624381 100.0616147  66.2544993  35.0089689  99.7690521
  66.0275637  36.0772959 100.8174114  70.3522117  38.5786822 103.7785654
  70.5708126  39.5103929 103.7973687  70.7647890  38.2194796 104.5640457
  77.2726334  29.0854907  95.7661342  76.4627063  28.7401992  96.1416588
  77.9610751  28.7762451  96.3548954  79.2016883  28.1632954  97.3885639
  79.7547921  28.5828407  98.0475662  79.4386969  27.2368702  97.4308595
  75.2249982  34.1520027 113.1688402  75.1246709  35.1014384 113.1000494
  75.0071524  33.8238266 112.2964473  74.4263053  31.4004952  89.7529080
  75.2882217  31.7259851  90.0124897  74.6113397  30.6136448  89.2402146
  66.4430469  39.4827292 102.0309269  65.7493940  39.0681245 101.5179223
  67.1903460  39.5247829 101.4342688  82.5795690  30.2733479  96.8964303
  81.9994359  30.9318283  96.5142355  82.3131622  29.4510824  96.4851720
  81.0299256  29.6738537  99.0985623  81.5299034  29.7855071  98.2899942
  81.6734864  29.3699589  99.7386432  75.0881252  37.5817166 111.9853464
  74.6048334  38.3817526 112.1917353  75.1742191  37.5925111 111.0320908
  68.3567212  39.4145546  99.9075284  68.3337900  39.5133233  98.9557167
  68.6667848  40.2610697 100.2292450  71.0154589  41.4721701 104.0221898
  71.9697843  41.4405643 103.9551829  70.8167113  41.0112325 104.8372124
  71.6053972  40.0422817 106.5892696  72.4246861  40.5366896 106.6127533
  71.8790779  39.1254785 106.5610263  81.3620568  32.4333569  95.9520651
  80.4746423  32.7183220  95.7340846  81.7774557  32.2727333  95.1047928
  84.7135104  32.4580090  99.6674990  85.4895494  32.9476543  99.9399607
  83.9883238  32.8838145 100.1246860  87.1507663  33.1707710 100.7248931
  87.7452153  32.9303445 100.0142239  87.2234246  32.4514840 101.3522467
  69.3704818  47.0141320 101.0392096  69.2359286  46.2541721 100.4730094
  68.9536880  47.7382220 100.5720885  80.5063781  42.1978244  90.0468671
  81.2099631  42.4028246  90.6626327  79.7826430  42.7655006  90.3117755
  81.3361592  37.9488105  96.1670941  81.2796793  38.4056657  95.3278574
  81.8889934  37.1878790  95.9893784  85.1466397  33.7377837  96.9921061
  84.8903332  33.3374473  97.8229268  84.5219265  34.4521631  96.8671200
  89.4578735  36.4773910  99.4992352  88.8978293  36.5467100 100.2723914
  88.8522239  36.3014895  98.7791848  72.5273944  47.9110637 101.2510538
  72.4106328  48.8556070 101.1489229  71.7066390  47.6084199 101.6396338
  82.4150479  42.6360773  92.0967131  83.2496083  42.2041972  91.9144606
  82.2534822  42.4642787  93.0244026  82.0696371  39.1392887  93.4623470
  82.0145175  38.9737158  92.5211915  81.4442426  39.8468919  93.6185660
  66.8588886  34.3760951 107.2884893  67.5047749  33.8659905 107.7772118
  66.6506037  35.1129633 107.8628318  79.3842278  41.4441798 112.7877033
  80.2533438  41.6182451 112.4263668  78.9049029  42.2636215 112.6652763
  75.3792496  28.6400996  93.0408789  75.3671166  29.5842835  93.1977060
  76.2715918  28.4571141  92.7468250  73.5528458  48.5638899 104.4666467
  74.4555705  48.5962510 104.7832962  73.3265828  47.6339350 104.4812803
  75.3082060  47.3169886 101.1276545  74.3577691  47.3171748 101.0140918
  75.6114546  46.5702620 100.6112580  79.1944616  25.2343772  97.2954726
  78.4277012  24.6802259  97.4411408  79.6055321  25.3065641  98.1568877
  71.1986377  31.5228568 111.3859907  72.0617838  31.1665373 111.5963231
  70.6251787  31.1842463 112.0735311  91.0434754  53.1530424 102.1922308
  91.6813164  53.0337172 101.4885648  90.9255597  54.1011268 102.2510260
  87.8524460  53.1057852 102.1283833  87.5142972  52.9898917 101.2404367
  88.7214228  52.7049018 102.1084839  83.7111276  54.9593329  98.1180724
  83.1476141  54.8683266  97.3497011  83.5963671  54.1393233  98.5983216
  88.3344243  54.2592704 108.0870038  88.3232884  53.8645502 107.2150542
  88.4964882  53.5258777 108.6803810  81.2575708  56.4544520 100.9564944
  82.0497000  56.1135345 100.5411243  81.4972358  56.5639495 101.8767097
  89.2910834  58.6264297  93.4295188  88.6398814  59.2118377  93.0429202
  90.0855197  59.1570491  93.4890226  83.2166462  55.7153434  93.8282323
  83.9897338  55.1682421  93.6895199  83.5691860  56.5797683  94.0396784
  85.0551504  57.0429816 107.0349222  84.7641370  57.9475447 106.9195888
  85.6908488  57.0846344 107.7493292  85.9807711  54.4206664 103.6250582
  86.5771283  54.1962687 102.9107545  86.0382683  53.6791410 104.2276030
  85.5532739  51.8746100  91.4600773  85.8058260  51.3527621  90.6984236
  84.6157298  51.7112245  91.5627456  90.5976022  50.8781878  99.2675516
  91.3839111  50.4601301  98.9165933  90.8614727  51.7827970  99.4357164
  90.7686100  56.3154728  93.9664173  90.1331933  56.3889355  94.6785077
  90.4383506  56.9048327  93.2883252  95.9984449  50.8157111 100.1708494
  96.7309621  50.2456328 100.4046324  95.2423805  50.4278712 100.6115000
  85.2729028  53.7774206  93.6625148  85.1565286  53.1019109  94.3306232
  85.3831288  53.2906580  92.8457301  87.6160569  53.2384353  97.3671837
  87.2518776  52.7114974  98.0784758  88.4727685  52.8482822  97.1938322
  93.5209870  44.5278685 104.6303103  93.1893194  45.3974096 104.4064318
  92.9255483  44.2114969 105.3097133  87.2566056  48.2674253  92.3633185
  87.4240458  49.1354489  92.7303656  87.0663225  48.4301534  91.4394475
  90.0141389  56.7291231 104.0299016  89.7142112  57.6316270 103.9214823
  89.6692449  56.4623415 104.8820169  83.4653871  53.1805028 100.0635720
  82.5404367  53.0481242 100.2713412  83.7138284  53.9599248 100.5605663
  93.4138533  49.2473772 101.7096453  92.5055410  49.1789180 101.4155214
  93.3626129  49.7245717 102.5378279  87.2355277  50.7231910  93.3479852
  87.1154902  51.1688961  94.1865333  86.5407865  51.0717228  92.7893390
  80.8262682  52.8238302 100.8979509  80.9555063  53.0772781 101.8118921
  80.1460133  53.4166010 100.5784164  84.9962169  63.4935552  96.9969983
  84.9186199  64.4443377  97.0758464  84.3923813  63.1481424  97.6544910
  87.4879399  50.6663417 109.6531350  86.7112733  51.2257337 109.6434215
  88.1269962  51.1520200 110.1746220  95.2800179  47.4490210 103.4874327
  94.6374560  47.7422743 102.8414122  94.7755108  47.3343130 104.2927524
  92.9340343  51.1953383  94.1760186  93.8458199  51.4280770  94.0007884
  92.4249990  51.7790427  93.6135265  85.7425771  53.4748871 109.2149317
  86.4840455  54.0133915 108.9384141  85.0362757  54.1015159 109.3720869
  91.2181111  55.6178011 107.8121479  91.6264467  55.1760422 107.0676111
  90.4958372  55.0430639 108.0655672  87.5712181  50.5550618 105.1855036
  88.4173376  50.9790031 105.3289685  87.5110818  49.8984242 105.8793599
  91.5409925  56.1779202 101.5673768  90.9118788  56.3424916 100.8649836
  91.1535587  56.5920811 102.3384732  95.4199157  57.1133640  98.9218131
  94.7350195  57.4932541  98.3715165  95.5043007  57.7228966  99.6550079
  90.7211626  48.2154986 106.8436209  90.4772558  48.9697047 106.3070485
  90.9971557  48.5940334 107.6783457  92.6750089  54.7593599 105.5213475
  92.8866984  55.4025358 104.8447856  92.6279837  53.9255915 105.0535405
  90.2776318  47.3711419 102.4250047  89.4160797  47.6692673 102.7166785
  90.3038752  47.5881818 101.4931080  87.0937887  55.9153610  98.8323853
  87.5576233  56.1941313  98.0428475  86.8294685  55.0137054  98.6496944
  83.9861968  55.4625091 101.7703616  84.5563325  55.8912360 101.1321101
  84.5770080  55.1807676 102.4687802  86.0306773  52.0376762  95.6413418
  86.7330817  52.4897806  96.1087344  85.6987402  51.3960581  96.2693311
  84.4787135  50.6288519 110.0164627  83.8485795  51.3104800 110.2500024
  84.3723223  50.5171600 109.0717766  79.7732107  50.2960315 100.9430552
  78.9831161  50.5517843 100.4670662  80.2643355  51.1108653 101.0482592
  93.7895917  57.6365554 103.6935832  94.6113361  57.2345741 103.4118514
  93.7858320  57.5333788 104.6451948  81.7246853  50.6604894  97.9014028
  80.9278016  50.7723588  98.4197524  81.4972445  50.9991546  97.0354919
  87.5552520  57.1849597 105.8496543  87.6196953  57.6470005 106.6854715
  86.8463444  56.5546962 105.9778853  78.0569810  50.5490805 103.3745542
  78.3077849  51.4337815 103.6403118  78.5929359  50.3695407 102.6020634
 101.8801910  53.9804302 100.0420804 101.1265618  53.4111701  99.8864808
 102.0149451  53.9466967 100.9891439  87.2700538  58.8517705  95.7175523
  87.1346213  59.6969240  96.1460371  87.8110350  59.0536982  94.9541457
  83.7567878  44.9309285 112.3789878  83.3634823  44.3775483 113.0537523
  84.5734018  45.2419863 112.7696396  80.7229935  56.3693143  96.2903448
  81.2354456  57.1636393  96.4409013  81.3752648  55.6719433  96.2237050
  82.5324820  59.4858899  98.3726201  82.7091448  60.4076864  98.1847185
  83.3281654  59.1717318  98.8020581  86.6735839  46.3467164 109.9710135
  87.4145552  46.9474317 109.8914597  86.9053761  45.6044801 109.4128178
  81.8177177  51.5323531 108.2488365  81.7030692  50.6308788 108.5495464
  80.9621694  51.7787228 107.8973181  88.8969014  59.4741271 109.8475865
  88.4532869  58.6877650 109.5296770  89.5586228  59.6620422 109.1819756
  83.6556135  61.0037073 104.3736544  84.2063561  60.8754136 103.6013538
  82.8167611  61.3031962 104.0231437  90.9950252  59.7544071 107.8757267
  90.9768728  60.5752952 107.3837536  91.9170172  59.6298146 108.1007408
  87.4523307  57.2688201 108.7180775  87.9851643  56.5076489 108.4880083
  86.9237388  56.9761852 109.4604929  90.6193002  42.3748267 104.2474417
  90.2757271  43.2649908 104.1713527  90.9871964  42.1849924 103.3844002
  78.6878852  54.6981797  97.0663019  79.5254074  55.1078805  96.8496727
  78.8657120  53.7581239  97.0363213  90.5843284  52.3656878  92.7546852
  90.0689908  53.1361482  92.9935239  90.3120593  51.6922014  93.3779913
  88.1690395  47.2106579  97.8132090  87.3131992  46.8213429  97.6337729
  88.5817347  47.2898539  96.9531876  89.6989542  44.7452922 102.2123650
  89.1954337  44.7083057 101.3991455  89.9920149  45.6545665 102.2720307
  85.9432428  44.8291652 101.2189832  86.8085425  44.6334460 100.8595721
  86.0109937  44.6002003 102.1459188  95.5577558  55.1189232  94.6900025
  94.7807001  54.7800392  94.2455187  96.2369039  55.1241856  94.0154990
  90.3729587  50.2383970  94.5806633  90.0679723  50.5530119  95.4316776
  91.3260030  50.3165390  94.6233966  88.8176019  56.3974193  96.2299587
  88.2897381  55.6626953  95.9172824  88.3163522  57.1748870  95.9839555
  93.7968865  54.5923214 101.3466633  93.1392540  55.2822475 101.4346762
  94.6009264  54.9819646 101.6900620  83.5494747  47.0593859  98.5906198
  84.1238499  46.8369041  97.8579391  84.1365729  47.1282554  99.3434800
  92.6074324  52.9467586  99.3970575  93.1206206  53.5797578  99.8992285
  93.2575548  52.3468782  99.0313935  83.8764334  49.0898320  92.6102084
  83.0401646  49.4273007  92.9311358  83.7369104  48.9547300  91.6729221
  85.8517415  43.9335108  97.3181268  85.1981827  43.6184126  96.6937883
  85.8097889  43.3110849  98.0441091  86.9628619  54.2154403  89.2334560
  86.0555681  53.9843657  89.4325709  87.4599651  53.4192023  89.4208542
  89.8696698  62.9251911  92.1531246  89.1958397  63.2283607  92.7616204
  90.2562520  63.7280991  91.8036703  89.0855155  50.4217042 101.6428916
  88.1677716  50.6431989 101.4850604  89.5015299  50.4963352 100.7840623
  89.8690203  51.8208458  96.7731596  90.6162022  52.3329855  96.4638718
  90.1381792  51.4992510  97.6335989  88.1416853  54.3166998  93.7558550
  87.2328072  54.0326031  93.8531020  88.1711937  54.7366077  92.8961857
  93.3736120  57.9273588  97.5249718  92.9198447  57.0864498  97.5814908
  92.7430087  58.5634986  97.8624498  92.3169040  48.8565574  98.7550385
  91.5791797  48.3442960  99.0860628  92.5695813  48.4165955  97.9433662
  91.8169060  59.7650084  98.4599536  92.1092034  60.3255142  97.7411901
  92.3267680  60.0578645  99.2152695  92.4180667  41.6341826  99.3492154
  92.7239544  40.7739189  99.0618069  93.1433272  42.2259446  99.1491148
  78.7105023  52.0372512  97.7373752  78.5129423  51.4441873  97.0124819
  78.1551687  51.7324723  98.4549691  86.6901747  51.9295619  99.8568345
  86.7450357  50.9769455  99.7810822  85.8792949  52.0855058 100.3409644
  87.8392941  55.8575742  91.0946629  87.4012371  55.1411601  90.6352266
  88.5803382  56.0851857  90.5331720  84.6294107  50.5472679  97.6158724
  83.8161972  50.8466849  98.0223916  85.1253101  50.1528367  98.3333207
  86.7802685  60.5430436  99.5492989  86.7378864  60.7691282  98.6201521
  87.6965384  60.3093810  99.6978790  90.2268319  51.0114503 106.4473618
  90.5817706  51.2385976 107.3068084  90.8740450  51.3432880 105.8250873
  95.9566055  54.1332939  97.1522947  95.8183954  54.3234535  96.2244136
  95.6002274  54.8952322  97.6090998  84.1208182  48.1191034 103.2319959
  84.7607561  47.9779793 102.5342923  83.2885712  47.8325548 102.8558561
  95.9835435  56.2009466 102.1634219  96.4171942  56.1084755 103.0117273
  96.6967016  56.1766966 101.5254235  84.8968485  57.4193465  99.3454952
  85.6909084  56.9243785  99.1437527  84.1860178  56.8911328  98.9822657
  89.7163330  59.8011560 103.6967319  89.7700352  60.3702496 104.4645035
  88.8478111  59.9713445 103.3321356  81.2051249  51.5636546  95.4214704
  80.2748837  51.5021002  95.6384667  81.3008721  51.0412499  94.6251346
  81.1236798  48.0891359  98.0092946  81.3843615  49.0036692  97.9002106
  81.9453970  47.6215802  98.1589559  82.5961723  49.5029116 105.1791771
  83.2684777  49.2946478 104.5304419  81.7691510  49.3051202 104.7397003
  96.8450985  56.2433167 104.6967104  97.0386875  57.1478977 104.9426379
  96.7451603  55.7840586 105.5305689  88.4987295  46.1291057 107.1957431
  87.8515210  46.8281007 107.1021908  89.2688311  46.5627201 107.5633680
  91.9066093  56.3939909 110.2707985  91.7551600  56.1650461 109.3538068
  91.8970773  57.3510511 110.2839330  88.6751430  53.9671822 105.2554251
  89.6043490  54.1182982 105.0823218  88.2542460  54.0555843 104.4002898
  87.4739761  57.9922487 103.0252789  87.3350847  57.6241271 103.8978727
  86.6854358  58.5070126 102.8536747  88.0687913  63.0931583  94.3678325
  88.2439669  62.6219626  95.1823948  87.3820701  63.7197349  94.5959586
  89.0244977  57.3704089 100.4141627  88.6894809  57.3304859 101.3099276
  88.5248922  56.7048805  99.9412037  82.9989221  52.7771719 105.9394208
  82.8609019  52.0451958 106.5405747  83.9094144  52.6880619 105.6578395
  91.9604168  54.7160124  90.6878686  91.3433339  53.9906952  90.5911739
  91.4920657  55.4769484  90.3445760  85.6271521  52.4891679 105.4277887
  86.3371140  51.8484871 105.3864506  85.5840829  52.7404573 106.3504068
  93.6158300  59.4259032 108.3484467  93.5570846  58.7418252 107.6815050
  94.0177818  60.1678022 107.8965093  84.3400455  49.4756897 107.2473527
  83.8037812  49.0247635 107.8995123  83.7517164  49.6102805 106.5043991
  82.6348999  66.2420946 101.1418185  82.8745597  66.8739470 101.8197204
  81.7918195  65.8908986 101.4283545  83.7502714  48.9345548  89.8099990
  82.8732181  48.8134349  89.4462237  84.2260467  48.1431626  89.5578879
  93.6175707  57.3898616 106.5798446  92.7302486  57.0524538 106.7024845
  94.1874258  56.6581647 106.8167212  75.2704854  53.7222708  99.9041498
  75.9575894  53.4084438  99.3162513  75.1152983  54.6264072  99.6308749
  80.0739576  48.6112904 104.3326521  79.9897765  48.0038574 103.5976931
  79.2522283  49.1021923 104.3336018  87.1476861  62.0500068 103.5459689
  87.0747032  62.8555040 104.0578994  86.7054254  62.2492034 102.7207711
  86.9366640  61.2871838  97.0562511  86.1534162  61.8293518  97.1500736
  87.6359385  61.8045818  97.4556752  90.2463290  47.0966468  99.6996716
  90.7431990  46.3436430  99.3797787  89.4750272  47.1330784  99.1339926
  98.0993048  52.8006833 101.3415008  98.0882924  53.6831549 100.9708941
  97.2310427  52.4478384 101.1469545  89.6075544  61.9486902 105.7017848
  90.3203516  62.5834367 105.6293750  89.1165573  62.0450768 104.8857850
  91.3293071  55.8538155  97.2735140  90.3949350  55.9739617  97.1039844
  91.5069739  54.9510622  97.0095150  86.8298259  49.2383851  99.4268401
  86.4596047  48.6854891 100.1149307  87.3257352  48.6341984  98.8743401
  94.7165622  51.6955474  97.8085174  95.1826075  52.5283466  97.7345477
  95.1673123  51.2300456  98.5130432  84.6587458  59.6981346 106.5223419
  85.3596917  60.3317829 106.6752813  84.1882573  60.0396077 105.7619058
  92.7841853  58.0399296  94.8071326  93.0601697  57.9255890  95.7165200
  91.9146352  57.6416780  94.7683499  92.6882285  44.0636061 101.8476075
  91.7745365  44.2940288 102.0158282  93.1175387  44.1474505 102.6990108
  92.4588744  52.2525953 104.3475969  91.8060194  52.5001861 103.6928422
  92.8369124  51.4390091 104.0138447  89.4195917  62.2885646  98.4504140
  89.6018312  61.4707302  98.9131892  90.2428904  62.5053339  98.0129030
  89.7538083  61.2153832  95.7119188  90.2825849  60.7046286  95.0989350
  90.0166303  60.8996362  96.5764721  88.5076317  52.9945764 110.8342006
  87.8316954  52.8939894 111.5044382  89.3303951  52.8384978 111.2978004
  80.2555176  59.2317701 103.4554522  80.8408613  58.4861389 103.5882426
  80.0580014  59.5421658 104.3391186  83.1093831  62.2668948  98.4716964
  82.4404206  62.7515076  97.9881004  82.9706701  62.5138169  99.3860343
  74.8472830  51.8023301 102.1758965  74.8856930  51.2686892 102.9696083
  74.3413123  51.2758507 101.5569942  87.2499100  64.3012692 105.0699622
  87.8017408  64.4644313 105.8348708  87.5905293  64.8917130 104.3979647
  82.2263593  46.6487842 105.6721507  82.2904919  47.5102672 105.2598905
  82.1630713  46.0361843 104.9393866  81.7015865  48.7210974 109.3194541
  82.3287904  48.3388051 109.9332066  80.8443784  48.5025176 109.6850234
  92.1009974  59.1273949 110.9248277  92.6449878  59.7403907 110.4303232
  91.5196819  59.6853528 111.4415290  78.4781408  50.5287403  95.2512896
  78.7734849  49.6198082  95.1979950  77.5769444  50.5075143  94.9293899
  90.3867487  62.2494667 102.0563305  90.2618626  61.4484407 101.5474250
  91.0446578  62.7440861 101.5677274  82.0075655  48.6043400 101.2340445
  81.2862241  49.2179367 101.0947918  82.7968911  49.1401165 101.1557091
  92.4502395  60.0503687 103.6842855  91.5032731  59.9309039 103.6121181
  92.7985168  59.1626185 103.7669116  84.8101969  45.9397826 107.5081097
  85.3336370  46.1860123 108.2707406  84.5914302  46.7717861 107.0884234
  80.2069250  48.2101501  95.3752221  79.8781956  47.3298880  95.1927327
  80.5608620  48.1549170  96.2628611  89.4548828  59.8456404  99.8847207
  89.3073791  58.9173111 100.0654777  90.2802322  59.8676494  99.4004282
  83.3211073  48.4974471  95.7427699  83.6607145  49.0260392  95.0206307
  83.7683193  48.8354877  96.5186266  93.0582950  60.6684962 100.9712080
  93.9829498  60.4627824 100.8336531  92.8898254  60.4201363 101.8801421
  86.0154514  46.8811521 105.1930767  85.6751334  46.0819334 105.5951447
  85.3093520  47.1813232 104.6207600  86.6670985  43.9660834 103.6458090
  87.4897055  43.4921312 103.5236980  86.9109049  44.7451318 104.1456776
  85.3079220  46.9949092  93.9420992  86.0287582  47.3730345  93.4384709
  84.6844524  47.7137969  94.0455970  89.4510343  47.6994241  94.8779324
  89.6673957  48.5818879  94.5768152  88.9704410  47.3080455  94.1484966
  84.1909564  50.6579954 101.4550069  84.0454145  50.9720257 102.3474350
  83.7134768  51.2764855 100.9020967  86.0505947  47.6482502 101.5030958
  86.0367516  46.7523596 101.1663256  86.7678375  47.6553166 102.1369244
  87.9032078  48.0819843 103.5484086  87.6449856  49.0036913 103.5468416
  87.3717118  47.6850277 104.2384550  92.8478267  61.1870630  96.3274171
  93.0215144  60.6217052  95.5748024  93.3407158  61.9871525  96.1453661
  78.6655226  53.1985299 104.3937730  78.1208694  53.9745107 104.5258004
  79.5434576  53.5456103 104.2356851  85.4542843  46.5296883  96.7718528
  85.5758754  45.6013529  96.9709416  85.1644885  46.5435569  95.8596844
  88.3234033  44.2151793  99.9085248  88.3455730  44.2791126  98.9537228
  88.7402092  43.3756302 100.1025754  98.7017658  53.9507053  97.9464471
  99.1448804  53.2014378  97.5483594  97.8244168  53.9417189  97.5638203
  93.8353439  60.5037394  93.4271069  94.5304344  61.1244087  93.6458384
  94.1776589  59.6532745  93.7023447  79.4521248  52.3255195 107.2867887
  78.7102984  52.4737830 107.8732517  79.1313992  52.5863461 106.4234636
  95.7344862  57.9537100  94.9558400  96.2596186  58.2924372  94.2307720
  95.6467215  57.0184115  94.7721535  87.3964911  61.8671173 107.0848277
  87.7052037  61.6220320 107.9570976  88.1940393  62.0717812 106.5967147
  87.4185523  64.0209083  99.3153653  86.9790513  63.5285462 100.0086510
  88.1693640  63.4782051  99.0745729  79.8977862  60.2120624  99.3178281
  80.7235882  59.9124396  98.9376925  79.5471914  59.4428246  99.7668070
  84.8659395  59.5647092 101.3875955  84.2439404  58.9017797 101.0878183
  85.5364262  59.5908224 100.7049603  78.0986467  58.1306950 100.2767215
  77.2618375  57.7029125 100.0951216  78.0710112  58.3239394 101.2138006
  84.9383923  48.0428880 110.9808461  84.9872078  48.9191003 110.5986231
  85.4806437  47.5006273 110.4080104  95.4238768  58.5870003 110.2609598
  94.6334312  58.5694142 109.7214097  95.1872123  59.1258297 111.0158635
  95.5436643  55.4362470 107.5742327  95.5934648  55.2712477 108.5157849
  95.4350567  54.5689729 107.1840207  84.4272902  58.1151015  94.8634416
  84.5761022  58.7986480  94.2101088  85.2339345  58.0956105  95.3783871
  92.8340406  51.4193398 108.8901633  93.7350268  51.2799863 108.5985631
  92.9088380  51.5847853 109.8299811  87.1683211  48.7960252 107.7354820
  86.2986520  49.0893818 107.4637408  87.4042691  49.3800697 108.4562083
  97.0454840  57.8559411 107.8184348  96.7539648  58.2189392 108.6547809
  96.4326971  57.1426419 107.6397680  98.2450522  55.4212291 100.3386918
  99.0797414  55.8602095 100.5024479  98.3809651  54.9450944  99.5195164
  95.2942028  52.9792026 106.2864406  95.7696150  53.1719672 105.4783258
  94.3707594  53.0351212 106.0407790  82.1825535  54.1416193  95.8695484
  81.9371577  53.2378523  96.0675695  82.3521449  54.1433343  94.9274962
  89.8722245  45.0139869 105.2520240  90.3904189  45.7500896 104.9266729
  89.5177378  45.3203863 106.0866999  81.4521182  49.8744551  93.3681646
  80.7590427  49.9488906  92.7121682  81.2072934  49.1104894  93.8903163
  90.1234839  41.4340152 100.7721137  90.4036593  40.7663341 101.3981563
  90.9085446  41.6269248 100.2595800  87.9268307  60.6099146  92.3346163
  87.3542275  61.2289333  91.8816635  88.5001101  61.1598507  92.8686085
  93.9943697  49.8557786 104.5192712  94.9461120  49.9555884 104.5404936
  93.8247148  49.0636054 105.0290796  92.0158077  46.9413369 104.7052113
  91.4208009  47.2218382 104.0098601  91.7307773  47.4307270 105.4768854
  91.1465567  60.8936296  93.4654745  92.0796240  60.8281858  93.6687621
  91.0588780  61.7292563  93.0069278  93.7753584  60.2102166  90.4258693
  93.6967215  59.8762030  91.3194451  94.5963251  60.7023934  90.4250165
  96.4731775  53.0763906 103.6335011  96.4408095  52.1379906 103.8194695
  97.0832399  53.1547942 102.9000836  88.3115106  51.9459959  89.6762215
  89.2574211  51.8166167  89.7450633  87.9329351  51.2074620  90.1531644
  96.6226264  49.8674949 103.6793295  96.1065312  49.0833406 103.4923223
  97.5066212  49.5393666 103.8439814  94.2836991  43.6115965  99.6389107
  94.0861812  43.3031053 100.5232439  94.8936696  44.3377603  99.7687037
 102.2908325  54.1379912 102.7741048 103.0211713  53.8765201 103.3348751
 101.6815270  53.4008634 102.8143116 100.3723622  52.2787775 103.3715499
  99.6456786  52.1443740 102.7631991  99.9570909  52.5864604 104.1772217
  88.1953799  55.9977705 111.1362872  89.1156808  56.1756304 111.3302919
  88.1603382  55.0533750 110.9842572  86.4958023  49.8709935  89.6117101
  85.5889479  49.5743048  89.6879814  86.7734004  49.5739753  88.7451387
  77.4135964  51.1916298 100.0616147  77.0938748  50.3381607  99.7690521
  76.8669392  51.4064876 100.8174114  81.1915871  53.9078739 103.7785654
  81.4101881  54.8395847 103.7973687  81.6041645  53.5486714 104.5640457
  88.1120089  44.4146825  95.7661342  87.3020817  44.0693910  96.1416588
  88.8004506  44.1054368  96.3548954  90.0410637  43.4924871  97.3885639
  90.5941676  43.9120325  98.0475662  90.2780724  42.5660620  97.4308595
  86.0643736  49.4811945 113.1688402  85.9640463  50.4306302 113.1000494
  85.8465278  49.1530184 112.2964473  85.2656808  46.7296870  89.7529080
  86.1275972  47.0551768  90.0124897  85.4507152  45.9428366  89.2402146
  77.2824224  54.8119210 102.0309269  76.5887695  54.3973163 101.5179223
  78.0297215  54.8539746 101.4342688  93.4189444  45.6025397  96.8964303
  92.8388113  46.2610201  96.5142355  93.1525377  44.7802741  96.4851720
  91.8693011  45.0030454  99.0985623  92.3692789  45.1146989  98.2899942
  92.5128619  44.6991507  99.7386432  85.9275006  52.9109084 111.9853464
  85.4442088  53.7109444 112.1917353  86.0135945  52.9217029 111.0320908
  79.1960966  54.7437464  99.9075284  79.1731654  54.8425151  98.9557167
  79.5061603  55.5902614 100.2292450  81.8548344  56.8013619 104.0221898
  82.8091597  56.7697561 103.9551829  81.6560867  56.3404242 104.8372124
  82.4447726  55.3714735 106.5892696  83.2640615  55.8658813 106.6127533
  82.7184534  54.4546703 106.5610263  92.2014322  47.7625487  95.9520651
  91.3140177  48.0475138  95.7340846  92.6168311  47.6019250  95.1047928
  95.5528858  47.7872008  99.6674990  96.3289248  48.2768460  99.9399607
  94.8276993  48.2130062 100.1246860  97.9901417  48.4999627 100.7248931
  98.5845908  48.2595363 100.0142239  98.0628001  47.7806758 101.3522467
  80.2098573  62.3433238 101.0392096  80.0753041  61.5833639 100.4730094
  79.7930635  63.0674138 100.5720885  91.3457536  57.5270162  90.0468671
  92.0493386  57.7320164  90.6626327  90.6220184  58.0946924  90.3117755
  92.1755346  53.2780023  96.1670941  92.1190547  53.7348574  95.3278574
  92.7283688  52.5170708  95.9893784  95.9860152  49.0669755  96.9921061
  95.7297086  48.6666390  97.8229268  95.3613020  49.7813549  96.8671200
 100.2972490  51.8065828  99.4992352  99.7372048  51.8759017 100.2723914
  99.6915993  51.6306813  98.7791848  83.3667699  63.2402555 101.2510538
  83.2500083  64.1847988 101.1489229  82.5460145  62.9376117 101.6396338
  93.2544233  57.9652691  92.0967131  94.0889837  57.5333889  91.9144606
  93.0928576  57.7934705  93.0244026  92.9090125  54.4684804  93.4623470
  92.8538929  54.3029076  92.5211915  92.2836181  55.1760837  93.6185660
  77.6982640  49.7052869 107.2884893  78.3441504  49.1951823 107.7772118
  77.4899791  50.4421550 107.8628318  90.2236032  56.7733716 112.7877033
  91.0927192  56.9474368 112.4263668  89.7442784  57.5928133 112.6652763
  86.2186251  43.9692913  93.0408789  86.2064921  44.9134753  93.1977060
  87.1109673  43.7863059  92.7468250  84.3922213  63.8930817 104.4666467
  85.2949459  63.9254427 104.7832962  84.1659583  62.9631268 104.4812803
  86.1475815  62.6461804 101.1276545  85.1971446  62.6463665 101.0140918
  86.4508301  61.8994538 100.6112580  90.0338370  40.5635690  97.2954726
  89.2670766  40.0094177  97.4411408  90.4449075  40.6357559  98.1568877
  82.0380131  46.8520486 111.3859907  82.9011593  46.4957290 111.5963231
  81.4645542  46.5134380 112.0735311 101.8828508  68.4822342 102.1922308
 102.5206918  68.3629089 101.4885648 101.7649351  69.4303186 102.2510260
  98.6918214  68.4349770 102.1283833  98.3536726  68.3190835 101.2404367
  99.5607983  68.0340935 102.1084839  94.5505030  70.2885247  98.1180724
  93.9869895  70.1975183  97.3497011  94.4357425  69.4685151  98.5983216
  99.1737997  69.5884622 108.0870038  99.1626638  69.1937420 107.2150542
  99.3358637  68.8550694 108.6803810  92.0969462  71.7836438 100.9564944
  92.8890754  71.4427263 100.5411243  92.3366112  71.8931413 101.8767097
 100.1304589  73.9556214  93.4295188  99.4792569  74.5410295  93.0429202
 100.9248952  74.4862409  93.4890226  94.0560216  71.0445351  93.8282323
  94.8291092  70.4974338  93.6895199  94.4085615  71.9089601  94.0396784
  95.8945259  72.3721734 107.0349222  95.6035125  73.2767364 106.9195888
  96.5302243  72.4138261 107.7493292  96.8201465  69.7498582 103.6250582
  97.4165038  69.5254605 102.9107545  96.8776437  69.0083328 104.2276030
  96.3926494  67.2038017  91.4600773  96.6452015  66.6819539  90.6984236
  95.4551053  67.0404163  91.5627456 101.4369777  66.2073796  99.2675516
 102.2232866  65.7893219  98.9165933 101.7008481  67.1119888  99.4357164
 101.6079854  71.6446646  93.9664173 100.9725687  71.7181273  94.6785077
 101.2777260  72.2340245  93.2883252 106.8378204  66.1449029 100.1708494
 107.5703376  65.5748246 100.4046324 106.0817560  65.7570629 100.6115000
  96.1122783  69.1066123  93.6625148  95.9959041  68.4311027  94.3306232
  96.2225043  68.6198497  92.8457301  98.4554324  68.5676271  97.3671837
  98.0912531  68.0406892  98.0784758  99.3121439  68.1774740  97.1938322
 104.3603624  59.8570603 104.6303103 104.0286949  60.7266014 104.4064318
 103.7649238  59.5406887 105.3097133  98.0959811  63.5966170  92.3633185
  98.2634213  64.4646407  92.7303656  97.9056980  63.7593452  91.4394475
 100.8535144  72.0583149 104.0299016 100.5535867  72.9608188 103.9214823
 100.5086203  71.7915332 104.8820169  94.3047625  68.5096946 100.0635720
  93.3798122  68.3773160 100.2713412  94.5532038  69.2891165 100.5605663
 104.2532288  64.5765689 101.7096453 103.3449165  64.5081098 101.4155214
 104.2019883  65.0537634 102.5378279  98.0749031  66.0523828  93.3479852
  97.9548657  66.4980878  94.1865333  97.3801620  66.4009145  92.7893390
  91.6656436  68.1530220 100.8979509  91.7948817  68.4064698 101.8118921
  90.9853888  68.7457928 100.5784164  95.8355924  78.8227469  96.9969983
  95.7579953  79.7735295  97.0758464  95.2317567  78.4773342  97.6544910
  98.3273153  65.9955335 109.6531350  97.5506487  66.5549255 109.6434215
  98.9663716  66.4812118 110.1746220 106.1193934  62.7782128 103.4874327
 105.4768314  63.0714661 102.8414122 105.6148862  62.6635048 104.2927524
 103.7734098  66.5245301  94.1760186 104.6851954  66.7572688  94.0007884
 103.2643745  67.1082345  93.6135265  96.5819526  68.8040788 109.2149317
  97.3234210  69.3425832 108.9384141  95.8756511  69.4307077 109.3720869
 102.0574865  70.9469929 107.8121479 102.4658221  70.5052339 107.0676111
 101.3352127  70.3722556 108.0655672  98.4105935  65.8842536 105.1855036
  99.2567130  66.3081949 105.3289685  98.3504573  65.2276160 105.8793599
 102.3803680  71.5071119 101.5673768 101.7512542  71.6716833 100.8649836
 101.9929342  71.9212729 102.3384732 106.2592912  72.4425557  98.9218131
 105.5743950  72.8224459  98.3715165 106.3436761  73.0520884  99.6550079
 101.5605381  63.5446904 106.8436209 101.3166312  64.2988964 106.3070485
 101.8365311  63.9232251 107.6783457 103.5143843  70.0885516 105.5213475
 103.7260739  70.7317276 104.8447856 103.4673592  69.2547833 105.0535405
 101.1170072  62.7003337 102.4250047 100.2554551  62.9984590 102.7166785
 101.1432507  62.9173736 101.4931080  97.9331642  71.2445527  98.8323853
  98.3969987  71.5233230  98.0428475  97.6688440  70.3428972  98.6496944
  94.8255723  70.7917009 101.7703616  95.3957080  71.2204277 101.1321101
  95.4163835  70.5099594 102.4687802  96.8700528  67.3668680  95.6413418
  97.5724571  67.8189723  96.1087344  96.5381156  66.7252499  96.2693311
  95.3180889  65.9580436 110.0164627  94.6879550  66.6396717 110.2500024
  95.2116977  65.8463518 109.0717766  90.6125862  65.6252232 100.9430552
  89.8224916  65.8809761 100.4670662  91.1037109  66.4400570 101.0482592
 104.6289671  72.9657472 103.6935832 105.4507115  72.5637659 103.4118514
 104.6252074  72.8625706 104.6451948  92.5640607  65.9896812  97.9014028
  91.7671770  66.1015506  98.4197524  92.3366199  66.3283464  97.0354919
  98.3946275  72.5141515 105.8496543  98.4590707  72.9761922 106.6854715
  97.6857199  71.8838880 105.9778853  88.8963565  65.8782723 103.3745542
  89.1471603  66.7629733 103.6403118  89.4323113  65.6987324 102.6020634
 112.7195664  69.3096220 100.0420804 111.9659373  68.7403618  99.8864808
 112.8543206  69.2758885 100.9891439  98.1094292  74.1809622  95.7175523
  97.9739967  75.0261158  96.1460371  98.6504105  74.3828900  94.9541457
  94.5961632  60.2601202 112.3789878  94.2028578  59.7067401 113.0537523
  95.4127772  60.5711781 112.7696396  91.5623690  71.6985060  96.2903448
  92.0748210  72.4928311  96.4409013  92.2146403  71.0011351  96.2237050
  93.3718575  74.8150817  98.3726201  93.5485203  75.7368781  98.1847185
  94.1675408  74.5009236  98.8020581  97.5129593  61.6759081 109.9710135
  98.2539306  62.2766235 109.8914597  97.7447516  60.9336719 109.4128178
  92.6570931  66.8615449 108.2488365  92.5424446  65.9600706 108.5495464
  91.8015449  67.1079145 107.8973181  99.7362769  74.8033189 109.8475865
  99.2926623  74.0169568 109.5296770 100.3979982  74.9912339 109.1819756
  94.4949890  76.3328991 104.3736544  95.0457315  76.2046054 103.6013538
  93.6561366  76.6323880 104.0231437 101.8344007  75.0835989 107.8757267
 101.8162482  75.9044870 107.3837536 102.7563927  74.9590064 108.1007408
  98.2917061  72.5980118 108.7180775  98.8245398  71.8368407 108.4880083
  97.7631142  72.3053770 109.4604929 101.4586756  57.7040184 104.2474417
 101.1151025  58.5941826 104.1713527 101.8265719  57.5141842 103.3844002
  89.5272607  70.0273715  97.0663019  90.3647829  70.4370723  96.8496727
  89.7050874  69.0873157  97.0363213 101.4237039  67.6948795  92.7546852
 100.9083662  68.4653400  92.9935239 101.1514347  67.0213932  93.3779913
  99.0084150  62.5398496  97.8132090  98.1525746  62.1505347  97.6337729
  99.4211102  62.6190457  96.9531876 100.5383296  60.0744839 102.2123650
 100.0348092  60.0374975 101.3991455 100.8313903  60.9837582 102.2720307
  96.7826182  60.1583569 101.2189832  97.6479179  59.9626378 100.8595721
  96.8503691  59.9293921 102.1459188 106.3971313  70.4481150  94.6900025
 105.6200756  70.1092310  94.2455187 107.0762794  70.4533773  94.0154990
 101.2123342  65.5675888  94.5806633 100.9073477  65.8822037  95.4316776
 102.1653784  65.6457307  94.6233966  99.6569774  71.7266111  96.2299587
  99.1291135  70.9918870  95.9172824  99.1557276  72.5040787  95.9839555
 104.6362620  69.9215131 101.3466633 103.9786294  70.6114393 101.4346762
 105.4403019  70.3111563 101.6900620  94.3888501  62.3885777  98.5906198
  94.9632253  62.1660959  97.8579391  94.9759484  62.4574472  99.3434800
 103.4468079  68.2759504  99.3970575 103.9599960  68.9089496  99.8992285
 104.0969302  67.6760700  99.0313935  94.7158088  64.4190238  92.6102084
  93.8795401  64.7564925  92.9311358  94.5762858  64.2839218  91.6729221
  96.6911169  59.2627026  97.3181268  96.0375581  58.9476043  96.6937883
  96.6491643  58.6402766  98.0441091  97.8022374  69.5446321  89.2334560
  96.8949436  69.3135575  89.4325709  98.2993406  68.7483940  89.4208542
 100.7090453  78.2543828  92.1531246 100.0352152  78.5575525  92.7616204
 101.0956275  79.0572909  91.8036703  99.9248909  65.7508960 101.6428916
  99.0071471  65.9723907 101.4850604 100.3409053  65.8255270 100.7840623
 100.7083957  67.1500375  96.7731596 101.4555776  67.6621772  96.4638718
 100.9775547  66.8284428  97.6335989  98.9810607  69.6458916  93.7558550
  98.0721827  69.3617949  93.8531020  99.0105691  70.0657995  92.8961857
 104.2129875  73.2565505  97.5249718 103.7592202  72.4156415  97.5814908
 103.5823841  73.8926904  97.8624498 103.1562794  64.1857492  98.7550385
 102.4185551  63.6734878  99.0860628 103.4089568  63.7457873  97.9433662
 102.6562814  75.0942002  98.4599536 102.9485788  75.6547059  97.7411901
 103.1661435  75.3870563  99.2152695 103.2574422  56.9633744  99.3492154
 103.5633298  56.1031107  99.0618069 103.9827026  57.5551364  99.1491148
  89.5498778  67.3664430  97.7373752  89.3523178  66.7733791  97.0124819
  88.9945442  67.0616640  98.4549691  97.5295501  67.2587537  99.8568345
  97.5844111  66.3061373  99.7810822  96.7186703  67.4146976 100.3409644
  98.6786695  71.1867660  91.0946629  98.2406125  70.4703519  90.6352266
  99.4197136  71.4143774  90.5331720  95.4687861  65.8764596  97.6158724
  94.6555727  66.1758767  98.0223916  95.9646855  65.4820285  98.3333207
  97.6196439  75.8722353  99.5492989  97.5772618  76.0983200  98.6201521
  98.5359138  75.6385728  99.6978790 101.0662073  66.3406421 106.4473618
 101.4211461  66.5677894 107.3068084 101.7134204  66.6724798 105.8250873
 106.7959810  69.4624857  97.1522947 106.6577709  69.6526453  96.2244136
 106.4396029  70.2244239  97.6090998  94.9601936  63.4482952 103.2319959
  95.6001315  63.3071711 102.5342923  94.1279467  63.1617465 102.8558561
 106.8229190  71.5301384 102.1634219 107.2565696  71.4376673 103.0117273
 107.5360770  71.5058884 101.5254235  95.7362240  72.7485382  99.3454952
  96.5302838  72.2535702  99.1437527  95.0253932  72.2203245  98.9822657
 100.5557084  75.1303478 103.6967319 100.6094107  75.6994414 104.4645035
  99.6871866  75.3005363 103.3321356  92.0445003  66.8928464  95.4214704
  91.1142592  66.8312919  95.6384667  92.1402475  66.3704417  94.6251346
  91.9630552  63.4183277  98.0092946  92.2237370  64.3328610  97.9002106
  92.7847725  62.9507719  98.1589559  93.4355478  64.8321034 105.1791771
  94.1078531  64.6238396 104.5304419  92.6085264  64.6343120 104.7397003
 107.6844739  71.5725084 104.6967104 107.8780629  72.4770895 104.9426379
 107.5845357  71.1132503 105.5305689  99.3381050  61.4582975 107.1957431
  98.6908965  62.1572925 107.1021908 100.1082065  61.8919119 107.5633680
 102.7459848  71.7231827 110.2707985 102.5945354  71.4942379 109.3538068
 102.7364527  72.6802429 110.2839330  99.5145184  69.2963740 105.2554251
 100.4437244  69.4474899 105.0823218  99.0936214  69.3847761 104.4002898
  98.3133516  73.3214404 103.0252789  98.1744602  72.9533189 103.8978727
  97.5248112  73.8362044 102.8536747  98.9081668  78.4223501  94.3678325
  99.0833424  77.9511544  95.1823948  98.2214456  79.0489267  94.5959586
  99.8638731  72.6996007 100.4141627  99.5288564  72.6596777 101.3099276
  99.3642677  72.0340723  99.9412037  93.8382975  68.1063637 105.9394208
  93.7002773  67.3743876 106.5405747  94.7487899  68.0172537 105.6578395
 102.7997923  70.0452041  90.6878686 102.1827093  69.3198869  90.5911739
 102.3314411  70.8061402  90.3445760  96.4665276  67.8183596 105.4277887
  97.1764894  67.1776788 105.3864506  96.4234584  68.0696491 106.3504068
 104.4552054  74.7550950 108.3484467 104.3964601  74.0710170 107.6815050
 104.8571573  75.4969940 107.8965093  95.1794210  64.8048814 107.2473527
  94.6431567  64.3539553 107.8995123  94.5910918  64.9394723 106.5043991
  93.4742753  81.5712863 101.1418185  93.7139351  82.2031388 101.8197204
  92.6311950  81.2200904 101.4283545  94.5896469  64.2637466  89.8099990
  93.7125935  64.1426266  89.4462237  95.0654222  63.4723544  89.5578879
 104.4569462  72.7190534 106.5798446 103.5696240  72.3816455 106.7024845
 105.0268013  71.9873565 106.8167212  86.1098609  69.0514625  99.9041498
  86.7969649  68.7376355  99.3162513  85.9546738  69.9555990  99.6308749
  90.9133331  63.9404822 104.3326521  90.8291520  63.3330491 103.5976931
  90.0916037  64.4313840 104.3336018  97.9870615  77.3791986 103.5459689
  97.9140787  78.1846957 104.0578994  97.5448008  77.5783952 102.7207711
  97.7760395  76.6163756  97.0562511  96.9927917  77.1585436  97.1500736
  98.4753140  77.1337736  97.4556752 101.0857045  62.4258385  99.6996716
 101.5825744  61.6728348  99.3797787 100.3144026  62.4622702  99.1339926
 108.9386802  68.1298751 101.3415008 108.9276678  69.0123466 100.9708941
 108.0704182  67.7770302 101.1469545 100.4469299  77.2778820 105.7017848
 101.1597271  77.9126285 105.6293750  99.9559327  77.3742686 104.8857850
 102.1686826  71.1830073  97.2735140 101.2343104  71.3031535  97.1039844
 102.3463494  70.2802539  97.0095150  97.6692014  64.5675768  99.4268401
  97.2989801  64.0146809 100.1149307  98.1651106  63.9633902  98.8743401
 105.5559377  67.0247392  97.8085174 106.0219829  67.8575384  97.7345477
 106.0066877  66.5592373  98.5130432  95.4981212  75.0273263 106.5223419
  96.1990672  75.6609746 106.6752813  95.0276327  75.3687995 105.7619058
 103.6235608  73.3691213  94.8071326 103.8995452  73.2547808  95.7165200
 102.7540107  72.9708698  94.7683499 103.5276040  59.3927979 101.8476075
 102.6139119  59.6232206 102.0158282 103.9569141  59.4766423 102.6990108
 103.2982498  67.5817871 104.3475969 102.6453948  67.8293778 103.6928422
 103.6762878  66.7682009 104.0138447 100.2589672  77.6177564  98.4504140
 100.4412067  76.7999220  98.9131892 101.0822658  77.8345256  98.0129030
 100.5931837  76.5445749  95.7119188 101.1219604  76.0338204  95.0989350
 100.8560057  76.2288279  96.5764721  99.3470071  68.3237682 110.8342006
  98.6710708  68.2231811 111.5044382 100.1697705  68.1676896 111.2978004
  91.0948930  74.5609618 103.4554522  91.6802367  73.8153306 103.5882426
  90.8973769  74.8713575 104.3391186  93.9487585  77.5960866  98.4716964
  93.2797961  78.0806993  97.9881004  93.8100455  77.8430086  99.3860343
  85.6866585  67.1315219 102.1758965  85.7250684  66.5978809 102.9696083
  85.1806878  66.6050424 101.5569942  98.0892854  79.6304609 105.0699622
  98.6411162  79.7936231 105.8348708  98.4299047  80.2209047 104.3979647
  93.0657347  61.9779759 105.6721507  93.1298674  62.8394590 105.2598905
  93.0024467  61.3653761 104.9393866  92.5409620  64.0502892 109.3194541
  93.1681659  63.6679969 109.9332066  91.6837539  63.8317094 109.6850234
  89.3175163  65.8579321  95.2512896  89.6128604  64.9489999  95.1979950
  88.4163198  65.8367060  94.9293899 101.2261241  77.5786585 102.0563305
 101.1012381  76.7776325 101.5474250 101.8840332  78.0732778 101.5677274
  92.8469410  63.9335317 101.2340445  92.1255995  64.5471285 101.0947918
  93.6362665  64.4693082 101.1557091 103.2896150  75.3795605 103.6842855
 102.3426485  75.2600956 103.6121181 103.6378923  74.4918103 103.7669116
  95.6495723  61.2689744 107.5081097  96.1730125  61.5152040 108.2707406
  95.4308056  62.1009779 107.0884234  91.0463004  63.5393418  95.3752221
  90.7175710  62.6590797  95.1927327  91.4002375  63.4841087  96.2628611
 100.2942583  75.1748321  99.8847207 100.1467545  74.2465029 100.0654777
 101.1196076  75.1968412  99.4004282  94.1604827  63.8266388  95.7427699
  94.5000900  64.3552310  95.0206307  94.6076948  64.1646794  96.5186266
 103.8976705  75.9976880 100.9712080 104.8223252  75.7919741 100.8336531
 103.7292008  75.7493281 101.8801421  96.8548268  62.2103439 105.1930767
  96.5145088  61.4111252 105.5951447  96.1487274  62.5105150 104.6207600
  97.5064740  59.2952751 103.6458090  98.3290809  58.8213230 103.5236980
  97.7502803  60.0743235 104.1456776  96.1472974  62.3241010  93.9420992
  96.8681337  62.7022263  93.4384709  95.5238279  63.0429887  94.0455970
 100.2904097  63.0286159  94.8779324 100.5067712  63.9110797  94.5768152
  99.8098164  62.6372372  94.1484966  95.0303319  65.9871872 101.4550069
  94.8847899  66.3012175 102.3474350  94.5528522  66.6056772 100.9020967
  96.8899702  62.9774420 101.5030958  96.8761270  62.0815513 101.1663256
  97.6072130  62.9845084 102.1369244  98.7425832  63.4111760 103.5484086
  98.4843610  64.3328831 103.5468416  98.2110873  63.0142195 104.2384550
 103.6872021  76.5162547  96.3274171 103.8608899  75.9508970  95.5748024
 104.1800912  77.3163442  96.1453661  89.5048981  68.5277216 104.3937730
  88.9602449  69.3037024 104.5258004  90.3828331  68.8748021 104.2356851
  96.2936597  61.8588800  96.7718528  96.4152509  60.9305447  96.9709416
  96.0038640  61.8727486  95.8596844  99.1627788  59.5443711  99.9085248
  99.1849485  59.6083044  98.9537228  99.5795847  58.7048219 100.1025754
 109.5411412  69.2798970  97.9464471 109.9842558  68.5306296  97.5483594
 108.6637922  69.2709107  97.5638203 104.6747194  75.8329312  93.4271069
 105.3698098  76.4536004  93.6458384 105.0170344  74.9824663  93.7023447
  90.2915003  67.6547113 107.2867887  89.5496739  67.8029748 107.8732517
  89.9707747  67.9155378 106.4234636 106.5738617  73.2829017  94.9558400
 107.0989941  73.6216290  94.2307720 106.4860969  72.3476033  94.7721535
  98.2358665  77.1963091 107.0848277  98.5445792  76.9512238 107.9570976
  99.0334147  77.4009729 106.5967147  98.2579277  79.3501001  99.3153653
  97.8184268  78.8577379 100.0086510  99.0087394  78.8073968  99.0745729
  90.7371616  75.5412541  99.3178281  91.5629636  75.2416313  98.9376925
  90.3865668  74.7720164  99.7668070  95.7053150  74.8939010 101.3875955
  95.0833159  74.2309715 101.0878183  96.3758016  74.9200142 100.7049603
  88.9380221  73.4598868 100.2767215  88.1012130  73.0321042 100.0951216
  88.9103867  73.6531311 101.2138006  95.7777677  63.3720798 110.9808461
  95.8265832  64.2482921 110.5986231  96.3200191  62.8298191 110.4080104
 106.3830398  70.7654387 107.5742327 106.4328403  70.6004395 108.5157849
 106.2744321  69.8981646 107.1840207  95.2666656  73.4442933  94.8634416
  95.4154777  74.1278397  94.2101088  96.0733100  73.4248023  95.3783871
 103.6734160  66.7485315 108.8901633 104.5744023  66.6091780 108.5985631
 103.7482135  66.9139770 109.8299811  98.0076965  64.1252170 107.7354820
  97.1380275  64.4185736 107.4637408  98.2436446  64.7092615 108.4562083
 107.8848595  73.1851329 107.8184348 107.5933403  73.5481309 108.6547809
 107.2720726  72.4718337 107.6397680 109.0844277  70.7504209 100.3386918
 109.9191168  71.1894013 100.5024479 109.2203406  70.2742862  99.5195164
 106.1335783  68.3083943 106.2864406 106.6089904  68.5011590 105.4783258
 105.2101348  68.3643129 106.0407790  93.0219289  69.4708111  95.8695484
  92.7765331  68.5670441  96.0675695  93.1915204  69.4725261  94.9274962
 100.7115999  60.3431787 105.2520240 101.2297943  61.0792814 104.9266729
 100.3571132  60.6495780 106.0866999  92.2914937  65.2036468  93.3681646
  91.5984182  65.2780823  92.7121682  92.0466689  64.4396812  93.8903163
 100.9628593  56.7632070 100.7721137 101.2430347  56.0955259 101.3981563
 101.7479200  56.9561165 100.2595800  98.7662062  75.9391063  92.3346163
  98.1936029  76.5581251  91.8816635  99.3394856  76.4890425  92.8686085
 104.8337452  65.1849704 104.5192712 105.7854875  65.2847801 104.5404936
 104.6640902  64.3927972 105.0290796 102.8551831  62.2705287 104.7052113
 102.2601763  62.5510300 104.0098601 102.5701528  62.7599188 105.4768854
 101.9859322  76.2228214  93.4654745 102.9189995  76.1573775  93.6687621
 101.8982535  77.0584480  93.0069278 104.6147338  75.5394084  90.4258693
 104.5360970  75.2053948  91.3194451 105.4357005  76.0315852  90.4250165
 107.3125530  68.4055823 103.6335011 107.2801850  67.4671824 103.8194695
 107.9226153  68.4839860 102.9000836  99.1508860  67.2751876  89.6762215
 100.0967965  67.1458084  89.7450633  98.7723105  66.5366538  90.1531644
 107.4620018  65.1966867 103.6793295 106.9459067  64.4125323 103.4923223
 108.3459967  64.8685583 103.8439814 105.1230745  58.9407882  99.6389107
 104.9255566  58.6322970 100.5232439 105.7330451  59.6669521  99.7687037
 113.1302079  69.4671830 102.7741048 113.8605468  69.2057118 103.3348751
 112.5209025  68.7300552 102.8143116 111.2117377  67.6079693 103.3715499
 110.4850540  67.4735658 102.7631991 110.7964663  67.9156521 104.1772217
  99.0347553  71.3269622 111.1362872  99.9550562  71.5048221 111.3302919
  98.9997136  70.3825668 110.9842572  97.3351778  65.2001853  89.6117101
  96.4283233  64.9034965  89.6879814  97.6127759  64.9031671  88.7451387
  88.2529718  66.5208216 100.0616147  87.9332502  65.6673524  99.7690521
  87.7063146  66.7356794 100.8174114  92.0309626  69.2370657 103.7785654
  92.2495635  70.1687765 103.7973687  92.4435399  68.8778631 104.5640457
  98.9513843  59.7438742  95.7661342  98.1414572  59.3985827  96.1416588
  99.6398260  59.4346286  96.3548954 100.8804392  58.8216789  97.3885639
 101.4335430  59.2412243  98.0475662 101.1174478  57.8952537  97.4308595
  96.9037491  64.8103863 113.1688402  96.8034218  65.7598220 113.1000494
  96.6859033  64.4822102 112.2964473  96.1050562  62.0588788  89.7529080
  96.9669726  62.3843686  90.0124897  96.2900906  61.2720284  89.2402146
  88.1217978  70.1411128 102.0309269  87.4281449  69.7265080 101.5179223
  88.8690969  70.1831664 101.4342688 104.2583199  60.9317314  96.8964303
 103.6781868  61.5902118  96.5142355 103.9919131  60.1094659  96.4851720
 102.7086765  60.3322372  99.0985623 103.2086543  60.4438907  98.2899942
 103.3522373  60.0283425  99.7386432  96.7668761  68.2401002 111.9853464
  96.2835843  69.0401362 112.1917353  96.8529700  68.2508946 111.0320908
  90.0354721  70.0729381  99.9075284  90.0125409  70.1717069  98.9557167
  90.3455357  70.9194532 100.2292450  92.6942098  72.1305536 104.0221898
  93.6485352  72.0989479 103.9551829  92.4954622  71.6696160 104.8372124
  93.2841481  70.7006652 106.5892696  94.1034370  71.1950731 106.6127533
  93.5578288  69.7838621 106.5610263 103.0408077  63.0917405  95.9520651
 102.1533932  63.3767055  95.7340846 103.4562066  62.9311168  95.1047928
 106.3922613  63.1163926  99.6674990 107.1683003  63.6060378  99.9399607
 105.6670747  63.5421980 100.1246860 108.8295171  63.8291545 100.7248931
 109.4239662  63.5887281 100.0142239 108.9021755  63.1098675 101.3522467
  91.0492327  77.6725156 101.0392096  90.9146795  76.9125557 100.4730094
  90.6324389  78.3966056 100.5720885 102.1851290  72.8562079  90.0468671
 102.8887140  73.0612082  90.6626327 101.4613939  73.4238841  90.3117755
 103.0149100  68.6071941  96.1670941 102.9584302  69.0640492  95.3278574
 103.5677443  67.8462625  95.9893784 106.8253906  64.3961672  96.9921061
 106.5690841  63.9958308  97.8229268 106.2006774  65.1105466  96.8671200
 111.1366244  67.1357746  99.4992352 110.5765802  67.2050935 100.2723914
 110.5309748  66.9598730  98.7791848  94.2061453  78.5694473 101.2510538
  94.0893837  79.5139905 101.1489229  93.3853899  78.2668034 101.6396338
 104.0937988  73.2944609  92.0967131 104.9283592  72.8625807  91.9144606
 103.9322331  73.1226622  93.0244026 103.7483880  69.7976722  93.4623470
 103.6932684  69.6320993  92.5211915 103.1229935  70.5052755  93.6185660
  88.5376395  65.0344786 107.2884893  89.1835258  64.5243740 107.7772118
  88.3293546  65.7713468 107.8628318  97.0580005  59.2984831  93.0408789
  97.0458675  60.2426671  93.1977060  97.9503427  59.1154976  92.7468250
  95.2315967  79.2222735 104.4666467  96.1343214  79.2546345 104.7832962
  95.0053337  78.2923186 104.4812803  96.9869569  77.9753721 101.1276545
  96.0365200  77.9755583 101.0140918  97.2902055  77.2286456 100.6112580
 100.8732125  55.8927608  97.2954726 100.1064521  55.3386094  97.4411408
 101.2842830  55.9649476  98.1568877  92.8773886  62.1812403 111.3859907
  93.7405347  61.8249208 111.5963231  92.3039296  61.8426298 112.0735311
 105.3898785  85.6177164  98.1180724 104.8263650  85.5267101  97.3497011
 105.2751180  84.7977069  98.5983216 102.9363217  87.1128356 100.9564944
 103.7284509  86.7719180 100.5411243 103.1759867  87.2223331 101.8767097
 110.9698343  89.2848132  93.4295188 110.3186323  89.8702212  93.0429202
 111.7642706  89.8154327  93.4890226 104.8953971  86.3737269  93.8282323
 105.6684847  85.8266256  93.6895199 105.2479369  87.2381518  94.0396784
 107.2320248  82.5329935  91.4600773 107.4845769  82.0111456  90.6984236
 106.2944807  82.3696081  91.5627456 112.2763531  81.5365714  99.2675516
 113.0626620  81.1185137  98.9165933 112.5402236  82.4411806  99.4357164
 112.4473609  86.9738564  93.9664173 111.8119442  87.0473190  94.6785077
 112.1171015  87.5632163  93.2883252 106.9516537  84.4358041  93.6625148
 106.8352795  83.7602944  94.3306232 107.0618797  83.9490415  92.8457301
 109.2948078  83.8968188  97.3671837 108.9306285  83.3698809  98.0784758
 110.1515194  83.5066657  97.1938322 108.9353565  78.9258088  92.3633185
 109.1027967  79.7938324  92.7303656 108.7450734  79.0885370  91.4394475
 105.1441380  83.8388864 100.0635720 104.2191876  83.7065078 100.2713412
 105.3925793  84.6183083 100.5605663 108.9142786  81.3815745  93.3479852
 108.7942411  81.8272796  94.1865333 108.2195374  81.7301063  92.7893390
 102.5050191  83.4822137 100.8979509 102.6342572  83.7356616 101.8118921
 101.8247642  84.0749845 100.5784164 114.6127852  81.8537219  94.1760186
 115.5245708  82.0864605  94.0007884 114.1037499  82.4374263  93.6135265
 111.9563827  78.0295255 102.4250047 111.0948306  78.3276508 102.7166785
 111.9826261  78.2465653 101.4931080 108.7725396  86.5737445  98.8323853
 109.2363742  86.8525148  98.0428475 108.5082194  85.6720890  98.6496944
 107.7094282  82.6960597  95.6413418 108.4118326  83.1481641  96.1087344
 107.3774911  82.0544416  96.2693311 101.4519616  80.9544150 100.9430552
 100.6618670  81.2101679 100.4670662 101.9430864  81.7692488 101.0482592
 103.4034362  81.3188729  97.9014028 102.6065525  81.4307424  98.4197524
 103.1759954  81.6575382  97.0354919  99.7357319  81.2074641 103.3745542
  99.9865358  82.0921651 103.6403118 100.2716868  81.0279242 102.6020634
 108.9488047  89.5101540  95.7175523 108.8133722  90.3553076  96.1460371
 109.4897859  89.7120818  94.9541457 102.4017444  87.0276978  96.2903448
 102.9141965  87.8220228  96.4409013 103.0540157  86.3303269  96.2237050
 104.2112329  90.1442734  98.3726201 104.3878957  91.0660699  98.1847185
 105.0069163  89.8301154  98.8020581 112.2980510  73.0332102 104.2474417
 111.9544780  73.9233744 104.1713527 112.6659473  72.8433760 103.3844002
 100.3666361  85.3565632  97.0663019 101.2041583  85.7662641  96.8496727
 100.5444629  84.4165075  97.0363213 112.2630793  83.0240713  92.7546852
 111.7477417  83.7945318  92.9935239 111.9908102  82.3505849  93.3779913
 109.8477904  77.8690414  97.8132090 108.9919501  77.4797264  97.6337729
 110.2604856  77.9482375  96.9531876 111.3777051  75.4036757 102.2123650
 110.8741846  75.3666892 101.3991455 111.6707658  76.3129500 102.2720307
 107.6219937  75.4875487 101.2189832 108.4872934  75.2918296 100.8595721
 107.6897446  75.2585839 102.1459188 117.2365067  85.7773068  94.6900025
 116.4594510  85.4384227  94.2455187 117.9156548  85.7825691  94.0154990
 112.0517096  80.8967805  94.5806633 111.7467232  81.2113954  95.4316776
 113.0047539  80.9749225  94.6233966 110.4963528  87.0558029  96.2299587
 109.9684890  86.3210788  95.9172824 109.9951031  87.8332705  95.9839555
 105.2282256  77.7177695  98.5906198 105.8026008  77.4952876  97.8579391
 105.8153238  77.7866389  99.3434800 105.5551843  79.7482156  92.6102084
 104.7189155  80.0856842  92.9311358 105.4156613  79.6131136  91.6729221
 107.5304924  74.5918944  97.3181268 106.8769336  74.2767961  96.6937883
 107.4885398  73.9694684  98.0441091 108.6416128  84.8738239  89.2334560
 107.7343190  84.6427492  89.4325709 109.1387160  84.0775858  89.4208542
 111.5484207  93.5835746  92.1531246 110.8745906  93.8867443  92.7616204
 111.9350029  94.3864826  91.8036703 110.7642664  81.0800877 101.6428916
 109.8465225  81.3015824 101.4850604 111.1802808  81.1547188 100.7840623
 111.5477712  82.4792293  96.7731596 112.2949531  82.9913690  96.4638718
 111.8169301  82.1576346  97.6335989 109.8204362  84.9750834  93.7558550
 108.9115581  84.6909866  93.8531020 109.8499446  85.3949912  92.8961857
 113.9956549  79.5149409  98.7550385 113.2579306  79.0026795  99.0860628
 114.2483322  79.0749791  97.9433662 114.0968176  72.2925661  99.3492154
 114.4027053  71.4323025  99.0618069 114.8220781  72.8843281  99.1491148
 100.3892532  82.6956348  97.7373752 100.1916932  82.1025708  97.0124819
  99.8339196  82.3908558  98.4549691 108.3689256  82.5879454  99.8568345
 108.4237866  81.6353291  99.7810822 107.5580458  82.7438893 100.3409644
 109.5180450  86.5159577  91.0946629 109.0799880  85.7995436  90.6352266
 110.2590891  86.7435692  90.5331720 106.3081616  81.2056514  97.6158724
 105.4949481  81.5050685  98.0223916 106.8040610  80.8112203  98.3333207
 117.6353564  84.7916774  97.1522947 117.4971463  84.9818370  96.2244136
 117.2789783  85.5536157  97.6090998 105.7995691  78.7774870 103.2319959
 106.4395070  78.6363629 102.5342923 104.9673221  78.4909383 102.8558561
 106.5755994  88.0777300  99.3454952 107.3696593  87.5827620  99.1437527
 105.8647687  87.5495163  98.9822657 102.8838758  82.2220382  95.4214704
 101.9536346  82.1604837  95.6384667 102.9796230  81.6996334  94.6251346
 102.8024307  78.7475195  98.0092946 103.0631124  79.6620528  97.9002106
 103.6241479  78.2799637  98.1589559 104.2749232  80.1612952 105.1791771
 104.9472286  79.9530314 104.5304419 103.4479019  79.9635038 104.7397003
 109.7475422  93.7515418  94.3678325 109.9227178  93.2803462  95.1823948
 109.0608210  94.3781185  94.5959586 113.6391677  85.3743959  90.6878686
 113.0220848  84.6490787  90.5911739 113.1708166  86.1353319  90.3445760
 105.4290223  79.5929383  89.8099990 104.5519689  79.4718184  89.4462237
 105.9047976  78.8015462  89.5578879  96.9492363  84.3806543  99.9041498
  97.6363403  84.0668273  99.3162513  96.7940492  85.2847908  99.6308749
 101.7527085  79.2696740 104.3326521 101.6685274  78.6622409 103.5976931
 100.9309792  79.7605758 104.3336018 111.9250799  77.7550303  99.6996716
 112.4219499  77.0020265  99.3797787 111.1537781  77.7914620  99.1339926
 113.0080580  86.5121990  97.2735140 112.0736859  86.6323453  97.1039844
 113.1857248  85.6094457  97.0095150 108.5085768  79.8967686  99.4268401
 108.1383556  79.3438726 100.1149307 109.0044861  79.2925820  98.8743401
 116.3953131  82.3539310  97.8085174 116.8613584  83.1867301  97.7345477
 116.8460632  81.8884291  98.5130432 114.4629362  88.6983131  94.8071326
 114.7389206  88.5839725  95.7165200 113.5933861  88.3000616  94.7683499
 114.3669794  74.7219897 101.8476075 113.4532874  74.9524123 102.0158282
 114.7962896  74.8058341 102.6990108 111.4325592  91.8737667  95.7119188
 111.9613358  91.3630121  95.0989350 111.6953812  91.5580197  96.5764721
  96.5260339  82.4607136 102.1758965  96.5644439  81.9270727 102.9696083
  96.0200632  81.9342342 101.5569942 103.9051102  77.3071677 105.6721507
 103.9692428  78.1686508 105.2598905 103.8418222  76.6945679 104.9393866
 100.1568917  81.1871239  95.2512896 100.4522358  80.2781917  95.1979950
  99.2556953  81.1658978  94.9293899 103.6863164  79.2627235 101.2340445
 102.9649750  79.8763203 101.0947918 104.4756420  79.7985000 101.1557091
 101.8856759  78.8685336  95.3752221 101.5569465  77.9882715  95.1927327
 102.2396129  78.8133005  96.2628611 104.9998582  79.1558306  95.7427699
 105.3394654  79.6844227  95.0206307 105.4470702  79.4938712  96.5186266
 107.6942023  77.5395357 105.1930767 107.3538843  76.7403170 105.5951447
 106.9881029  77.8397068 104.6207600 108.3458494  74.6244669 103.6458090
 109.1684564  74.1505147 103.5236980 108.5896558  75.4035153 104.1456776
 106.9866729  77.6532928  93.9420992 107.7075091  78.0314180  93.4384709
 106.3632033  78.3721804  94.0455970 111.1297852  78.3578077  94.8779324
 111.3461466  79.2402714  94.5768152 110.6491919  77.9664290  94.1484966
 105.8697073  81.3163790 101.4550069 105.7241654  81.6304093 102.3474350
 105.3922277  81.9348690 100.9020967 107.7293456  78.3066338 101.5030958
 107.7155025  77.4107431 101.1663256 108.4465884  78.3137001 102.1369244
 109.5819587  78.7403678 103.5484086 109.3237365  79.6620749 103.5468416
 109.0504627  78.3434112 104.2384550 100.3442735  83.8569134 104.3937730
  99.7996203  84.6328942 104.5258004 101.2222085  84.2039939 104.2356851
 107.1330352  77.1880718  96.7718528 107.2546263  76.2597364  96.9709416
 106.8432394  77.2019404  95.8596844 110.0021542  74.8735628  99.9085248
 110.0243239  74.9374962  98.9537228 110.4189601  74.0340137 100.1025754
 115.5140948  91.1621229  93.4271069 116.2091853  91.7827922  93.6458384
 115.8564098  90.3116581  93.7023447 117.4132371  88.6120935  94.9558400
 117.9383695  88.9508208  94.2307720 117.3254724  87.6767950  94.7721535
 101.5765371  90.8704459  99.3178281 102.4023391  90.5708231  98.9376925
 101.2259423  90.1012082  99.7668070  99.7773976  88.7890786 100.2767215
  98.9405884  88.3612960 100.0951216  99.7497621  88.9823229 101.2138006
 106.1060411  88.7734851  94.8634416 106.2548531  89.4570315  94.2101088
 106.9126854  88.7539941  95.3783871 103.8613044  84.8000028  95.8695484
 103.6159086  83.8962358  96.0675695 104.0308958  84.8017179  94.9274962
 103.1308691  80.5328386  93.3681646 102.4377936  80.6072741  92.7121682
 102.8860443  79.7688730  93.8903163 111.8022348  72.0923987 100.7721137
 112.0824102  71.4247176 101.3981563 112.5872955  72.2853083 100.2595800
 109.6055816  91.2682981  92.3346163 109.0329784  91.8873168  91.8816635
 110.1788610  91.8182343  92.8686085 112.8253076  91.5520131  93.4654745
 113.7583749  91.4865693  93.6687621 112.7376289  92.3876398  93.0069278
 115.4541093  90.8686002  90.4258693 115.3754724  90.5345865  91.3194451
 116.2750760  91.3607770  90.4250165 109.9902615  82.6043794  89.6762215
 110.9361720  82.4750002  89.7450633 109.6116860  81.8658456  90.1531644
 115.9624499  74.2699800  99.6389107 115.7649321  73.9614888 100.5232439
 116.5724205  74.9961439  99.7687037 108.1745532  80.5293770  89.6117101
 107.2676988  80.2326883  89.6879814 108.4521513  80.2323588  88.7451387
  99.0923472  81.8500134 100.0616147  98.7726257  80.9965442  99.7690521
  98.5456901  82.0648712 100.8174114 109.7907598  75.0730660  95.7661342
 108.9808326  74.7277745  96.1416588 110.4792015  74.7638204  96.3548954
 111.7198146  74.1508707  97.3885639 112.2729185  74.5704160  98.0475662
 111.9568232  73.2244455  97.4308595 106.9444317  77.3880706  89.7529080
 107.8063481  77.7135604  90.0124897 107.1294661  76.6012201  89.2402146
  98.9611732  85.4703045 102.0309269  98.2675204  85.0556998 101.5179223
  99.7084723  85.5123582 101.4342688 115.0976953  76.2609232  96.8964303
 114.5175622  76.9194036  96.5142355 114.8312886  75.4386577  96.4851720
 113.5480520  75.6614290  99.0985623 114.0480298  75.7730824  98.2899942
 114.1916128  75.3575343  99.7386432 100.8748475  85.4021299  99.9075284
 100.8519163  85.5008986  98.9557167 101.1849112  86.2486450 100.2292450
 113.8801831  78.4209322  95.9520651 112.9927686  78.7058973  95.7340846
 114.2955820  78.2603086  95.1047928 117.2316367  78.4455843  99.6674990
 118.0076757  78.9352296  99.9399607 116.5064502  78.8713898 100.1246860
 113.0245045  88.1853997  90.0468671 113.7280895  88.3904000  90.6626327
 112.3007693  88.7530759  90.3117755 113.8542855  83.9363858  96.1670941
 113.7978056  84.3932410  95.3278574 114.4071197  83.1754543  95.9893784
 117.6647661  79.7253590  96.9921061 117.4084595  79.3250226  97.8229268
 117.0400529  80.4397384  96.8671200 114.9331742  88.6236526  92.0967131
 115.7677346  88.1917725  91.9144606 114.7716085  88.4518540  93.0244026
 114.5877634  85.1268640  93.4623470 114.5326438  84.9612911  92.5211915
 113.9623690  85.8344672  93.6185660  99.3770149  80.3636704 107.2884893
 100.0229013  79.8535658 107.7772118  99.1687300  81.1005386 107.8628318
 107.8973760  74.6276749  93.0408789 107.8852430  75.5718588  93.1977060
 108.7897182  74.4446894  92.7468250 111.7125879  71.2219525  97.2954726
 110.9458275  70.6678012  97.4411408 112.1236584  71.2941394  98.1568877
 116.3945597  95.0774074  92.6102084 115.5582910  95.4148760  92.9311358
 116.2550367  94.9423053  91.6729221 116.2683978  94.9221301  89.8099990
 115.3913444  94.8010102  89.4462237 116.7441731  94.1307379  89.5578879
 119.0139287  95.8585688  89.6117101 118.1070742  95.5618801  89.6879814
 119.2915268  95.5615506  88.7451387 117.7838071  92.7172623  89.7529080
 118.6457235  93.0427522  90.0124897 117.9688415  91.9304119  89.2402146
 118.7367514  89.9568666  93.0408789 118.7246184  90.9010506  93.1977060
 119.6290936  89.7738812  92.7468250  52.4780907  -5.4878079  83.7215290
  52.4004936  -4.5370254  83.8003771  51.8742550  -5.8332206  84.3790216
  50.1167737  -2.7392685  87.8663492  50.3564335  -2.1074160  88.5442511
  49.2736933  -3.0904645  88.1528851  50.5912569  -6.7144682  85.1962271
  49.9222944  -6.2298555  84.7126311  50.4525438  -6.4675462  86.1105649
  54.7317837  -4.6800939  91.7944929  55.2836145  -4.5169317  92.5594014
  55.0724031  -4.0896501  91.1224954  47.6917310  -6.6380392  87.7637402
  47.5571778  -7.3979991  87.1975400  47.2749373  -5.9139492  87.2966191
  50.8486436  -5.7411075  87.9755845  50.7318821  -4.7965643  87.8734535
  50.0278883  -6.0437514  88.3641644  51.8740950  -5.0882813  91.1911773
  52.7768197  -5.0559203  91.5078268  51.6478321  -6.0182362  91.2058109
  66.1736952  -0.5463860  88.8529139  65.8355464  -0.6622796  87.9649674
  67.0426720  -0.9472695  88.8330145  62.0323768   1.3071616  84.8426030
  61.4688633   1.2161553  84.0742318  61.9176163   0.4871521  85.3228523
  66.6556735   0.6070991  94.8115345  66.6445376   0.2123790  93.9395848
  66.8177375  -0.1262936  95.4049116  59.5788200   2.8022808  87.6810251
  60.3709492   2.4613632  87.2656550  59.8184850   2.9117783  88.6012404
  67.6123327   4.9742584  80.1540495  66.9611306   5.5596664  79.7674509
  68.4067689   5.5048779  80.2135533  61.5378954   2.0631721  80.5527629
  62.3109830   1.5160708  80.4140505  61.8904353   2.9275970  80.7642091
  63.3763996   3.3908103  93.7594529  63.0853862   4.2953734  93.6441195
  64.0120981   3.4324631  94.4738598  64.3020203   0.7684952  90.3495888
  64.8983776   0.5440974  89.6352851  64.3595175   0.0269697  90.9521336
  69.0898592   2.6633016  80.6909479  68.4544425   2.7367642  81.4030384
  68.7595998   3.2526615  80.0128559  63.5941520   0.1252493  80.3870454
  63.4777779  -0.5502604  81.0551539  63.7043780  -0.3615133  79.5702607
  65.9373061  -0.4137360  84.0917144  65.5731269  -0.9406739  84.8030065
  66.7940177  -0.8038891  83.9183629  68.3353881   3.0769519  90.7544322
  68.0354605   3.9794558  90.6460130  67.9904941   2.8101702  91.6065475
  61.7866363  -0.4716684  86.7881027  60.8616859  -0.6040470  86.9958719
  62.0350776   0.3077535  87.2850969  59.1475174  -0.8283411  87.6224816
  59.2767555  -0.5748932  88.5364228  58.4672625  -0.2355703  87.3029471
  63.3174661   9.8413839  83.7215290  63.2398691  10.7921664  83.8003771
  62.7136305   9.4959712  84.3790216  64.0638263  -0.1772842  95.9394624
  64.8052948   0.3612202  95.6629448  63.3575249   0.4493447  96.0966176
  69.5393603   1.9656298  94.5366785  69.9476959   1.5238709  93.7921418
  68.8170865   1.3908926  94.7900978  69.8622418   2.5257489  88.2919074
  69.2331280   2.6903203  87.5895142  69.4748080   2.9399098  89.0630038
  73.7411650   3.4611927  85.6463438  73.0562688   3.8410828  85.0960471
  73.8255499   4.0707253  86.3795386  70.9962581   1.1071886  92.2458782
  71.2079476   1.7503646  91.5693163  70.9492329   0.2734202  91.7780712
  65.4150380   2.2631897  85.5569159  65.8788725   2.5419600  84.7673782
  65.1507178   1.3615342  85.3742250  62.3074461   1.8103379  88.4948923
  62.8775818   2.2390647  87.8566407  62.8982572   1.5285963  89.1933108
  58.0944600  -3.3561398  87.6675858  57.3043654  -3.1003869  87.1915969
  58.5855847  -2.5413060  87.7727899  72.1108409   3.9843841  90.4181139
  72.9325853   3.5824029  90.1363821  72.1070812   3.8812075  91.3697255
  60.0459345  -2.9916819  84.6259335  59.2490508  -2.8798124  85.1442831
  59.8184937  -2.6530166  83.7600225  65.8765013   3.5327885  92.5741850
  65.9409445   3.9948292  93.4100021  65.1675936   2.9025249  92.7024159
  56.3782303  -3.1030908  90.0990849  56.6290341  -2.2183898  90.3648425
  56.9141851  -3.2826306  89.3265941  65.5913030   5.1995992  82.4420830
  65.4558705   6.0447528  82.8705678  66.1322843   5.4015270  81.6786764
  59.0442428   2.7171430  83.0148755  59.5566948   3.5114680  83.1654320
  59.6965140   2.0197720  82.9482356  60.8537312   5.8337186  85.0971508
  61.0303941   6.7555151  84.9092492  61.6494146   5.5195606  85.5265888
  60.1389669  -2.1198182  94.9733671  60.0243184  -3.0212925  95.2740770
  59.2834187  -1.8734485  94.6218488  67.2181507   5.8219559  96.5721172
  66.7745361   5.0355937  96.2542076  67.8798720   6.0098709  95.9065063
  61.9768628   7.3515360  91.0981850  62.5276053   7.2232423  90.3258844
  61.1380104   7.6510249  90.7476743  69.3162745   6.1022358  94.6002573
  69.2981220   6.9231239  94.1082842  70.2382665   5.9776434  94.8252714
  65.7735799   3.6166488  95.4426082  66.3064136   2.8554776  95.2125390
  65.2449880   3.3240140  96.1850236  57.0091344   1.0460084  83.7908325
  57.8466566   1.4557093  83.5742033  57.1869612   0.1059527  83.7608519
  67.1388512   2.7452480  82.9544894  66.6109873   2.0105240  82.6418131
  66.6376014   3.5227157  82.7084862  72.1181358   0.9401501  88.0711940
  71.4605032   1.6300762  88.1592069  72.9221757   1.3297933  88.4145926
  65.2841112   0.5632691  75.9579867  64.3768173   0.3321944  76.1571016
  65.7812144  -0.2329690  76.1453848  68.1909191   9.2730198  78.8776553
  67.5170889   9.5761895  79.4861511  68.5775013  10.0759278  78.5282010
  66.4629345   0.6645286  80.4803857  65.5540564   0.3804318  80.5776326
  66.4924429   1.0844364  79.6207164  71.6948613   4.2751875  84.2495024
  71.2410940   3.4342785  84.3060215  71.0642579   4.9113273  84.5869804
  70.1381552   6.1128372  85.1844842  70.4304526   6.6733429  84.4657208
  70.6480172   6.4056933  85.9398001  57.0317516  -1.6149200  84.4619059
  56.8341915  -2.2079840  83.7370125  56.4764180  -1.9196990  85.1794998
  66.1605433   2.2054029  77.8191935  65.7224863   1.4889888  77.3597573
  66.9015874   2.4330144  77.2577027  65.1015177   6.8908723  86.2738296
  65.0591356   7.1169569  85.3446828  66.0177876   6.6572097  86.4224097
  74.3047927   2.5487753  88.8879525  74.7384434   2.4563042  89.7362579
  75.0179508   2.5245254  88.2499541  63.2180978   3.7671752  86.0700258
  64.0121576   3.2722072  85.8682833  62.5072670   3.2389615  85.7067964
  68.0375822   6.1489847  90.4212626  68.0912845   6.7180784  91.1890342
  67.1690604   6.3191732  90.0566663  59.5263741  -2.0885166  82.1460011
  58.5961329  -2.1500711  82.3629973  59.6221213  -2.6109214  81.3496652
  75.1663477   2.5911454  91.4212411  75.3599367   3.4957264  91.6671686
  75.0664095   2.1318873  92.2550996  70.2278586   2.7418197  96.9953291
  70.0764092   2.5128748  96.0783375  70.2183265   3.6988798  97.0084636
  66.9963922   0.3150109  91.9799558  67.9255982   0.4661269  91.8068525
  66.5754952   0.4034130  91.1248204  65.7952254   4.3400774  89.7498095
  65.6563339   3.9719558  90.6224034  65.0066850   4.8548413  89.5782053
  66.3900406   9.4409870  81.0923632  66.5652161   8.9697913  81.9069255
  65.7033194  10.0675636  81.3204893  67.3457469   3.7182377  87.1386933
  67.0107302   3.6783146  88.0344583  66.8461415   3.0527092  86.6657343
  61.3201713  -0.8749993  92.6639514  61.1821511  -1.6069755  93.2651053
  62.2306636  -0.9641093  92.3823702  70.2816661   1.0638411  77.4123993
  69.6645831   0.3385239  77.3157046  69.8133149   1.8247771  77.0691067
  63.9484014  -1.1630034  92.1523194  64.6583632  -1.8036842  92.1109812
  63.9053322  -0.9117139  93.0749375  71.9370792   5.7737319  95.0729773
  71.8783338   5.0896539  94.4060356  72.3390311   6.5156309  94.6210399
  60.9561491  12.5899233  87.8663492  61.1958089  13.2217757  88.5442511
  60.1130687  12.2387273  88.1528851  71.9388199   3.7376903  93.3043753
  71.0514978   3.4002825  93.4270152  72.5086751   3.0059934  93.5412518
  53.5917347   0.0700995  86.6286804  54.2788386  -0.2437275  86.0407820
  53.4365475   0.9742360  86.3554056  65.4689353   8.3978355  90.2704996
  65.3959524   9.2033327  90.7824301  65.0266746   8.5970321  89.4453017
  65.2579132   7.6350126  83.7807818  64.4746654   8.1771806  83.8746042
  65.9571878   8.1524105  84.1802059  67.9288036   8.2965190  92.4263155
  68.6416009   8.9312654  92.3539056  67.4378065   8.3929056  91.6103157
  69.6505563   2.2016442  83.9980446  68.7161842   2.3217905  83.8285151
  69.8282232   1.2988909  83.7340456  62.9799950   6.0459633  93.2468726
  63.6809409   6.6796116  93.3998120  62.5095065   6.3874365  92.4864365
  71.1054346   4.3877583  81.5316633  71.3814190   4.2734177  82.4410507
  70.2358844   3.9895068  81.4928806  67.7408410   8.6363934  85.1749446
  67.9230804   7.8185590  85.6377199  68.5641396   8.8531626  84.7374336
  68.0750575   7.5632119  82.4364495  68.6038342   7.0524573  81.8234657
  68.3378795   7.2474649  83.3010028  66.8288809  -0.6575949  97.5587313
  66.1529446  -0.7581819  98.2289688  67.6516443  -0.8136735  98.0223310
  58.5767668   5.5795988  90.1799828  59.1621105   4.8339676  90.3127732
  58.3792506   5.8899945  91.0636492  61.4306323   8.6147235  85.1962271
  60.7616698   9.0993363  84.7126311  61.2919193   8.8616456  86.1105649
  53.1685323  -1.8498412  88.9004271  53.2069422  -2.3834821  89.6941390
  52.6625616  -2.3763206  88.2815249  65.5711592  10.6490979  91.7944929
  66.1229900  10.8122600  92.5594014  65.9117785  11.2395417  91.1224954
  70.4222466   5.4752236  97.6493583  70.9662370   6.0882195  97.1548538
  69.8409311   6.0331815  98.1660596  56.7993900  -3.1234310  81.9758203
  57.0947341  -4.0323631  81.9225256  55.8981936  -3.1446570  81.6539205
  68.7079979   8.5972954  88.7808611  68.5831119   7.7962694  88.2719557
  69.3659070   9.0919148  88.2922581  70.7714887   6.3981975  90.4088161
  69.8245223   6.2787326  90.3366488  71.1197661   5.5104473  90.4914423
  67.7761321   6.1934691  86.6092513  67.6286283   5.2651398  86.7900084
  68.6014814   6.2154781  86.1249589  71.3795443   7.0163249  87.6957386
  72.3041990   6.8106111  87.5581837  71.2110746   6.7679651  88.6046728
  71.1690759   7.5348917  83.0519478  71.3427636   6.9695339  82.2993330
  71.6619650   8.3349812  82.8698968  56.9867719  -0.4536414  91.1183036
  56.4421187   0.3223394  91.2503311  57.8647068  -0.1065609  90.9602158
  72.1565931   6.8515681  80.1516376  72.8516836   7.4722374  80.3703691
  72.4989081   6.0011033  80.4268754  57.7733740  -1.3266518  94.0113193
  57.0315477  -1.1783882  94.5977824  57.4526485  -1.0658252  93.1479943
  74.0557354   4.3015387  81.6803707  74.5808679   4.6402660  80.9553027
  73.9679707   3.3662402  81.4966841  65.7177403   8.2149461  93.8093583
  66.0264530   7.9698607  94.6816283  66.5152885   8.4196099  93.3212454
  65.7398015  10.3687370  86.0398960  65.3003005   9.8763749  86.7331817
  66.4906132   9.8260338  85.7991035  58.2190354   6.5598911  86.0423588
  59.0448374   6.2602683  85.6622232  57.8684406   5.7906533  86.4913377
  63.1871887   5.9125379  88.1121262  62.5651897   5.2496084  87.8123489
  63.8576754   5.9386511  87.4294909  56.4198959   4.4785237  87.0012522
  55.5830868   4.0507412  86.8196523  56.3922605   4.6717681  87.9383313
  73.7451260   4.9348291  96.9854905  72.9546804   4.9172429  96.4459404
  73.5084615   5.4736584  97.7403941  62.7485394   4.4629303  81.5879722
  62.8973515   5.1464767  80.9346395  63.5551838   4.4434393  82.1029178
  75.3667332   4.2037698  94.5429655  75.0752141   4.5667679  95.3793116
  74.7539464   3.4904707  94.3642987  60.5038027   0.4894480  82.5940791
  60.2584069  -0.4143190  82.7921001  60.6733942   0.4911631  81.6520269
  66.2480800   6.9577433  79.0591470  65.6754767   7.5767620  78.6061941
  66.8213593   7.5076795  79.5931391  69.4678060   7.2414583  80.1900052
  70.4008733   7.1760145  80.3932927  69.3801272   8.0770850  79.7314584
  72.0966076   6.5580454  77.1503999  72.0179708   6.2240317  78.0439757
  72.9175743   7.0502221  77.1495472  66.5166291   2.3455992  97.8608179
  67.4369300   2.5234591  98.0548226  66.4815874   1.4012037  97.7087878
  55.7348456  -2.4605414  86.7861454  55.4151240  -3.3140106  86.4935828
  55.1881884  -2.2456836  87.5419421  59.5128363   0.2557027  90.5030960
  59.7314373   1.1874134  90.5218994  59.9254137  -0.1034999  91.2885764
  55.6036716   1.1597497  88.7554575  54.9100187   0.7451450  88.2424530
  56.3509707   1.2018034  88.1587994  64.2487499  -0.7412629  98.7098771
  63.7654580   0.0587731  98.9162660  64.3348438  -0.7304684  97.7566215
  57.5173458   1.0915751  86.6320590  57.4944146   1.1903438  85.6802473
  57.8274095   1.9380902  86.9537756  60.1760836   3.1491906  90.7467205
  61.1304090   3.1175848  90.6797136  59.9773360   2.6882530  91.5617430
  60.7660218   1.7193022  93.3138002  61.5853107   2.2137101  93.3372840
  61.0397026   0.8024990  93.2855570  58.5311065   8.6911525  87.7637402
  58.3965533   7.9311926  87.1975400  58.1143127   9.4152425  87.2966191
  69.6670028   3.8748449  76.7713978  70.3705878   4.0798451  77.3871633
  68.9432677   4.4425211  77.0363061  61.6880191   9.5880842  87.9755845
  61.5712575  10.5326275  87.8734535  60.8672637   9.2854404  88.3641644
  71.5756725   4.3130978  78.8212438  72.4102329   3.8812177  78.6389913
  71.4141068   4.1412992  79.7489332  71.2302618   0.8163091  80.1868777
  71.1751421   0.6507363  79.2457221  70.6048673   1.5239124  80.3430967
  56.0195133  -3.9468844  94.0130199  56.6653996  -4.4569890  94.5017424
  55.8112284  -3.2100163  94.5873625  68.5448525   3.1212003  99.5122340
  69.4139684   3.2952656  99.1508975  68.0655276   3.9406420  99.3898069
  62.7134705  10.2409104  91.1911773  63.6161952  10.2732715  91.5078268
  62.4872075   9.3109555  91.2058109  64.4688307   8.9940091  87.8521852
  63.5183938   8.9941952  87.7386224  64.7720793   8.2472825  87.3357887
  80.2041000  14.8300629  88.9167615  80.8419410  14.7107377  88.2130955
  80.0861843  15.7781473  88.9755567  77.0130707  14.7828057  88.8529139
  76.6749218  14.6669122  87.9649674  77.8820475  14.3819222  88.8330145
  72.8717522  16.6363534  84.8426030  72.3082388  16.5453471  84.0742318
  72.7569918  15.8163438  85.3228523  77.4950490  15.9362909  94.8115345
  77.4839131  15.5415707  93.9395848  77.6571129  15.2028982  95.4049116
  70.4181954  18.1314725  87.6810251  71.2103246  17.7905550  87.2656550
  70.6578605  18.2409700  88.6012404  78.4517081  20.3034501  80.1540495
  77.8005061  20.8888582  79.7674509  79.2461444  20.8340696  80.2135533
  72.3772708  17.3923639  80.5527629  73.1503584  16.8452626  80.4140505
  72.7298107  18.2567888  80.7642091  74.2157751  18.7200021  93.7594529
  73.9247617  19.6245652  93.6441195  74.8514735  18.7616548  94.4738598
  75.1413958  16.0976869  90.3495888  75.7377530  15.8732892  89.6352851
  75.1988929  15.3561615  90.9521336  74.7138986  13.5516305  78.1846079
  74.9664507  13.0297826  77.4229542  73.7763545  13.3882450  78.2872763
  79.7582269  12.5552083  85.9920823  80.5445358  12.1371506  85.6411240
  80.0220973  13.4598175  86.1602471  79.9292346  17.9924933  80.6909479
  79.2938179  18.0659560  81.4030384  79.5989753  18.5818532  80.0128559
  85.1590696  12.4927316  86.8953801  85.8915868  11.9226533  87.1291631
  84.4030052  12.1048917  87.3360307  74.4335275  15.4544411  80.3870454
  74.3171533  14.7789314  81.0551539  74.5437535  14.9676785  79.5702607
  76.7766816  14.9154558  84.0917144  76.4125023  14.3885179  84.8030065
  77.6333932  14.5253027  83.9183629  82.6816116   6.2048890  91.3548410
  82.3499441   7.0744301  91.1309625  82.0861730   5.8885174  92.0342440
  76.4172303   9.9444457  79.0878492  76.5846705  10.8124694  79.4548963
  76.2269472  10.1071739  78.1639781  79.1747636  18.4061436  90.7544322
  78.8748359  19.3086475  90.6460130  78.8298696  18.1393620  91.6065475
  72.6260117  14.8575233  86.7881027  71.7010614  14.7251447  86.9958719
  72.8744531  15.6369452  87.2850969  82.5744780  10.9243977  88.4341760
  81.6661657  10.8559385  88.1400521  82.5232376  11.4015921  89.2623585
  76.3961524  12.4002115  80.0725159  76.2761149  12.8459166  80.9110639
  75.7014112  12.7487433  79.5138697  69.9868929  14.5008507  87.6224816
  70.1161310  14.7542986  88.5364228  69.3066380  15.0936215  87.3029471
  74.1568416  25.1705757  83.7215290  74.0792445  26.1213582  83.8003771
  73.5530059  24.8251629  84.3790216  76.6485646  12.3433622  96.3776657
  75.8718980  12.9027542  96.3679522  77.2876209  12.8290405  96.8991527
  84.4406426   9.1260415  90.2119634  83.7980806   9.4192948  89.5659428
  83.9361355   9.0113335  91.0172830  82.0946590  12.8723588  80.9005493
  83.0064446  13.1050975  80.7253190  81.5856237  13.4560632  80.3380572
  74.9032018  15.1519076  95.9394624  75.6446702  15.6904119  95.6629448
  74.1969003  15.7785364  96.0966176  80.3787358  17.2948216  94.5366785
  80.7870714  16.8530627  93.7921418  79.6564619  16.7200843  94.7900978
  76.7318428  12.2320823  91.9100342  77.5779623  12.6560236  92.0534991
  76.6717065  11.5754447  92.6038906  80.7016172  17.8549407  88.2919074
  80.0725035  18.0195121  87.5895142  80.3141834  18.2691016  89.0630038
  84.5805404  18.7903844  85.6463438  83.8956442  19.1702746  85.0960471
  84.6649253  19.3999171  86.3795386  79.8817873   9.8925191  93.5681516
  79.6378805  10.6467252  93.0315792  80.1577803  10.2710539  94.4028763
  81.8356336  16.4363803  92.2458782  82.0473231  17.0795563  91.5693163
  81.7886084  15.6026120  91.7780712  79.4382565   9.0481624  89.1495354
  78.5767044   9.3462878  89.4412091  79.4644999   9.2652023  88.2176386
  76.2544134  17.5923815  85.5569159  76.7182480  17.8711518  84.7673782
  75.9900932  16.6907259  85.3742250  73.1468215  17.1395296  88.4948923
  73.7169572  17.5682565  87.8566407  73.7376327  16.8577881  89.1933108
  75.1913020  13.7146967  82.3658725  75.8937063  14.1668011  82.8332651
  74.8593649  13.0730786  82.9938618  73.6393382  12.3058724  96.7409934
  73.0092042  12.9875005  96.9745331  73.5329469  12.1941805  95.7963072
  68.9338354  11.9730520  87.6675858  68.1437408  12.2288048  87.1915969
  69.4249601  12.7878858  87.7727899  82.9502164  19.3135759  90.4181139
  83.7719607  18.9115946  90.1363821  82.9464566  19.2103993  91.3697255
  70.8853099  12.3375099  84.6259335  70.0884263  12.4493793  85.1442831
  70.6578692  12.6761751  83.7600225  76.7158767  18.8619802  92.5741850
  76.7803200  19.3240209  93.4100021  76.0069691  18.2317167  92.7024159
  67.2176057  12.2261010  90.0990849  67.4684095  13.1108020  90.3648425
  67.7535605  12.0465612  89.3265941  91.0408157  15.6574507  86.7666110
  90.2871865  15.0881905  86.6110115  91.1755698  15.6237172  87.7136745
  76.4306785  20.5287910  82.4420830  76.2952459  21.3739445  82.8705678
  76.9716597  20.7307187  81.6786764  72.9174124   6.6079490  99.1035185
  72.5241070   6.0545688  99.7782829  73.7340265   6.9190068  99.4941703
  69.8836182  18.0463348  83.0148755  70.3960703  18.8406598  83.1654320
  70.5358895  17.3489638  82.9482356  71.6931067  21.1629104  85.0971508
  71.8697695  22.0847069  84.9092492  72.4887900  20.8487523  85.5265888
  75.8342085   8.0237369  96.6955442  76.5751799   8.6244522  96.6159904
  76.0660008   7.2815006  96.1373484  70.9783423  13.2093736  94.9733671
  70.8636938  12.3078993  95.2740770  70.1227941  13.4557433  94.6218488
  78.0575261  21.1511476  96.5721172  77.6139115  20.3647855  96.2542076
  78.7192475  21.3390627  95.9065063  72.8162382  22.6807278  91.0981850
  73.3669807  22.5524341  90.3258844  71.9773858  22.9802167  90.7476743
  80.1556499  21.4314276  94.6002573  80.1374974  22.2523157  94.1082842
  81.0776419  21.3068351  94.8252714  76.6129553  18.9458406  95.4426082
  77.1457890  18.1846694  95.2125390  76.0843634  18.6532057  96.1850236
  79.7799248   4.0518472  90.9719723  79.4363518   4.9420113  90.8958834
  80.1478211   3.8620129  90.1089308  67.8485099  16.3752002  83.7908325
  68.6860321  16.7849010  83.5742033  68.0263367  15.4351444  83.7608519
  79.7449531  14.0427083  79.4792158  79.2296154  14.8131687  79.7180546
  79.4726839  13.3692219  80.1025220  77.3296642   8.8876783  84.5377397
  76.4738238   8.4983634  84.3583035  77.7423594   8.9668744  83.6777182
  78.8595789   6.4223127  88.9368957  78.3560584   6.3853262  88.1236762
  79.1526396   7.3315869  88.9965613  75.1038675   6.5061856  87.9435138
  75.9691671   6.3104665  87.5841028  75.1716183   6.2772208  88.8704495
  84.7183805  16.7959437  81.4145332  83.9413248  16.4570597  80.9700494
  85.3975286  16.8012060  80.7400297  79.5335834  11.9154175  81.3051940
  79.2285970  12.2300324  82.1562083  80.4866276  11.9935595  81.3479273
  77.9782266  18.0744398  82.9544894  77.4503628  17.3397158  82.6418131
  77.4769769  18.8519074  82.7084862  82.9575112  16.2693419  88.0711940
  82.2998786  16.9592680  88.1592069  83.7615511  16.6589851  88.4145926
  72.7100994   8.7364064  85.3151505  73.2844746   8.5139246  84.5824698
  73.2971976   8.8052759  86.0680106  81.7680571  14.6237791  86.1215882
  82.2812453  15.2567783  86.6237591  82.4181795  14.0238987  85.7559242
  73.0370581  10.7668525  79.3347390  72.2007893  11.1043212  79.6556665
  72.8975350  10.6317505  78.3974527  75.0123661   5.6105313  84.0426575
  74.3588074   5.2954330  83.4183189  74.9704135   4.9881054  84.7686397
  76.1234866  15.8924608  75.9579867  75.2161928  15.6613862  76.1571016
  76.6205898  15.0962228  76.1453848  79.0302945  24.6022116  78.8776553
  78.3564644  24.9053812  79.4861511  79.4168767  25.4051196  78.5282010
  78.2461402  12.0987247  88.3674222  77.3283963  12.3202194  88.2095910
  78.6621545  12.1733557  87.5085929  79.0296449  13.4978662  83.4976902
  79.7768268  14.0100060  83.1884024  79.2988039  13.1762715  84.3581296
  77.3023100  15.9937203  80.4803857  76.3934319  15.7096236  80.5776326
  77.3318183  16.4136282  79.6207164  82.5342367  19.6043793  84.2495024
  82.0804694  18.7634703  84.3060215  81.9036334  20.2405191  84.5869804
  81.4775287  10.5335779  85.4795692  80.7398043  10.0213165  85.8105934
  81.7302060  10.0936160  84.6678969  80.9775306  21.4420289  85.1844842
  81.2698281  22.0025347  84.4657208  81.4873927  21.7348850  85.9398001
  67.8711270  13.7142717  84.4619059  67.6735670  13.1212078  83.7370125
  67.3157934  13.4094928  85.1794998  75.8507994  13.6065824  86.5813652
  75.9056603  12.6539660  86.5056129  75.0399196  13.7625263  87.0654950
  76.9999187  17.5345947  77.8191935  76.5618617  16.8181806  77.3597573
  77.7409628  17.7622062  77.2577027  73.7900354  12.2242884  84.3404031
  72.9768219  12.5237054  84.7469223  74.2859348  11.8298572  85.0578513
  75.9408931  22.2200640  86.2738296  75.8985110  22.4461487  85.3446828
  76.8571630  21.9864015  86.4224097  79.3874565  12.6884708  93.1718925
  79.7423953  12.9156181  94.0313391  80.0346696  13.0203085  92.5496180
  85.1172302  15.8103144  83.8768254  84.9790201  16.0004740  82.9489443
  84.7608521  16.5722527  84.3336305  73.2814428   9.7961239  89.9565266
  73.9213808   9.6549998  89.2588229  72.4491959   9.5095752  89.5803868
  85.1441682  17.8779671  88.8879525  85.5778188  17.7854960  89.7362579
  85.8573263  17.8537171  88.2499541  74.0574732  19.0963670  86.0700258
  74.8515331  18.6013990  85.8682833  73.3466425  18.5681533  85.7067964
  78.8769577  21.4781765  90.4212626  78.9306599  22.0472701  91.1890342
  78.0084358  21.6483650  90.0566663  70.3657496  13.2406751  82.1460011
  69.4355084  13.1791207  82.3629973  70.4614968  12.7182704  81.3496652
  70.2843045   9.7661564  84.7338253  70.5449862  10.6806897  84.6247413
  71.1060217   9.2986007  84.8834865  71.7567970  11.1799321  91.9037077
  72.4291024  10.9716683  91.2549726  70.9297757  10.9821407  91.4642309
  86.0057231  17.9203372  91.4212411  86.1993121  18.8249182  91.6671686
  85.9057850  17.4610791  92.2550996  77.6593542   7.8061262  93.9202738
  77.0121457   8.5051212  93.8267214  78.4294558   8.2397406  94.2878986
  81.0672340  18.0710114  96.9953291  80.9157846  17.8420666  96.0783375
  81.0577020  19.0280716  97.0084636  77.8357676  15.6442027  91.9799558
  78.7649736  15.7953187  91.8068525  77.4148706  15.7326048  91.1248204
  76.6346008  19.6692691  89.7498095  76.4957094  19.3011476  90.6224034
  75.8460604  20.1840331  89.5782053  77.2294160  24.7701788  81.0923632
  77.4045916  24.2989831  81.9069255  76.5426948  25.3967554  81.3204893
  78.1851223  19.0474294  87.1386933  77.8501056  19.0075064  88.0344583
  77.6855169  18.3819010  86.6657343  72.1595467  14.4541924  92.6639514
  72.0215265  13.7222163  93.2651053  73.0700391  14.3650824  92.3823702
  81.1210415  16.3930329  77.4123993  80.5039586  15.6677157  77.3157046
  80.6526904  17.1539689  77.0691067  74.7877768  14.1661884  92.1523194
  75.4977387  13.5255076  92.1109812  74.7447076  14.4174778  93.0749375
  82.7764547  21.1029237  95.0729773  82.7177093  20.4188457  94.4060356
  83.1784065  21.8448227  94.6210399  73.5006702  11.1527101  93.9718833
  72.9644059  10.7017840  94.6240430  72.9123410  11.2873010  93.2289298
  71.7955245  27.9191151  87.8663492  72.0351844  28.5509675  88.5442511
  70.9524442  27.5679191  88.1528851  72.9108961  10.6115753  76.5345297
  72.0338427  10.4904554  76.1707544  73.3866714   9.8201831  76.2824186
  82.7781954  19.0668821  93.3043753  81.8908733  18.7294743  93.4270152
  83.3480505  18.3351852  93.5412518  64.4311101  15.3992913  86.6286804
  65.1182141  15.0854643  86.0407820  64.2759230  16.3034277  86.3554056
  69.2345823  10.2883109  91.0571828  69.1504012   9.6808779  90.3222238
  68.4128530  10.7792127  91.0581324  76.3083107  23.7270273  90.2704996
  76.2353279  24.5325245  90.7824301  75.8660500  23.9262239  89.4453017
  76.0972887  22.9642043  83.7807818  75.3140409  23.5063723  83.8746042
  76.7965632  23.4816023  84.1802059  79.4069537   8.7736673  86.4242023
  79.9038237   8.0206635  86.1043093  78.6356519   8.8100989  85.8585232
  87.2599295  14.4777038  88.0660315  87.2489171  15.3601754  87.6954248
  86.3916674  14.1248589  87.8714852  78.7681791  23.6257107  92.4263155
  79.4809763  24.2604572  92.3539056  78.2771820  23.7220973  91.6103157
  80.4899318  17.5308360  83.9980446  79.5555597  17.6509822  83.8285151
  80.6675986  16.6280827  83.7340456  75.9904506  10.9154056  86.1513708
  75.6202293  10.3625096  86.8394613  76.4863598  10.3112189  85.5988708
  83.8771869  13.3725679  84.5330481  84.3432321  14.2053671  84.4590783
  84.3279370  12.9070661  85.2375739  73.8193704  21.3751551  93.2468726
  74.5203164  22.0088034  93.3998120  73.3488819  21.7166282  92.4864365
  81.9448100  19.7169500  81.5316633  82.2207944  19.6026095  82.4410507
  81.0752599  19.3186985  81.4928806  81.8488532   5.7406266  88.5721382
  80.9351612   5.9710493  88.7403589  82.2781633   5.8244710  89.4235414
  81.6194990  13.9296158  91.0721276  80.9666441  14.1772066  90.4173729
  81.9975370  13.1160296  90.7383753  78.5802164  23.9655851  85.1749446
  78.7624559  23.1477507  85.6377199  79.4035150  24.1823544  84.7374336
  78.9144330  22.8924036  82.4364495  79.4432096  22.3816491  81.8234657
  79.1772549  22.5766567  83.3010028  77.6682563  14.6715969  97.5587313
  76.9923200  14.5710098  98.2289688  78.4910197  14.5155183  98.0223310
  69.4161422  20.9087906  90.1799828  70.0014859  20.1631594  90.3127732
  69.2186261  21.2191862  91.0636492  72.2700078  23.9439153  85.1962271
  71.6010453  24.4285281  84.7126311  72.1312947  24.1908374  86.1105649
  64.0079077  13.4793506  88.9004271  64.0463177  12.9457097  89.6941390
  63.5019370  12.9528711  88.2815249  76.4105346  25.9782897  91.7944929
  76.9623654  26.1414518  92.5594014  76.7511540  26.5687334  91.1224954
  71.3869840   8.3258046  92.3966814  71.4511166   9.1872877  91.9844211
  71.3236960   7.7132048  91.6639172  70.8622112  10.3981179  96.0439848
  71.4894151  10.0158256  96.6577372  70.0050031  10.1795381  96.4095540
  81.2616221  20.8044154  97.6493583  81.8056125  21.4174112  97.1548538
  80.6803065  21.3623733  98.1660596  67.6387655  12.2057608  81.9758203
  67.9341096  11.2968286  81.9225256  66.7375691  12.1845348  81.6539205
  79.5473734  23.9264872  88.7808611  79.4224873  23.1254612  88.2719557
  80.2052825  24.4211066  88.2922581  71.1681902  10.2813605  87.9585751
  70.4468488  10.8949572  87.8193225  71.9575158  10.8171369  87.8802397
  81.6108642  21.7273892  90.4088161  80.6638977  21.6079243  90.3366488
  81.9591415  20.8396390  90.4914423  73.9708215   7.6168031  94.2326403
  74.4942617   7.8630328  94.9952712  73.7520549   8.4488066  93.8129540
  69.3675496   9.8871706  82.0997528  69.0388203   9.0069085  81.9172634
  69.7214867   9.8319374  82.9873917  78.6155075  21.5226608  86.6092513
  78.4680038  20.5943316  86.7900084  79.4408569  21.5446699  86.1249589
  72.4817320  10.1744676  82.4673006  72.8213392  10.7030597  81.7451614
  72.9289440  10.5125082  83.2431572  82.2189197  22.3455167  87.6957386
  83.1435745  22.1398029  87.5581837  82.0504500  22.0971568  88.6046728
  75.1760760   8.5581726  91.9176074  74.8357581   7.7589539  92.3196754
  74.4699767   8.8583437  91.3452907  75.8277232   5.6431039  90.3703397
  76.6503302   5.1691517  90.2482287  76.0715296   6.4221522  90.8702083
  74.4685467   8.6719297  80.6666298  75.1893829   9.0500550  80.1630015
  73.8450771   9.3908174  80.7701276  78.6116590   9.3764446  81.6024631
  78.8280204  10.2589084  81.3013459  78.1310657   8.9850660  80.8730273
  73.3515811  12.3350159  88.1795375  73.2060392  12.6490462  89.0719657
  72.8741015  12.9535060  87.6266274  75.2112194   9.3252707  88.2276265
  75.1973763   8.4293801  87.8908563  75.9284622   9.3323371  88.8614551
  77.0638325   9.7590048  90.2729392  76.8056102  10.6807118  90.2713723
  76.5323365   9.3620482  90.9629856  82.0084513  22.8640835  83.0519478
  82.1821391  22.2987257  82.2993330  82.5013405  23.6641730  82.8698968
  67.8261473  14.8755504  91.1183036  67.2814941  15.6515312  91.2503311
  68.7040823  15.2226308  90.9602158  74.6149090   8.2067088  83.4963835
  74.7365001   7.2783734  83.6954723  74.3251132   8.2205774  82.5842150
  77.4840280   5.8921998  86.6330555  77.5061977   5.9561331  85.6782534
  77.9008339   5.0526507  86.8271061  87.8623904  15.6277258  84.6709777
  88.3055051  14.8784583  84.2728901  86.9850415  15.6187394  84.2883509
  82.9959686  22.1807599  80.1516376  83.6910590  22.8014292  80.3703691
  83.3382836  21.3302950  80.4268754  68.6127495  14.0025400  94.0113193
  67.8709231  14.1508035  94.5977824  68.2920239  14.2633666  93.1479943
  84.8951109  19.6307305  81.6803707  85.4202433  19.9694577  80.9553027
  84.8073461  18.6954320  81.4966841  76.5571158  23.5441378  93.8093583
  76.8658284  23.2990525  94.6816283  77.3546640  23.7488017  93.3212454
  76.5791770  25.6979288  86.0398960  76.1396760  25.2055667  86.7331817
  77.3299887  25.1552256  85.7991035  69.0584109  21.8890829  86.0423588
  69.8842129  21.5894601  85.6622232  68.7078161  21.1198451  86.4913377
  74.0265642  21.2417297  88.1121262  73.4045651  20.5788002  87.8123489
  74.6970509  21.2678429  87.4294909  67.2592714  19.8077155  87.0012522
  66.4224622  19.3799330  86.8196523  67.2316359  20.0009599  87.9383313
  74.0990169   9.7199085  97.7053768  74.1478325  10.5961208  97.3231537
  74.6412684   9.1776478  97.1325411  84.5845015  20.2640208  96.9854905
  83.7940559  20.2464347  96.4459404  84.3478370  20.8028502  97.7403941
  84.7042890  17.1132675  94.2987633  84.7540895  16.9482682  95.2403156
  84.5956813  16.2459934  93.9085514  73.5879149  19.7921220  81.5879722
  73.7367269  20.4756685  80.9346395  74.3945592  19.7726310  82.1029178
  81.9946652  13.0963603  95.6146940  82.8956515  12.9570067  95.3230938
  82.0694627  13.2618057  96.5545117  76.3289458  10.4730457  94.4600126
  75.4592767  10.7664023  94.1882715  76.5648938  11.0570902  95.1807390
  86.2061087  19.5329616  94.5429655  85.9145895  19.8959597  95.3793116
  85.5933218  18.8196624  94.3642987  87.4056769  17.0982496  87.0632225
  88.2403661  17.5372300  87.2269785  87.5415898  16.6221149  86.2440471
  84.4548275  14.6562231  93.0109713  84.9302397  14.8489877  92.2028564
  83.5313840  14.7121417  92.7653096  71.3431782  15.8186398  82.5940791
  71.0977824  14.9148728  82.7921001  71.5127696  15.8203548  81.6520269
  79.0328492   6.6910074  91.9765547  79.5510435   7.4271101  91.6512035
  78.6783624   6.9974068  92.8112306  70.6127429  11.5514755  80.0926953
  69.9196674  11.6259110  79.4366988  70.3679181  10.7875099  80.6148469
  77.0874554  22.2869351  79.0591470  76.5148521  22.9059538  78.6061941
  77.6607348  22.8368712  79.5931391  83.1549944  11.5327991  91.2438018
  84.1067367  11.6326088  91.2650242  82.9853395  10.7406259  91.7536103
  81.1764324   8.6183574  91.4297419  80.5814256   8.8988587  90.7343908
  80.8914020   9.1077475  92.2014160  80.3071814  22.5706501  80.1900052
  81.2402487  22.5052063  80.3932927  80.2195027  23.4062768  79.7314584
  82.9359831  21.8872371  77.1503999  82.8573462  21.5532235  78.0439757
  83.7569497  22.3794139  77.1495472  85.6338022  14.7534111  90.3580318
  85.6014342  13.8150111  90.5440002  86.2438646  14.8318147  89.6246143
  77.4721353  13.6230163  76.4007522  78.4180457  13.4936372  76.4695940
  77.0935598  12.8844825  76.8776950  85.7832510  11.5445154  90.4038601
  85.2671559  10.7603611  90.2168530  86.6672459  11.2163871  90.5685121
  83.4443237   5.2886170  86.3634414  83.2468058   4.9801258  87.2477746
  84.0542943   6.0147808  86.4932344  91.4514572  15.8150117  89.4986355
  92.1817960  15.5535405  90.0594058  90.8421517  15.0778839  89.5388423
  89.5329869  13.9557980  90.0960806  88.8063032  13.8213945  89.4877298
  89.1177156  14.2634809  90.9017524  77.3560045  17.6747910  97.8608179
  78.2763055  17.8526509  98.0548226  77.3209628  16.7303955  97.7087878
  75.6564270  11.5480140  76.3362407  74.7495725  11.2513253  76.4125121
  75.9340251  11.2509958  75.4696694  66.5742210  12.8686503  86.7861454
  66.2544995  12.0151811  86.4935828  66.0275638  13.0835081  87.5419421
  70.3522118  15.5848944  90.5030960  70.5708128  16.5166052  90.5218994
  70.7647892  15.2256919  91.2885764  77.2726336   6.0917030  82.4906649
  76.4627064   5.7464115  82.8661895  77.9610753   5.7824573  83.0794260
  79.2016884   5.1695076  84.1130945  79.7547923   5.5890530  84.7720968
  79.4386970   4.2430824  84.1553901  75.2249983  11.1582150  99.8933709
  75.1246710  12.1076507  99.8245800  75.0071525  10.8300389  99.0209779
  74.4263055   8.4067075  76.4774386  75.2882219   8.7321973  76.7370204
  74.6113399   7.6198571  75.9647452  66.4430470  16.4889415  88.7554575
  65.7493942  16.0743368  88.2424530  67.1903461  16.5309951  88.1587994
  82.5795691   7.2795602  83.6209609  81.9994360   7.9380406  83.2387662
  82.3131624   6.4572946  83.2097027  81.0299257   6.6800659  85.8230930
  81.5299036   6.7917194  85.0145249  81.6734865   6.3761712  86.4631738
  75.0881253  14.5879289  98.7098771  74.6048335  15.3879649  98.9162660
  75.1742192  14.5987234  97.7566215  68.3567213  16.4207669  86.6320590
  68.3337901  16.5195356  85.6802473  68.6667849  17.2672819  86.9537756
  71.0154591  18.4783824  90.7467205  71.9697844  18.4467766  90.6797136
  70.8167114  18.0174447  91.5617430  71.6053973  17.0484940  93.3138002
  72.4246862  17.5429018  93.3372840  71.8790781  16.1316908  93.2855570
  81.3620569   9.4395692  82.6765958  80.4746424   9.7245343  82.4586152
  81.7774558   9.2789455  81.8293235  84.7135105   9.4642213  86.3920297
  85.4895495   9.9538665  86.6644914  83.9883239   9.8900267  86.8492166
  87.1507664  10.1769832  87.4494238  87.7452155   9.9365568  86.7387546
  87.2234247   9.4576963  88.0767774  69.3704819  24.0203443  87.7637402
  69.2359287  23.2603844  87.1975400  68.9536882  24.7444343  87.2966191
  80.5063782  19.2040367  76.7713978  81.2099633  19.4090369  77.3871633
  79.7826431  19.7717128  77.0363061  81.3361593  14.9550228  82.8916248
  81.2796794  15.4118779  82.0523880  81.8889935  14.1940912  82.7139091
  85.1466399  10.7439960  83.7166367  84.8903333  10.3436595  84.5474575
  84.5219267  11.4583754  83.5916507  89.4578737  13.4836033  86.2237659
  88.8978295  13.5529222  86.9969221  88.8522240  13.3077018  85.5037155
  72.5273945  24.9172760  87.9755845  72.4106329  25.8618193  87.8734535
  71.7066392  24.6146322  88.3641644  82.4150480  19.6422896  78.8212438
  83.2496084  19.2104094  78.6389913  82.2534823  19.4704909  79.7489332
  82.0696372  16.1455009  80.1868777  82.0145176  15.9799281  79.2457221
  81.4442427  16.8531042  80.3430967  66.8588887  11.3823073  94.0130199
  67.5047751  10.8722027  94.5017424  66.6506038  12.1191755  94.5873625
  79.3842279  18.4503921  99.5122340  80.2533439  18.6244573  99.1508975
  78.9049031  19.2698338  99.3898069  75.3792498   5.6463118  79.7654095
  75.3671167   6.5904958  79.9222366  76.2715919   5.4633264  79.4713557
  73.5528459  25.5701022  91.1911773  74.4555706  25.6024632  91.5078268
  73.3265830  24.6401473  91.2058109  75.3082061  24.3232009  87.8521852
  74.3577693  24.3233870  87.7386224  75.6114548  23.5764743  87.3357887
  71.1986378   8.5290691  98.1105214  72.0617840   8.1727495  98.3208538
  70.6251789   8.1904585  98.7980618  91.0434755  30.1592547  88.9167615
  91.6813165  30.0399294  88.2130955  90.9255598  31.1073391  88.9755567
  87.8524461  30.1119975  88.8529139  87.5142973  29.9961040  87.9649674
  88.7214229  29.7111140  88.8330145  83.7111277  31.9655451  84.8426030
  83.1476142  31.8745388  84.0742318  83.5963672  31.1455356  85.3228523
  88.3344244  31.2654827  94.8115345  88.3232885  30.8707625  93.9395848
  88.4964884  30.5320899  95.4049116  81.2575709  33.4606643  87.6810251
  82.0497001  33.1197468  87.2656550  81.4972359  33.5701618  88.6012404
  89.2910836  35.6326419  80.1540495  88.6398815  36.2180500  79.7674509
  90.0855198  36.1632614  80.2135533  83.2166463  32.7215556  80.5527629
  83.9897339  32.1744543  80.4140505  83.5691862  33.5859806  80.7642091
  85.0551505  34.0491939  93.7594529  84.7641371  34.9537569  93.6441195
  85.6908490  34.0908466  94.4738598  85.9807712  31.4268787  90.3495888
  86.5771284  31.2024809  89.6352851  86.0382684  30.6853533  90.9521336
  85.5532741  28.8808222  78.1846079  85.8058261  28.3589744  77.4229542
  84.6157300  28.7174368  78.2872763  90.5976023  27.8844001  85.9920823
  91.3839113  27.4663424  85.6411240  90.8614728  28.7890093  86.1602471
  90.7686101  33.3216851  80.6909479  90.1331934  33.3951478  81.4030384
  90.4383507  33.9110450  80.0128559  95.9984451  27.8219234  86.8953801
  96.7309623  27.2518451  87.1291631  95.2423806  27.4340834  87.3360307
  85.2729029  30.7836328  80.3870454  85.1565287  30.1081232  81.0551539
  85.3831289  30.2968702  79.5702607  87.6160570  30.2446475  84.0917144
  87.2518778  29.7177096  84.8030065  88.4727686  29.8544945  83.9183629
  93.5209871  21.5340808  91.3548410  93.1893196  22.4036219  91.1309625
  92.9255484  21.2177092  92.0342440  87.2566057  25.2736375  79.0878492
  87.4240460  26.1416612  79.4548963  87.0663226  25.4363657  78.1639781
  90.0141390  33.7353354  90.7544322  89.7142114  34.6378393  90.6460130
  89.6692450  33.4685537  91.6065475  83.4653872  30.1867151  86.7881027
  82.5404368  30.0543365  86.9958719  83.7138285  30.9661370  87.2850969
  93.4138534  26.2535894  88.4341760  92.5055412  26.1851303  88.1400521
  93.3626130  26.7307839  89.2623585  87.2355278  27.7294033  80.0725159
  87.1154903  28.1751083  80.9110639  86.5407867  28.0779350  79.5138697
  80.8262683  29.8300424  87.6224816  80.9555064  30.0834903  88.5364228
  80.1460134  30.4228132  87.3029471  84.9962170  40.4997674  83.7215290
  84.9186200  41.4505499  83.8003771  84.3923814  40.1543547  84.3790216
  87.4879400  27.6725540  96.3776657  86.7112734  28.2319460  96.3679522
  88.1269963  28.1582323  96.8991527  95.2800181  24.4552333  90.2119634
  94.6374561  24.7484866  89.5659428  94.7755109  24.3405253  91.0172830
  92.9340344  28.2015506  80.9005493  93.8458200  28.4342893  80.7253190
  92.4249991  28.7852550  80.3380572  85.7425772  30.4810993  95.9394624
  86.4840457  31.0196037  95.6629448  85.0362758  31.1077282  96.0966176
  91.2181112  32.6240134  94.5366785  91.6264468  32.1822544  93.7921418
  90.4958373  32.0492761  94.7900978  87.5712182  27.5612740  91.9100342
  88.4173377  27.9852154  92.0534991  87.5110820  26.9046365  92.6038906
  91.5409927  33.1841324  88.2919074  90.9118789  33.3487038  87.5895142
  91.1535589  33.5982934  89.0630038  95.4199159  34.1195762  85.6463438
  94.7350197  34.4994663  85.0960471  95.5043008  34.7291089  86.3795386
  90.7211627  25.2217109  93.5681516  90.4772559  25.9759169  93.0315792
  90.9971558  25.6002456  94.4028763  92.6750090  31.7655721  92.2458782
  92.8866985  32.4087481  91.5693163  92.6279838  30.9318038  91.7780712
  90.2776319  24.3773542  89.1495354  89.4160798  24.6754795  89.4412091
  90.3038754  24.5943941  88.2176386  87.0937889  32.9215732  85.5569159
  87.5576234  33.2003435  84.7673782  86.8294687  32.0199177  85.3742250
  83.9861970  32.4687214  88.4948923  84.5563327  32.8974482  87.8566407
  84.5770081  32.1869799  89.1933108  86.0306775  29.0438885  82.3658725
  86.7330818  29.4959928  82.8332651  85.6987403  28.4022704  82.9938618
  84.4787136  27.6350641  96.7409934  83.8485797  28.3166922  96.9745331
  84.3723224  27.5233723  95.7963072  79.7732109  27.3022437  87.6675858
  78.9831163  27.5579966  87.1915969  80.2643356  28.1170775  87.7727899
  93.7895918  34.6427677  90.4181139  94.6113362  34.2407864  90.1363821
  93.7858321  34.5395911  91.3697255  81.7246854  27.6667017  84.6259335
  80.9278017  27.7785711  85.1442831  81.4972446  28.0053669  83.7600225
  87.5552522  34.1911720  92.5741850  87.6196954  34.6532127  93.4100021
  86.8463445  33.5609085  92.7024159  78.0569812  27.5552928  90.0990849
  78.3077850  28.4399938  90.3648425  78.5929360  27.3757529  89.3265941
 101.8801911  30.9866425  86.7666110 101.1265620  30.4173823  86.6110115
 102.0149452  30.9529090  87.7136745  87.2700539  35.8579827  82.4420830
  87.1346214  36.7031363  82.8705678  87.8110352  36.0599105  81.6786764
  83.7567879  21.9371407  99.1035185  83.3634824  21.3837606  99.7782829
  84.5734019  22.2481986  99.4941703  80.7229937  33.3755265  83.0148755
  81.2354457  34.1698516  83.1654320  81.3752649  32.6781556  82.9482356
  82.5324821  36.4921022  85.0971508  82.7091450  37.4138986  84.9092492
  83.3281655  36.1779441  85.5265888  86.6735840  23.3529286  96.6955442
  87.4145553  23.9536439  96.6159904  86.9053763  22.6106924  96.1373484
  81.8177178  28.5385654  94.9733671  81.7030693  27.6370911  95.2740770
  80.9621696  28.7849350  94.6218488  88.8969016  36.4803394  96.5721172
  88.4532870  35.6939772  96.2542076  89.5586229  36.6682544  95.9065063
  83.6556137  38.0099195  91.0981850  84.2063562  37.8816259  90.3258844
  82.8167613  38.3094084  90.7476743  90.9950254  36.7606194  94.6002573
  90.9768729  37.5815075  94.1082842  91.9170174  36.6360269  94.8252714
  87.4523308  34.2750323  95.4426082  87.9851645  33.5138611  95.2125390
  86.9237389  33.9823975  96.1850236  90.6193003  19.3810389  90.9719723
  90.2757272  20.2712031  90.8958834  90.9871965  19.1912047  90.1089308
  78.6878853  31.7043920  83.7908325  79.5254075  32.1140928  83.5742033
  78.8657121  30.7643362  83.7608519  90.5843285  29.3719000  79.4792158
  90.0689909  30.1423605  79.7180546  90.3120594  28.6984137  80.1025220
  88.1690397  24.2168701  84.5377397  87.3131993  23.8275552  84.3583035
  88.5817348  24.2960662  83.6777182  89.6989543  21.7515044  88.9368957
  89.1954339  21.7145180  88.1236762  89.9920150  22.6607787  88.9965613
  85.9432429  21.8353774  87.9435138  86.8085426  21.6396583  87.5841028
  86.0109938  21.6064126  88.8704495  95.5577560  32.1251355  81.4145332
  94.7807002  31.7862514  80.9700494  96.2369041  32.1303978  80.7400297
  90.3729589  27.2446092  81.3051940  90.0679724  27.5592242  82.1562083
  91.3260031  27.3227512  81.3479273  88.8176021  33.4036316  82.9544894
  88.2897382  32.6689075  82.6418131  88.3163523  34.1810992  82.7084862
  93.7968867  31.5985336  88.0711940  93.1392541  32.2884598  88.1592069
  94.6009266  31.9881768  88.4145926  83.5494748  24.0655982  85.3151505
  84.1238500  23.8431164  84.5824698  84.1365731  24.1344677  86.0680106
  92.6074325  29.9529709  86.1215882  93.1206207  30.5859701  86.6237591
  93.2575549  29.3530904  85.7559242  83.8764335  26.0960443  79.3347390
  83.0401647  26.4335130  79.6556665  83.7369105  25.9609423  78.3974527
  85.8517416  20.9397231  84.0426575  85.1981828  20.6246248  83.4183189
  85.8097890  20.3172971  84.7686397  86.9628621  31.2216526  75.9579867
  86.0555682  30.9905779  76.1571016  87.4599653  30.4254145  76.1453848
  89.8696700  39.9314033  78.8776553  89.1958398  40.2345730  79.4861511
  90.2562522  40.7343114  78.5282010  89.0855156  27.4279164  88.3674222
  88.1677718  27.6494111  88.2095910  89.5015300  27.5025475  87.5085929
  89.8690204  28.8270580  83.4976902  90.6162023  29.3391977  83.1884024
  90.1381793  28.5054633  84.3581296  88.1416854  31.3229121  80.4803857
  87.2328073  31.0388154  80.5776326  88.1711938  31.7428199  79.6207164
  93.3736122  34.9335710  84.2495024  92.9198449  34.0926620  84.3060215
  92.7430088  35.5697109  84.5869804  92.3169041  25.8627696  85.4795692
  91.5791798  25.3505083  85.8105934  92.5695815  25.4228078  84.6678969
  91.8169061  36.7712207  85.1844842  92.1092035  37.3317264  84.4657208
  92.3267681  37.0640768  85.9398001  92.4180668  18.6403948  86.0737461
  92.7239545  17.7801312  85.7863376  93.1433273  19.2321569  85.8736455
  78.7105024  29.0434635  84.4619059  78.5129424  28.4503996  83.7370125
  78.1551688  28.7386845  85.1794998  86.6901748  28.9357741  86.5813652
  86.7450358  27.9831578  86.5056129  85.8792950  29.0917181  87.0654950
  87.8392942  32.8637865  77.8191935  87.4012372  32.1473723  77.3597573
  88.5803383  33.0913979  77.2577027  84.6294108  27.5534801  84.3404031
  83.8161974  27.8528972  84.7469223  85.1253102  27.1590490  85.0578513
  86.7802686  37.5492558  86.2738296  86.7378865  37.7753404  85.3446828
  87.6965385  37.3155933  86.4224097  90.2268320  28.0176626  93.1718925
  90.5817707  28.2448099  94.0313391  90.8740451  28.3495002  92.5496180
  95.9566057  31.1395062  83.8768254  95.8183955  31.3296658  82.9489443
  95.6002276  31.9014444  84.3336305  84.1208183  25.1253157  89.9565266
  84.7607562  24.9841916  89.2588229  83.2885713  24.8387670  89.5803868
  95.9835436  33.2071589  88.8879525  96.4171943  33.1146878  89.7362579
  96.6967017  33.1829089  88.2499541  84.8968487  34.4255587  86.0700258
  85.6909085  33.9305907  85.8682833  84.1860179  33.8973450  85.7067964
  89.7163331  36.8073683  90.4212626  89.7700353  37.3764619  91.1890342
  88.8478113  36.9775568  90.0566663  81.2051250  28.5698669  82.1460011
  80.2748838  28.5083124  82.3629973  81.3008722  28.0474622  81.3496652
  81.1236799  25.0953482  84.7338253  81.3843617  26.0098815  84.6247413
  81.9453972  24.6277924  84.8834865  82.5961725  26.5091239  91.9037077
  83.2684778  26.3008601  91.2549726  81.7691511  26.3113325  91.4642309
  96.8450986  33.2495289  91.4212411  97.0386876  34.1541100  91.6671686
  96.7451604  32.7902708  92.2550996  88.4987297  23.1353180  93.9202738
  87.8515212  23.8343129  93.8267214  89.2688312  23.5689324  94.2878986
  91.9066095  33.4002032  96.9953291  91.7551601  33.1712584  96.0783375
  91.8970774  34.3572633  97.0084636  88.6751431  30.9733945  91.9799558
  89.6043491  31.1245104  91.8068525  88.2542461  31.0617966  91.1248204
  87.4739763  34.9984609  89.7498095  87.3350848  34.6303394  90.6224034
  86.6854359  35.5132249  89.5782053  88.0687915  40.0993706  81.0923632
  88.2439670  39.6281749  81.9069255  87.3820703  40.7259472  81.3204893
  89.0244978  34.3766212  87.1386933  88.6894810  34.3366982  88.0344583
  88.5248924  33.7110928  86.6657343  82.9989222  29.7833842  92.6639514
  82.8609020  29.0514081  93.2651053  83.9094145  29.6942742  92.3823702
  91.9604170  31.7222246  77.4123993  91.3433340  30.9969074  77.3157046
  91.4920658  32.4831606  77.0691067  85.6271523  29.4953801  92.1523194
  86.3371141  28.8546993  92.1109812  85.5840831  29.7466696  93.0749375
  93.6158301  36.4321155  95.0729773  93.5570847  35.7480375  94.4060356
  94.0177820  37.1740145  94.6210399  84.3400456  26.4819019  93.9718833
  83.8037814  26.0309758  94.6240430  83.7517165  26.6164928  93.2289298
  82.6349000  43.2483068  87.8663492  82.8745598  43.8801593  88.5442511
  81.7918196  42.8971108  88.1528851  83.7502715  25.9407671  76.5345297
  82.8732182  25.8196471  76.1707544  84.2260469  25.1493749  76.2824186
  93.6175708  34.3960739  93.3043753  92.7302487  34.0586660  93.4270152
  94.1874260  33.6643770  93.5412518  75.2704856  30.7284830  86.6286804
  75.9575895  30.4146560  86.0407820  75.1152984  31.6326195  86.3554056
  80.0739578  25.6175027  91.0571828  79.9897766  25.0100696  90.3222238
  79.2522284  26.1084045  91.0581324  87.1476862  39.0562191  90.2704996
  87.0747033  39.8617162  90.7824301  86.7054255  39.2554157  89.4453017
  86.9366641  38.2933961  83.7807818  86.1534163  38.8355641  83.8746042
  87.6359387  38.8107941  84.1802059  90.2463292  24.1028590  86.4242023
  90.7431991  23.3498553  86.1043093  89.4750273  24.1392907  85.8585232
  98.0993049  29.8068956  88.0660315  98.0882925  30.6893671  87.6954248
  97.2310428  29.4540507  87.8714852  89.6075545  38.9549025  92.4263155
  90.3203518  39.5896490  92.3539056  89.1165574  39.0512891  91.6103157
  91.3293072  32.8600278  83.9980446  90.3949351  32.9801740  83.8285151
  91.5069741  31.9572744  83.7340456  86.8298260  26.2445973  86.1513708
  86.4596048  25.6917014  86.8394613  87.3257353  25.6404107  85.5988708
  94.7165624  28.7017597  84.5330481  95.1826076  29.5345588  84.4590783
  95.1673124  28.2362578  85.2375739  84.6587459  36.7043468  93.2468726
  85.3596918  37.3379951  93.3998120  84.1882574  37.0458200  92.4864365
  92.7841855  35.0461418  81.5316633  93.0601699  34.9318013  82.4410507
  91.9146353  34.6478903  81.4928806  92.6882286  21.0698184  88.5721382
  91.7745366  21.3002411  88.7403589  93.1175388  21.1536628  89.4235414
  92.4588745  29.2588076  91.0721276  91.8060195  29.5063983  90.4173729
  92.8369125  28.4452214  90.7383753  89.4195919  39.2947769  85.1749446
  89.6018313  38.4769425  85.6377199  90.2428905  39.5115461  84.7374336
  89.7538084  38.2215954  82.4364495  90.2825851  37.7108409  81.8234657
  90.0166304  37.9058484  83.3010028  88.5076318  30.0007887  97.5587313
  87.8316955  29.9002016  98.2289688  89.3303952  29.8447101  98.0223310
  80.2555177  36.2379823  90.1799828  80.8408614  35.4923511  90.3127732
  80.0580015  36.5483780  91.0636492  83.1093832  39.2731071  85.1962271
  82.4404207  39.7577198  84.7126311  82.9706702  39.5200291  86.1105649
  74.8472832  28.8085424  88.9004271  74.8856931  28.2749014  89.6941390
  74.3413125  28.2820629  88.2815249  87.2499101  41.3074814  91.7944929
  87.8017409  41.4706436  92.5594014  87.5905294  41.8979252  91.1224954
  82.2263594  23.6549964  92.3966814  82.2904920  24.5164795  91.9844211
  82.1630714  23.0423966  91.6639172  81.7015867  25.7273097  96.0439848
  82.3287905  25.3450174  96.6577372  80.8443785  25.5087299  96.4095540
  92.1009975  36.1336072  97.6493583  92.6449879  36.7466030  97.1548538
  91.5196820  36.6915650  98.1660596  78.4781409  27.5349526  81.9758203
  78.7734850  26.6260204  81.9225256  77.5769445  27.5137265  81.6539205
  90.3867488  39.2556790  88.7808611  90.2618628  38.4546530  88.2719557
  91.0446579  39.7502983  88.2922581  82.0075656  25.6105522  87.9585751
  81.2862242  26.2241490  87.8193225  82.7968912  26.1463287  87.8802397
  92.4502396  37.0565810  90.4088161  91.5032732  36.9371161  90.3366488
  92.7985170  36.1688308  90.4914423  84.8101970  22.9459949  94.2326403
  85.3336372  23.1922245  94.9952712  84.5914303  23.7779984  93.8129540
  80.2069251  25.2163623  82.0997528  79.8781957  24.3361002  81.9172634
  80.5608622  25.1611292  82.9873917  89.4548830  36.8518526  86.6092513
  89.3073792  35.9235234  86.7900084  90.2802323  36.8738617  86.1249589
  83.3211074  25.5036593  82.4673006  83.6607147  26.0322514  81.7451614
  83.7683195  25.8416999  83.2431572  93.0582952  37.6747085  87.6957386
  93.9829499  37.4689946  87.5581837  92.8898255  37.4263486  88.6046728
  86.0154515  23.8873644  91.9176074  85.6751335  23.0881457  92.3196754
  85.3093521  24.1875355  91.3452907  86.6670987  20.9722956  90.3703397
  87.4897056  20.4983435  90.2482287  86.9109050  21.7513440  90.8702083
  85.3079221  24.0011215  80.6666298  86.0287584  24.3792468  80.1630015
  84.6844525  24.7200092  80.7701276  89.4510344  24.7056364  81.6024631
  89.6673958  25.5881002  81.3013459  88.9704411  24.3142577  80.8730273
  84.1909565  27.6642077  88.1795375  84.0454146  27.9782380  89.0719657
  83.7134769  28.2826977  87.6266274  86.0505948  24.6544625  88.2276265
  86.0367517  23.7585718  87.8908563  86.7678376  24.6615289  88.8614551
  87.9032079  25.0881965  90.2729392  87.6449857  26.0099036  90.2713723
  87.3717119  24.6912400  90.9629856  92.8478268  38.1932752  83.0519478
  93.0215145  37.6279175  82.2993330  93.3407159  38.9933647  82.8698968
  78.6655228  30.2047421  91.1183036  78.1208696  30.9807229  91.2503311
  79.5434577  30.5518226  90.9602158  85.4542844  23.5359005  83.4963835
  85.5758755  22.6075651  83.6954723  85.1644887  23.5497691  82.5842150
  88.3234035  21.2213916  86.6330555  88.3455731  21.2853249  85.6782534
  88.7402094  20.3818424  86.8271061  98.7017659  30.9569175  84.6709777
  99.1448805  30.2076500  84.2728901  97.8244169  30.9479312  84.2883509
  93.8353440  37.5099517  80.1516376  94.5304345  38.1306209  80.3703691
  94.1776590  36.6594868  80.4268754  79.4521249  29.3317318  94.0113193
  78.7102985  29.4799953  94.5977824  79.1313994  29.5925583  93.1479943
  95.7344863  34.9599222  81.6803707  96.2596187  35.2986495  80.9553027
  95.6467216  34.0246238  81.4966841  87.3964912  38.8733296  93.8093583
  87.7052039  38.6282443  94.6816283  88.1940394  39.0779934  93.3212454
  87.4185524  41.0271206  86.0398960  86.9790514  40.5347584  86.7331817
  88.1693641  40.4844173  85.7991035  79.8977863  37.2182746  86.0423588
  80.7235883  36.9186518  85.6622232  79.5471915  36.4490369  86.4913377
  84.8659396  36.5709215  88.1121262  84.2439406  35.9079920  87.8123489
  85.5364263  36.5970346  87.4294909  78.0986468  35.1369073  87.0012522
  77.2618376  34.7091247  86.8196523  78.0710114  35.3301516  87.9383313
  84.9383924  25.0491003  97.7053768  84.9872079  25.9253125  97.3231537
  85.4806438  24.5068396  97.1325411  95.4238769  35.5932126  96.9854905
  94.6334313  35.5756265  96.4459404  95.1872124  36.1320420  97.7403941
  95.5436645  32.4424592  94.2987633  95.5934649  32.2774600  95.2403156
  95.4350568  31.5751851  93.9085514  84.4272903  35.1213138  81.5879722
  84.5761024  35.8048602  80.9346395  85.2339347  35.1018228  82.1029178
  92.8340407  28.4255520  95.6146940  93.7350270  28.2861985  95.3230938
  92.9088381  28.5909975  96.5545117  87.1683212  25.8022375  94.4600126
  86.2986522  26.0955941  94.1882715  87.4042693  26.3862820  95.1807390
  97.0454841  34.8621534  94.5429655  96.7539650  35.2251514  95.3793116
  96.4326973  34.1488542  94.3642987  98.2450524  32.4274414  87.0632225
  99.0797415  32.8664218  87.2269785  98.3809652  31.9513067  86.2440471
  95.2942030  29.9854148  93.0109713  95.7696151  30.1781795  92.2028564
  94.3707595  30.0413334  92.7653096  82.1825536  31.1478316  82.5940791
  81.9371578  30.2440646  82.7921001  82.3521451  31.1495466  81.6520269
  89.8722246  22.0201992  91.9765547  90.3904190  22.7563019  91.6512035
  89.5177379  22.3265985  92.8112306  81.4521184  26.8806673  80.0926953
  80.7590429  26.9551028  79.4366988  81.2072936  26.1167017  80.6148469
  90.1234840  18.4402274  87.4966443  90.4036594  17.7725464  88.1226870
  90.9085447  18.6331370  86.9841107  87.9268309  37.6161268  79.0591470
  87.3542276  38.2351456  78.6061941  88.5001102  38.1660630  79.5931391
  93.9943699  26.8619908  91.2438018  94.9461121  26.9618006  91.2650242
  93.8247149  26.0698177  91.7536103  92.0158078  23.9475492  91.4297419
  91.4208010  24.2280504  90.7343908  91.7307775  24.4369393  92.2014160
  91.1465569  37.8998419  80.1900052  92.0796242  37.8343980  80.3932927
  91.0588781  38.7354685  79.7314584  93.7753585  37.2164289  77.1503999
  93.6967217  36.8824152  78.0439757  94.5963252  37.7086057  77.1495472
  96.4731776  30.0826028  90.3580318  96.4408096  29.1442029  90.5440002
  97.0832400  30.1610065  89.6246143  88.3115107  28.9522081  76.4007522
  89.2574212  28.8228289  76.4695940  87.9329352  28.2136743  76.8776950
  96.6226265  26.8737072  90.4038601  96.1065314  26.0895528  90.2168530
  97.5066213  26.5455788  90.5685121  94.2836992  20.6178087  86.3634414
  94.0861813  20.3093175  87.2477746  94.8936697  21.3439726  86.4932344
 102.2908326  31.1442035  89.4986355 103.0211715  30.8827323  90.0594058
 101.6815272  30.4070757  89.5388423 100.3723623  29.2849898  90.0960806
  99.6456787  29.1505863  89.4877298  99.9570910  29.5926726  90.9017524
  88.1953800  33.0039827  97.8608179  89.1156809  33.1818426  98.0548226
  88.1603383  32.0595873  97.7087878  86.4958024  26.8772058  76.3362407
  85.5889480  26.5805170  76.4125121  86.7734005  26.5801876  75.4696694
  77.4135965  28.1978421  86.7861454  77.0938749  27.3443729  86.4935828
  76.8669393  28.4126999  87.5419421  81.1915872  30.9140862  90.5030960
  81.4101882  31.8457970  90.5218994  81.6041646  30.5548836  91.2885764
  88.1120090  21.4208947  82.4906649  87.3020818  21.0756032  82.8661895
  88.8004507  21.1116491  83.0794260  90.0410638  20.4986994  84.1130945
  90.5941677  20.9182447  84.7720968  90.2780725  19.5722742  84.1553901
  86.0643738  26.4874068  99.8933709  85.9640465  27.4368425  99.8245800
  85.8465280  26.1592307  99.0209779  85.2656809  23.7358993  76.4774386
  86.1275973  24.0613891  76.7370204  85.4507153  22.9490489  75.9647452
  77.2824225  31.8181332  88.7554575  76.5887696  31.4035285  88.2424530
  78.0297216  31.8601869  88.1587994  93.4189445  22.6087519  83.6209609
  92.8388115  23.2672323  83.2387662  93.1525378  21.7864864  83.2097027
  91.8693012  22.0092577  85.8230930  92.3692790  22.1209111  85.0145249
  92.5128620  21.7053630  86.4631738  85.9275008  29.9171207  98.7098771
  85.4442089  30.7171567  98.9162660  86.0135947  29.9279151  97.7566215
  79.1960967  31.7499586  86.6320590  79.1731655  31.8487273  85.6802473
  79.5061604  32.5964737  86.9537756  81.8548345  33.8075741  90.7467205
  82.8091599  33.7759684  90.6797136  81.6560869  33.3466365  91.5617430
  82.4447727  32.3776857  93.3138002  83.2640616  32.8720936  93.3372840
  82.7184535  31.4608825  93.2855570  92.2014324  24.7687610  82.6765958
  91.3140179  25.0537260  82.4586152  92.6168313  24.6081373  81.8293235
  95.5528860  24.7934131  86.3920297  96.3289250  25.2830583  86.6644914
  94.8276994  25.2192185  86.8492166  97.9901418  25.5061750  87.4494238
  98.5845909  25.2657486  86.7387546  98.0628002  24.7868880  88.0767774
  80.2098574  39.3495361  87.7637402  80.0753042  38.5895762  87.1975400
  79.7930636  40.0736261  87.2966191  92.1755347  30.2842146  82.8916248
  92.1190549  30.7410697  82.0523880  92.7283690  29.5232830  82.7139091
  95.9860153  26.0731877  83.7166367  95.7297087  25.6728513  84.5474575
  95.3613021  26.7875671  83.5916507 100.2972491  28.8127951  86.2237659
  99.7372049  28.8821140  86.9969221  99.6915994  28.6368935  85.5037155
  83.3667700  40.2464678  87.9755845  83.2500084  41.1910110  87.8734535
  82.5460146  39.9438239  88.3641644  93.2544234  34.9714813  78.8212438
  94.0889838  34.5396012  78.6389913  93.0928577  34.7996827  79.7489332
  92.9090127  31.4746927  80.1868777  92.8538930  31.3091198  79.2457221
  92.2836182  32.1822960  80.3430967  77.6982642  26.7114991  94.0130199
  78.3441505  26.2013945  94.5017424  77.4899793  27.4483673  94.5873625
  90.2236034  33.7795839  99.5122340  91.0927193  33.9536491  99.1508975
  89.7442785  34.5990255  99.3898069  86.2186252  20.9755036  79.7654095
  86.2064922  21.9196876  79.9222366  87.1109674  20.7925181  79.4713557
  84.3922214  40.8992940  91.1911773  85.2949461  40.9316550  91.5078268
  84.1659584  39.9693391  91.2058109  86.1475816  39.6523926  87.8521852
  85.1971447  39.6525788  87.7386224  86.4508302  38.9056661  87.3357887
  90.0338371  17.5697812  84.0200032  89.2670767  17.0156299  84.1656715
  90.4449076  17.6419681  84.8814184  82.0380133  23.8582608  98.1105214
  82.9011594  23.5019413  98.3208538  81.4645543  23.5196503  98.7980618
 101.8828509  45.4884465  88.9167615 102.5206919  45.3691212  88.2130955
 101.7649352  46.4365309  88.9755567  98.6918216  45.4411893  88.8529139
  98.3536727  45.3252957  87.9649674  99.5607984  45.0403058  88.8330145
  94.5505031  47.2947369  84.8426030  93.9869897  47.2037306  84.0742318
  94.4357426  46.4747274  85.3228523  99.1737999  46.5946744  94.8115345
  99.1626640  46.1999543  93.9395848  99.3358638  45.8612817  95.4049116
  92.0969463  48.7898561  87.6810251  92.8890755  48.4489385  87.2656550
  92.3366114  48.8993536  88.6012404 100.1304590  50.9618337  80.1540495
  99.4792570  51.5472417  79.7674509 100.9248953  51.4924532  80.2135533
  94.0560217  48.0507474  80.5527629  94.8291093  47.5036461  80.4140505
  94.4085616  48.9151723  80.7642091  95.8945260  49.3783856  93.7594529
  95.6035126  50.2829487  93.6441195  96.5302244  49.4200384  94.4738598
  96.8201467  46.7560705  90.3495888  97.4165039  46.5316727  89.6352851
  96.8776438  46.0145450  90.9521336  96.3926495  44.2100140  78.1846079
  96.6452016  43.6881661  77.4229542  95.4551054  44.0466286  78.2872763
 101.4369778  43.2135918  85.9920823 102.2232867  42.7955342  85.6411240
 101.7008482  44.1182011  86.1602471 101.6079855  48.6508769  80.6909479
 100.9725688  48.7243395  81.4030384 101.2777262  49.2402368  80.0128559
 106.8378205  43.1511152  86.8953801 107.5703377  42.5810368  87.1291631
 106.0817561  42.7632752  87.3360307  96.1122784  46.1128246  80.3870454
  95.9959042  45.4373149  81.0551539  96.2225044  45.6260620  79.5702607
  98.4554325  45.5738393  84.0917144  98.0912532  45.0469014  84.8030065
  99.3121441  45.1836862  83.9183629 104.3603625  36.8632726  91.3548410
 104.0286950  37.7328137  91.1309625 103.7649239  36.5469010  92.0342440
  98.0959812  40.6028293  79.0878492  98.2634214  41.4708529  79.4548963
  97.9056981  40.7655575  78.1639781 100.8535145  49.0645272  90.7544322
 100.5535868  49.9670311  90.6460130 100.5086204  48.7977455  91.6065475
  94.3047626  45.5159069  86.7881027  93.3798123  45.3835283  86.9958719
  94.5532040  46.2953288  87.2850969 104.2532289  41.5827812  88.4341760
 103.3449166  41.5143220  88.1400521 104.2019885  42.0599757  89.2623585
  98.0749033  43.0585950  80.0725159  97.9548658  43.5043001  80.9110639
  97.3801621  43.4071268  79.5138697  91.6656437  45.1592342  87.6224816
  91.7948819  45.4126821  88.5364228  90.9853889  45.7520050  87.3029471
  95.8355925  55.8289592  83.7215290  95.7579954  56.7797417  83.8003771
  95.2317568  55.4835465  84.3790216  98.3273155  43.0017458  96.3776657
  97.5506489  43.5611378  96.3679522  98.9663718  43.4874240  96.8991527
 106.1193935  39.7844250  90.2119634 105.4768315  40.0776783  89.5659428
 105.6148864  39.6697171  91.0172830 103.7734099  43.5307424  80.9005493
 104.6851955  43.7634810  80.7253190 103.2643746  44.1144468  80.3380572
  96.5819527  45.8102911  95.9394624  97.3234211  46.3487955  95.6629448
  95.8756512  46.4369200  96.0966176 102.0574866  47.9532051  94.5366785
 102.4658223  47.5114462  93.7921418 101.3352128  47.3784679  94.7900978
  98.4105937  42.8904658  91.9100342  99.2567132  43.3144072  92.0534991
  98.3504574  42.2338282  92.6038906 102.3803681  48.5133242  88.2919074
 101.7512544  48.6778956  87.5895142 101.9929343  48.9274852  89.0630038
 106.2592913  49.4487680  85.6463438 105.5743951  49.8286581  85.0960471
 106.3436762  50.0583006  86.3795386 101.5605382  40.5509026  93.5681516
 101.3166314  41.3051087  93.0315792 101.8365312  40.9294374  94.4028763
 103.5143845  47.0947639  92.2458782 103.7260740  47.7379399  91.5693163
 103.4673593  46.2609955  91.7780712 101.1170074  39.7065459  89.1495354
 100.2554553  40.0046713  89.4412091 101.1432508  39.9235858  88.2176386
  97.9331643  48.2507650  85.5569159  98.3969989  48.5295353  84.7673782
  97.6688441  47.3491095  85.3742250  94.8255724  47.7979132  88.4948923
  95.3957081  48.2266400  87.8566407  95.4163836  47.5161716  89.1933108
  96.8700529  44.3730802  82.3658725  97.5724572  44.8251846  82.8332651
  96.5381158  43.7314621  82.9938618  95.3180891  42.9642559  96.7409934
  94.6879551  43.6458840  96.9745331  95.2116978  42.8525641  95.7963072
  90.6125863  42.6314355  87.6675858  89.8224917  42.8871884  87.1915969
  91.1037110  43.4462693  87.7727899 104.6289673  49.9719594  90.4181139
 105.4507116  49.5699782  90.1363821 104.6252075  49.8687828  91.3697255
  92.5640608  42.9958934  84.6259335  91.7671772  43.1077629  85.1442831
  92.3366201  43.3345587  83.7600225  98.3946276  49.5203638  92.5741850
  98.4590709  49.9824045  93.4100021  97.6857200  48.8901002  92.7024159
  88.8963566  42.8844846  90.0990849  89.1471604  43.7691855  90.3648425
  89.4323114  42.7049447  89.3265941 112.7195666  46.3158343  86.7666110
 111.9659374  45.7465741  86.6110115 112.8543207  46.2821007  87.7136745
  98.1094294  51.1871745  82.4420830  97.9739968  52.0323281  82.8705678
  98.6504106  51.3891023  81.6786764  94.5961633  37.2663325  99.1035185
  94.2028579  36.7129523  99.7782829  95.4127774  37.5773903  99.4941703
  91.5623691  48.7047183  83.0148755  92.0748212  49.4990433  83.1654320
  92.2146404  48.0073474  82.9482356  93.3718576  51.8212939  85.0971508
  93.5485204  52.7430904  84.9092492  94.1675409  51.5071359  85.5265888
  97.5129594  38.6821204  96.6955442  98.2539308  39.2828357  96.6159904
  97.7447517  37.9398842  96.1373484  92.6570932  43.8677571  94.9733671
  92.5424447  42.9662828  95.2740770  91.8015450  44.1141268  94.6218488
  99.7362770  51.8095312  96.5721172  99.2926624  51.0231690  96.2542076
 100.3979984  51.9974462  95.9065063  94.4949891  53.3391113  91.0981850
  95.0457316  53.2108177  90.3258844  93.6561367  53.6386002  90.7476743
 101.8344008  52.0898111  94.6002573 101.8162483  52.9106993  94.1082842
 102.7563928  51.9652187  94.8252714  98.2917062  49.6042241  95.4426082
  98.8245399  48.8430529  95.2125390  97.7631143  49.3115893  96.1850236
 101.4586757  34.7102307  90.9719723 101.1151027  35.6003949  90.8958834
 101.8265720  34.5203965  90.1089308  89.5272608  47.0335837  83.7908325
  90.3647830  47.4432846  83.5742033  89.7050876  46.0935280  83.7608519
 101.4237040  44.7010918  79.4792158 100.9083663  45.4715523  79.7180546
 101.1514348  44.0276054  80.1025220  99.0084151  39.5460619  84.5377397
  98.1525747  39.1567469  84.3583035  99.4211103  39.6252580  83.6777182
 100.5383298  37.0806962  88.9368957 100.0348093  37.0437097  88.1236762
 100.8313905  37.9899705  88.9965613  96.7826184  37.1645692  87.9435138
  97.6479180  36.9688500  87.5841028  96.8503692  36.9356044  88.8704495
 106.3971314  47.4543273  81.4145332 105.6200757  47.1154432  80.9700494
 107.0762795  47.4595896  80.7400297 101.2123343  42.5738010  81.3051940
 100.9073479  42.8884159  82.1562083 102.1653785  42.6519430  81.3479273
  99.6569775  48.7328233  82.9544894  99.1291137  47.9980993  82.6418131
  99.1557278  49.5102910  82.7084862 104.6362621  46.9277254  88.0711940
 103.9786295  47.6176515  88.1592069 105.4403020  47.3173686  88.4145926
  94.3888503  39.3947900  85.3151505  94.9632255  39.1723081  84.5824698
  94.9759485  39.4636594  86.0680106 103.4468080  45.2821627  86.1215882
 103.9599962  45.9151618  86.6237591 104.0969304  44.6822822  85.7559242
  94.7158090  41.4252361  79.3347390  93.8795402  41.7627047  79.6556665
  94.5762859  41.2901341  78.3974527  96.6911170  36.2689149  84.0426575
  96.0375583  35.9538166  83.4183189  96.6491644  35.6464889  84.7686397
  97.8022375  46.5508444  75.9579867  96.8949437  46.3197697  76.1571016
  98.2993407  45.7546063  76.1453848 100.7090454  55.2605951  78.8776553
 100.0352153  55.5637648  79.4861511 101.0956276  56.0635031  78.5282010
  99.9248911  42.7571082  88.3674222  99.0071472  42.9786029  88.2095910
 100.3409054  42.8317393  87.5085929 100.7083958  44.1562498  83.4976902
 101.4555777  44.6683895  83.1884024 100.9775548  43.8346551  84.3581296
  98.9810609  46.6521039  80.4803857  98.0721828  46.3680071  80.5776326
  99.0105692  47.0720117  79.6207164 104.2129876  50.2627628  84.2495024
 103.7592203  49.4218538  84.3060215 103.5823843  50.8989026  84.5869804
 103.1562796  41.1919614  85.4795692 102.4185552  40.6797000  85.8105934
 103.4089569  40.7519996  84.6678969 102.6562815  52.1004125  85.1844842
 102.9485790  52.6609182  84.4657208 103.1661436  52.3932686  85.9398001
 103.2574423  33.9695866  86.0737461 103.5633300  33.1093230  85.7863376
 103.9827028  34.5613486  85.8736455  89.5498779  44.3726553  84.4619059
  89.3523179  43.7795913  83.7370125  88.9945443  44.0678763  85.1794998
  97.5295503  44.2649659  86.5813652  97.5844112  43.3123496  86.5056129
  96.7186705  44.4209098  87.0654950  98.6786696  48.1929782  77.8191935
  98.2406126  47.4765641  77.3597573  99.4197137  48.4205897  77.2577027
  95.4687863  42.8826719  84.3404031  94.6555728  43.1820889  84.7469223
  95.9646857  42.4882408  85.0578513  97.6196440  52.8784476  86.2738296
  97.5772619  53.1045322  85.3446828  98.5359139  52.6447850  86.4224097
 101.0662074  43.3468543  93.1718925 101.4211462  43.5740017  94.0313391
 101.7134205  43.6786920  92.5496180 106.7959811  46.4686979  83.8768254
 106.6577710  46.6588575  82.9489443 106.4396030  47.2306362  84.3336305
  94.9601937  40.4545074  89.9565266  95.6001317  40.3133834  89.2588229
  94.1279468  40.1679588  89.5803868 106.8229191  48.5363506  88.8879525
 107.2565697  48.4438795  89.7362579 107.5360771  48.5121007  88.2499541
  95.7362241  49.7547505  86.0700258  96.5302840  49.2597825  85.8682833
  95.0253934  49.2265368  85.7067964 100.5557086  52.1365600  90.4212626
 100.6094108  52.7056537  91.1890342  99.6871867  52.3067485  90.0566663
  92.0445005  43.8990587  82.1460011  91.1142593  43.8375042  82.3629973
  92.1402477  43.3766539  81.3496652  91.9630554  40.4245399  84.7338253
  92.2237371  41.3390733  84.6247413  92.7847726  39.9569842  84.8834865
  93.4355479  41.8383157  91.9037077  94.1078533  41.6300519  91.2549726
  92.6085266  41.6405243  91.4642309 107.6844740  48.5787207  91.4212411
 107.8780630  49.4833017  91.6671686 107.5845359  48.1194626  92.2550996
  99.3381051  38.4645098  93.9202738  98.6908966  39.1635047  93.8267214
 100.1082066  38.8981241  94.2878986 102.7459849  48.7293950  96.9953291
 102.5945355  48.5004501  96.0783375 102.7364529  49.6864551  97.0084636
  99.5145185  46.3025862  91.9799558 100.4437245  46.4537022  91.8068525
  99.0936215  46.3909883  91.1248204  98.3133517  50.3276527  89.7498095
  98.1744603  49.9595311  90.6224034  97.5248113  50.8424166  89.5782053
  98.9081669  55.4285623  81.0923632  99.0833425  54.9573667  81.9069255
  98.2214457  56.0551390  81.3204893  99.8638732  49.7058130  87.1386933
  99.5288565  49.6658900  88.0344583  99.3642678  49.0402845  86.6657343
  93.8382976  45.1125760  92.6639514  93.7002774  44.3805998  93.2651053
  94.7487900  45.0234660  92.3823702 102.7997924  47.0514164  77.4123993
 102.1827095  46.3260992  77.3157046 102.3314412  47.8123524  77.0691067
  96.4665277  44.8245719  92.1523194  97.1764896  44.1838911  92.1109812
  96.4234585  45.0758614  93.0749375 104.4552056  51.7613072  95.0729773
 104.3964602  51.0772292  94.4060356 104.8571574  52.5032062  94.6210399
  95.1794211  41.8110937  93.9718833  94.6431568  41.3601675  94.6240430
  94.5910919  41.9456846  93.2289298  93.4742754  58.5774986  87.8663492
  93.7139353  59.2093510  88.5442511  92.6311951  58.2263026  88.1528851
 104.4569463  49.7252656  93.3043753 103.5696242  49.3878578  93.4270152
 105.0268014  48.9935687  93.5412518  86.1098610  46.0576748  86.6286804
  86.7969650  45.7438478  86.0407820  85.9546739  46.9618113  86.3554056
  90.9133332  40.9466944  91.0571828  90.8291521  40.3392614  90.3222238
  90.0916039  41.4375963  91.0581324  97.9870616  54.3854109  90.2704996
  97.9140788  55.1909080  90.7824301  97.5448009  54.5846074  89.4453017
  97.7760396  53.6225879  83.7807818  96.9927918  54.1647559  83.8746042
  98.4753141  54.1399858  84.1802059 101.0857046  39.4320508  86.4242023
 101.5825746  38.6790470  86.1043093 100.3144028  39.4684825  85.8585232
 108.9386803  45.1360874  88.0660315 108.9276680  46.0185589  87.6954248
 108.0704183  44.7832424  87.8714852 100.4469300  54.2840943  92.4263155
 101.1597272  54.9188407  92.3539056  99.9559329  54.3804809  91.6103157
 102.1686827  48.1892195  83.9980446 101.2343106  48.3093658  83.8285151
 102.3463495  47.2864662  83.7340456  97.6692015  41.5737891  86.1513708
  97.2989802  41.0208931  86.8394613  98.1651107  40.9696024  85.5988708
 105.5559378  44.0309515  84.5330481 106.0219830  44.8637506  84.4590783
 106.0066879  43.5654496  85.2375739  95.4981213  52.0335386  93.2468726
  96.1990673  52.6671869  93.3998120  95.0276328  52.3750118  92.4864365
 103.6235609  50.3753336  81.5316633 103.8995453  50.2609930  82.4410507
 102.7540108  49.9770821  81.4928806 103.5276041  36.3990102  88.5721382
 102.6139121  36.6294328  88.7403589 103.9569142  36.4828546  89.4235414
 103.2982499  44.5879993  91.0721276 102.6453950  44.8355901  90.4173729
 103.6762879  43.7744132  90.7383753 100.2589673  54.6239687  85.1749446
 100.4412068  53.8061343  85.6377199 101.0822659  54.8407379  84.7374336
 100.5931839  53.5507872  82.4364495 101.1219605  53.0400326  81.8234657
 100.8560058  53.2350402  83.3010028  99.3470072  45.3299805  97.5587313
  98.6710709  45.2293934  98.2289688 100.1697706  45.1739018  98.0223310
  91.0948931  51.5671741  90.1799828  91.6802368  50.8215429  90.3127732
  90.8973770  51.8775698  91.0636492  93.9487587  54.6022988  85.1962271
  93.2797962  55.0869116  84.7126311  93.8100456  54.8492209  86.1105649
  85.6866586  44.1377341  88.9004271  85.7250686  43.6040932  89.6941390
  85.1806879  43.6112547  88.2815249  98.0892855  56.6366732  91.7944929
  98.6411163  56.7998353  92.5594014  98.4299049  57.2271170  91.1224954
  93.0657348  38.9841882  92.3966814  93.1298675  39.8456713  91.9844211
  93.0024469  38.3715883  91.6639172  92.5409621  41.0565014  96.0439848
  93.1681660  40.6742092  96.6577372  91.6837540  40.8379216  96.4095540
 102.9403730  51.4627989  97.6493583 103.4843634  52.0757948  97.1548538
 102.3590574  52.0207568  98.1660596  89.3175164  42.8641443  81.9758203
  89.6128605  41.9552122  81.9225256  88.4163200  42.8429183  81.6539205
 101.2261243  54.5848708  88.7808611 101.1012382  53.7838447  88.2719557
 101.8840334  55.0794901  88.2922581  92.8469411  40.9397440  87.9585751
  92.1255997  41.5533408  87.8193225  93.6362667  41.4755205  87.8802397
 103.2896151  52.3857728  90.4088161 102.3426486  52.2663079  90.3366488
 103.6378924  51.4980226  90.4914423  95.6495724  38.2751867  94.2326403
  96.1730126  38.5214163  94.9952712  95.4308058  39.1071901  93.8129540
  91.0463005  40.5455541  82.0997528  90.7175712  39.6652920  81.9172634
  91.4002376  40.4903210  82.9873917 100.2942584  52.1810444  86.6092513
 100.1467547  51.2527151  86.7900084 101.1196078  52.2030535  86.1249589
  94.1604829  40.8328511  82.4673006  94.5000901  41.3614432  81.7451614
  94.6076949  41.1708917  83.2431572 103.8976706  53.0039003  87.6957386
 104.8223254  52.7981864  87.5581837 103.7292009  52.7555404  88.6046728
  96.8548269  39.2165562  91.9176074  96.5145090  38.4173375  92.3196754
  96.1487276  39.5167272  91.3452907  97.5064741  36.3014874  90.3703397
  98.3290810  35.8275352  90.2482287  97.7502805  37.0805358  90.8702083
  96.1472976  39.3303132  80.6666298  96.8681338  39.7084385  80.1630015
  95.5238280  40.0492009  80.7701276 100.2904099  40.0348281  81.6024631
 100.5067713  40.9172919  81.3013459  99.8098166  39.6434495  80.8730273
  95.0303320  42.9933995  88.1795375  94.8847901  43.3074298  89.0719657
  94.5528524  43.6118895  87.6266274  96.8899703  39.9836543  88.2276265
  96.8761272  39.0877636  87.8908563  97.6072131  39.9907206  88.8614551
  98.7425834  40.4173883  90.2729392  98.4843611  41.3390954  90.2713723
  98.2110874  40.0204317  90.9629856 103.6872022  53.5224670  83.0519478
 103.8608900  52.9571092  82.2993330 104.1800914  54.3225565  82.8698968
  89.5048982  45.5339339  91.1183036  88.9602450  46.3099147  91.2503311
  90.3828332  45.8810144  90.9602158  96.2936599  38.8650923  83.4963835
  96.4152510  37.9367569  83.6954723  96.0038641  38.8789609  82.5842150
  99.1627789  36.5505833  86.6330555  99.1849486  36.6145166  85.6782534
  99.5795848  35.7110342  86.8271061 109.5411413  46.2861093  84.6709777
 109.9842559  45.5368418  84.2728901 108.6637924  46.2771229  84.2883509
 104.6747195  52.8391434  80.1516376 105.3698099  53.4598127  80.3703691
 105.0170345  51.9886786  80.4268754  90.2915004  44.6609235  94.0113193
  89.5496740  44.8091871  94.5977824  89.9707748  44.9217501  93.1479943
 106.5738618  50.2891140  81.6803707 107.0989942  50.6278413  80.9553027
 106.4860970  49.3538155  81.4966841  98.2358667  54.2025214  93.8093583
  98.5445793  53.9574360  94.6816283  99.0334149  54.4071852  93.3212454
  98.2579279  56.3563123  86.0398960  97.8184269  55.8639502  86.7331817
  99.0087396  55.8136091  85.7991035  90.7371618  52.5474664  86.0423588
  91.5629638  52.2478436  85.6622232  90.3865670  51.7782286  86.4913377
  95.7053151  51.9001132  88.1121262  95.0833160  51.2371837  87.8123489
  96.3758018  51.9262264  87.4294909  88.9380223  50.4660991  87.0012522
  88.1012131  50.0383165  86.8196523  88.9103868  50.6593434  87.9383313
  95.7777678  40.3782920  97.7053768  95.8265834  41.2545043  97.3231537
  96.3200192  39.8360313  97.1325411 106.2632524  50.9224044  96.9854905
 105.4728068  50.9048182  96.4459404 106.0265879  51.4612337  97.7403941
 106.3830399  47.7716510  94.2987633 106.4328404  47.6066517  95.2403156
 106.2744322  46.9043769  93.9085514  95.2666658  50.4505056  81.5879722
  95.4154778  51.1340520  80.9346395  96.0733101  50.4310146  82.1029178
 103.6734161  43.7547438  95.6146940 104.5744024  43.6153903  95.3230938
 103.7482136  43.9201893  96.5545117  98.0076967  41.1314293  94.4600126
  97.1380276  41.4247859  94.1882715  98.2436447  41.7154738  95.1807390
 107.8848596  50.1913451  94.5429655 107.5933404  50.5543432  95.3793116
 107.2720727  49.4780460  94.3642987 109.0844278  47.7566331  87.0632225
 109.9191170  48.1956135  87.2269785 109.2203407  47.2804984  86.2440471
 106.1335784  45.3146066  93.0109713 106.6089906  45.5073712  92.2028564
 105.2101349  45.3705252  92.7653096  93.0219291  46.4770233  82.5940791
  92.7765333  45.5732563  82.7921001  93.1915205  46.4787384  81.6520269
 100.7116001  37.3493910  91.9765547 101.2297944  38.0854937  91.6512035
 100.3571133  37.6557903  92.8112306  92.2914938  42.2098591  80.0926953
  91.5984183  42.2842946  79.4366988  92.0466690  41.4458934  80.6148469
 100.9628595  33.7694192  87.4966443 101.2430348  33.1017381  88.1226870
 101.7479202  33.9623288  86.9841107  98.7662063  52.9453186  79.0591470
  98.1936030  53.5643373  78.6061941  99.3394857  53.4952548  79.5931391
 104.8337453  42.1911826  91.2438018 105.7854876  42.2909924  91.2650242
 104.6640903  41.3990095  91.7536103 102.8551833  39.2767409  91.4297419
 102.2601765  39.5572422  90.7343908 102.5701529  39.7661310  92.2014160
 101.9859323  53.2290336  80.1900052 102.9189996  53.1635898  80.3932927
 101.8982536  54.0646603  79.7314584 104.6147340  52.5456207  77.1503999
 104.5360971  52.2116070  78.0439757 105.4357006  53.0377974  77.1495472
 107.3125531  45.4117946  90.3580318 107.2801851  44.4733947  90.5440002
 107.9226155  45.4901983  89.6246143  99.1508862  44.2813999  76.4007522
 100.0967966  44.1520207  76.4695940  98.7723107  43.5428661  76.8776950
 107.4620019  42.2028989  90.4038601 106.9459068  41.4187446  90.2168530
 108.3459968  41.8747706  90.5685121 105.1230746  35.9470005  86.3634414
 104.9255567  35.6385093  87.2477746 105.7330452  36.6731644  86.4932344
 113.1302081  46.4733953  89.4986355 113.8605469  46.2119241  90.0594058
 112.5209026  45.7362675  89.5388423 111.2117378  44.6141815  90.0960806
 110.4850541  44.4797780  89.4877298 110.7964665  44.9218644  90.9017524
  99.0347554  48.3331745  97.8608179  99.9550564  48.5110344  98.0548226
  98.9997137  47.3887790  97.7087878  97.3351779  42.2063975  76.3362407
  96.4283234  41.9097088  76.4125121  97.6127760  41.9093793  75.4696694
  88.2529719  43.5270339  86.7861454  87.9332504  42.6735647  86.4935828
  87.7063147  43.7418917  87.5419421  92.0309627  46.2432780  90.5030960
  92.2495637  47.1749887  90.5218994  92.4435401  45.8840754  91.2885764
  98.9513845  36.7500865  82.4906649  98.1414573  36.4047950  82.8661895
  99.6398262  36.4408409  83.0794260 100.8804393  35.8278912  84.1130945
 101.4335431  36.2474365  84.7720968 101.1174479  34.9014660  84.1553901
  96.9037492  41.8165985  99.8933709  96.8034219  42.7660342  99.8245800
  96.6859034  41.4884224  99.0209779  88.1217979  47.1473250  88.7554575
  87.4281451  46.7327203  88.2424530  88.8690970  47.1893787  88.1587994
 104.2583200  37.9379437  83.6209609 103.6781869  38.5964241  83.2387662
 103.9919133  37.1156781  83.2097027 102.7086766  37.3384495  85.8230930
 103.2086545  37.4501029  85.0145249 103.3522374  37.0345547  86.4631738
  96.7668762  45.2463124  98.7098771  96.2835844  46.0463484  98.9162660
  96.8529701  45.2571069  97.7566215  90.0354722  47.0791504  86.6320590
  90.0125410  47.1779191  85.6802473  90.3455358  47.9256655  86.9537756
  92.6942100  49.1367659  90.7467205  93.6485353  49.1051601  90.6797136
  92.4954623  48.6758283  91.5617430  93.2841482  47.7068775  93.3138002
  94.1034371  48.2012854  93.3372840  93.5578290  46.7900743  93.2855570
 103.0408078  40.0979527  82.6765958 102.1533933  40.3829178  82.4586152
 103.4562067  39.9373291  81.8293235 106.3922614  40.1226048  86.3920297
 107.1683004  40.6122501  86.6644914 105.6670748  40.5484102  86.8492166
 108.8295173  40.8353667  87.4494238 109.4239664  40.5949403  86.7387546
 108.9021756  40.1160798  88.0767774  91.0492328  54.6787278  87.7637402
  90.9146796  53.9187679  87.1975400  90.6324391  55.4028178  87.2966191
 102.1851291  49.8624202  76.7713978 102.8887142  50.0674204  77.3871633
 101.4613940  50.4300964  77.0363061 103.0149102  45.6134063  82.8916248
 102.9584303  46.0702615  82.0523880 103.5677444  44.8524748  82.7139091
 106.8253908  41.4023795  83.7166367 106.5690842  41.0020431  84.5474575
 106.2006776  42.1167589  83.5916507 111.1366246  44.1419868  86.2237659
 110.5765803  44.2113058  86.9969221 110.5309749  43.9660853  85.5037155
  94.2061454  55.5756595  87.9755845  94.0893838  56.5202028  87.8734535
  93.3853901  55.2730157  88.3641644 104.0937989  50.3006731  78.8212438
 104.9283593  49.8687930  78.6389913 103.9322332  50.1288745  79.7489332
 103.7483881  46.8038844  80.1868777 103.6932685  46.6383116  79.2457221
 103.1229936  47.5114877  80.3430967  88.5376396  42.0406909  94.0130199
  89.1835260  41.5305863  94.5017424  88.3293547  42.7775590  94.5873625
 101.0629788  49.1087756  99.5122340 101.9320948  49.2828409  99.1508975
 100.5836540  49.9282173  99.3898069  97.0580007  36.3046953  79.7654095
  97.0458676  37.2488793  79.9222366  97.9503428  36.1217099  79.4713557
  95.2315968  56.2284857  91.1911773  96.1343215  56.2608468  91.5078268
  95.0053339  55.2985308  91.2058109  96.9869570  54.9815844  87.8521852
  96.0365201  54.9817705  87.7386224  97.2902057  54.2348578  87.3357887
 100.8732126  32.8989730  84.0200032 100.1064522  32.3448217  84.1656715
 101.2842831  32.9711599  84.8814184  92.8773887  39.1874526  98.1105214
  93.7405349  38.8311331  98.3208538  92.3039298  38.8488421  98.7980618
 112.7222264  60.8176382  88.9167615 113.3600674  60.6983130  88.2130955
 112.6043107  61.7657226  88.9755567 109.5311970  60.7703810  88.8529139
 109.1930482  60.6544875  87.9649674 110.4001738  60.3694975  88.8330145
 105.3898786  62.6239287  84.8426030 104.8263651  62.5329224  84.0742318
 105.2751181  61.8039191  85.3228523 110.0131753  61.9238662  94.8115345
 110.0020394  61.5291460  93.9395848 110.1752393  61.1904735  95.4049116
 102.9363218  64.1190478  87.6810251 103.7284510  63.7781303  87.2656550
 103.1759868  64.2285453  88.6012404 110.9698345  66.2910254  80.1540495
 110.3186324  66.8764335  79.7674509 111.7642707  66.8216449  80.2135533
 104.8953972  63.3799392  80.5527629 105.6684848  62.8328379  80.4140505
 105.2479371  64.2443641  80.7642091 106.7339014  64.7075774  93.7594529
 106.4428880  65.6121405  93.6441195 107.3695999  64.7492302  94.4738598
 107.6595221  62.0852622  90.3495888 108.2558793  61.8608645  89.6352851
 107.7170193  61.3437368  90.9521336 107.2320250  59.5392058  78.1846079
 107.4845770  59.0173579  77.4229542 106.2944809  59.3758203  78.2872763
 112.2763532  58.5427836  85.9920823 113.0626622  58.1247259  85.6411240
 112.5402237  59.4473928  86.1602471 112.4473610  63.9800686  80.6909479
 111.8119443  64.0535313  81.4030384 112.1171016  64.5694285  80.0128559
 117.6771960  58.4803069  86.8953801 118.4097132  57.9102286  87.1291631
 116.9211315  58.0924670  87.3360307 106.9516538  61.4420164  80.3870454
 106.8352796  60.7665067  81.0551539 107.0618798  60.9552538  79.5702607
 109.2948079  60.9030311  84.0917144 108.9306287  60.3760932  84.8030065
 110.1515195  60.5128780  83.9183629 115.1997380  52.1924643  91.3548410
 114.8680705  53.0620054  91.1309625 114.6042993  51.8760927  92.0342440
 108.9353566  55.9320210  79.0878492 109.1027969  56.8000447  79.4548963
 108.7450735  56.0947492  78.1639781 111.6928899  64.3937189  90.7544322
 111.3929623  65.2962228  90.6460130 111.3479959  64.1269373  91.6065475
 105.1441381  60.8450986  86.7881027 104.2191877  60.7127200  86.9958719
 105.3925794  61.6245205  87.2850969 115.0926043  56.9119730  88.4341760
 114.1842921  56.8435138  88.1400521 115.0413639  57.3891675  89.2623585
 108.9142787  58.3877868  80.0725159 108.7942412  58.8334919  80.9110639
 108.2195376  58.7363186  79.5138697 102.5050192  60.4884260  87.6224816
 102.6342573  60.7418739  88.5364228 101.8247643  61.0811968  87.3029471
 106.6749679  71.1581510  83.7215290 106.5973709  72.1089335  83.8003771
 106.0711323  70.8127382  84.3790216 109.1666909  58.3309375  96.3776657
 108.3900243  58.8903295  96.3679522 109.8057472  58.8166158  96.8991527
 116.9587690  55.1136168  90.2119634 116.3162070  55.4068701  89.5659428
 116.4542618  54.9989088  91.0172830 114.6127853  58.8599341  80.9005493
 115.5245709  59.0926728  80.7253190 114.1037500  59.4436385  80.3380572
 107.4213281  61.1394829  95.9394624 108.1627966  61.6779873  95.6629448
 106.7150267  61.7661117  96.0966176 112.8968621  63.2823969  94.5366785
 113.3051977  62.8406380  93.7921418 112.1745882  62.7076597  94.7900978
 109.2499691  58.2196576  91.9100342 110.0960886  58.6435989  92.0534991
 109.1898329  57.5630200  92.6038906 113.2197436  63.8425160  88.2919074
 112.5906298  64.0070874  87.5895142 112.8323098  64.2566769  89.0630038
 117.0986668  64.7779597  85.6463438 116.4137706  65.1578499  85.0960471
 117.1830517  65.3874924  86.3795386 112.3999136  55.8800944  93.5681516
 112.1560068  56.6343005  93.0315792 112.6759067  56.2586292  94.4028763
 114.3537599  62.4239557  92.2458782 114.5654494  63.0671316  91.5693163
 114.3067347  61.5901873  91.7780712 111.9563828  55.0357377  89.1495354
 111.0948307  55.3338631  89.4412091 111.9826263  55.2527776  88.2176386
 108.7725397  63.5799568  85.5569159 109.2363743  63.8587271  84.7673782
 108.5082196  62.6783012  85.3742250 105.6649479  63.1271049  88.4948923
 106.2350836  63.5558318  87.8566407 106.2557590  62.8453634  89.1933108
 107.7094284  59.7022720  82.3658725 108.4118327  60.1543764  82.8332651
 107.3774912  59.0606539  82.9938618 106.1574645  58.2934477  96.7409934
 105.5273306  58.9750758  96.9745331 106.0510733  58.1817558  95.7963072
 101.4519618  57.9606273  87.6675858 100.6618671  58.2163801  87.1915969
 101.9430865  58.7754611  87.7727899 115.4683427  65.3011512  90.4181139
 116.2900871  64.8991699  90.1363821 115.4645830  65.1979746  91.3697255
 103.4034363  58.3250852  84.6259335 102.6065526  58.4369546  85.1442831
 103.1759955  58.6637504  83.7600225 109.2340031  64.8495555  92.5741850
 109.2984463  65.3115962  93.4100021 108.5250954  64.2192920  92.7024159
  99.7357320  58.2136763  90.0990849  99.9865359  59.0983773  90.3648425
 100.2716869  58.0341365  89.3265941 108.9488048  66.5163663  82.4420830
 108.8133723  67.3615198  82.8705678 109.4897861  66.7182940  81.6786764
 105.4355388  52.5955243  99.1035185 105.0422333  52.0421441  99.7782829
 106.2521528  52.9065821  99.4941703 102.4017446  64.0339101  83.0148755
 102.9141966  64.8282351  83.1654320 103.0540158  63.3365391  82.9482356
 104.2112330  67.1504857  85.0971508 104.3878959  68.0722822  84.9092492
 105.0069164  66.8363276  85.5265888 108.3523349  54.0113122  96.6955442
 109.0933062  54.6120275  96.6159904 108.5841272  53.2690759  96.1373484
 103.4964687  59.1969489  94.9733671 103.3818202  58.2954746  95.2740770
 102.6409205  59.4433186  94.6218488 110.5756525  67.1387229  96.5721172
 110.1320379  66.3523608  96.2542076 111.2373738  67.3266380  95.9065063
 105.3343646  68.6683031  91.0981850 105.8851071  68.5400094  90.3258844
 104.4955122  68.9677920  90.7476743 112.6737763  67.4190029  94.6002573
 112.6556238  68.2398910  94.1082842 113.5957683  67.2944104  94.8252714
 109.1310817  64.9334159  95.4426082 109.6639154  64.1722447  95.2125390
 108.6024898  64.6407810  96.1850236 112.2980512  50.0394225  90.9719723
 111.9544781  50.9295866  90.8958834 112.6659474  49.8495882  90.1089308
 100.3666362  62.3627755  83.7908325 101.2041584  62.7724763  83.5742033
 100.5444630  61.4227197  83.7608519 112.2630794  60.0302836  79.4792158
 111.7477418  60.8007440  79.7180546 111.9908103  59.3567972  80.1025220
 109.8477905  54.8752536  84.5377397 108.9919502  54.4859387  84.3583035
 110.2604857  54.9544497  83.6777182 111.3777052  52.4098880  88.9368957
 110.8741848  52.3729015  88.1236762 111.6707659  53.3191622  88.9965613
 107.6219938  52.4937609  87.9435138 108.4872935  52.2980418  87.5841028
 107.6897447  52.2647961  88.8704495 117.2365069  62.7835190  81.4145332
 116.4594511  62.4446350  80.9700494 117.9156550  62.7887814  80.7400297
 112.0517098  57.9029928  81.3051940 111.7467233  58.2176077  82.1562083
 113.0047540  57.9811348  81.3479273 110.4963529  64.0620151  82.9544894
 109.9684891  63.3272911  82.6418131 109.9951032  64.8394827  82.7084862
 115.4756376  62.2569172  88.0711940 114.8180050  62.9468433  88.1592069
 116.2796775  62.6465604  88.4145926 105.2282257  54.7239817  85.3151505
 105.8026009  54.5014999  84.5824698 105.8153240  54.7928512  86.0680106
 114.2861834  60.6113544  86.1215882 114.7993716  61.2443536  86.6237591
 114.9363058  60.0114740  85.7559242 105.5551844  56.7544278  79.3347390
 104.7189156  57.0918965  79.6556665 105.4156614  56.6193258  78.3974527
 107.5304925  51.5981066  84.0426575 106.8769337  51.2830083  83.4183189
 107.4885399  50.9756807  84.7686397 108.6416130  61.8800361  75.9579867
 107.7343191  61.6489615  76.1571016 109.1387162  61.0837981  76.1453848
 111.5484209  70.5897869  78.8776553 110.8745907  70.8929565  79.4861511
 111.9350031  71.3926949  78.5282010 110.7642665  58.0863000  88.3674222
 109.8465227  58.3077947  88.2095910 111.1802809  58.1609310  87.5085929
 111.5477713  59.4854416  83.4976902 112.2949532  59.9975813  83.1884024
 111.8169302  59.1638468  84.3581296 109.8204363  61.9812956  80.4803857
 108.9115582  61.6971989  80.5776326 109.8499447  62.4012035  79.6207164
 115.0523631  65.5919546  84.2495024 114.5985958  64.7510456  84.3060215
 114.4217597  66.2280944  84.5869804 113.9956550  56.5211532  85.4795692
 113.2579307  56.0088918  85.8105934 114.2483324  56.0811913  84.6678969
 113.4956570  67.4296042  85.1844842 113.7879544  67.9901100  84.4657208
 114.0055190  67.7224603  85.9398001 114.0968177  49.2987784  86.0737461
 114.4027054  48.4385147  85.7863376 114.8220782  49.8905404  85.8736455
 100.3892533  59.7018470  84.4619059 100.1916933  59.1087831  83.7370125
  99.8339197  59.3970681  85.1794998 108.3689257  59.5941577  86.5813652
 108.4237867  58.6415413  86.5056129 107.5580459  59.7501016  87.0654950
 109.5180451  63.5221700  77.8191935 109.0799881  62.8057559  77.3597573
 110.2590892  63.7497815  77.2577027 106.3081617  58.2118637  84.3404031
 105.4949483  58.5112807  84.7469223 106.8040611  57.8174325  85.0578513
 108.4590195  68.2076394  86.2738296 108.4166374  68.4337240  85.3446828
 109.3752894  67.9739768  86.4224097 111.9055829  58.6760461  93.1718925
 112.2605216  58.9031934  94.0313391 112.5527960  59.0078838  92.5496180
 117.6353566  61.7978897  83.8768254 117.4971464  61.9880493  82.9489443
 117.2789784  62.5598280  84.3336305 105.7995692  55.7836992  89.9565266
 106.4395071  55.6425751  89.2588229 104.9673222  55.4971506  89.5803868
 117.6622945  63.8655424  88.8879525 118.0959452  63.7730713  89.7362579
 118.3754526  63.8412924  88.2499541 106.5755996  65.0839423  86.0700258
 107.3696594  64.5889743  85.8682833 105.8647688  64.5557286  85.7067964
 111.3950840  67.4657518  90.4212626 111.4487862  68.0348454  91.1890342
 110.5265622  67.6359403  90.0566663 102.8838759  59.2282504  82.1460011
 101.9536347  59.1666960  82.3629973 102.9796231  58.7058457  81.3496652
 102.8024308  55.7537317  84.7338253 103.0631126  56.6682650  84.6247413
 103.6241481  55.2861760  84.8834865 104.2749234  57.1675074  91.9037077
 104.9472287  56.9592436  91.2549726 103.4479020  56.9697160  91.4642309
 118.5238495  63.9079125  91.4212411 118.7174385  64.8124935  91.6671686
 118.4239113  63.4486544  92.2550996 110.1774806  53.7937015  93.9202738
 109.5302721  54.4926965  93.8267214 110.9475821  54.2273159  94.2878986
 113.5853604  64.0585867  96.9953291 113.4339110  63.8296419  96.0783375
 113.5758283  65.0156469  97.0084636 110.3538940  61.6317780  91.9799558
 111.2831000  61.7828940  91.8068525 109.9329970  61.7201801  91.1248204
 109.1527272  65.6568445  89.7498095 109.0138357  65.2887229  90.6224034
 108.3641868  66.1716084  89.5782053 109.7475424  70.7577541  81.0923632
 109.9227179  70.2865584  81.9069255 109.0608212  71.3843307  81.3204893
 110.7032487  65.0350047  87.1386933 110.3682319  64.9950817  88.0344583
 110.2036433  64.3694763  86.6657343 104.6776731  60.4417677  92.6639514
 104.5396529  59.7097916  93.2651053 105.5881654  60.3526577  92.3823702
 113.6391679  62.3806082  77.4123993 113.0220849  61.6552910  77.3157046
 113.1708167  63.1415442  77.0691067 107.3059031  60.1537637  92.1523194
 108.0158650  59.5130829  92.1109812 107.2628340  60.4050531  93.0749375
 115.2945810  67.0904990  95.0729773 115.2358356  66.4064210  94.4060356
 115.6965329  67.8323980  94.6210399 106.0187965  57.1402854  93.9718833
 105.4825322  56.6893593  94.6240430 105.4304674  57.2748763  93.2289298
 104.3136509  73.9066904  87.8663492 104.5533107  74.5385428  88.5442511
 103.4705705  73.5554944  88.1528851 105.4290224  56.5991506  76.5345297
 104.5519691  56.4780307  76.1707544 105.9047977  55.8077584  76.2824186
 115.2963217  65.0544574  93.3043753 114.4089996  64.7170496  93.4270152
 115.8661769  64.3227605  93.5412518  96.9492365  61.3868666  86.6286804
  97.6363404  61.0730396  86.0407820  96.7940493  62.2910030  86.3554056
 101.7527087  56.2758862  91.0571828 101.6685275  55.6684532  90.3222238
 100.9309793  56.7667880  91.0581324 108.8264371  69.7146026  90.2704996
 108.7534542  70.5200998  90.7824301 108.3841764  69.9137992  89.4453017
 108.6154150  68.9517796  83.7807818 107.8321672  69.4939476  83.8746042
 109.3146896  69.4691776  84.1802059 111.9250801  54.7612426  86.4242023
 112.4219500  54.0082388  86.1043093 111.1537782  54.7976742  85.8585232
 119.7780558  60.4652791  88.0660315 119.7670434  61.3477507  87.6954248
 118.9097937  60.1124342  87.8714852 111.2863054  69.6132860  92.4263155
 111.9991027  70.2480325  92.3539056 110.7953083  69.7096726  91.6103157
 113.0080581  63.5184113  83.9980446 112.0736860  63.6385575  83.8285151
 113.1857250  62.6156580  83.7340456 108.5085769  56.9029809  86.1513708
 108.1383557  56.3500849  86.8394613 109.0044862  56.2987942  85.5988708
 116.3953133  59.3601432  84.5330481 116.8613585  60.1929424  84.4590783
 116.8460633  58.8946414  85.2375739 106.3374968  67.3627304  93.2468726
 107.0384427  67.9963787  93.3998120 105.8670083  67.7042035  92.4864365
 114.4629364  65.7045253  81.5316633 114.7389208  65.5901848  82.4410507
 113.5933862  65.3062738  81.4928806 114.3669795  51.7282019  88.5721382
 113.4532875  51.9586246  88.7403589 114.7962897  51.8120463  89.4235414
 114.1376254  59.9171911  91.0721276 113.4847704  60.1647819  90.4173729
 114.5156634  59.1036049  90.7383753 111.0983428  69.9531604  85.1749446
 111.2805822  69.1353260  85.6377199 111.9216414  70.1699297  84.7374336
 111.4325593  68.8799789  82.4364495 111.9613360  68.3692244  81.8234657
 111.6953813  68.5642320  83.3010028 110.1863827  60.6591722  97.5587313
 109.5104464  60.5585852  98.2289688 111.0091461  60.5030936  98.0223310
 101.9342686  66.8963659  90.1799828 102.5196123  66.1507347  90.3127732
 101.7367524  67.2067615  91.0636492 104.7881341  69.9314906  85.1962271
 104.1191716  70.4161034  84.7126311 104.6494211  70.1784127  86.1105649
  96.5260341  59.4669259  88.9004271  96.5644440  58.9332850  89.6941390
  96.0200634  58.9404464  88.2815249 108.9286610  71.9658650  91.7944929
 109.4804918  72.1290271  92.5594014 109.2692803  72.5563087  91.1224954
 103.9051103  54.3133799  92.3966814 103.9692429  55.1748630  91.9844211
 103.8418223  53.7007801  91.6639172 103.3803376  56.3856932  96.0439848
 104.0075414  56.0034009  96.6577372 102.5231294  56.1671134  96.4095540
 113.7797484  66.7919907  97.6493583 114.3237388  67.4049865  97.1548538
 113.1984329  67.3499486  98.1660596 100.1568918  58.1933361  81.9758203
 100.4522359  57.2844040  81.9225256  99.2556954  58.1721101  81.6539205
 112.0654997  69.9140625  88.7808611 111.9406136  69.1130365  88.2719557
 112.7234088  70.4086819  88.2922581 103.6863165  56.2689358  87.9585751
 102.9649751  56.8825325  87.8193225 104.4756421  56.8047123  87.8802397
 114.1289905  67.7149645  90.4088161 113.1820241  67.5954996  90.3366488
 114.4772679  66.8272143  90.4914423 106.4889479  53.6043784  94.2326403
 107.0123881  53.8506081  94.9952712 106.2701812  54.4363819  93.8129540
 101.8856760  55.8747459  82.0997528 101.5569466  54.9944838  81.9172634
 102.2396131  55.8195127  82.9873917 111.1336339  67.5102361  86.6092513
 110.9861301  66.5819069  86.7900084 111.9589832  67.5322452  86.1249589
 104.9998583  56.1620429  82.4673006 105.3394656  56.6906350  81.7451614
 105.4470703  56.5000835  83.2431572 114.7370461  68.3330920  87.6957386
 115.6617008  68.1273782  87.5581837 114.5685764  68.0847321  88.6046728
 107.6942024  54.5457479  91.9176074 107.3538844  53.7465292  92.3196754
 106.9881030  54.8459190  91.3452907 108.3458496  51.6306792  90.3703397
 109.1684565  51.1567270  90.2482287 108.5896559  52.4097275  90.8702083
 106.9866730  54.6595050  80.6666298 107.7075093  55.0376303  80.1630015
 106.3632034  55.3783927  80.7701276 111.1297853  55.3640199  81.6024631
 111.3461467  56.2464837  81.3013459 110.6491920  54.9726413  80.8730273
 105.8697074  58.3225912  88.1795375 105.7241655  58.6366215  89.0719657
 105.3922278  58.9410813  87.6266274 107.7293457  55.3128460  88.2276265
 107.7155026  54.4169554  87.8908563 108.4465885  55.3199124  88.8614551
 109.5819588  55.7465801  90.2729392 109.3237366  56.6682871  90.2713723
 109.0504628  55.3496235  90.9629856 114.5265777  68.8516588  83.0519478
 114.7002654  68.2863010  82.2993330 115.0194668  69.6517483  82.8698968
 100.3442737  60.8631257  91.1183036  99.7996205  61.6391065  91.2503311
 101.2222086  61.2102061  90.9602158 107.1330353  54.1942841  83.4963835
 107.2546264  53.2659487  83.6954723 106.8432396  54.2081527  82.5842150
 110.0021544  51.8797751  86.6330555 110.0243240  51.9437084  85.6782534
 110.4189603  51.0402260  86.8271061 120.3805168  61.6153011  84.6709777
 120.8236314  60.8660336  84.2728901 119.5031678  61.6063147  84.2883509
 115.5140949  68.1683352  80.1516376 116.2091854  68.7890045  80.3703691
 115.8564099  67.3178703  80.4268754 101.1308758  59.9901153  94.0113193
 100.3890494  60.1383788  94.5977824 100.8101503  60.2509419  93.1479943
 117.4132372  65.6183058  81.6803707 117.9383696  65.9570330  80.9553027
 117.3254725  64.6830073  81.4966841 109.0752421  69.5317131  93.8093583
 109.3839548  69.2866278  94.6816283 109.8727903  69.7363770  93.3212454
 109.0973033  71.6855041  86.0398960 108.6578023  71.1931420  86.7331817
 109.8481150  71.1428009  85.7991035 101.5765372  67.8766582  86.0423588
 102.4023392  67.5770354  85.6622232 101.2259424  67.1074204  86.4913377
 106.5446905  67.2293050  88.1121262 105.9226915  66.5663755  87.8123489
 107.2151772  67.2554182  87.4294909  99.7773977  65.7952908  87.0012522
  98.9405885  65.3675083  86.8196523  99.7497623  65.9885352  87.9383313
 106.6171433  55.7074838  97.7053768 106.6659588  56.5836961  97.3231537
 107.1593947  55.1652231  97.1325411 117.1026278  66.2515961  96.9854905
 116.3121822  66.2340100  96.4459404 116.8659633  66.7904255  97.7403941
 117.2224153  63.1008428  94.2987633 117.2722158  62.9358435  95.2403156
 117.1138077  62.2335687  93.9085514 106.1060412  65.7796973  81.5879722
 106.2548533  66.4632438  80.9346395 106.9126856  65.7602063  82.1029178
 114.5127916  59.0839356  95.6146940 115.4137779  58.9445820  95.3230938
 114.5875890  59.2493810  96.5545117 108.8470721  56.4606210  94.4600126
 107.9774031  56.7539776  94.1882715 109.0830202  57.0446655  95.1807390
 118.7242350  65.5205369  94.5429655 118.4327159  65.8835350  95.3793116
 118.1114482  64.8072377  94.3642987 119.9238033  63.0858249  87.0632225
 120.7584924  63.5248053  87.2269785 120.0597161  62.6096902  86.2440471
 116.9729539  60.6437984  93.0109713 117.4483660  60.8365630  92.2028564
 116.0495104  60.6997170  92.7653096 103.8613045  61.8062151  82.5940791
 103.6159087  60.9024481  82.7921001 104.0308960  61.8079301  81.6520269
 111.5509755  52.6785827  91.9765547 112.0691699  53.4146854  91.6512035
 111.1964888  52.9849821  92.8112306 103.1308693  57.5390509  80.0926953
 102.4377938  57.6134863  79.4366988 102.8860445  56.7750852  80.6148469
 111.8022349  49.0986110  87.4966443 112.0824103  48.4309299  88.1226870
 112.5872956  49.2915205  86.9841107 109.6055818  68.2745104  79.0591470
 109.0329785  68.8935291  78.6061941 110.1788611  68.8244465  79.5931391
 115.6731208  57.5203744  91.2438018 116.6248630  57.6201842  91.2650242
 115.5034658  56.7282012  91.7536103 113.6945587  54.6059327  91.4297419
 113.0995519  54.8864340  90.7343908 113.4095284  55.0953228  92.2014160
 112.8253077  68.5582254  80.1900052 113.7583751  68.4927816  80.3932927
 112.7376290  69.3938521  79.7314584 115.4541094  67.8748124  77.1503999
 115.3754726  67.5407988  78.0439757 116.2750761  68.3669892  77.1495472
 118.1519285  60.7409864  90.3580318 118.1195605  59.8025864  90.5440002
 118.7619909  60.8193900  89.6246143 109.9902616  59.6105917  76.4007522
 110.9361721  59.4812125  76.4695940 109.6116861  58.8720578  76.8776950
 118.3013774  57.5320907  90.4038601 117.7852822  56.7479364  90.2168530
 119.1853722  57.2039624  90.5685121 115.9624501  51.2761923  86.3634414
 115.7649322  50.9677011  87.2477746 116.5724206  52.0023561  86.4932344
 109.8741309  63.6623663  97.8608179 110.7944318  63.8402262  98.0548226
 109.8390892  62.7179708  97.7087878 108.1745533  57.5355893  76.3362407
 107.2676989  57.2389006  76.4125121 108.4521514  57.2385711  75.4696694
  99.0923474  58.8562256  86.7861454  98.7726258  58.0027564  86.4935828
  98.5456902  59.0710834  87.5419421 102.8703381  61.5724697  90.5030960
 103.0889391  62.5041805  90.5218994 103.2829155  61.2132672  91.2885764
 109.7907599  52.0792783  82.4906649 108.9808327  51.7339868  82.8661895
 110.4792016  51.7700326  83.0794260 111.7198147  51.1570829  84.1130945
 112.2729186  51.5766283  84.7720968 111.9568234  50.2306578  84.1553901
 107.7431247  57.1457903  99.8933709 107.6427974  58.0952260  99.8245800
 107.5252789  56.8176142  99.0209779 106.9444318  54.3942828  76.4774386
 107.8063482  54.7197726  76.7370204 107.1294662  53.6074324  75.9647452
  98.9611734  62.4765168  88.7554575  98.2675205  62.0619121  88.2424530
  99.7084725  62.5185704  88.1587994 115.0976954  53.2671355  83.6209609
 114.5175624  53.9256159  83.2387662 114.8312887  52.4448699  83.2097027
 113.5480521  52.6676412  85.8230930 114.0480299  52.7792947  85.0145249
 114.1916129  52.3637465  86.4631738 107.6062517  60.5755042  98.7098771
 107.1229598  61.3755402  98.9162660 107.6923456  60.5862987  97.7566215
 100.8748476  62.4083422  86.6320590 100.8519164  62.5071109  85.6802473
 101.1849113  63.2548572  86.9537756 103.5335854  64.4659577  90.7467205
 104.4879108  64.4343519  90.6797136 103.3348378  64.0050200  91.5617430
 104.1235236  63.0360693  93.3138002 104.9428125  63.5304771  93.3372840
 104.3972044  62.1192661  93.2855570 113.8801832  55.4271445  82.6765958
 112.9927688  55.7121096  82.4586152 114.2955822  55.2665208  81.8293235
 117.2316369  55.4517966  86.3920297 118.0076759  55.9414418  86.6644914
 116.5064503  55.8776020  86.8492166 119.6688927  56.1645585  87.4494238
 120.2633418  55.9241321  86.7387546 119.7415511  55.4452716  88.0767774
 101.8886083  70.0079196  87.7637402 101.7540551  69.2479597  87.1975400
 101.4718145  70.7320096  87.2966191 113.0245046  65.1916120  76.7713978
 113.7280896  65.3966122  77.3871633 112.3007695  65.7592882  77.0363061
 113.8542856  60.9425981  82.8916248 113.7978058  61.3994532  82.0523880
 114.4071199  60.1816665  82.7139091 117.6647662  56.7315713  83.7166367
 117.4084596  56.3312348  84.5474575 117.0400530  57.4459507  83.5916507
 105.0455209  70.9048513  87.9755845 104.9287593  71.8493946  87.8734535
 104.2247655  70.6022075  88.3641644 114.9331743  65.6298649  78.8212438
 115.7677347  65.1979847  78.6389913 114.7716086  65.4580663  79.7489332
 114.5877636  62.1330762  80.1868777 114.5326439  61.9675034  79.2457221
 113.9623691  62.8406795  80.3430967  99.3770151  57.3698827  94.0130199
 100.0229014  56.8597780  94.5017424  99.1687302  58.1067508  94.5873625
 111.9023543  64.4379674  99.5122340 112.7714702  64.6120326  99.1508975
 111.4230294  65.2574091  99.3898069 107.8973761  51.6338871  79.7654095
 107.8852431  52.5780711  79.9222366 108.7897183  51.4509017  79.4713557
 106.0709723  71.5576775  91.1911773 106.9736970  71.5900385  91.5078268
 105.8447093  70.6277226  91.2058109 107.8263325  70.3107762  87.8521852
 106.8758956  70.3109623  87.7386224 108.1295811  69.5640496  87.3357887
 111.7125880  48.2281648  84.0200032 110.9458276  47.6740134  84.1656715
 112.1236585  48.3003517  84.8814184 103.7167642  54.5166444  98.1105214
 104.5799103  54.1603248  98.3208538 103.1433052  54.1780338  98.7980618
 120.3705725  76.0995728  88.8529139 120.0324236  75.9836793  87.9649674
 121.2395493  75.6986893  88.8330145 116.2292540  77.9531204  84.8426030
 115.6657406  77.8621141  84.0742318 116.1144935  77.1331109  85.3228523
 120.8525508  77.2530580  94.8115345 120.8414148  76.8583378  93.9395848
 121.0146147  76.5196652  95.4049116 113.7756972  79.4482396  87.6810251
 114.5678264  79.1073221  87.2656550 114.0153623  79.5577371  88.6012404
 115.7347726  78.7091309  80.5527629 116.5078602  78.1620296  80.4140505
 116.0873125  79.5735559  80.7642091 117.5732769  80.0367692  93.7594529
 117.2822635  80.9413322  93.6441195 118.2089753  80.0784219  94.4738598
 118.4988976  77.4144540  90.3495888 119.0952548  77.1900562  89.6352851
 118.5563947  76.6729286  90.9521336 118.0714004  74.8683975  78.1846079
 118.3239525  74.3465497  77.4229542 117.1338563  74.7050121  78.2872763
 117.7910293  76.7712081  80.3870454 117.6746551  76.0956985  81.0551539
 117.9012553  76.2844455  79.5702607 120.1341834  76.2322228  84.0917144
 119.7700041  75.7052849  84.8030065 120.9908950  75.8420698  83.9183629
 119.7747321  71.2612128  79.0878492 119.9421723  72.1292365  79.4548963
 119.5844490  71.4239410  78.1639781 115.9835135  76.1742904  86.7881027
 115.0585632  76.0419118  86.9958719 116.2319549  76.9537123  87.2850969
 119.7536542  73.7169786  80.0725159 119.6336167  74.1626836  80.9110639
 119.0589130  74.0655103  79.5138697 113.3443946  75.8176177  87.6224816
 113.4736328  76.0710656  88.5364228 112.6641398  76.4103885  87.3029471
 117.5143434  86.4873427  83.7215290 117.4367463  87.4381253  83.8003771
 116.9105077  86.1419300  84.3790216 120.0060664  73.6601293  96.3776657
 119.2293998  74.2195213  96.3679522 120.6451227  74.1458076  96.8991527
 118.2607036  76.4686746  95.9394624 119.0021720  77.0071790  95.6629448
 117.5544021  77.0953035  96.0966176 120.0893446  73.5488493  91.9100342
 120.9354641  73.9727907  92.0534991 120.0292083  72.8922118  92.6038906
 119.6119152  78.9091485  85.5569159 120.0757498  79.1879188  84.7673782
 119.3475950  78.0074930  85.3742250 116.5043233  78.4562967  88.4948923
 117.0744590  78.8850235  87.8566407 117.0951345  78.1745552  89.1933108
 118.5488038  75.0314638  82.3658725 119.2512081  75.4835681  82.8332651
 118.2168667  74.3898457  82.9938618 116.9968400  73.6226394  96.7409934
 116.3667060  74.3042675  96.9745331 116.8904487  73.5109476  95.7963072
 112.2913372  73.2898190  87.6675858 111.5012426  73.5455719  87.1915969
 112.7824619  74.1046528  87.7727899 114.2428117  73.6542770  84.6259335
 113.4459281  73.7661464  85.1442831 114.0153710  73.9929422  83.7600225
 120.0733785  80.1787473  92.5741850 120.1378218  80.6407880  93.4100021
 119.3644709  79.5484838  92.7024159 110.5751075  73.5428681  90.0990849
 110.8259113  74.4275691  90.3648425 111.1110623  73.3633282  89.3265941
 119.7881803  81.8455580  82.4420830 119.6527477  82.6907116  82.8705678
 120.3291615  82.0474858  81.6786764 116.2749142  67.9247160  99.1035185
 115.8816088  67.3713359  99.7782829 117.0915283  68.2357739  99.4941703
 113.2411200  79.3631018  83.0148755 113.7535721  80.1574269  83.1654320
 113.8933913  78.6657309  82.9482356 115.0506085  82.4796775  85.0971508
 115.2272713  83.4014739  84.9092492 115.8462918  82.1655194  85.5265888
 119.1917103  69.3405039  96.6955442 119.9326817  69.9412192  96.6159904
 119.4235026  68.5982677  96.1373484 114.3358441  74.5261407  94.9733671
 114.2211956  73.6246664  95.2740770 113.4802959  74.7725103  94.6218488
 116.1737400  83.9974948  91.0981850 116.7244825  83.8692012  90.3258844
 115.3348876  84.2969838  90.7476743 119.9704571  80.2626076  95.4426082
 120.5032908  79.5014364  95.2125390 119.4418652  79.9699728  96.1850236
 111.2060117  77.6919673  83.7908325 112.0435339  78.1016681  83.5742033
 111.3838385  76.7519115  83.7608519 120.6871660  70.2044454  84.5377397
 119.8313256  69.8151305  84.3583035 121.0998612  70.2836415  83.6777182
 118.4613693  67.8229527  87.9435138 119.3266689  67.6272336  87.5841028
 118.5291201  67.5939879  88.8704495 121.3357284  79.3912069  82.9544894
 120.8078646  78.6564828  82.6418131 120.8344787  80.1686745  82.7084862
 116.0676012  70.0531735  85.3151505 116.6419763  69.8306917  84.5824698
 116.6546994  70.1220430  86.0680106 116.3945599  72.0836196  79.3347390
 115.5582911  72.4210883  79.6556665 116.2550368  71.9485176  78.3974527
 118.3698679  66.9272984  84.0426575 117.7163092  66.6122001  83.4183189
 118.3279153  66.3048724  84.7686397 119.4809884  77.2092279  75.9579867
 118.5736946  76.9781533  76.1571016 119.9780916  76.4129898  76.1453848
 120.6598118  77.3104874  80.4803857 119.7509337  77.0263907  80.5776326
 120.6893201  77.7303952  79.6207164 111.2286288  75.0310388  84.4619059
 111.0310688  74.4379749  83.7370125 110.6732952  74.7262598  85.1794998
 119.2083012  74.9233495  86.5813652 119.2631621  73.9707331  86.5056129
 118.3974214  75.0792934  87.0654950 120.3574205  78.8513618  77.8191935
 119.9193635  78.1349477  77.3597573 121.0984646  79.0789732  77.2577027
 117.1475372  73.5410554  84.3404031 116.3343237  73.8404725  84.7469223
 117.6434366  73.1466243  85.0578513 119.2983949  83.5368311  86.2738296
 119.2560128  83.7629158  85.3446828 120.2146648  83.3031686  86.4224097
 116.6389446  71.1128910  89.9565266 117.2788826  70.9717669  89.2588229
 115.8066977  70.8263423  89.5803868 117.4149750  80.4131340  86.0700258
 118.2090349  79.9181660  85.8682833 116.7041443  79.8849203  85.7067964
 113.7232514  74.5574422  82.1460011 112.7930102  74.4958877  82.3629973
 113.8189986  74.0350375  81.3496652 113.6418063  71.0829235  84.7338253
 113.9024880  71.9974568  84.6247413 114.4635235  70.6153677  84.8834865
 115.1142988  72.4966992  91.9037077 115.7866041  72.2884354  91.2549726
 114.2872775  72.2989078  91.4642309 119.9921026  80.9860362  89.7498095
 119.8532112  80.6179147  90.6224034 119.2035622  81.5008002  89.5782053
 120.5869178  86.0869459  81.0923632 120.7620934  85.6157502  81.9069255
 119.9001966  86.7135225  81.3204893 115.5170485  75.7709595  92.6639514
 115.3790283  75.0389834  93.2651053 116.4275409  75.6818495  92.3823702
 118.1452786  75.4829554  92.1523194 118.8552405  74.8422746  92.1109812
 118.1022094  75.7342449  93.0749375 116.8581720  72.4694772  93.9718833
 116.3219077  72.0185511  94.6240430 116.2698428  72.6040681  93.2289298
 115.1530263  89.2358821  87.8663492 115.3926862  89.8677346  88.5442511
 114.3099460  88.8846861  88.1528851 116.2683979  71.9283424  76.5345297
 115.3913445  71.8072224  76.1707544 116.7441732  71.1369502  76.2824186
 107.7886119  76.7160583  86.6286804 108.4757159  76.4022313  86.0407820
 107.6334248  77.6201948  86.3554056 112.5920841  71.6050780  91.0571828
 112.5079030  70.9976449  90.3222238 111.7703548  72.0959798  91.0581324
 119.6658125  85.0437944  90.2704996 119.5928297  85.8492915  90.7824301
 119.2235518  85.2429910  89.4453017 119.4547905  84.2809714  83.7807818
 118.6715427  84.8231394  83.8746042 120.1540650  84.7983694  84.1802059
 119.3479524  72.2321726  86.1513708 118.9777311  71.6792767  86.8394613
 119.8438616  71.6279860  85.5988708 117.1768722  82.6919221  93.2468726
 117.8778182  83.3255704  93.3998120 116.7063837  83.0333953  92.4864365
 112.7736440  82.2255576  90.1799828 113.3589877  81.4799264  90.3127732
 112.5761279  82.5359533  91.0636492 115.6275096  85.2606824  85.1962271
 114.9585471  85.7452951  84.7126311 115.4887965  85.5076044  86.1105649
 107.3654095  74.7961177  88.9004271 107.4038195  74.2624767  89.6941390
 106.8594388  74.2696382  88.2815249 119.7680364  87.2950567  91.7944929
 120.3198672  87.4582189  92.5594014 120.1086558  87.8855005  91.1224954
 114.7444857  69.6425717  92.3966814 114.8086184  70.5040548  91.9844211
 114.6811978  69.0299719  91.6639172 114.2197130  71.7148850  96.0439848
 114.8469169  71.3325927  96.6577372 113.3625049  71.4963052  96.4095540
 110.9962673  73.5225279  81.9758203 111.2916114  72.6135957  81.9225256
 110.0950709  73.5013018  81.6539205 114.5256920  71.5981275  87.9585751
 113.8043506  72.2117243  87.8193225 115.3150176  72.1339040  87.8802397
 117.3283233  68.9335702  94.2326403 117.8517635  69.1797998  94.9952712
 117.1095567  69.7655737  93.8129540 112.7250514  71.2039376  82.0997528
 112.3963220  70.3236755  81.9172634 113.0789885  71.1487045  82.9873917
 115.8392338  71.4912346  82.4673006 116.1788410  72.0198267  81.7451614
 116.2864458  71.8292752  83.2431572 118.5335778  69.8749397  91.9176074
 118.1932599  69.0757210  92.3196754 117.8274785  70.1751108  91.3452907
 119.1852250  66.9598709  90.3703397 120.0078319  66.4859188  90.2482287
 119.4290314  67.7389193  90.8702083 117.8260485  69.9886968  80.6666298
 118.5468847  70.3668221  80.1630015 117.2025789  70.7075845  80.7701276
 116.7090829  73.6517830  88.1795375 116.5635410  73.9658133  89.0719657
 116.2316033  74.2702730  87.6266274 118.5687212  70.6420378  88.2276265
 118.5548781  69.7461471  87.8908563 119.2859640  70.6491042  88.8614551
 120.4213343  71.0757718  90.2729392 120.1631120  71.9974789  90.2713723
 119.8898383  70.6788153  90.9629856 111.1836491  76.1923174  91.1183036
 110.6389959  76.9682982  91.2503311 112.0615841  76.5393979  90.9602158
 117.9724108  69.5234758  83.4963835 118.0940019  68.5951404  83.6954723
 117.6826150  69.5373444  82.5842150 120.8415298  67.2089669  86.6330555
 120.8636995  67.2729002  85.6782534 121.2583357  66.3694177  86.8271061
 111.9702513  75.3193071  94.0113193 111.2284249  75.4675706  94.5977824
 111.6495257  75.5801336  93.1479943 119.9146176  84.8609049  93.8093583
 120.2233302  84.6158196  94.6816283 120.7121658  85.0655687  93.3212454
 119.9366788  87.0146959  86.0398960 119.4971778  86.5223337  86.7331817
 120.6874905  86.4719926  85.7991035 112.4159127  83.2058499  86.0423588
 113.2417147  82.9062271  85.6622232 112.0653179  82.4366122  86.4913377
 117.3840660  82.5584968  88.1121262 116.7620669  81.8955673  87.8123489
 118.0545527  82.5846100  87.4294909 110.6167732  81.1244826  87.0012522
 109.7799640  80.6967000  86.8196523 110.5891377  81.3177269  87.9383313
 117.4565187  71.0366756  97.7053768 117.5053343  71.9128878  97.3231537
 117.9987701  70.4944149  97.1325411 116.9454167  81.1088891  81.5879722
 117.0942287  81.7924355  80.9346395 117.7520610  81.0893981  82.1029178
 119.6864476  71.7898128  94.4600126 118.8167785  72.0831694  94.1882715
 119.9223956  72.3738573  95.1807390 114.7006800  77.1354069  82.5940791
 114.4552842  76.2316399  82.7921001 114.8702714  77.1371219  81.6520269
 113.9702447  72.8682426  80.0926953 113.2771692  72.9426781  79.4366988
 113.7254199  72.1042770  80.6148469 120.4449572  83.6037021  79.0591470
 119.8723539  84.2227209  78.6061941 121.0182366  84.1536383  79.5931391
 119.0139288  72.8647811  76.3362407 118.1070743  72.5680923  76.4125121
 119.2915269  72.5677629  75.4696694 109.9317228  74.1854174  86.7861454
 109.6120013  73.3319482  86.4935828 109.3850656  74.4002752  87.5419421
 113.7097136  76.9016615  90.5030960 113.9283146  77.8333723  90.5218994
 114.1222910  76.5424589  91.2885764 120.6301354  67.4084700  82.4906649
 119.8202082  67.0631785  82.8661895 121.3185771  67.0992244  83.0794260
 118.5825001  72.4749821  99.8933709 118.4821728  73.4244178  99.8245800
 118.3646543  72.1468060  99.0209779 117.7838072  69.7234746  76.4774386
 118.6457236  70.0489644  76.7370204 117.9688417  68.9366242  75.9647452
 109.8005488  77.8057085  88.7554575 109.1068960  77.3911038  88.2424530
 110.5478479  77.8477622  88.1587994 118.4456271  75.9046960  98.7098771
 117.9623353  76.7047320  98.9162660 118.5317210  75.9154904  97.7566215
 111.7142231  77.7375339  86.6320590 111.6912919  77.8363027  85.6802473
 112.0242867  78.5840490  86.9537756 114.3729609  79.7951494  90.7467205
 115.3272862  79.7635437  90.6797136 114.1742132  79.3342118  91.5617430
 114.9628991  78.3652610  93.3138002 115.7821880  78.8596689  93.3372840
 115.2365798  77.4484578  93.2855570 112.7279837  85.3371114  87.7637402
 112.5934305  84.5771515  87.1975400 112.3111900  86.0612014  87.2966191
 115.8848963  86.2340431  87.9755845 115.7681347  87.1785863  87.8734535
 115.0641410  85.9313992  88.3641644 110.2163905  72.6990744  94.0130199
 110.8622769  72.1889698  94.5017424 110.0081056  73.4359426  94.5873625
 118.7367515  66.9630789  79.7654095 118.7246185  67.9072629  79.9222366
 119.6290937  66.7800934  79.4713557 116.9103477  86.8868693  91.1911773
 117.8130724  86.9192303  91.5078268 116.6840848  85.9569144  91.2058109
 118.6657079  85.6399679  87.8521852 117.7152710  85.6401541  87.7386224
 118.9689566  84.8932414  87.3357887 114.5561396  69.8458361  98.1105214
 115.4192858  69.4895166  98.3208538 113.9826807  69.5072256  98.7980618
 118.6279874  92.0452501  86.6286804 119.3150913  91.7314231  86.0407820
 118.4728002  92.9493866  86.3554056 118.2047850  90.1253094  88.9004271
 118.2431949  89.5916685  89.6941390 117.6988142  89.5988300  88.2815249
 121.4561486  96.4536744  87.0012522 120.6193394  96.0258918  86.8196523
 121.4285132  96.6469187  87.9383313 120.7710983  89.5146092  86.7861454
 120.4513767  88.6611400  86.4935828 120.2244411  89.7294670  87.5419421
 120.6399243  93.1349003  88.7554575 119.9462714  92.7202956  88.2424530
 121.3872234  93.1769540  88.1587994  74.1568417   2.1767879  70.4460597
  74.0792447   3.1275704  70.5249077  73.5530061   1.8313752  71.1035523
  71.7955247   4.9253273  74.5908799  72.0351845   5.5571797  75.2687817
  70.9524443   4.5741313  74.8774158  72.2700079   0.9501276  71.9207577
  71.6010454   1.4347403  71.4371617  72.1312949   1.1970496  72.8350956
  76.4105348   2.9845019  78.5190236  76.9623656   3.1476641  79.2839321
  76.7511541   3.5749457  77.8470260  69.3704821   1.0265566  74.4882709
  69.2359289   0.2665967  73.9220707  68.9536883   1.7506466  74.0211498
  72.5273947   1.9234883  74.7001152  72.4106331   2.8680315  74.5979842
  71.7066393   1.6208444  75.0886951  73.5528461   2.5763145  77.9157080
  74.4555707   2.6086755  78.2323575  73.3265831   1.6463596  77.9303416
  87.8524463   7.1182098  75.5774446  87.5142974   7.0023162  74.6894981
  88.7214231   6.7173263  75.5575452  83.7111278   8.9717574  71.5671337
  83.1476143   8.8807511  70.7987625  83.5963673   8.1517478  72.0473829
  88.3344246   8.2716949  81.5360651  88.3232886   7.8769748  80.6641155
  88.4964885   7.5383022  82.1294423  81.2575710  10.4668766  74.4055557
  82.0497002  10.1259590  73.9901857  81.4972360  10.5763741  75.3257711
  89.2910837  12.6388542  66.8785802  88.6398817  13.2242622  66.4919815
  90.0855200  13.1694737  66.9380839  83.2166464   9.7277679  67.2772936
  83.9897340   9.1806666  67.1385812  83.5691863  10.5921928  67.4887397
  85.0551507  11.0554061  80.4839835  84.7641373  11.9599692  80.3686502
  85.6908491  11.0970589  81.1983905  85.9807714   8.4330910  77.0741195
  86.5771286   8.2086932  76.3598158  86.0382685   7.6915655  77.6766643
  90.7686102  10.3278974  67.4154786  90.1331935  10.4013600  68.1275691
  90.4383508  10.9172572  66.7373865  85.2729031   7.7898451  67.1115761
  85.1565289   7.1143354  67.7796845  85.3831291   7.3030825  66.2947914
  87.6160572   7.2508598  70.8162450  87.2518779   6.7239219  71.5275372
  88.4727687   6.8607067  70.6428936  90.0141392  10.7415477  77.4789629
  89.7142115  11.6440515  77.3705436  89.6692451  10.4747660  78.3310782
  83.4653873   7.1929273  73.5126333  82.5404370   7.0605488  73.7204025
  83.7138286   7.9723493  74.0096276  80.8262684   6.8362547  74.3470123
  80.9555065   7.0897026  75.2609534  80.1460136   7.4290255  74.0274778
  84.9962172  17.5059797  70.4460597  84.9186201  18.4567622  70.5249077
  84.3923815  17.1605669  71.1035523  85.7425774   7.4873116  82.6639931
  86.4840458   8.0258160  82.3874754  85.0362759   8.1139405  82.8211482
  91.2181113   9.6302256  81.2612092  91.6264469   9.1884667  80.5166724
  90.4958375   9.0554884  81.5146285  91.5409928  10.1903447  75.0164381
  90.9118790  10.3549161  74.3140449  91.1535590  10.6045056  75.7875345
  95.4199160  11.1257885  72.3708745  94.7350198  11.5056786  71.8205778
  95.5043009  11.7353211  73.1040693  92.6750091   8.7717844  78.9704088
  92.8866987   9.4149604  78.2938469  92.6279840   7.9380160  78.5026018
  87.0937890   9.9277855  72.2814466  87.5576235  10.2065558  71.4919089
  86.8294688   9.0261300  72.0987557  83.9861971   9.4749337  75.2194229
  84.5563328   9.9036605  74.5811714  84.5770083   9.1931921  75.9178415
  79.7732110   4.3084560  74.3921165  78.9831164   4.5642089  73.9161275
  80.2643357   5.1232898  74.4973205  93.7895919  11.6489799  77.1426446
  94.6113363  11.2469986  76.8609127  93.7858322  11.5458033  78.0942561
  81.7246855   4.6729139  71.3504642  80.9278018   4.7847833  71.8688137
  81.4972447   5.0115791  70.4845532  87.5552523  11.1973842  79.2987156
  87.6196955  11.6594250  80.1345328  86.8463447  10.5671207  79.4269466
  78.0569813   4.5615050  76.8236156  78.3077851   5.4462060  77.0893732
  78.5929361   4.3819652  76.0511247  87.2700540  12.8641950  69.1666136
  87.1346215  13.7093486  69.5950984  87.8110353  13.0661228  68.4032070
  80.7229938  10.3817388  69.7394062  81.2354458  11.1760638  69.8899626
  81.3752651   9.6843678  69.6727663  82.5324823  13.4983144  71.8216815
  82.7091451  14.4201109  71.6337799  83.3281656  13.1841563  72.2511195
  81.8177179   5.5447776  81.6978978  81.7030694   4.6433033  81.9986077
  80.9621697   5.7911473  81.3463794  88.8969017  13.4865516  83.2966479
  88.4532871  12.7001895  82.9787383  89.5586230  13.6744667  82.6310369
  83.6556138  15.0161318  77.8227157  84.2063563  14.8878381  77.0504151
  82.8167614  15.3156207  77.4722050  90.9950255  13.7668316  81.3247880
  90.9768730  14.5877197  80.8328149  91.9170175  13.6422392  81.5498021
  87.4523309  11.2812446  82.1671388  87.9851646  10.5200734  81.9370696
  86.9237390  10.9886098  82.9095543  78.6878855   8.7106042  70.5153632
  79.5254077   9.1203051  70.2987340  78.8657122   7.7705484  70.4853826
  88.8176022  10.4098438  69.6790200  88.2897383   9.6751198  69.3663438
  88.3163524  11.1873115  69.4330169  93.7968868   8.6047459  74.7957247
  93.1392542   9.2946720  74.8837375  94.6009267   8.9943891  75.1391233
  86.9628622   8.2278649  62.6825173  86.0555684   7.9967902  62.8816322
  87.4599654   7.4316268  62.8699155  89.8696701  16.9376156  65.6021859
  89.1958400  17.2407853  66.2106817  90.2562523  17.7405236  65.2527316
  88.1416855   8.3291243  67.2049163  87.2328075   8.0450276  67.3021633
  88.1711939   8.7490322  66.3452470  93.3736123  11.9397833  70.9740331
  92.9198450  11.0988743  71.0305521  92.7430090  12.5759231  71.3115111
  91.8169062  13.7774330  71.9090149  92.1092036  14.3379387  71.1902515
  92.3267683  14.0702891  72.6643308  78.7105026   6.0496758  71.1864366
  78.5129426   5.4566118  70.4615432  78.1551690   5.7448968  71.9040304
  87.8392943   9.8699987  64.5437242  87.4012373   9.1535846  64.0842879
  88.5803384  10.0976102  63.9822333  86.7802687  14.5554681  72.9983602
  86.7378866  14.7815527  72.0692134  87.6965386  14.3218055  73.1469403
  95.9835438  10.2133711  75.6124832  96.4171944  10.1209000  76.4607886
  96.6967018  10.1891212  74.9744848  84.8968488  11.4317710  72.7945565
  85.6909086  10.9368030  72.5928140  84.1860180  10.9035573  72.4313271
  89.7163332  13.8135805  77.1457933  89.7700355  14.3826742  77.9135648
  88.8478114  13.9837690  76.7811970  81.2051251   5.5760792  68.8705318
  80.2748840   5.5145247  69.0875280  81.3008723   5.0536744  68.0741959
  96.8450987  10.2557412  78.1457717  97.0386877  11.1603222  78.3916992
  96.7451605   9.7964831  78.9796302  91.9066096  10.4064155  83.7198598
  91.7551602  10.1774706  82.8028682  91.8970775  11.3634756  83.7329943
  88.6751432   7.9796067  78.7044864  89.6043492   8.1307227  78.5313832
  88.2542462   8.0680088  77.8493511  87.4739764  12.0046732  76.4743402
  87.3350850  11.6365516  77.3469340  86.6854360  12.5194371  76.3027360
  88.0687916  17.1055828  67.8168939  88.2439672  16.6343871  68.6314561
  87.3820704  17.7321594  68.0450199  89.0244979  11.3828334  73.8632240
  88.6894812  11.3429104  74.7589890  88.5248925  10.7173050  73.3902650
  82.9989223   6.7895964  79.3884821  82.8609021   6.0576203  79.9896360
  83.9094147   6.7004865  79.1069009  91.9604171   8.7284369  64.1369299
  91.3433341   8.0031197  64.0402352  91.4920659   9.4893729  63.7936374
  85.6271524   6.5015924  78.8768501  86.3371142   5.8609116  78.8355119
  85.5840832   6.7528819  79.7994681  93.6158302  13.4383277  81.7975080
  93.5570849  12.7542497  81.1305663  94.0177821  14.1802267  81.3455706
  82.6349001  20.2545191  74.5908799  82.8745599  20.8863715  75.2687817
  81.7918198  19.9033231  74.8774158  93.6175710  11.4022861  80.0289060
  92.7302488  11.0648783  80.1515458  94.1874261  10.6705892  80.2657825
  75.2704857   7.7346953  73.3532111  75.9575897   7.4208683  72.7653126
  75.1152986   8.6388317  73.0799362  87.1476863  16.0624313  76.9950303
  87.0747035  16.8679285  77.5069607  86.7054256  16.2616279  76.1698324
  86.9366643  15.2996083  70.5053124  86.1534165  15.8417764  70.5991349
  87.6359388  15.8170063  70.9047365  89.6075547  15.9611147  79.1508461
  90.3203519  16.5958612  79.0784363  89.1165575  16.0575013  78.3348463
  91.3293074   9.8662400  70.7225753  90.3949352   9.9863863  70.5530457
  91.5069742   8.9634867  70.4585763  84.6587460  13.7105591  79.9714032
  85.3596920  14.3442074  80.1243426  84.1882575  14.0520322  79.2109671
  92.7841856  12.0523541  68.2561939  93.0601700  11.9380135  69.1655813
  91.9146355  11.6541026  68.2174112  89.4195920  16.3009892  71.8994753
  89.6018315  15.4831547  72.3622505  90.2428906  16.5177584  71.4619643
  89.7538086  15.2278077  69.1609801  90.2825852  14.7170531  68.5479963
  90.0166305  14.9120607  70.0255334  88.5076319   7.0070009  84.2832620
  87.8316956   6.9064139  84.9534995  89.3303953   6.8509223  84.7468617
  80.2555178  13.2441946  76.9045135  80.8408615  12.4985634  77.0373039
  80.0580017  13.5545903  77.7881799  83.1093833  16.2793193  71.9207577
  82.4404209  16.7639321  71.4371617  82.9706703  16.5262414  72.8350956
  74.8472833   5.8147546  75.6249578  74.8856932   5.2811137  76.4186696
  74.3413126   5.2882752  75.0060555  87.2499102  18.3136937  78.5190236
  87.8017410  18.4768558  79.2839321  87.5905295  18.9041375  77.8470260
  92.1009976  13.1398194  84.3738890  92.6449880  13.7528153  83.8793845
  91.5196821  13.6977773  84.8905903  78.4781411   4.5411648  68.7003509
  78.7734852   3.6322327  68.6470563  77.5769446   4.5199388  68.3784512
  90.3867489  16.2618912  75.5053918  90.2618629  15.4608652  74.9964863
  91.0446580  16.7565106  75.0167888  92.4502398  14.0627933  77.1333468
  91.5032733  13.9433284  77.0611795  92.7985171  13.1750431  77.2159729
  89.4548831  13.8580649  73.3337820  89.3073793  12.9297356  73.5145390
  90.2802325  13.8800739  72.8494895  93.0582953  14.6809207  74.4202693
  93.9829500  14.4752069  74.2827144  92.8898256  14.4325609  75.3292034
  92.8478269  15.1994875  69.7764784  93.0215147  14.6341297  69.0238637
  93.3407160  15.9995770  69.5944274  78.6655229   7.2109544  77.8428343
  78.1208697   7.9869352  77.9748617  79.5434579   7.5580348  77.6847465
  93.8353442  14.5161639  66.8761683  94.5304346  15.1368332  67.0948997
  94.1776592  13.6656991  67.1514060  79.4521251   6.3379440  80.7358500
  78.7102987   6.4862076  81.3223130  79.1313995   6.5987706  79.8725249
  95.7344865  11.9661345  68.4049013  96.2596189  12.3048618  67.6798333
  95.6467217  11.0308360  68.2212148  87.3964913  15.8795418  80.5338890
  87.7052040  15.6344565  81.4061590  88.1940395  16.0842057  80.0457760
  87.4185525  18.0333328  72.7644267  86.9790516  17.5409707  73.4577123
  88.1693642  17.4906296  72.5236342  79.8977864  14.2244869  72.7668895
  80.7235884  13.9248641  72.3867538  79.5471916  13.4552491  73.2158683
  84.8659398  13.5771337  74.8366568  84.2439407  12.9142042  74.5368796
  85.5364264  13.6032469  74.1540216  78.0986469  12.1431195  73.7257828
  77.2618378  11.7153370  73.5441829  78.0710115  12.3363639  74.6628619
  95.4238771  12.5994248  83.7100211  94.6334314  12.5818387  83.1704711
  95.1872125  13.1382542  84.4649248  84.4272904  12.1275261  68.3125029
  84.5761025  12.8110725  67.6591702  85.2339348  12.1080351  68.8274484
  97.0454843  11.8683656  81.2674961  96.7539651  12.2313637  82.1038422
  96.4326974  11.1550665  81.0888293  82.1825537   8.1540438  69.3186098
  81.9371579   7.2502768  69.5166308  82.3521452   8.1557589  68.3765576
  87.9268310  14.6223391  65.7836776  87.3542277  15.2413578  65.3307248
  88.5001104  15.1722753  66.3176698  91.1465570  14.9060541  66.9145358
  92.0796243  14.8406103  67.1178234  91.0588783  15.7416808  66.4559891
  93.7753586  14.2226411  63.8749306  93.6967218  13.8886275  64.7685064
  94.5963253  14.7148179  63.8740778  88.1953801  10.0101950  84.5853486
  89.1156810  10.1880549  84.7793532  88.1603384   9.0657995  84.4333185
  77.4135966   5.2040544  73.5106760  77.0938750   4.3505852  73.2181134
  76.8669394   5.4189122  74.2664728  81.1915874   7.9202985  77.2276267
  81.4101883   8.8520092  77.2464301  81.6041647   7.5610959  78.0131071
  77.2824226   8.8243455  75.4799882  76.5887697   8.4097408  74.9669836
  78.0297217   8.8663992  74.8833301  85.9275009   6.9233329  85.4344077
  85.4442091   7.7233689  85.6407966  86.0135948   6.9341274  84.4811521
  79.1960969   8.7561709  73.3565897  79.1731657   8.8549396  72.4047780
  79.5061605   9.6026860  73.6783063  81.8548346  10.8137864  77.4712511
  82.8091600  10.7821806  77.4042443  81.6560870  10.3528488  78.2862737
  82.4447729   9.3838980  80.0383309  83.2640618   9.8783059  80.0618146
  82.7184536   8.4670948  80.0100876  80.2098575  16.3557483  74.4882709
  80.0753043  15.5957884  73.9220707  79.7930637  17.0798383  74.0211498
  91.3457538  11.5394407  63.4959284  92.0493388  11.7444409  64.1116940
  90.6220187  12.1071169  63.7608368  83.3667701  17.2526800  74.7001152
  83.2500085  18.1972233  74.5979842  82.5460147  16.9500362  75.0886951
  93.2544236  11.9776936  65.5457744  94.0889840  11.5458135  65.3635219
  93.0928579  11.8058950  66.4734639  92.9090128   8.4809049  66.9114084
  92.8538932   8.3153321  65.9702528  92.2836183   9.1885082  67.0676273
  77.6982643   3.7177114  80.7375506  78.3441506   3.2076068  81.2262731
  77.4899794   4.4545795  81.3118931  90.2236035  10.7857961  86.2367646
  91.0927195  10.9598614  85.8754281  89.7442786  11.6052378  86.1143376
  84.3922215  17.9055062  77.9157080  85.2949462  17.9378673  78.2323575
  84.1659585  16.9755513  77.9303416  86.1475817  16.6586049  74.5767159
  85.1971448  16.6587910  74.4631531  86.4508303  15.9118783  74.0603193
 101.8828511  22.4946587  75.6412921 102.5206921  22.3753335  74.9376261
 101.7649354  23.4427431  75.7000873  98.6918217  22.4474015  75.5774446
  98.3536729  22.3315080  74.6894981  99.5607985  22.0465180  75.5575452
  94.5505033  24.3009492  71.5671337  93.9869898  24.2099429  70.7987625
  94.4357428  23.4809396  72.0473829  99.1738000  23.6008867  81.5360651
  99.1626641  23.2061665  80.6641155  99.3358639  22.8674940  82.1294423
  92.0969465  25.7960683  74.4055557  92.8890757  25.4551508  73.9901857
  92.3366115  25.9055658  75.3257711 100.1304591  27.9680459  66.8785802
  99.4792571  28.5534540  66.4919815 100.9248954  28.4986654  66.9380839
  94.0560219  25.0569597  67.2772936  94.8291095  24.5098584  67.1385812
  94.4085617  25.9213846  67.4887397  95.8945261  26.3845979  80.4839835
  95.6035127  27.2891610  80.3686502  96.5302245  26.4262506  81.1983905
  96.8201468  23.7622827  77.0741195  97.4165040  23.5378850  76.3598158
  96.8776440  23.0207573  77.6766643  96.3926496  21.2162263  64.9091386
  96.6452017  20.6943784  64.1474849  95.4551055  21.0528408  65.0118070
 101.4369779  20.2198041  72.7166129 102.2232868  19.8017464  72.3656546
 101.7008484  21.1244133  72.8847778 101.6079857  25.6570891  67.4154786
 100.9725690  25.7305518  68.1275691 101.2777263  26.2464490  66.7373865
 106.8378206  20.1573274  73.6199108 107.5703378  19.5872491  73.8536937
 106.0817562  19.7694875  74.0605613  96.1122785  23.1190369  67.1115761
  95.9959043  22.4435272  67.7796845  96.2225045  22.6322743  66.2947914
  98.4554326  22.5800516  70.8162450  98.0912533  22.0531137  71.5275372
  99.3121442  22.1898985  70.6428936 104.3603627  13.8694848  78.0793716
 104.0286951  14.7390259  77.8554931 103.7649240  13.5531132  78.7587747
  98.0959813  17.6090415  65.8123799  98.2634215  18.4770652  66.1794270
  97.9056982  17.7717697  64.8885088 100.8535146  26.0707394  77.4789629
 100.5535869  26.9732433  77.3705436 100.5086206  25.8039578  78.3310782
  94.3047628  22.5221191  73.5126333  93.3798124  22.3897405  73.7204025
  94.5532041  23.3015410  74.0096276 104.2532290  18.5889935  75.1587066
 103.3449167  18.5205343  74.8645827 104.2019886  19.0661879  75.9868892
  98.0749034  20.0648073  66.7970465  97.9548659  20.5105124  67.6355946
  97.3801622  20.4133391  66.2384004  91.6656439  22.1654465  74.3470123
  91.7948820  22.4188944  75.2609534  90.9853890  22.7582173  74.0274778
  95.8355926  32.8351715  70.4460597  95.7579956  33.7859540  70.5249077
  95.2317570  32.4897587  71.1035523  98.3273156  20.0079580  83.1021964
  97.5506490  20.5673500  83.0924828  98.9663719  20.4936363  83.6236834
 106.1193936  16.7906373  76.9364940 105.4768317  17.0838906  76.2904735
 105.6148865  16.6759293  77.7418137 103.7734100  20.5369546  67.6250800
 104.6851956  20.7696933  67.4498497 103.2643747  21.1206590  67.0625878
  96.5819528  22.8165033  82.6639931  97.3234212  23.3550077  82.3874754
  95.8756514  23.4431322  82.8211482 102.0574868  24.9594174  81.2612092
 102.4658224  24.5176584  80.5166724 101.3352129  24.3846801  81.5146285
  98.4105938  19.8966781  78.6345649  99.2567133  20.3206194  78.7780298
  98.3504575  19.2400405  79.3284212 102.3803682  25.5195365  75.0164381
 101.7512545  25.6841079  74.3140449 101.9929344  25.9336974  75.7875345
 101.5605383  17.5571149  80.2926823 101.3166315  18.3113210  79.7561098
 101.8365314  17.9356497  81.1274070 103.5143846  24.1009761  78.9704088
 103.7260741  24.7441521  78.2938469 103.4673594  23.2672078  78.5026018
 101.1170075  16.7127582  75.8740660 100.2554554  17.0108836  76.1657398
 101.1432510  16.9297981  74.9421693  97.9331644  25.2569773  72.2814466
  98.3969990  25.5357476  71.4919089  97.6688442  24.3553217  72.0987557
  94.8255725  24.8041254  75.2194229  95.3957082  25.2328523  74.5811714
  95.4163837  24.5223839  75.9178415  96.8700530  21.3792925  69.0904031
  97.5724574  21.8313969  69.5577958  96.5381159  20.7376744  69.7183924
  95.3180892  19.9704682  83.4655241  94.6879552  20.6520962  83.6990637
  95.2116980  19.8587763  82.5208379  90.6125864  19.6376478  74.3921165
  89.8224918  19.8934006  73.9161275  91.1037112  20.4524816  74.4973205
 104.6289674  26.9781717  77.1426446 105.4507118  26.5761904  76.8609127
 104.6252077  26.8749951  78.0942561  92.5640610  20.0021057  71.3504642
  91.7671773  20.1139751  71.8688137  92.3366202  20.3407709  70.4845532
  98.3946277  26.5265760  79.2987156  98.4590710  26.9886167  80.1345328
  97.6857201  25.8963125  79.4269466  88.8963567  19.8906968  76.8236156
  89.1471606  20.7753978  77.0893732  89.4323116  19.7111570  76.0511247
 112.7195667  23.3220465  73.4911417 111.9659375  22.7527863  73.3355422
 112.8543208  23.2883130  74.4382052  98.1094295  28.1933868  69.1666136
  97.9739970  29.0385403  69.5950984  98.6504107  28.3953145  68.4032070
  94.5961635  14.2725447  85.8280492  94.2028580  13.7191646  86.5028136
  95.4127775  14.5836026  86.2187009  91.5623692  25.7109306  69.7394062
  92.0748213  26.5052556  69.8899626  92.2146405  25.0135596  69.6727663
  93.3718577  28.8275062  71.8216815  93.5485205  29.7493027  71.6337799
  94.1675411  28.5133481  72.2511195  97.5129596  15.6883327  83.4200748
  98.2539309  16.2890480  83.3405211  97.7447518  14.9460964  82.8618791
  92.6570934  20.8739694  81.6978978  92.5424449  19.9724951  81.9986077
  91.8015451  21.1203391  81.3463794  99.7362771  28.8157434  83.2966479
  99.2926626  28.0293813  82.9787383 100.3979985  29.0036585  82.6310369
  94.4949892  30.3453236  77.8227157  95.0457318  30.2170299  77.0504151
  93.6561368  30.6448125  77.4722050 101.8344009  29.0960234  81.3247880
 101.8162485  29.9169115  80.8328149 102.7563929  28.9714309  81.5498021
  98.2917064  26.6104364  82.1671388  98.8245400  25.8492652  81.9370696
  97.7631145  26.3178015  82.9095543 101.4586759  11.7164430  77.6965030
 101.1151028  12.6066071  77.6204141 101.8265721  11.5266087  76.8334615
  89.5272609  24.0397960  70.5153632  90.3647831  24.4494968  70.2987340
  89.7050877  23.0997402  70.4853826 101.4237041  21.7073041  66.2037465
 100.9083665  22.4777645  66.4425852 101.1514350  21.0338177  66.8270526
  99.0084152  16.5522741  71.2622703  98.1525749  16.1629592  71.0828342
  99.4211104  16.6314702  70.4022489 100.5383299  14.0869085  75.6614263
 100.0348094  14.0499220  74.8482068 100.8313906  14.9961827  75.7210920
  96.7826185  14.1707814  74.6680445  97.6479182  13.9750623  74.3086334
  96.8503694  13.9418166  75.5949802 106.3971315  24.4605395  68.1390639
 105.6200758  24.1216555  67.6945801 107.0762796  24.4658018  67.4645604
 101.2123344  19.5800133  68.0297246 100.9073480  19.8946282  68.8807389
 102.1653787  19.6581553  68.0724579  99.6569776  25.7390356  69.6790200
  99.1291138  25.0043116  69.3663438  99.1557279  26.5165032  69.4330169
 104.6362622  23.9339377  74.7957247 103.9786297  24.6238638  74.8837375
 105.4403021  24.3235808  75.1391233  94.3888504  16.4010022  72.0396812
  94.9632256  16.1785204  71.3070005  94.9759486  16.4698717  72.7925413
 103.4468081  22.2883749  72.8461188 103.9599963  22.9213741  73.3482898
 104.0969305  21.6884945  72.4804548  94.7158091  18.4314483  66.0592697
  93.8795403  18.7689170  66.3801972  94.5762861  18.2963463  65.1219834
  96.6911172  13.2751271  70.7671881  96.0375584  12.9600288  70.1428496
  96.6491646  12.6527012  71.4931704  97.8022376  23.5570566  62.6825173
  96.8949438  23.3259820  62.8816322  98.2993408  22.7608186  62.8699155
 100.7090455  32.2668073  65.6021859 100.0352154  32.5699770  66.2106817
 101.0956277  33.0697154  65.2527316  99.9248912  19.7633205  75.0919529
  99.0071473  19.9848152  74.9341217 100.3409056  19.8379515  74.2331236
 100.7083960  21.1624620  70.2222209 101.4555779  21.6746018  69.9129331
 100.9775549  20.8408673  71.0826603  98.9810610  23.6583161  67.2049163
  98.0721829  23.3742194  67.3021633  99.0105694  24.0782240  66.3452470
 104.2129877  27.2689751  70.9740331 103.7592204  26.4280661  71.0305521
 103.5823844  27.9051149  71.3115111 103.1562797  18.1981737  72.2040998
 102.4185554  17.6859123  72.5351241 103.4089570  17.7582118  71.3924275
  89.5498780  21.3788675  71.1864366  89.3523180  20.7858036  70.4615432
  88.9945444  21.0740885  71.9040304  97.5295504  21.2711782  73.3058959
  97.5844114  20.3185618  73.2301435  96.7186706  21.4271221  73.7900257
  98.6786698  25.1991905  64.5437242  98.2406128  24.4827764  64.0842879
  99.4197139  25.4268020  63.9822333  95.4687864  19.8888842  71.0649338
  94.6555729  20.1883012  71.4714530  95.9646858  19.4944530  71.7823820
 101.0662076  20.3530666  79.8964231 101.4211463  20.5802139  80.7558697
 101.7134207  20.6849043  79.2741487 106.7959812  23.4749102  70.6013560
 106.6577711  23.6650698  69.6734750 106.4396031  24.2368485  71.0581612
  94.9601939  17.4607197  76.6810573  95.6001318  17.3195956  75.9833536
  94.1279469  17.1741710  76.3049174 106.8229192  25.5425629  75.6124832
 107.2565699  25.4500918  76.4607886 107.5360773  25.5183129  74.9744848
  95.7362242  26.7609627  72.7945565  96.5302841  26.2659948  72.5928140
  95.0253935  26.2327491  72.4313271 100.5557087  29.1427723  77.1457933
 100.6094109  29.7118659  77.9135648  99.6871868  29.3129608  76.7811970
  92.0445006  20.9052709  68.8705318  91.1142594  20.8437165  69.0875280
  92.1402478  20.3828662  68.0741959  91.9630555  17.4307522  71.4583559
  92.2237372  18.3452855  71.3492720  92.7847727  16.9631965  71.6080172
  93.4355480  18.8445279  78.6282384  94.1078534  18.6362641  77.9795033
  92.6085267  18.6467365  78.1887616 107.6844742  25.5849330  78.1457717
 107.8780632  26.4895140  78.3916992 107.5845360  25.1256749  78.9796302
  99.3381052  15.4707220  80.6448045  98.6908967  16.1697170  80.5512521
 100.1082068  15.9043364  81.0124293 102.7459850  25.7356072  83.7198598
 102.5945357  25.5066624  82.8028682 102.7364530  26.6926674  83.7329943
  99.5145187  23.3087985  78.7044864 100.4437247  23.4599145  78.5313832
  99.0936217  23.3972006  77.8493511  98.3133518  27.3338649  76.4743402
  98.1744604  26.9657434  77.3469340  97.5248115  27.8486289  76.3027360
  98.9081670  32.4347746  67.8168939  99.0833426  31.9635789  68.6314561
  98.2214458  33.0613512  68.0450199  99.8638734  26.7120252  73.8632240
  99.5288566  26.6721022  74.7589890  99.3642679  26.0464968  73.3902650
  93.8382978  22.1187882  79.3884821  93.7002776  21.3868121  79.9896360
  94.7487901  22.0296782  79.1069009 102.7997925  24.0576286  64.1369299
 102.1827096  23.3323115  64.0402352 102.3314414  24.8185647  63.7936374
  96.4665278  21.8307841  78.8768501  97.1764897  21.1901034  78.8355119
  96.4234586  22.0820736  79.7994681 104.4552057  28.7675195  81.7975080
 104.3964603  28.0834415  81.1305663 104.8571575  29.5094185  81.3455706
  95.1794212  18.8173059  80.6964140  94.6431569  18.3663798  81.3485736
  94.5910921  18.9518968  79.9534604  93.4742756  35.5837109  74.5908799
  93.7139354  36.2155633  75.2687817  92.6311952  35.2325149  74.8774158
  94.5896471  18.2761711  63.2590604  93.7125938  18.1550512  62.8952850
  95.0654224  17.4847789  63.0069492 104.4569464  26.7314779  80.0289060
 103.5696243  26.3940701  80.1515458 105.0268015  25.9997810  80.2657825
  86.1098611  23.0638871  73.3532111  86.7969651  22.7500601  72.7653126
  85.9546740  23.9680235  73.0799362  90.9133333  17.9529067  77.7817135
  90.8291522  17.3454737  77.0467545  90.0916040  18.4438085  77.7826631
  97.9870618  31.3916231  76.9950303  97.9140789  32.1971203  77.5069607
  97.5448011  31.5908197  76.1698324  97.7760397  30.6288001  70.5053124
  96.9927919  31.1709681  70.5991349  98.4753142  31.1461981  70.9047365
 101.0857047  16.4382631  73.1487330 101.5825747  15.6852593  72.8288400
 100.3144029  16.4746947  72.5830539 108.9386805  22.1422996  74.7905621
 108.9276681  23.0247712  74.4199554 108.0704184  21.7894547  74.5960158
 100.4469301  31.2903065  79.1508461 101.1597273  31.9250530  79.0784363
  99.9559330  31.3866931  78.3348463 102.1686828  25.1954318  70.7225753
 101.2343107  25.3155780  70.5530457 102.3463496  24.2926785  70.4585763
  97.6692016  18.5800014  72.8759014  97.2989804  18.0271054  73.5639920
  98.1651109  17.9758147  72.3234014 105.5559379  21.0371637  71.2575787
 106.0219832  21.8699629  71.1836090 106.0066880  20.5716619  71.9621046
  95.4981215  29.0397509  79.9714032  96.1990674  29.6733992  80.1243426
  95.0276330  29.3812240  79.2109671 103.6235610  27.3815458  68.2561939
 103.8995454  27.2672053  69.1655813 102.7540109  26.9832943  68.2174112
 103.5276042  13.4052224  75.2966689 102.6139122  13.6356451  75.4648895
 103.9569144  13.4890668  76.1480721 103.2982501  21.5942116  77.7966583
 102.6453951  21.8418024  77.1419035 103.6762881  20.7806254  77.4629060
 100.2589675  31.6301809  71.8994753 100.4412069  30.8123465  72.3622505
 101.0822661  31.8469501  71.4619643 100.5931840  30.5569994  69.1609801
 101.1219606  30.0462449  68.5479963 100.8560060  30.2412525  70.0255334
  99.3470074  22.3361927  84.2832620  98.6710711  22.2356056  84.9534995
 100.1697708  22.1801141  84.7468617  91.0948933  28.5733864  76.9045135
  91.6802370  27.8277552  77.0373039  90.8973771  28.8837820  77.7881799
  93.9487588  31.6085111  71.9207577  93.2797963  32.0931239  71.4371617
  93.8100458  31.8554331  72.8350956  85.6866587  21.1439464  75.6249578
  85.7250687  20.6103055  76.4186696  85.1806880  20.6174669  75.0060555
  98.0892857  33.6428855  78.5190236  98.6411165  33.8060476  79.2839321
  98.4299050  34.2333292  77.8470260  93.0657350  15.9904004  79.1212120
  93.1298676  16.8518835  78.7089518  93.0024470  15.3778006  78.3884479
  92.5409622  18.0627137  82.7685155  93.1681661  17.6804214  83.3822679
  91.6837541  17.8441339  83.1340847 102.9403731  28.4690112  84.3738890
 103.4843635  29.0820070  83.8793845 102.3590576  29.0269690  84.8905903
  89.3175165  19.8703566  68.7003509  89.6128606  18.9614244  68.6470563
  88.4163201  19.8491305  68.3784512 101.2261244  31.5910830  75.5053918
 101.1012383  30.7900570  74.9964863 101.8840335  32.0857023  75.0167888
  92.8469412  17.9459563  74.6831058  92.1255998  18.5595530  74.5438531
  93.6362668  18.4817327  74.6047704 103.2896152  29.3919850  77.1333468
 102.3426488  29.2725201  77.0611795 103.6378925  28.5042348  77.2159729
  95.6495726  15.2813989  80.9571710  96.1730127  15.5276286  81.7198019
  95.4308059  16.1134024  80.5374847  91.0463007  17.5517664  68.8242835
  90.7175713  16.6715043  68.6417940  91.4002377  17.4965332  69.7119224
  94.1604830  17.8390633  69.1918312  94.5000902  18.3676555  68.4696921
  94.6076950  18.1771040  69.9676879 103.8976707  30.0101125  74.4202693
 104.8223255  29.8043986  74.2827144 103.7292011  29.7617526  75.3292034
  96.8548271  16.2227684  78.6421380  96.5145091  15.4235497  79.0442060
  96.1487277  16.5229395  78.0698213  97.5064742  13.3076997  77.0948703
  98.3290812  12.8337475  76.9727594  97.7502806  14.0867480  77.5947390
  96.1472977  16.3365255  67.3911605  96.8681339  16.7146508  66.8875322
  95.5238281  17.0554132  67.4946583 100.2904100  17.0410404  68.3269937
 100.5067714  17.9235042  68.0258766  99.8098167  16.6496617  67.5975579
  95.0303321  19.9996117  74.9040682  94.8847902  20.3136420  75.7964963
  94.5528525  20.6181018  74.3511581  96.8899704  16.9898665  74.9521571
  96.8761273  16.0939759  74.6153869  97.6072132  16.9969329  75.5859858
  98.7425835  17.4236005  76.9974699  98.4843613  18.3453076  76.9959029
  98.2110875  17.0266440  77.6875163 103.6872024  30.5286793  69.7764784
 103.8608901  29.9633215  69.0238637 104.1800915  31.3287687  69.5944274
  89.5048983  22.5401462  77.8428343  88.9602451  23.3161270  77.9748617
  90.3828333  22.8872266  77.6847465  96.2936600  15.8713046  70.2209142
  96.4152511  14.9429692  70.4200029  96.0038642  15.8851732  69.3087457
  99.1627790  13.5567956  73.3575861  99.1849487  13.6207289  72.4027841
  99.5795849  12.7172465  73.5516368 109.5411415  23.2923216  71.3955084
 109.9842561  22.5430541  70.9974207 108.6637925  23.2833352  71.0128816
  90.2915005  21.6671358  80.7358500  89.5496741  21.8153993  81.3223130
  89.9707749  21.9279624  79.8725249 106.5738619  27.2953263  68.4049013
 107.0989943  27.6340535  67.6798333 106.4860972  26.3600278  68.2212148
  98.2358668  31.2087336  80.5338890  98.5445794  30.9636483  81.4061590
  99.0334150  31.4133975  80.0457760  98.2579280  33.3625246  72.7644267
  97.8184270  32.8701624  73.4577123  99.0087397  32.8198213  72.5236342
  90.7371619  29.5536787  72.7668895  91.5629639  29.2540559  72.3867538
  90.3865671  28.7844409  73.2158683  95.7053152  28.9063255  74.8366568
  95.0833161  28.2433960  74.5368796  96.3758019  28.9324387  74.1540216
  88.9380224  27.4723113  73.7257828  88.1012132  27.0445287  73.5441829
  88.9103869  27.6655556  74.6628619  95.7777680  17.3845043  84.4299074
  95.8265835  18.2607166  84.0476844  96.3200194  16.8422436  83.8570717
 106.2632525  27.9286166  83.7100211 105.4728069  27.9110305  83.1704711
 106.0265880  28.4674460  84.4649248 106.3830400  24.7778633  81.0232940
 106.4328405  24.6128640  81.9648463 106.2744324  23.9105892  80.6330821
  95.2666659  27.4567178  68.3125029  95.4154779  28.1402643  67.6591702
  96.0733102  27.4372268  68.8274484 103.6734163  20.7609561  82.3392247
 104.5744025  20.6216025  82.0476244 103.7482137  20.9264015  83.2790424
  98.0076968  18.1376415  81.1845433  97.1380277  18.4309981  80.9128021
  98.2436448  18.7216860  81.9052697 107.8848597  27.1975574  81.2674961
 107.5933405  27.5605555  82.1038422 107.2720728  26.4842582  81.0888293
 109.0844279  24.7628454  73.7877532 109.9191171  25.2018258  73.9515092
 109.2203408  24.2867107  72.9685777 106.1335785  22.3208189  79.7355019
 106.6089907  22.5135835  78.9273871 105.2101351  22.3767375  79.4898403
  93.0219292  23.4832356  69.3186098  92.7765334  22.5794686  69.5166308
  93.1915206  23.4849506  68.3765576 100.7116002  14.3556032  78.7010853
 101.2297946  15.0917059  78.3757342 100.3571135  14.6620026  79.5357612
  92.2914939  19.2160713  66.8172259  91.5984184  19.2905068  66.1612295
  92.0466691  18.4521057  67.3393776  98.7662064  29.9515309  65.7836776
  98.1936032  30.5705496  65.3307248  99.3394858  30.5014670  66.3176698
 104.8337454  19.1973949  77.9683325 105.7854877  19.2972046  77.9895549
 104.6640905  18.4052217  78.4781409 102.8551834  16.2829532  78.1542726
 102.2601766  16.5634545  77.4589215 102.5701531  16.7723433  78.9259467
 101.9859324  30.2352459  66.9145358 102.9189997  30.1698020  67.1178234
 101.8982537  31.0708726  66.4559891 104.6147341  29.5518329  63.8749306
 104.5360972  29.2178193  64.7685064 105.4357008  30.0440097  63.8740778
 107.3125532  22.4180068  77.0825625 107.2801852  21.4796069  77.2685308
 107.9226156  22.4964105  76.3491450  99.1508863  21.2876121  63.1252829
 100.0967968  21.1582330  63.1941247  98.7723108  20.5490783  63.6022257
 107.4620021  19.2091112  77.1283908 106.9459069  18.4249569  76.9413837
 108.3459969  18.8809829  77.2930427 105.1230748  12.9532127  73.0879720
 104.9255569  12.6447216  73.9723052 105.7330453  13.6793766  73.2177650
 113.1302082  23.4796075  76.2231661 113.8605470  23.2181363  76.7839365
 112.5209027  22.7424797  76.2633729 111.2117379  21.6203938  76.8206113
 110.4850543  21.4859903  76.2122604 110.7964666  21.9280766  77.6262831
  99.0347556  25.3393868  84.5853486  99.9550565  25.5172467  84.7793532
  98.9997139  24.3949913  84.4333185  97.3351780  19.2126098  63.0607714
  96.4283236  18.9159211  63.1370428  97.6127761  18.9155916  62.1942000
  88.2529721  20.5332461  73.5106760  87.9332505  19.6797769  73.2181134
  87.7063149  20.7481039  74.2664728  92.0309628  23.2494902  77.2276267
  92.2495638  24.1812010  77.2464301  92.4435402  22.8902877  78.0131071
  98.9513846  13.7562988  69.2151955  98.1414574  13.4110072  69.5907201
  99.6398263  13.4470531  69.8039567 100.8804394  12.8341034  70.8376252
 101.4335433  13.2536488  71.4966275 101.1174481  11.9076782  70.8799208
  96.9037493  18.8228108  86.6179016  96.8034220  19.7722465  86.5491107
  96.6859035  18.4946347  85.7455086  96.1050565  16.0713033  63.2019693
  96.9669729  16.3967931  63.4615510  96.2900909  15.2844529  62.6892759
  88.1217981  24.1535373  75.4799882  87.4281452  23.7389326  74.9669836
  88.8690972  24.1955909  74.8833301 104.2583201  14.9441559  70.3454916
 103.6781870  15.6026364  69.9632969 103.9919134  14.1218904  69.9342334
 102.7086768  14.3446617  72.5476236 103.2086546  14.4563152  71.7390555
 103.3522376  14.0407670  73.1877045  96.7668763  22.2525247  85.4344077
  96.2835845  23.0525607  85.6407966  96.8529702  22.2633192  84.4811521
  90.0354723  24.0853626  73.3565897  90.0125411  24.1841314  72.4047780
  90.3455360  24.9318777  73.6783063  92.6942101  26.1429782  77.4712511
  93.6485354  26.1113724  77.4042443  92.4954625  25.6820405  78.2862737
  93.2841483  24.7130898  80.0383309  94.1034372  25.2074976  80.0618146
  93.5578291  23.7962866  80.0100876 103.0408079  17.1041650  69.4011264
 102.1533934  17.3891300  69.1831459 103.4562068  16.9435413  68.5538541
 106.3922615  17.1288171  73.1165604 107.1683006  17.6184623  73.3890220
 105.6670750  17.5546225  73.5737473 108.8295174  17.8415790  74.1739544
 109.4239665  17.6011526  73.4632852 108.9021758  17.1222921  74.8013081
  91.0492330  31.6849401  74.4882709  90.9146798  30.9249802  73.9220707
  90.6324392  32.4090301  74.0211498 102.1851293  26.8686325  63.4959284
 102.8887143  27.0736327  64.1116940 101.4613941  27.4363086  63.7608368
 103.0149103  22.6196186  69.6161555 102.9584304  23.0764737  68.7769187
 103.5677445  21.8586870  69.4384397 106.8253909  18.4085918  70.4411674
 106.5690843  18.0082553  71.2719882 106.2006777  19.1229712  70.3161813
 111.1366247  21.1481991  72.9482965 110.5765805  21.2175180  73.7214527
 110.5309750  20.9722976  72.2282462 104.0937990  27.3068854  65.5457744
 104.9283594  26.8750052  65.3635219 103.9322333  27.1350867  66.4734639
 103.7483882  23.8100967  66.9114084 103.6932686  23.6445238  65.9702528
 103.1229938  24.5177000  67.0676273  88.5376397  19.0469031  80.7375506
  89.1835261  18.5367985  81.2262731  88.3293548  19.7837713  81.3118931
 101.0629789  26.1149879  86.2367646 101.9320949  26.2890531  85.8754281
 100.5836541  26.9344296  86.1143376  97.0580008  13.3109076  66.4899402
  97.0458678  14.2550916  66.6467673  97.9503430  13.1279221  66.1958863
  95.2315970  33.2346980  77.9157080  96.1343216  33.2670590  78.2323575
  95.0053340  32.3047431  77.9303416  96.9869572  31.9877966  74.5767159
  96.0365203  31.9879828  74.4631531  97.2902058  31.2410701  74.0603193
  92.8773888  16.1936649  84.8350520  93.7405350  15.8373453  85.0453845
  92.3039299  15.8550543  85.5225924 112.7222265  37.8238505  75.6412921
 113.3600675  37.7045252  74.9376261 112.6043108  38.7719349  75.7000873
 109.5311972  37.7765933  75.5774446 109.1930483  37.6606998  74.6894981
 110.4001740  37.3757098  75.5575452 105.3898787  39.6301409  71.5671337
 104.8263652  39.5391346  70.7987625 105.2751182  38.8101314  72.0473829
 110.0131754  38.9300785  81.5360651 110.0020395  38.5353583  80.6641155
 110.1752394  38.1966857  82.1294423 102.9363219  41.1252601  74.4055557
 103.7284511  40.7843426  73.9901857 103.1759869  41.2347576  75.3257711
 110.9698346  43.2972377  66.8785802 110.3186326  43.8826457  66.4919815
 111.7642709  43.8278572  66.9380839 104.8953973  40.3861514  67.2772936
 105.6684849  39.8390501  67.1385812 105.2479372  41.2505764  67.4887397
 106.7339016  41.7137896  80.4839835 106.4428882  42.6183527  80.3686502
 107.3696000  41.7554424  81.1983905 107.6595222  39.0914745  77.0741195
 108.2558795  38.8670767  76.3598158 107.7170194  38.3499490  77.6766643
 107.2320251  36.5454180  64.9091386 107.4845772  36.0235702  64.1474849
 106.2944810  36.3820326  65.0118070 112.2763534  35.5489959  72.7166129
 113.0626623  35.1309382  72.3656546 112.5402238  36.4536051  72.8847778
 112.4473611  40.9862809  67.4154786 111.8119444  41.0597436  68.1275691
 112.1171017  41.5756408  66.7373865 117.6771961  35.4865192  73.6199108
 118.4097133  34.9164409  73.8536937 116.9211317  35.0986792  74.0605613
 106.9516540  38.4482286  67.1115761 106.8352798  37.7727190  67.7796845
 107.0618800  37.9614660  66.2947914 109.2948081  37.9092433  70.8162450
 108.9306288  37.3823054  71.5275372 110.1515196  37.5190902  70.6428936
 115.1997381  29.1986766  78.0793716 114.8680706  30.0682177  77.8554931
 114.6042995  28.8823050  78.7587747 108.9353568  32.9382333  65.8123799
 109.1027970  33.8062570  66.1794270 108.7450737  33.1009615  64.8885088
 111.6928901  41.3999312  77.4789629 111.3929624  42.3024351  77.3705436
 111.3479960  41.1331495  78.3310782 105.1441382  37.8513109  73.5126333
 104.2191879  37.7189323  73.7204025 105.3925795  38.6307328  74.0096276
 115.0926045  33.9181852  75.1587066 114.1842922  33.8497261  74.8645827
 115.0413640  34.3953797  75.9868892 108.9142788  35.3939991  66.7970465
 108.7942414  35.8397041  67.6355946 108.2195377  35.7425308  66.2384004
 102.5050193  37.4946382  74.3470123 102.6342574  37.7480861  75.2609534
 101.8247645  38.0874090  74.0274778 106.6749681  48.1643632  70.4460597
 106.5973710  49.1151457  70.5249077 106.0711324  47.8189505  71.1035523
 109.1666910  35.3371498  83.1021964 108.3900244  35.8965418  83.0924828
 109.8057473  35.8228281  83.6236834 116.9587691  32.1198291  76.9364940
 116.3162071  32.4130824  76.2904735 116.4542619  32.0051211  77.7418137
 114.6127855  35.8661464  67.6250800 115.5245711  36.0988851  67.4498497
 114.1037502  36.4498508  67.0625878 107.4213283  38.1456951  82.6639931
 108.1627967  38.6841995  82.3874754 106.7150268  38.7723240  82.8211482
 112.8968622  40.2886092  81.2612092 113.3051978  39.8468502  80.5166724
 112.1745884  39.7138719  81.5146285 109.2499692  35.2258698  78.6345649
 110.0960887  35.6498112  78.7780298 109.1898330  34.5692323  79.3284212
 113.2197437  40.8487282  75.0164381 112.5906299  41.0132996  74.3140449
 112.8323099  41.2628892  75.7875345 117.0986669  41.7841720  72.3708745
 116.4137707  42.1640621  71.8205778 117.1830518  42.3937047  73.1040693
 112.3999138  32.8863067  80.2926823 112.1560069  33.6405127  79.7561098
 112.6759068  33.2648414  81.1274070 114.3537600  39.4301679  78.9704088
 114.5654496  40.0733439  78.2938469 114.3067349  38.5963996  78.5026018
 111.9563829  32.0419500  75.8740660 111.0948308  32.3400753  76.1657398
 111.9826264  32.2589899  74.9421693 108.7725399  40.5861690  72.2814466
 109.2363744  40.8649393  71.4919089 108.5082197  39.6845135  72.0987557
 105.6649480  40.1333172  75.2194229 106.2350837  40.5620440  74.5811714
 106.2557592  39.8515757  75.9178415 107.7094285  36.7084843  69.0904031
 108.4118328  37.1605886  69.5577958 107.3774913  36.0668662  69.7183924
 106.1574646  35.2996599  83.4655241 105.5273307  35.9812880  83.6990637
 106.0510734  35.1879681  82.5208379 101.4519619  34.9668395  74.3921165
 100.6618673  35.2225924  73.9161275 101.9430866  35.7816733  74.4973205
 115.4683428  42.3073635  77.1426446 116.2900872  41.9053822  76.8609127
 115.4645831  42.2041869  78.0942561 103.4034364  35.3312975  71.3504642
 102.6065527  35.4431669  71.8688137 103.1759956  35.6699627  70.4845532
 109.2340032  41.8557678  79.2987156 109.2984464  42.3178085  80.1345328
 108.5250956  41.2255043  79.4269466  99.7357322  35.2198886  76.8236156
  99.9865360  36.1045896  77.0893732 100.2716870  35.0403487  76.0511247
 108.9488049  43.5225785  69.1666136 108.8133724  44.3677321  69.5950984
 109.4897862  43.7245063  68.4032070 105.4355389  29.6017365  85.8280492
 105.0422335  29.0483564  86.5028136 106.2521529  29.9127944  86.2187009
 102.4017447  41.0401223  69.7394062 102.9141967  41.8344474  69.8899626
 103.0540160  40.3427514  69.6727663 104.2112332  44.1566980  71.8216815
 104.3878960  45.0784944  71.6337799 105.0069165  43.8425399  72.2511195
 108.3523350  31.0175244  83.4200748 109.0933063  31.6182397  83.3405211
 108.5841273  30.2752882  82.8618791 103.4964688  36.2031612  81.6978978
 103.3818203  35.3016869  81.9986077 102.6409206  36.4495308  81.3463794
 110.5756526  44.1449352  83.2966479 110.1320380  43.3585730  82.9787383
 111.2373739  44.3328502  82.6310369 105.3343647  45.6745153  77.8227157
 105.8851072  45.5462217  77.0504151 104.4955123  45.9740042  77.4722050
 112.6737764  44.4252152  81.3247880 112.6556239  45.2461033  80.8328149
 113.5957684  44.3006227  81.5498021 109.1310818  41.9396281  82.1671388
 109.6639155  41.1784569  81.9370696 108.6024899  41.6469933  82.9095543
 112.2980513  27.0456347  77.6965030 111.9544782  27.9357989  77.6204141
 112.6659476  26.8558005  76.8334615 100.3666364  39.3689878  70.5153632
 101.2041586  39.7786886  70.2987340 100.5444631  38.4289320  70.4853826
 112.2630796  37.0364958  66.2037465 111.7477419  37.8069563  66.4425852
 111.9908104  36.3630094  66.8270526 109.8477907  31.8814659  71.2622703
 108.9919503  31.4921509  71.0828342 110.2604859  31.9606620  70.4022489
 111.3777053  29.4161002  75.6614263 110.8741849  29.3791138  74.8482068
 111.6707660  30.3253745  75.7210920 107.6219939  29.4999732  74.6680445
 108.4872936  29.3042541  74.3086334 107.6897448  29.2710084  75.5949802
 117.2365070  39.7897313  68.1390639 116.4594513  39.4508472  67.6945801
 117.9156551  39.7949936  67.4645604 112.0517099  34.9092050  68.0297246
 111.7467234  35.2238200  68.8807389 113.0047541  34.9873470  68.0724579
 110.4963531  41.0682274  69.6790200 109.9684892  40.3335033  69.3663438
 109.9951033  41.8456950  69.4330169 115.4756377  39.2631294  74.7957247
 114.8180051  39.9530556  74.8837375 116.2796776  39.6527726  75.1391233
 105.2282258  31.7301940  72.0396812 105.8026010  31.5077121  71.3070005
 105.8153241  31.7990635  72.7925413 114.2861836  37.6175667  72.8461188
 114.7993717  38.2505659  73.3482898 114.9363059  37.0176862  72.4804548
 105.5551845  33.7606401  66.0592697 104.7189158  34.0981088  66.3801972
 105.4156615  33.6255381  65.1219834 107.5304926  28.6043189  70.7671881
 106.8769338  28.2892206  70.1428496 107.4885400  27.9818929  71.4931704
 108.6416131  38.8862484  62.6825173 107.7343193  38.6551737  62.8816322
 109.1387163  38.0900103  62.8699155 111.5484210  47.5959991  65.6021859
 110.8745909  47.8991688  66.2106817 111.9350032  48.3989072  65.2527316
 110.7642666  35.0925122  75.0919529 109.8465228  35.3140069  74.9341217
 111.1802810  35.1671433  74.2331236 111.5477714  36.4916538  70.2222209
 112.2949533  37.0037935  69.9129331 111.8169304  36.1700591  71.0826603
 109.8204364  38.9875079  67.2049163 108.9115584  38.7034112  67.3021633
 109.8499448  39.4074157  66.3452470 115.0523632  42.5981668  70.9740331
 114.5985959  41.7572578  71.0305521 114.4217598  43.2343067  71.3115111
 113.9956551  33.5273654  72.2040998 113.2579308  33.0151041  72.5351241
 114.2483325  33.0874036  71.3924275 113.4956571  44.4358165  71.9090149
 113.7879545  44.9963222  71.1902515 114.0055192  44.7286726  72.6643308
 114.0968179  26.3049906  72.7982768 114.4027055  25.4447270  72.5108683
 114.8220783  26.8967527  72.5981762 100.3892535  36.7080593  71.1864366
 100.1916935  36.1149954  70.4615432  99.8339199  36.4032803  71.9040304
 108.3689258  36.6003699  73.3058959 108.4237868  35.6477536  73.2301435
 107.5580460  36.7563139  73.7900257 109.5180452  40.5283823  64.5437242
 109.0799882  39.8119681  64.0842879 110.2590893  40.7559937  63.9822333
 106.3081618  35.2180759  71.0649338 105.4949484  35.5174930  71.4714530
 106.8040613  34.8236448  71.7823820 108.4590196  45.2138516  72.9983602
 108.4166375  45.4399362  72.0692134 109.3752895  44.9801891  73.1469403
 111.9055830  35.6822584  79.8964231 112.2605218  35.9094057  80.7558697
 112.5527961  36.0140960  79.2741487 117.6353567  38.8041020  70.6013560
 117.4971466  38.9942616  69.6734750 117.2789786  39.5660402  71.0581612
 105.7995693  32.7899115  76.6810573 106.4395072  32.6487874  75.9833536
 104.9673224  32.5033628  76.3049174 117.6622947  40.8717547  75.6124832
 118.0959453  40.7792836  76.4607886 118.3754527  40.8475047  74.9744848
 106.5755997  42.0901545  72.7945565 107.3696595  41.5951865  72.5928140
 105.8647689  41.5619408  72.4313271 111.3950841  44.4719641  77.1457933
 111.4487864  45.0410577  77.9135648 110.5265623  44.6421526  76.7811970
 102.8838760  36.2344627  68.8705318 101.9536349  36.1729082  69.0875280
 102.9796232  35.7120580  68.0741959 102.8024309  32.7599440  71.4583559
 103.0631127  33.6744773  71.3492720 103.6241482  32.2923882  71.6080172
 104.2749235  34.1737197  78.6282384 104.9472288  33.9654559  77.9795033
 103.4479021  33.9759283  78.1887616 118.5238496  40.9141247  78.1457717
 118.7174386  41.8187058  78.3916992 118.4239114  40.4548666  78.9796302
 110.1774807  30.7999138  80.6448045 109.5302722  31.4989087  80.5512521
 110.9475822  31.2335282  81.0124293 113.5853605  41.0647990  83.7198598
 113.4339111  40.8358542  82.8028682 113.5758284  42.0218591  83.7329943
 110.3538941  38.6379903  78.7044864 111.2831001  38.7891062  78.5313832
 109.9329971  38.7263923  77.8493511 109.1527273  42.6630567  76.4743402
 109.0138359  42.2949352  77.3469340 108.3641869  43.1778207  76.3027360
 109.7475425  47.7639664  67.8168939 109.9227181  47.2927707  68.6314561
 109.0608213  48.3905430  68.0450199 110.7032488  42.0412170  73.8632240
 110.3682321  42.0012940  74.7589890 110.2036434  41.3756886  73.3902650
 104.6776732  37.4479800  79.3884821 104.5396530  36.7160039  79.9896360
 105.5881656  37.3588700  79.1069009 113.6391680  39.3868204  64.1369299
 113.0220850  38.6615032  64.0402352 113.1708168  40.1477564  63.7936374
 107.3059033  37.1599759  78.8768501 108.0158651  36.5192951  78.8355119
 107.2628341  37.4112654  79.7994681 115.2945811  44.0967113  81.7975080
 115.2358358  43.4126333  81.1305663 115.6965330  44.8386103  81.3455706
 106.0187967  34.1464977  80.6964140 105.4825324  33.6955716  81.3485736
 105.4304675  34.2810886  79.9534604 104.3136510  50.9129026  74.5908799
 104.5533108  51.5447551  75.2687817 103.4705707  50.5617066  74.8774158
 105.4290226  33.6053628  63.2590604 104.5519692  33.4842429  62.8952850
 105.9047979  32.8139707  63.0069492 115.2963219  42.0606696  80.0289060
 114.4089997  41.7232618  80.1515458 115.8661770  41.3289728  80.2657825
  96.9492366  38.3930788  73.3532111  97.6363406  38.0792518  72.7653126
  96.7940495  39.2972153  73.0799362 101.7527088  33.2820985  77.7817135
 101.6685277  32.6746654  77.0467545 100.9309794  33.7730003  77.7826631
 108.8264372  46.7208149  76.9950303 108.7534544  47.5263120  77.5069607
 108.3841765  46.9200115  76.1698324 108.6154152  45.9579919  70.5053124
 107.8321674  46.5001599  70.5991349 109.3146897  46.4753898  70.9047365
 111.9250802  31.7674548  73.1487330 112.4219501  31.0144511  72.8288400
 111.1537783  31.8038865  72.5830539 119.7780559  37.4714914  74.7905621
 119.7670435  38.3539629  74.4199554 118.9097939  37.1186465  74.5960158
 111.2863056  46.6194983  79.1508461 111.9991028  47.2542448  79.0784363
 110.7953084  46.7158849  78.3348463 113.0080583  40.5246236  70.7225753
 112.0736861  40.6447698  70.5530457 113.1857251  39.6218702  70.4585763
 108.5085771  33.9091931  72.8759014 108.1383558  33.3562972  73.5639920
 109.0044863  33.3050065  72.3234014 116.3953134  36.3663555  71.2575787
 116.8613586  37.1991546  71.1836090 116.8460634  35.9008536  71.9621046
 106.3374969  44.3689426  79.9714032 107.0384429  45.0025909  80.1243426
 105.8670084  44.7104158  79.2109671 114.4629365  42.7107376  68.2561939
 114.7389209  42.5963971  69.1655813 113.5933864  42.3124861  68.2174112
 114.3669797  28.7344142  75.2966689 113.4532876  28.9648369  75.4648895
 114.7962898  28.8182586  76.1480721 114.1376255  36.9234034  77.7966583
 113.4847705  37.1709941  77.1419035 114.5156635  36.1098172  77.4629060
 111.0983429  46.9593727  71.8994753 111.2805824  46.1415383  72.3622505
 111.9216415  47.1761419  71.4619643 111.4325594  45.8861912  69.1609801
 111.9613361  45.3754367  68.5479963 111.6953814  45.5704442  70.0255334
 110.1863828  37.6653845  84.2832620 109.5104465  37.5647974  84.9534995
 111.0091462  37.5093059  84.7468617 101.9342687  43.9025781  76.9045135
 102.5196124  43.1569469  77.0373039 101.7367526  44.2129738  77.7881799
 104.7881342  46.9377029  71.9207577 104.1191718  47.4223156  71.4371617
 104.6494212  47.1846249  72.8350956  96.5260342  36.4731382  75.6249578
  96.5644441  35.9394972  76.4186696  96.0200635  35.9466587  75.0060555
 108.9286611  48.9720772  78.5190236 109.4804919  49.1352394  79.2839321
 109.2692804  49.5625210  77.8470260 103.9051104  31.3195922  79.1212120
 103.9692431  32.1810753  78.7089518 103.8418224  30.7069924  78.3884479
 103.3803377  33.3919055  82.7685155 104.0075416  33.0096132  83.3822679
 102.5231296  33.1733257  83.1340847 113.7797485  43.7982030  84.3738890
 114.3237389  44.4111988  83.8793845 113.1984330  44.3561608  84.8905903
 100.1568920  35.1995484  68.7003509 100.4522361  34.2906162  68.6470563
  99.2556955  35.1783223  68.3784512 112.0654998  46.9202748  75.5053918
 111.9406138  46.1192488  74.9964863 112.7234089  47.4148941  75.0167888
 103.6863167  33.2751480  74.6831058 102.9649752  33.8887448  74.5438531
 104.4756422  33.8109245  74.6047704 114.1289907  44.7211768  77.1333468
 113.1820242  44.6017119  77.0611795 114.4772680  43.8334266  77.2159729
 106.4889480  30.6105907  80.9571710 107.0123882  30.8568203  81.7198019
 106.2701813  31.4425942  80.5374847 101.8856761  32.8809581  68.8242835
 101.5569467  32.0006960  68.6417940 102.2396132  32.8257250  69.7119224
 111.1336340  44.5164484  73.3337820 110.9861302  43.5881191  73.5145390
 111.9589833  44.5384575  72.8494895 104.9998584  33.1682551  69.1918312
 105.3394657  33.6968472  68.4696921 105.4470705  33.5062957  69.9676879
 114.7370462  45.3393043  74.4202693 115.6617009  45.1335904  74.2827144
 114.5685765  45.0909444  75.3292034 107.6942025  31.5519602  78.6421380
 107.3538845  30.7527415  79.0442060 106.9881031  31.8521313  78.0698213
 108.3458497  28.6368914  77.0948703 109.1684566  28.1629393  76.9727594
 108.5896560  29.4159398  77.5947390 106.9866731  31.6657173  67.3911605
 107.7075094  32.0438426  66.8875322 106.3632036  32.3846050  67.4946583
 111.1297854  32.3702322  68.3269937 111.3461469  33.2526960  68.0258766
 110.6491921  31.9788535  67.5975579 105.8697076  35.3288035  74.9040682
 105.7241656  35.6428338  75.7964963 105.3922279  35.9472935  74.3511581
 107.7293459  32.3190583  74.9521571 107.7155027  31.4231676  74.6153869
 108.4465887  32.3261247  75.5859858 109.5819589  32.7527923  76.9974699
 109.3237367  33.6744994  76.9959029 109.0504630  32.3558358  77.6875163
 114.5265778  45.8578710  69.7764784 114.7002656  45.2925133  69.0238637
 115.0194669  46.6579605  69.5944274 100.3442738  37.8693379  77.8428343
  99.7996206  38.6453187  77.9748617 101.2222088  38.2164184  77.6847465
 107.1330354  31.2004963  70.2209142 107.2546266  30.2721609  70.4200029
 106.8432397  31.2143649  69.3087457 110.0021545  28.8859874  73.3575861
 110.0243242  28.9499207  72.4027841 110.4189604  28.0464382  73.5516368
 120.3805169  38.6215133  71.3955084 120.8236315  37.8722458  70.9974207
 119.5031679  38.6125270  71.0128816 115.5140951  45.1745475  66.8761683
 116.2091855  45.7952167  67.0948997 115.8564101  44.3240826  67.1514060
 101.1308760  36.9963276  80.7358500 100.3890496  37.1445911  81.3223130
 100.8101504  37.2571541  79.8725249 117.4132374  42.6245180  68.4049013
 117.9383698  42.9632453  67.6798333 117.3254726  41.6892196  68.2212148
 109.0752422  46.5379254  80.5338890 109.3839549  46.2928401  81.4061590
 109.8727904  46.7425892  80.0457760 109.0973034  48.6917163  72.7644267
 108.6578025  48.1993542  73.4577123 109.8481151  48.1490131  72.5236342
 101.5765373  44.8828704  72.7668895 102.4023393  44.5832476  72.3867538
 101.2259425  44.1136327  73.2158683 106.5446907  44.2355173  74.8366568
 105.9226916  43.5725878  74.5368796 107.2151773  44.2616304  74.1540216
  99.7773978  42.8015031  73.7257828  98.9405887  42.3737205  73.5441829
  99.7497624  42.9947474  74.6628619 106.6171434  32.7136961  84.4299074
 106.6659589  33.5899083  84.0476844 107.1593948  32.1714354  83.8570717
 117.1026280  43.2578084  83.7100211 116.3121823  43.2402223  83.1704711
 116.8659634  43.7966378  84.4649248 117.2224155  40.1070550  81.0232940
 117.2722160  39.9420558  81.9648463 117.1138078  39.2397809  80.6330821
 106.1060413  42.7859096  68.3125029 106.2548534  43.4694560  67.6591702
 106.9126857  42.7664186  68.8274484 114.5127917  36.0901478  82.3392247
 115.4137780  35.9507943  82.0476244 114.5875892  36.2555933  83.2790424
 108.8470722  33.4668333  81.1845433 107.9774032  33.7601899  80.9128021
 109.0830203  34.0508778  81.9052697 118.7242352  42.5267492  81.2674961
 118.4327160  42.8897472  82.1038422 118.1114483  41.8134500  81.0888293
 119.9238034  40.0920372  73.7877532 120.7584925  40.5310176  73.9515092
 120.0597163  39.6159025  72.9685777 116.9729540  37.6500106  79.7355019
 117.4483661  37.8427753  78.9273871 116.0495105  37.7059292  79.4898403
 103.8613046  38.8124274  69.3186098 103.6159088  37.9086604  69.5166308
 104.0308961  38.8141424  68.3765576 111.5509756  29.6847950  78.7010853
 112.0691700  30.4208977  78.3757342 111.1964889  29.9911943  79.5357612
 103.1308694  34.5452631  66.8172259 102.4377939  34.6196986  66.1612295
 102.8860446  33.7812975  67.3393776 111.8022350  26.1048232  74.2211750
 112.0824104  25.4371422  74.8472176 112.5872957  26.2977328  73.7086414
 109.6055819  45.2807226  65.7836776 109.0329786  45.8997413  65.3307248
 110.1788613  45.8306588  66.3176698 115.6731209  34.5265866  77.9683325
 116.6248632  34.6263964  77.9895549 115.5034659  33.7344135  78.4781409
 113.6945588  31.6121450  78.1542726 113.0995520  31.8926462  77.4589215
 113.4095285  32.1015351  78.9259467 112.8253079  45.5644376  66.9145358
 113.7583752  45.4989938  67.1178234 112.7376292  46.4000643  66.4559891
 115.4541095  44.8810247  63.8749306 115.3754727  44.5470110  64.7685064
 116.2750762  45.3732015  63.8740778 118.1519287  37.7471986  77.0825625
 118.1195607  36.8087987  77.2685308 118.7619910  37.8256023  76.3491450
 109.9902617  36.6168039  63.1252829 110.9361722  36.4874247  63.1941247
 109.6116862  35.8782701  63.6022257 118.3013775  34.5383030  77.1283908
 117.7852824  33.7541486  76.9413837 119.1853724  34.2101746  77.2930427
 115.9624502  28.2824045  73.0879720 115.7649323  27.9739133  73.9723052
 116.5724208  29.0085684  73.2177650 109.8741310  40.6685785  84.5853486
 110.7944319  40.8464384  84.7793532 109.8390893  39.7241831  84.4333185
 108.1745535  34.5418015  63.0607714 107.2676990  34.2451128  63.1370428
 108.4521516  34.2447834  62.1942000  99.0923475  35.8624379  73.5106760
  98.7726259  35.0089687  73.2181134  98.5456903  36.0772957  74.2664728
 102.8703383  38.5786820  77.2276267 103.0889392  39.5103928  77.2464301
 103.2829156  38.2194794  78.0131071 109.7907600  29.0854905  69.2151955
 108.9808329  28.7401990  69.5907201 110.4792017  28.7762449  69.8039567
 111.7198149  28.1632952  70.8376252 112.2729187  28.5828405  71.4966275
 111.9568235  27.2368700  70.8799208 107.7431248  34.1520026  86.6179016
 107.6427975  35.1014383  86.5491107 107.5252790  33.8238265  85.7455086
 106.9444319  31.4004951  63.2019693 107.8063483  31.7259849  63.4615510
 107.1294663  30.6136447  62.6892759  98.9611735  39.4827290  75.4799882
  98.2675206  39.0681243  74.9669836  99.7084726  39.5247827  74.8833301
 115.0976956  30.2733477  70.3454916 114.5175625  30.9318281  69.9632969
 114.8312888  29.4510822  69.9342334 113.5480522  29.6738535  72.5476236
 114.0480300  29.7855069  71.7390555 114.1916130  29.3699588  73.1877045
 107.6062518  37.5817164  85.4344077 107.1229600  38.3817525  85.6407966
 107.6923457  37.5925109  84.4811521 100.8748478  39.4145544  73.3565897
 100.8519166  39.5133231  72.4047780 101.1849114  40.2610695  73.6783063
 103.5335855  41.4721699  77.4712511 104.4879109  41.4405642  77.4042443
 103.3348379  41.0112323  78.2862737 104.1235238  40.0422815  80.0383309
 104.9428127  40.5366894  80.0618146 104.3972045  39.1254783  80.0100876
 113.8801834  32.4333568  69.4011264 112.9927689  32.7183218  69.1831459
 114.2955823  32.2727331  68.5538541 117.2316370  32.4580089  73.1165604
 118.0076760  32.9476541  73.3890220 116.5064504  32.8838143  73.5737473
 119.6688928  33.1707708  74.1739544 120.2633419  32.9303444  73.4632852
 119.7415512  32.4514838  74.8013081 101.8886084  47.0141319  74.4882709
 101.7540552  46.2541720  73.9220707 101.4718146  47.7382219  74.0211498
 113.0245047  42.1978242  63.4959284 113.7280897  42.4028245  64.1116940
 112.3007696  42.7655004  63.7608368 113.8542857  37.9488103  69.6161555
 113.7978059  38.4056655  68.7769187 114.4071200  37.1878788  69.4384397
 117.6647663  33.7377835  70.4411674 117.4084598  33.3374471  71.2719882
 117.0400531  34.4521629  70.3161813 105.0455210  47.9110636  74.7001152
 104.9287594  48.8556068  74.5979842 104.2247656  47.6084197  75.0886951
 114.9331745  42.6360771  65.5457744 115.7677349  42.2041970  65.3635219
 114.7716088  42.4642785  66.4734639 114.5877637  39.1392885  66.9114084
 114.5326441  38.9737156  65.9702528 113.9623692  39.8468918  67.0676273
  99.3770152  34.3760949  80.7375506 100.0229015  33.8659903  81.2262731
  99.1687303  35.1129631  81.3118931 111.9023544  41.4441797  86.2367646
 112.7714704  41.6182449  85.8754281 111.4230295  42.2636213  86.1143376
 106.0709724  48.5638898  77.9157080 106.9736971  48.5962508  78.2323575
 105.8447094  47.6339349  77.9303416 107.8263326  47.3169884  74.5767159
 106.8758957  47.3171746  74.4631531 108.1295812  46.5702619  74.0603193
 111.7125882  25.2343770  70.7445339 110.9458278  24.6802257  70.8902021
 112.1236587  25.3065639  71.6059491 103.7167643  31.5228566  84.8350520
 104.5799104  31.1665371  85.0453845 103.1433053  31.1842461  85.5225924
 120.3705726  53.1057851  75.5774446 120.0324238  52.9898915  74.6894981
 121.2395494  52.7049016  75.5575452 116.2292542  54.9593327  71.5671337
 115.6657407  54.8683264  70.7987625 116.1144937  54.1393232  72.0473829
 120.8525509  54.2592702  81.5360651 120.8414150  53.8645501  80.6641155
 121.0146148  53.5258775  82.1294423 113.7756974  56.4544519  74.4055557
 114.5678266  56.1135343  73.9901857 114.0153624  56.5639494  75.3257711
 115.7347728  55.7153432  67.2772936 116.5078604  55.1682419  67.1385812
 116.0873126  56.5797681  67.4887397 117.5732770  57.0429814  80.4839835
 117.2822636  57.9475445  80.3686502 118.2089754  57.0846342  81.1983905
 118.4988977  54.4206663  77.0741195 119.0952549  54.1962685  76.3598158
 118.5563949  53.6791408  77.6766643 118.0714005  51.8746098  64.9091386
 118.3239526  51.3527619  64.1474849 117.1338564  51.7112243  65.0118070
 117.7910294  53.7774204  67.1115761 117.6746552  53.1019107  67.7796845
 117.9012554  53.2906578  66.2947914 120.1341835  53.2384351  70.8162450
 119.7700042  52.7114972  71.5275372 120.9908951  52.8482820  70.6428936
 119.7747322  48.2674251  65.8123799 119.9421724  49.1354487  66.1794270
 119.5844491  48.4301532  64.8885088 115.9835137  53.1805027  73.5126333
 115.0585633  53.0481241  73.7204025 116.2319550  53.9599246  74.0096276
 119.7536543  50.7231908  66.7970465 119.6336168  51.1688959  67.6355946
 119.0589131  51.0717226  66.2384004 113.3443948  52.8238300  74.3470123
 113.4736329  53.0772779  75.2609534 112.6641399  53.4166008  74.0274778
 117.5143435  63.4935550  70.4460597 117.4367465  64.4443375  70.5249077
 116.9105079  63.1481423  71.1035523 120.0060665  50.6663415  83.1021964
 119.2293999  51.2257336  83.0924828 120.6451228  51.1520198  83.6236834
 118.2607037  53.4748869  82.6639931 119.0021721  54.0133913  82.3874754
 117.5544023  54.1015158  82.8211482 120.0893447  50.5550616  78.6345649
 120.9354642  50.9790030  78.7780298 120.0292084  49.8984240  79.3284212
 119.6119153  55.9153608  72.2814466 120.0757499  56.1941311  71.4919089
 119.3475951  55.0137053  72.0987557 116.5043234  55.4625090  75.2194229
 117.0744591  55.8912358  74.5811714 117.0951346  55.1807674  75.9178415
 118.5488039  52.0376760  69.0904031 119.2512083  52.4897804  69.5577958
 118.2168668  51.3960579  69.7183924 116.9968401  50.6288517  83.4655241
 116.3667061  51.3104798  83.6990637 116.8904489  50.5171599  82.5208379
 112.2913373  50.2960313  74.3921165 111.5012427  50.5517842  73.9161275
 112.7824621  51.1108651  74.4973205 114.2428119  50.6604892  71.3504642
 113.4459282  50.7723587  71.8688137 114.0153711  50.9991544  70.4845532
 120.0733786  57.1849595  79.2987156 120.1378219  57.6470003  80.1345328
 119.3644710  56.5546960  79.4269466 110.5751076  50.5490803  76.8236156
 110.8259115  51.4337813  77.0893732 111.1110625  50.3695405  76.0511247
 119.7881804  58.8517703  69.1666136 119.6527479  59.6969239  69.5950984
 120.3291616  59.0536981  68.4032070 116.2749144  44.9309283  85.8280492
 115.8816089  44.3775481  86.5028136 117.0915284  45.2419861  86.2187009
 113.2411201  56.3693141  69.7394062 113.7535722  57.1636391  69.8899626
 113.8933914  55.6719431  69.6727663 115.0506086  59.4858897  71.8216815
 115.2272714  60.4076862  71.6337799 115.8462920  59.1717317  72.2511195
 119.1917105  46.3467162  83.4200748 119.9326818  46.9474315  83.3405211
 119.4235027  45.6044800  82.8618791 114.3358443  51.5323529  81.6978978
 114.2211958  50.6308786  81.9986077 113.4802960  51.7787226  81.3463794
 116.1737401  61.0037071  77.8227157 116.7244827  60.8754134  77.0504151
 115.3348877  61.3031960  77.4722050 119.9704573  57.2688199  82.1671388
 120.5032909  56.5076487  81.9370696 119.4418654  56.9761851  82.9095543
 111.2060118  54.6981795  70.5153632 112.0435340  55.1078804  70.2987340
 111.3838386  53.7581237  70.4853826 120.6871661  47.2106577  71.2622703
 119.8313258  46.8213427  71.0828342 121.0998613  47.2898538  70.4022489
 118.4613694  44.8291650  74.6680445 119.3266691  44.6334458  74.3086334
 118.5291203  44.6002002  75.5949802 121.3357285  56.3974191  69.6790200
 120.8078647  55.6626951  69.3663438 120.8344788  57.1748868  69.4330169
 116.0676013  47.0593858  72.0396812 116.6419765  46.8369039  71.3070005
 116.6546995  47.1282552  72.7925413 116.3945600  49.0898319  66.0592697
 115.5582912  49.4273005  66.3801972 116.2550370  48.9547298  65.1219834
 118.3698681  43.9335107  70.7671881 117.7163093  43.6184124  70.1428496
 118.3279155  43.3110847  71.4931704 119.4809885  54.2154402  62.6825173
 118.5736947  53.9843655  62.8816322 119.9780917  53.4192021  62.8699155
 120.6598119  54.3166997  67.2049163 119.7509338  54.0326029  67.3021633
 120.6893203  54.7366075  66.3452470 111.2286289  52.0372511  71.1864366
 111.0310689  51.4441871  70.4615432 110.6732953  51.7324721  71.9040304
 119.2083013  51.9295617  73.3058959 119.2631623  50.9769454  73.2301435
 118.3974215  52.0855056  73.7900257 120.3574207  55.8575740  64.5437242
 119.9193637  55.1411599  64.0842879 121.0984648  56.0851855  63.9822333
 117.1475373  50.5472677  71.0649338 116.3343238  50.8466847  71.4714530
 117.6434367  50.1528366  71.7823820 119.2983951  60.5430434  72.9983602
 119.2560129  60.7691280  72.0692134 120.2146650  60.3093808  73.1469403
 116.6389448  48.1191032  76.6810573 117.2788827  47.9779791  75.9833536
 115.8066978  47.8325546  76.3049174 117.4149751  57.4193463  72.7945565
 118.2090350  56.9243783  72.5928140 116.7041444  56.8911326  72.4313271
 113.7232515  51.5636545  68.8705318 112.7930103  51.5021000  69.0875280
 113.8189987  51.0412497  68.0741959 113.6418064  48.0891357  71.4583559
 113.9024881  49.0036691  71.3492720 114.4635236  47.6215800  71.6080172
 115.1142989  49.5029115  78.6282384 115.7866043  49.2946477  77.9795033
 114.2872776  49.3051201  78.1887616 119.9921027  57.9922485  76.4743402
 119.8532113  57.6241269  77.3469340 119.2035624  58.5070124  76.3027360
 120.5869179  63.0931581  67.8168939 120.7620935  62.6219624  68.6314561
 119.9001967  63.7197347  68.0450199 115.5170487  52.7771718  79.3884821
 115.3790285  52.0451956  79.9896360 116.4275410  52.6880618  79.1069009
 118.1452787  52.4891677  78.8768501 118.8552406  51.8484869  78.8355119
 118.1022095  52.7404572  79.7994681 116.8581721  49.4756895  80.6964140
 116.3219078  49.0247633  81.3485736 116.2698430  49.6102804  79.9534604
 115.1530265  66.2420944  74.5908799 115.3926863  66.8739468  75.2687817
 114.3099461  65.8908984  74.8774158 116.2683980  48.9345546  63.2590604
 115.3913446  48.8134347  62.8952850 116.7441733  48.1431624  63.0069492
 107.7886120  53.7222706  73.3532111 108.4757160  53.4084436  72.7653126
 107.6334249  54.6264071  73.0799362 112.5920842  48.6112902  77.7817135
 112.5079031  48.0038572  77.0467545 111.7703549  49.1021921  77.7826631
 119.6658127  62.0500066  76.9950303 119.5928298  62.8555038  77.5069607
 119.2235520  62.2492032  76.1698324 119.4547906  61.2871836  70.5053124
 118.6715428  61.8293517  70.5991349 120.1540651  61.8045816  70.9047365
 119.3479525  49.2383849  72.8759014 118.9777313  48.6854889  73.5639920
 119.8438618  48.6341982  72.3234014 117.1768724  59.6981344  79.9714032
 117.8778183  60.3317827  80.1243426 116.7063839  60.0396076  79.2109671
 112.7736442  59.2317699  76.9045135 113.3589879  58.4861387  77.0373039
 112.5761280  59.5421656  77.7881799 115.6275097  62.2668946  71.9207577
 114.9585472  62.7515074  71.4371617 115.4887967  62.5138167  72.8350956
 107.3654096  51.8023299  75.6249578 107.4038196  51.2686890  76.4186696
 106.8594389  51.2758505  75.0060555 119.7680366  64.3012690  78.5190236
 120.3198674  64.4644311  79.2839321 120.1086559  64.8917128  77.8470260
 114.7444859  46.6487840  79.1212120 114.8086185  47.5102671  78.7089518
 114.6811979  46.0361841  78.3884479 114.2197131  48.7210972  82.7685155
 114.8469170  48.3388050  83.3822679 113.3625050  48.5025174  83.1340847
 110.9962674  50.5287401  68.7003509 111.2916115  49.6198080  68.6470563
 110.0950710  50.5075141  68.3784512 114.5256921  48.6043398  74.6831058
 113.8043507  49.2179366  74.5438531 115.3150177  49.1401163  74.6047704
 117.3283235  45.9397824  80.9571710 117.8517636  46.1860121  81.7198019
 117.1095568  46.7717859  80.5374847 112.7250516  48.2101499  68.8242835
 112.3963222  47.3298878  68.6417940 113.0789886  48.1549168  69.7119224
 115.8392339  48.4974469  69.1918312 116.1788411  49.0260390  68.4696921
 116.2864459  48.8354875  69.9676879 118.5335780  46.8811520  78.6421380
 118.1932600  46.0819333  79.0442060 117.8274786  47.1813230  78.0698213
 119.1852251  43.9660832  77.0948703 120.0078321  43.4921310  76.9727594
 119.4290315  44.7451316  77.5947390 117.8260486  46.9949090  67.3911605
 118.5468848  47.3730343  66.8875322 117.2025790  47.7137967  67.4946583
 116.7090830  50.6579953  74.9040682 116.5635411  50.9720256  75.7964963
 116.2316034  51.2764853  74.3511581 118.5687213  47.6482501  74.9521571
 118.5548782  46.7523594  74.6153869 119.2859641  47.6553164  75.5859858
 120.4213344  48.0819841  76.9974699 120.1631122  49.0036911  76.9959029
 119.8898384  47.6850275  77.6875163 111.1836492  53.1985297  77.8428343
 110.6389960  53.9745105  77.9748617 112.0615842  53.5456101  77.6847465
 117.9724109  46.5296881  70.2209142 118.0940020  45.6013527  70.4200029
 117.6826151  46.5435567  69.3087457 120.8415299  44.2151791  73.3575861
 120.8636996  44.2791124  72.4027841 121.2583358  43.3756300  73.5516368
 111.9702514  52.3255193  80.7358500 111.2284250  52.4737829  81.3223130
 111.6495258  52.5863459  79.8725249 119.9146177  61.8671172  80.5338890
 120.2233303  61.6220318  81.4061590 120.7121659  62.0717810  80.0457760
 119.9366789  64.0209081  72.7644267 119.4971779  63.5285460  73.4577123
 120.6874906  63.4782049  72.5236342 112.4159128  60.2120622  72.7668895
 113.2417148  59.9124394  72.3867538 112.0653180  59.4428244  73.2158683
 117.3840661  59.5647090  74.8366568 116.7620670  58.9017795  74.5368796
 118.0545528  59.5908222  74.1540216 110.6167733  58.1306948  73.7257828
 109.7799641  57.7029123  73.5441829 110.5891378  58.3239392  74.6628619
 117.4565189  48.0428878  84.4299074 117.5053344  48.9191001  84.0476844
 117.9987703  47.5006271  83.8570717 116.9454168  58.1151014  68.3125029
 117.0942288  58.7986478  67.6591702 117.7520611  58.0956104  68.8274484
 119.6864477  48.7960251  81.1845433 118.8167786  49.0893817  80.9128021
 119.9223957  49.3800696  81.9052697 114.7006801  54.1416191  69.3186098
 114.4552843  53.2378521  69.5166308 114.8702715  54.1433342  68.3765576
 113.9702448  49.8744549  66.8172259 113.2771693  49.9488904  66.1612295
 113.7254200  49.1104892  67.3393776 120.4449573  60.6099144  65.7836776
 119.8723541  61.2289331  65.3307248 121.0182367  61.1598506  66.3176698
 119.0139289  49.8709933  63.0607714 118.1070745  49.5743046  63.1370428
 119.2915270  49.5739751  62.1942000 109.9317229  51.1916297  73.5106760
 109.6120014  50.3381605  73.2181134 109.3850658  51.4064875  74.2664728
 113.7097137  53.9078738  77.2276267 113.9283147  54.8395845  77.2464301
 114.1222911  53.5486712  78.0131071 120.6301355  44.4146823  69.2151955
 119.8202083  44.0693908  69.5907201 121.3185772  44.1054367  69.8039567
 118.5825002  49.4811943  86.6179016 118.4821729  50.4306300  86.5491107
 118.3646544  49.1530182  85.7455086 117.7838074  46.7296868  63.2019693
 118.6457238  47.0551767  63.4615510 117.9688418  45.9428364  62.6892759
 109.8005489  54.8119208  75.4799882 109.1068961  54.3973161  74.9669836
 110.5478480  54.8539745  74.8833301 118.4456272  52.9109082  85.4344077
 117.9623354  53.7109442  85.6407966 118.5317211  52.9217027  84.4811521
 111.7142232  54.7437462  73.3565897 111.6912920  54.8425149  72.4047780
 112.0242869  55.5902613  73.6783063 114.3729610  56.8013617  77.4712511
 115.3272863  56.7697559  77.4042443 114.1742133  56.3404241  78.2862737
 114.9628992  55.3714733  80.0383309 115.7821881  55.8658812  80.0618146
 115.2365800  54.4546701  80.0100876 112.7279839  62.3433236  74.4882709
 112.5934307  61.5833637  73.9220707 112.3111901  63.0674136  74.0211498
 115.8848965  63.2402553  74.7001152 115.7681349  64.1847986  74.5979842
 115.0641411  62.9376115  75.0886951 110.2163906  49.7052867  80.7375506
 110.8622770  49.1951821  81.2262731 110.0081057  50.4421548  81.3118931
 118.7367517  43.9692911  66.4899402 118.7246187  44.9134751  66.6467673
 119.6290939  43.7863057  66.1958863 116.9103479  63.8930815  77.9157080
 117.8130725  63.9254426  78.2323575 116.6840849  62.9631266  77.9303416
 118.6657081  62.6461802  74.5767159 117.7152712  62.6463663  74.4631531
 118.9689567  61.8994536  74.0603193 114.5561397  46.8520484  84.8350520
 115.4192859  46.4957289  85.0453845 113.9826808  46.5134379  85.5225924
 118.6279875  69.0514624  73.3532111 119.3150915  68.7376354  72.7653126
 118.4728003  69.9555988  73.0799362 118.2047851  67.1315217  75.6249578
 118.2431950  66.5978808  76.4186696 117.6988144  66.6050422  75.0060555
 121.4561487  73.4598866  73.7257828 120.6193396  73.0321040  73.5441829
 121.4285133  73.6531309  74.6628619 120.7710984  66.5208214  73.5106760
 120.4513768  65.6673522  73.2181134 120.2244412  66.7356792  74.2664728
 120.6399244  70.1411126  75.4799882 119.9462715  69.7265079  74.9669836
 121.3872235  70.1831662  74.8833301  95.8355927   9.8413837  57.1705903
  95.7579957  10.7921662  57.2494384  95.2317571   9.4959710  57.8280830
  93.4742757  12.5899231  61.3154105  93.7139355  13.2217755  61.9933124
  92.6311953  12.2387271  61.6019465  93.9487589   8.6147234  58.6452884
  93.2797964   9.0993361  58.1616924  93.8100459   8.8616454  59.5596262
  98.0892858  10.6490977  65.2435542  98.6411166  10.8122599  66.0084628
  98.4299051  11.2395415  64.5715567  91.0492331   8.6911524  61.2128016
  90.9146799   7.9311924  60.6466014  90.6324393   9.4152423  60.7456805
  94.2061457   9.5880841  61.4246458  94.0893841  10.5326273  61.3225149
  93.3853903   9.2854402  61.8132258  95.2315971  10.2409103  64.6402387
  96.1343218  10.2732713  64.9568882  95.0053341   9.3109553  64.6548723
 109.5311973  14.7828056  62.3019752 109.1930484  14.6669120  61.4140287
 110.4001741  14.3819221  62.2820759 105.3898788  16.6363532  58.2916643
 104.8263654  16.5453469  57.5232931 105.2751183  15.8163436  58.7719136
 110.0131756  15.9362907  68.2605958 110.0020397  15.5415706  67.3886462
 110.1752395  15.2028980  68.8539729 102.9363220  18.1314724  61.1300864
 103.7284512  17.7905548  60.7147163 103.1759871  18.2409699  62.0503017
 110.9698347  20.3034500  53.6031108 110.3186327  20.8888580  53.2165122
 111.7642710  20.8340695  53.6626146 104.8953974  17.3923637  54.0018243
 105.6684850  16.8452624  53.8631118 105.2479373  18.2567886  54.2132704
 106.7339017  18.7200019  67.2085142 106.4428883  19.6245650  67.0931808
 107.3696001  18.7616547  67.9229212 107.6595224  16.0976868  63.7986502
 108.2558796  15.8732890  63.0843465 107.7170195  15.3561613  64.4011949
 112.4473612  17.9924932  54.1400093 111.8119445  18.0659558  54.8520997
 112.1171019  18.5818530  53.4619172 106.9516541  15.4544409  53.8361068
 106.8352799  14.7789312  54.5042152 107.0618801  14.9676783  53.0193221
 109.2948082  14.9154556  57.5407757 108.9306289  14.3885177  58.2520678
 110.1515198  14.5253025  57.3674242 111.6928902  18.4061435  64.2034936
 111.3929625  19.3086473  64.0950743 111.3479961  18.1393618  65.0556089
 105.1441383  14.8575231  60.2371640 104.2191880  14.7251446  60.4449332
 105.3925797  15.6369451  60.7341583 102.5050194  14.5008505  61.0715429
 102.6342576  14.7542984  61.9854841 101.8247646  15.0936213  60.7520084
 106.6749682  25.1705755  57.1705903 106.5973711  26.1213580  57.2494384
 106.0711325  24.8251627  57.8280830 107.4213284  15.1519074  69.3885237
 108.1627968  15.6904118  69.1120061 106.7150269  15.7785362  69.5456789
 112.8968623  17.2948214  67.9857399 113.3051980  16.8530625  67.2412031
 112.1745885  16.7200842  68.2391592 113.2197438  17.8549405  61.7409688
 112.5906301  18.0195119  61.0385756 112.8323100  18.2691014  62.5120652
 117.0986670  18.7903843  59.0954051 116.4137708  19.1702744  58.5451085
 117.1830519  19.3999169  59.8285999 114.3537602  16.4363802  65.6949395
 114.5654497  17.0795562  65.0183776 114.3067350  15.6026118  65.2271325
 108.7725400  17.5923813  59.0059773 109.2363746  17.8711516  58.2164395
 108.5082198  16.6907257  58.8232863 105.6649481  17.1395294  61.9439536
 106.2350838  17.5682563  61.3057021 106.2557593  16.8577879  62.6423722
 101.4519620  11.9730518  61.1166471 100.6618674  12.2288046  60.6406582
 101.9430867  12.7878856  61.2218512 115.4683430  19.3135757  63.8671752
 116.2900873  18.9115944  63.5854434 115.4645832  19.2103991  64.8187868
 103.4034365  12.3375097  58.0749948 102.6065529  12.4493791  58.5933444
 103.1759958  12.6761749  57.2090839 109.2340033  18.8619800  66.0232463
 109.2984466  19.3240208  66.8590635 108.5250957  18.2317165  66.1514773
  99.7357323  12.2261008  63.5481462  99.9865361  13.1108018  63.8139038
 100.2716871  12.0465610  62.7756554 108.9488051  20.5287908  55.8911443
 108.8133725  21.3739444  56.3196291 109.4897863  20.7307186  55.1277377
 102.4017448  18.0463346  56.4639368 102.9141969  18.8406596  56.6144933
 103.0540161  17.3489636  56.3972970 104.2112333  21.1629102  58.5462121
 104.3878961  22.0847067  58.3583105 105.0069166  20.8487521  58.9756501
 103.4964689  13.2093734  68.4224285 103.3818204  12.3078991  68.7231383
 102.6409207  13.4557431  68.0709101 110.5756527  21.1511474  70.0211785
 110.1320381  20.3647853  69.7032690 111.2373741  21.3390625  69.3555676
 105.3343648  22.6807276  64.5472464 105.8851073  22.5524339  63.7749458
 104.4955124  22.9802165  64.1967356 112.6737765  21.4314274  68.0493186
 112.6556240  22.2523155  67.5573456 113.5957685  21.3068350  68.2743328
 109.1310819  18.9458404  68.8916695 109.6639156  18.1846692  68.6616003
 108.6024900  18.6532056  69.6340849 100.3666365  16.3752000  57.2398939
 101.2041587  16.7849009  57.0232646 100.5444633  15.4351442  57.2099133
 110.4963532  18.0744396  56.4035507 109.9684894  17.3397156  56.0908744
 109.9951035  18.8519073  56.1575475 115.4756378  16.2693417  61.5202553
 114.8180052  16.9592678  61.6082682 116.2796777  16.6589849  61.8636539
 108.6416132  15.8924607  49.4070480 107.7343194  15.6613860  49.6061629
 109.1387164  15.0962226  49.5944461 111.5484211  24.6022114  52.3267166
 110.8745910  24.9053811  52.9352124 111.9350033  25.4051194  51.9772623
 109.8204366  15.9937201  53.9294470 108.9115585  15.7096234  54.0266940
 109.8499449  16.4136280  53.0697777 115.0523633  19.6043791  57.6985638
 114.5985960  18.7634701  57.7550828 114.4217600  20.2405189  58.0360418
 113.4956572  21.4420288  58.6335456 113.7879547  22.0025345  57.9147821
 114.0055193  21.7348849  59.3888615 100.3892536  13.7142716  57.9109672
 100.1916936  13.1212076  57.1860739  99.8339200  13.4094926  58.6285611
 109.5180453  17.5345945  51.2682549 109.0799883  16.8181804  50.8088186
 110.2590894  17.7622060  50.7067640 108.4590197  22.2200639  59.7228909
 108.4166376  22.4461485  58.7937441 109.3752896  21.9864013  59.8714710
 117.6622948  17.8779669  62.3370139 118.0959454  17.7854958  63.1853193
 118.3754529  17.8537170  61.6990155 106.5755998  19.0963668  59.5190872
 107.3696597  18.6013988  59.3173447 105.8647691  18.5681531  59.1558577
 111.3950843  21.4781763  63.8703239 111.4487865  22.0472700  64.6380955
 110.5265624  21.6483648  63.5057276 102.8838762  13.2406749  55.5950624
 101.9536350  13.1791205  55.8120586 102.9796234  12.7182702  54.7987266
 118.5238497  17.9203370  64.8703024 118.7174387  18.8249180  65.1162299
 118.4239116  17.4610789  65.7041609 113.5853606  18.0710113  70.4443905
 113.4339112  17.8420664  69.5273988 113.5758286  19.0280714  70.4575250
 110.3538942  15.6442025  65.4290171 111.2831002  15.7953185  65.2559138
 109.9329972  15.7326046  64.5738818 109.1527274  19.6692690  63.1988709
 109.0138360  19.3011474  64.0714647 108.3641870  20.1840329  63.0272666
 109.7475426  24.7701786  54.5414245 109.9227182  24.2989829  55.3559868
 109.0608214  25.3967552  54.7695506 110.7032489  19.0474292  60.5877546
 110.3682322  19.0075062  61.4835196 110.2036435  18.3819008  60.1147957
 104.6776733  14.4541922  66.1130128 104.5396531  13.7222161  66.7141667
 105.5881657  14.3650823  65.8314315 113.6391681  16.3930327  50.8614606
 113.0220852  15.6677155  50.7647659 113.1708169  17.1539687  50.5181680
 107.3059034  14.1661882  65.6013807 108.0158653  13.5255074  65.5600426
 107.2628342  14.4174777  66.5239988 115.2945813  21.1029235  68.5220386
 115.2358359  20.4188455  67.8550970 115.6965331  21.8448225  68.0701012
 104.3136511  27.9191149  61.3154105 104.5533110  28.5509673  61.9933124
 103.4705708  27.5679189  61.6019465 115.2963220  19.0668819  66.7534366
 114.4089999  18.7294741  66.8760765 115.8661771  18.3351850  66.9903132
  96.9492367  15.3992911  60.0777418  97.6363407  15.0854641  59.4898433
  96.7940496  16.3034275  59.8044669 108.8264373  23.7270271  63.7195609
 108.7534545  24.5325243  64.2314914 108.3841766  23.9262237  62.8943631
 108.6154153  22.9642041  57.2298431 107.8321675  23.5063722  57.3236655
 109.3146898  23.4816021  57.6292672 111.2863057  23.6257105  65.8753768
 111.9991029  24.2604570  65.8029669 110.7953086  23.7220971  65.0593770
 113.0080584  17.5308358  57.4471060 112.0736863  17.6509821  57.2775764
 113.1857252  16.6280825  57.1831070 106.3374970  21.3751549  66.6959339
 107.0384430  22.0088032  66.8488733 105.8670085  21.7166280  65.9354978
 114.4629366  19.7169499  54.9807246 114.7389210  19.6026093  55.8901120
 113.5933865  19.3186984  54.9419419 111.0983430  23.9655850  58.6240059
 111.2805825  23.1477505  59.0867812 111.9216416  24.1823542  58.1864949
 111.4325596  22.8924035  55.8855108 111.9613362  22.3816489  55.2725270
 111.6953815  22.5766565  56.7500641 110.1863829  14.6715967  71.0077926
 109.5104466  14.5710097  71.6780302 111.0091463  14.5155181  71.4713924
 101.9342688  20.9087904  63.6290442 102.5196125  20.1631592  63.7618346
 101.7367527  21.2191861  64.5127105 104.7881344  23.9439151  58.6452884
 104.1191719  24.4285279  58.1616924 104.6494213  24.1908372  59.5596262
  96.5260343  13.4793504  62.3494885  96.5644443  12.9457095  63.1432003
  96.0200636  12.9528710  61.7305862 108.9286612  25.9782895  65.2435542
 109.4804920  26.1414516  66.0084628 109.2692806  26.5687333  64.5715567
 113.7797487  20.8044152  71.0984197 114.3237391  21.4174111  70.6039152
 113.1984331  21.3623731  71.6151210 100.1568921  12.2057606  55.4248816
 100.4522362  11.2968285  55.3715870  99.2556957  12.1845346  55.1029818
 112.0655000  23.9264870  62.2299224 111.9406139  23.1254610  61.7210170
 112.7234091  24.4211064  61.7413194 114.1289908  21.7273890  63.8578775
 113.1820243  21.6079242  63.7857101 114.4772681  20.8396388  63.9405036
 111.1336341  21.5226607  60.0583127 110.9861304  20.5943314  60.2390697
 111.9589835  21.5446697  59.5740202 114.7370463  22.3455165  61.1448000
 115.6617011  22.1398027  61.0072451 114.5685766  22.0971567  62.0537341
 114.5265779  22.8640833  56.5010091 114.7002657  22.2987255  55.7483943
 115.0194671  23.6641728  56.3189581 100.3442739  14.8755502  64.5673650
  99.7996207  15.6515310  64.6993924 101.2222089  15.2226306  64.4092771
 115.5140952  22.1807597  53.6006989 116.2091856  22.8014290  53.8194304
 115.8564102  21.3302948  53.8759367 101.1308761  14.0025398  67.4603807
 100.3890497  14.1508034  68.0468437 100.8101505  14.2633664  66.5970556
 117.4132375  19.6307303  55.1294320 117.9383699  19.9694576  54.4043640
 117.3254727  18.6954318  54.9457455 109.0752424  23.5441376  67.2584197
 109.3839550  23.2990523  68.1306896 109.8727906  23.7488015  66.7703067
 109.0973036  25.6979286  59.4889573 108.6578026  25.2055665  60.1822430
 109.8481153  25.1552254  59.2481648 101.5765375  21.8890827  59.4914201
 102.4023395  21.5894599  59.1112845 101.2259427  21.1198449  59.9403990
 106.5446908  21.2417295  61.5611875 105.9226917  20.5788000  61.2614103
 107.2151775  21.2678427  60.8785523  99.7773980  19.8077153  60.4503135
  98.9405888  19.3799328  60.2687136  99.7497625  20.0009597  61.3873926
 117.1026281  20.2640206  70.4345518 116.3121825  20.2464345  69.8950017
 116.8659636  20.8028500  71.1894555 106.1060415  19.7921219  55.0370335
 106.2548535  20.4756683  54.3837008 106.9126858  19.7726309  55.5519791
 118.7242353  19.5329614  67.9920268 118.4327161  19.8959595  68.8283729
 118.1114484  18.8196623  67.8133600 103.8613048  15.8186396  56.0431404
 103.6159090  14.9148726  56.2411614 104.0308962  15.8203547  55.1010882
 109.6055820  22.2869349  52.5082083 109.0329787  22.9059536  52.0552555
 110.1788614  22.8368711  53.0422005 112.8253080  22.5706499  53.6390665
 113.7583753  22.5052061  53.8423541 112.7376293  23.4062766  53.1805198
 115.4541097  21.8872369  50.5994613 115.3754728  21.5532233  51.4930371
 116.2750763  22.3794137  50.5986085 109.8741311  17.6747908  71.3098792
 110.7944321  17.8526507  71.5038839 109.8390894  16.7303953  71.1578492
  99.0923476  12.8686501  60.2352067  98.7726261  12.0151810  59.9426441
  98.5456904  13.0835080  60.9910034 102.8703384  15.5848942  63.9521573
 103.0889394  16.5166050  63.9709607 103.2829158  15.2256917  64.7376377
  98.9611736  16.4889413  62.2045189  98.2675208  16.0743366  61.6915143
  99.7084727  16.5309949  61.6078607 107.6062519  14.5879287  72.1589384
 107.1229601  15.3879647  72.3653273 107.6923458  14.5987232  71.2056828
 100.8748479  16.4207667  60.0811203 100.8519167  16.5195354  59.1293087
 101.1849115  17.2672818  60.4028370 103.5335857  18.4783822  64.1957818
 104.4879110  18.4467764  64.1287749 103.3348380  18.0174446  65.0108044
 104.1235239  17.0484938  66.7628616 104.9428128  17.5429017  66.7863453
 104.3972047  16.1316906  66.7346183 101.8886085  24.0203441  61.2128016
 101.7540553  23.2603842  60.6466014 101.4718148  24.7444341  60.7456805
 113.0245048  19.2040365  50.2204591 113.7280899  19.4090367  50.8362247
 112.3007697  19.7717127  50.4853675 105.0455211  24.9172758  61.4246458
 104.9287595  25.8618191  61.3225149 104.2247658  24.6146320  61.8132258
 114.9331746  19.6422894  52.2703051 115.7677350  19.2104092  52.0880526
 114.7716089  19.4704908  53.1979946 114.5877638  16.1455007  53.6359390
 114.5326442  15.9799279  52.6947834 113.9623693  16.8531040  53.7921580
  99.3770153  11.3823072  67.4620813 100.0229017  10.8722026  67.9508038
  99.1687304  12.1191753  68.0364238 111.9023545  18.4503919  72.9612953
 112.7714705  18.6244571  72.5999588 111.4230297  19.2698336  72.8388682
 106.0709725  25.5701020  64.6402387 106.9736972  25.6024630  64.9568882
 105.8447096  24.6401471  64.6548723 107.8263327  24.3232007  61.3012465
 106.8758958  24.3233868  61.1876838 108.1295814  23.5764741  60.7848500
 120.3705727  30.1119973  62.3019752 120.0324239  29.9961038  61.4140287
 121.2395495  29.7111138  62.2820759 116.2292543  31.9655450  58.2916643
 115.6657408  31.8745387  57.5232931 116.1144938  31.1455354  58.7719136
 120.8525510  31.2654825  68.2605958 120.8414151  30.8707623  67.3886462
 121.0146150  30.5320898  68.8539729 113.7756975  33.4606641  61.1300864
 114.5678267  33.1197466  60.7147163 114.0153625  33.5701616  62.0503017
 115.7347729  32.7215555  54.0018243 116.5078605  32.1744542  53.8631118
 116.0873128  33.5859804  54.2132704 117.5732771  34.0491937  67.2085142
 117.2822637  34.9537568  67.0931808 118.2089756  34.0908464  67.9229212
 118.4988978  31.4268785  63.7986502 119.0952550  31.2024808  63.0843465
 118.5563950  30.6853531  64.4011949 118.0714007  28.8808221  51.6336693
 118.3239527  28.3589742  50.8720156 117.1338566  28.7174366  51.7363376
 117.7910295  30.7836327  53.8361068 117.6746553  30.1081230  54.5042152
 117.9012555  30.2968701  53.0193221 120.1341836  30.2446474  57.5407757
 119.7700044  29.7177095  58.2520678 120.9908952  29.8544943  57.3674242
 119.7747323  25.2736373  52.5369105 119.9421726  26.1416610  52.9039576
 119.5844492  25.4363655  51.6130395 115.9835138  30.1867149  60.2371640
 115.0585634  30.0543363  60.4449332 116.2319551  30.9661368  60.7341583
 119.7536544  27.7294031  53.5215772 119.6336169  28.1751082  54.3601252
 119.0589133  28.0779349  52.9629310 113.3443949  29.8300423  61.0715429
 113.4736330  30.0834902  61.9854841 112.6641400  30.4228131  60.7520084
 117.5143436  40.4997673  57.1705903 117.4367466  41.4505498  57.2494384
 116.9105080  40.1543545  57.8280830 120.0060666  27.6725538  69.8267270
 119.2294000  28.2319458  69.8170135 120.6451229  28.1582321  70.3482140
 118.2607038  30.4810991  69.3885237 119.0021723  31.0196035  69.1120061
 117.5544024  31.1077280  69.5456789 120.0893448  27.5612739  65.3590956
 120.9354643  27.9852152  65.5025605 120.0292086  26.9046363  66.0529519
 119.6119155  32.9215731  59.0059773 120.0757500  33.2003434  58.2164395
 119.3475953  32.0199175  58.8232863 116.5043236  32.4687212  61.9439536
 117.0744593  32.8974481  61.3057021 117.0951347  32.1869797  62.6423722
 118.5488041  29.0438883  55.8149338 119.2512084  29.4959927  56.2823264
 118.2168669  28.4022702  56.4429231 116.9968402  27.6350640  70.1900547
 116.3667063  28.3166920  70.4235944 116.8904490  27.5233721  69.2453686
 112.2913375  27.3022436  61.1166471 111.5012429  27.5579964  60.6406582
 112.7824622  28.1170773  61.2218512 114.2428120  27.6667015  58.0749948
 113.4459283  27.7785709  58.5933444 114.0153712  28.0053667  57.2090839
 120.0733788  34.1911718  66.0232463 120.1378220  34.6532125  66.8590635
 119.3644711  33.5609083  66.1514773 110.5751078  27.5552926  63.5481462
 110.8259116  28.4399936  63.8139038 111.1110626  27.3757528  62.7756554
 119.7881805  35.8579826  55.8911443 119.6527480  36.7031361  56.3196291
 120.3291618  36.0599103  55.1277377 116.2749145  21.9371405  72.5525798
 115.8816090  21.3837604  73.2273443 117.0915285  22.2481984  72.9432316
 113.2411203  33.3755264  56.4639368 113.7535723  34.1698514  56.6144933
 113.8933915  32.6781554  56.3972970 115.0506087  36.4921020  58.5462121
 115.2272716  37.4138985  58.3583105 115.8462921  36.1779439  58.9756501
 119.1917106  23.3529285  70.1446055 119.9326819  23.9536438  70.0650517
 119.4235029  22.6106922  69.5864097 114.3358444  28.5385652  68.4224285
 114.2211959  27.6370909  68.7231383 113.4802962  28.7849349  68.0709101
 116.1737403  38.0099194  64.5472464 116.7244828  37.8816257  63.7749458
 115.3348879  38.3094083  64.1967356 119.9704574  34.2750322  68.8916695
 120.5032911  33.5138610  68.6616003 119.4418655  33.9823973  69.6340849
 111.2060119  31.7043918  57.2398939 112.0435341  32.1140926  57.0232646
 111.3838387  30.7643360  57.2099133 120.6871663  24.2168699  57.9868010
 119.8313259  23.8275550  57.8073649 121.0998614  24.2960660  57.1267796
 118.4613695  21.8353772  61.3925752 119.3266692  21.6396581  61.0331641
 118.5291204  21.6064124  62.3195108 121.3357286  33.4036314  56.4035507
 120.8078648  32.6689074  56.0908744 120.8344789  34.1810990  56.1575475
 116.0676014  24.0655980  58.7642118 116.6419766  23.8431162  58.0315311
 116.6546997  24.1344675  59.5170720 116.3945601  26.0960441  52.7838004
 115.5582913  26.4335128  53.1047278 116.2550371  25.9609421  51.8465141
 118.3698682  20.9397229  57.4917188 117.7163094  20.6246246  56.8673803
 118.3279156  20.3172970  58.2177011 119.4809887  31.2216524  49.4070480
 118.5736948  30.9905778  49.6061629 119.9780919  30.4254144  49.5944461
 120.6598120  31.3229119  53.9294470 119.7509339  31.0388152  54.0266940
 120.6893204  31.7428198  53.0697777 111.2286290  29.0434633  57.9109672
 111.0310690  28.4503994  57.1860739 110.6732954  28.7386843  58.6285611
 119.2083014  28.9357740  60.0304265 119.2631624  27.9831576  59.9546742
 118.3974216  29.0917179  60.5145564 120.3574208  32.8637863  51.2682549
 119.9193638  32.1473722  50.8088186 121.0984649  33.0913978  50.7067640
 117.1475374  27.5534799  57.7894644 116.3343240  27.8528970  58.1959836
 117.6434368  27.1590488  58.5069126 119.2983952  37.5492556  59.7228909
 119.2560131  37.7753403  58.7937441 120.2146651  37.3155931  59.8714710
 116.6389449  25.1253155  63.4055879 117.2788828  24.9841914  62.7078842
 115.8066979  24.8387668  63.0294481 117.4149753  34.4255585  59.5190872
 118.2090351  33.9305906  59.3173447 116.7041445  33.8973449  59.1558577
 113.7232516  28.5698667  55.5950624 112.7930104  28.5083123  55.8120586
 113.8189988  28.0474620  54.7987266 113.6418065  25.0953480  58.1828866
 113.9024883  26.0098813  58.0738026 114.4635238  24.6277923  58.3325479
 115.1142991  26.5091237  65.3527690 115.7866044  26.3008599  64.7040339
 114.2872777  26.3113323  64.9132923 119.9921029  34.9984607  63.1988709
 119.8532114  34.6303392  64.0714647 119.2035625  35.5132247  63.0272666
 120.5869181  40.0993704  54.5414245 120.7620936  39.6281747  55.3559868
 119.9001969  40.7259470  54.7695506 115.5170488  29.7833840  66.1130128
 115.3790286  29.0514079  66.7141667 116.4275411  29.6942740  65.8314315
 118.1452788  29.4953799  65.6013807 118.8552407  28.8546992  65.5600426
 118.1022097  29.7466694  66.5239988 116.8581722  26.4819017  67.4209447
 116.3219079  26.0309756  68.0731043 116.2698431  26.6164926  66.6779911
 115.1530266  43.2483067  61.3154105 115.3926864  43.8801591  61.9933124
 114.3099462  42.8971107  61.6019465 116.2683981  25.9407669  49.9835910
 115.3913448  25.8196470  49.6198157 116.7441734  25.1493747  49.7314799
 107.7886122  30.7284828  60.0777418 108.4757161  30.4146558  59.4898433
 107.6334250  31.6326193  59.8044669 112.5920844  25.6175025  64.5062441
 112.5079032  25.0100695  63.7712851 111.7703550  26.1084043  64.5071938
 119.6658128  39.0562189  63.7195609 119.5928299  39.8617161  64.2314914
 119.2235521  39.2554155  62.8943631 119.4547907  38.2933959  57.2298431
 118.6715429  38.8355639  57.3236655 120.1540653  38.8107939  57.6292672
 119.3479526  26.2445972  59.6004321 118.9777314  25.6917012  60.2885226
 119.8438619  25.6404105  59.0479321 117.1768725  36.7043467  66.6959339
 117.8778184  37.3379950  66.8488733 116.7063840  37.0458198  65.9354978
 112.7736443  36.2379822  63.6290442 113.3589880  35.4923510  63.7618346
 112.5761281  36.5483778  64.5127105 115.6275098  39.2731069  58.6452884
 114.9585473  39.7577197  58.1616924 115.4887968  39.5200289  59.5596262
 107.3654098  28.8085422  62.3494885 107.4038197  28.2749013  63.1432003
 106.8594391  28.2820627  61.7305862 119.7680367  41.3074813  65.2435542
 120.3198675  41.4706434  66.0084628 120.1086560  41.8979250  64.5715567
 114.7444860  23.6549962  65.8457427 114.8086186  24.5164793  65.4334825
 114.6811980  23.0423964  65.1129785 114.2197133  25.7273095  69.4930461
 114.8469171  25.3450172  70.1067986 113.3625051  25.5087297  69.8586154
 110.9962675  27.5349524  55.4248816 111.2916116  26.6260202  55.3715870
 110.0950711  27.5137263  55.1029818 114.5256922  25.6105521  61.4076365
 113.8043508  26.2241488  61.2683838 115.3150178  26.1463285  61.3293011
 117.3283236  22.9459947  67.6817016 117.8517638  23.1922244  68.4443326
 117.1095569  23.7779982  67.2620154 112.7250517  25.2163622  55.5488141
 112.3963223  24.3361001  55.3663247 113.0789888  25.1611290  56.4364530
 115.8392340  25.5036591  55.9163619 116.1788413  26.0322513  55.1942227
 116.2864460  25.8416998  56.6922185 118.5335781  23.8873642  65.3666687
 118.1932601  23.0881455  65.7687367 117.8274787  24.1875353  64.7943520
 119.1852253  20.9722955  63.8194010 120.0078322  20.4983433  63.6972900
 119.4290316  21.7513438  64.3192696 117.8260487  24.0011213  54.1156912
 118.5468850  24.3792466  53.6120629 117.2025791  24.7200090  54.2191890
 116.7090831  27.6642075  61.6285989 116.5635412  27.9782378  62.5210270
 116.2316035  28.2826976  61.0756887 118.5687214  24.6544623  61.6766878
 118.5548783  23.7585717  61.3399176 119.2859642  24.6615287  62.3105164
 120.4213345  25.0881963  63.7220006 120.1631123  26.0099034  63.7204336
 119.8898385  24.6912398  64.4120470 111.1836494  30.2047420  64.5673650
 110.6389962  30.9807228  64.6993924 112.0615843  30.5518224  64.4092771
 117.9724110  23.5359003  56.9454448 118.0940021  22.6075650  57.1445336
 117.6826153  23.5497689  56.0332764 120.8415301  21.2213914  60.0821168
 120.8636997  21.2853247  59.1273148 121.2583360  20.3818423  60.2761674
 111.9702515  29.3317316  67.4603807 111.2284251  29.4799951  68.0468437
 111.6495260  29.5925581  66.5970556 119.9146178  38.8733294  67.2584197
 120.2233305  38.6282441  68.1306896 120.7121660  39.0779933  66.7703067
 119.9366790  41.0271204  59.4889573 119.4971780  40.5347582  60.1822430
 120.6874907  40.4844171  59.2481648 112.4159129  37.2182745  59.4914201
 113.2417149  36.9186516  59.1112845 112.0653181  36.4490367  59.9403990
 117.3840662  36.5709213  61.5611875 116.7620672  35.9079918  61.2614103
 118.0545529  36.5970345  60.8785523 110.6167734  35.1369071  60.4503135
 109.7799642  34.7091245  60.2687136 110.5891380  35.3301514  61.3873926
 117.4565190  25.0491001  71.1544381 117.5053345  25.9253124  70.7722150
 117.9987704  24.5068394  70.5816024 116.9454169  35.1213136  55.0370335
 117.0942290  35.8048601  54.3837008 117.7520613  35.1018226  55.5519791
 119.6864478  25.8022373  67.9090740 118.8167788  26.0955939  67.6373328
 119.9223959  26.3862818  68.6298003 114.7006802  31.1478314  56.0431404
 114.4552844  30.2440644  56.2411614 114.8702717  31.1495464  55.1010882
 113.9702450  26.8806671  53.5417566 113.2771695  26.9551026  52.8857602
 113.7254202  26.1167015  54.0639083 120.4449575  37.6161267  52.5082083
 119.8723542  38.2351454  52.0552555 121.0182368  38.1660628  53.0422005
 119.0139290  26.8772056  49.7853021 118.1070746  26.5805168  49.8615734
 119.2915271  26.5801874  48.9187307 109.9317231  28.1978419  60.2352067
 109.6120015  27.3443727  59.9426441 109.3850659  28.4126997  60.9910034
 113.7097138  30.9140860  63.9521573 113.9283148  31.8457968  63.9709607
 114.1222912  30.5548835  64.7376377 120.6301356  21.4208945  55.9397262
 119.8202084  21.0756030  56.3152508 121.3185773  21.1116489  56.5284873
 118.5825004  26.4874066  73.3424322 118.4821731  27.4368423  73.2736413
 118.3646546  26.1592305  72.4700392 117.7838075  23.7358991  49.9265000
 118.6457239  24.0613889  50.1860817 117.9688419  22.9490487  49.4138066
 109.8005491  31.8181331  62.2045189 109.1068962  31.4035283  61.6915143
 110.5478482  31.8601867  61.6078607 118.4456274  29.9171205  72.1589384
 117.9623355  30.7171565  72.3653273 118.5317213  29.9279150  71.2056828
 111.7142233  31.7499584  60.0811203 111.6912921  31.8487272  59.1293087
 112.0242870  32.5964735  60.4028370 114.3729611  33.8075739  64.1957818
 115.3272865  33.7759682  64.1287749 114.1742135  33.3466363  65.0108044
 114.9628993  32.3776856  66.7628616 115.7821882  32.8720934  66.7863453
 115.2365801  31.4608824  66.7346183 112.7279840  39.3495359  61.2128016
 112.5934308  38.5895760  60.6466014 112.3111902  40.0736259  60.7456805
 115.8848966  40.2464676  61.4246458 115.7681350  41.1910108  61.3225149
 115.0641412  39.9438238  61.8132258 110.2163908  26.7114989  67.4620813
 110.8622771  26.2013943  67.9508038 110.0081059  27.4483671  68.0364238
 118.7367518  20.9755034  53.2144709 118.7246188  21.9196874  53.3712980
 119.6290940  20.7925179  52.9204170 116.9103480  40.8992938  64.6402387
 117.8130727  40.9316548  64.9568882 116.6840850  39.9693389  64.6548723
 118.6657082  39.6523924  61.3012465 117.7152713  39.6525786  61.1876838
 118.9689568  38.9056659  60.7848500 114.5561399  23.8582606  71.5595827
 115.4192860  23.5019411  71.7699151 113.9826809  23.5196501  72.2471231
 118.6279876  46.0576746  60.0777418 119.3150916  45.7438476  59.4898433
 118.4728005  46.9618111  59.8044669 118.2047852  44.1377339  62.3494885
 118.2431952  43.6040930  63.1432003 117.6988145  43.6112545  61.7305862
 121.4561489  50.4660989  60.4503135 120.6193397  50.0383163  60.2687136
 121.4285134  50.6593432  61.3873926 120.7710985  43.5270337  60.2352067
 120.4513770  42.6735645  59.9426441 120.2244413  43.7418915  60.9910034
 120.6399245  47.1473248  62.2045189 119.9462717  46.7327201  61.6915143
 121.3872236  47.1893785  61.6078607 117.5143438  17.5059795  43.8951210
 117.4367467  18.4567620  43.9739691 116.9105081  17.1605668  44.5526136
 115.1530267  20.2545189  48.0399412 115.3926865  20.8863713  48.7178431
 114.3099464  19.9033229  48.3264771 115.6275099  16.2793192  45.3698191
 114.9585475  16.7639319  44.8862231 115.4887969  16.5262412  46.2841569
 119.7680368  18.3136935  51.9680849 120.3198676  18.4768557  52.7329934
 120.1086561  18.9041373  51.2960874 112.7279841  16.3557482  47.9373322
 112.5934309  15.5957882  47.3711320 112.3111903  17.0798381  47.4702111
 115.8848967  17.2526799  48.1491765 115.7681351  18.1972231  48.0470455
 115.0641413  16.9500360  48.5377564 116.9103481  17.9055060  51.3647693
 117.8130728  17.9378671  51.6814188 116.6840851  16.9755511  51.3794029
 118.6279877  23.0638869  46.8022724 119.3150917  22.7500599  46.2143739
 118.4728006  23.9680233  46.5289976 118.2047853  21.1439462  49.0740191
 118.2431953  20.6103053  49.8677309 117.6988146  20.6174668  48.4551168
 121.4561490  27.4723111  47.1748442 120.6193398  27.0445286  46.9932443
 121.4285135  27.6655555  48.1119233 120.7710987  20.5332459  46.9597374
 120.4513771  19.6797768  46.6671748 120.2244415  20.7481038  47.7155341
 120.6399247  24.1535371  48.9290495 119.9462718  23.7389324  48.4160450
 121.3872238  24.1955907  48.3323914  24.8334169  62.9251912 118.7040630
  24.1595868  63.2283609 119.3125588  25.2199991  63.7280993 118.3546087
  28.7990910  60.5037396 119.9780453  29.4941814  61.1244089 120.1967768
  29.1414060  59.6532747 120.2532831  22.8905778  60.6099148 118.8855547
  22.3179745  61.2289335 118.4326018  23.4638572  61.1598509 119.4195469
  26.1103038  60.8936298 120.0164129  27.0433711  60.8281859 120.2197004
  26.0226251  61.7292565 119.5578661  28.7391054  60.2102168 116.9768076
  28.6604686  59.8762032 117.8703834  29.5600721  60.7023936 116.9759549
  26.3095006  57.5270163 116.5978055  27.0130856  57.7320166 117.2135710
  25.5857655  58.0946925 116.8627138  28.2181704  57.9652693 118.6476515
  29.0527308  57.5333891 118.4653990  28.0566047  57.7934706 119.5753409
  36.8465979  68.4822344 128.7431692  37.4844389  68.3629091 128.0395032
  36.7286822  69.4303188 128.8019644  29.5142501  70.2885248 124.6690107
  28.9507366  70.1975185 123.9006395  29.3994896  69.4685153 125.1492600
  35.0942059  73.9556216 119.9804572  34.4430039  74.5410296 119.5938586
  35.8886422  74.4862411 120.0399610  29.0197687  71.0445353 120.3791706
  29.7928563  70.4974340 120.2404582  29.3723085  71.9089602 120.5906168
  31.3563964  67.2038019 118.0110156  31.6089485  66.6819541 117.2493619
  30.4188524  67.0404165 118.1136840  36.4007247  66.2073798 125.8184900
  37.1870336  65.7893221 125.4675317  36.6645952  67.1119890 125.9866548
  36.5717325  71.6446648 120.5173556  35.9363158  71.7181274 121.2294461
  36.2414731  72.2340247 119.8392636  41.8015674  66.1449031 126.7217878
  42.5340846  65.5748248 126.9555708  41.0455030  65.7570631 127.1624384
  31.0760253  69.1066125 120.2134531  30.9596511  68.4311029 120.8815616
  31.1862513  68.6198499 119.3966684  33.4191794  68.5676272 123.9181221
  33.0550001  68.0406893 124.6294142  34.2758910  68.1774741 123.7447706
  33.0597281  63.5966172 118.9142569  33.2271683  64.4646408 119.2813040
  32.8694450  63.7593454 117.9903858  33.0386502  66.0523830 119.8989236
  32.9186127  66.4980880 120.7374716  32.3439090  66.4009147 119.3402774
  30.7993394  78.8227471 123.5479367  30.7217424  79.7735296 123.6267848
  30.1955038  78.4773344 124.2054293  38.7371568  66.5245303 120.7269570
  39.6489424  66.7572689 120.5517267  38.2281215  67.1082347 120.1644649
  37.3441150  71.5071121 128.1183151  36.7150013  71.6716835 127.4159219
  36.9566812  71.9212731 128.8894115  41.2230382  72.4425559 125.4727515
  40.5381420  72.8224460 124.9224548  41.3074232  73.0520886 126.2059463
  32.8969112  71.2445529 125.3833236  33.3607458  71.5233232 124.5937859
  32.6325910  70.3428974 125.2006327  31.8337998  67.3668682 122.1922802
  32.5362042  67.8189725 122.6596728  31.5018627  66.7252500 122.8202695
  39.5927142  72.9657473 130.2445216  40.4144586  72.5637661 129.9627898
  39.5889545  72.8625708 131.1961332  47.6833135  69.3096222 126.5930187
  46.9296843  68.7403620 126.4374192  47.8180676  69.2758886 127.5400822
  33.0731763  74.1809624 122.2684907  32.9377438  75.0261160 122.6969755
  33.6141575  74.3828902 121.5050841  26.5261160  71.6985062 122.8412832
  27.0385681  72.4928313 122.9918397  27.1783873  71.0011353 122.7746433
  28.3356045  74.8150819 124.9235585  28.5122673  75.7368783 124.7356569
  29.1312879  74.5009238 125.3529965  24.4910077  70.0273717 123.6172402
  25.3285299  70.4370725 123.4006110  24.6688345  69.0873159 123.5872596
  36.3874509  67.6948797 119.3056235  35.8721133  68.4653402 119.5444623
  36.1151818  67.0213933 119.9289297  33.9721620  62.5398498 124.3641474
  33.1163217  62.1505348 124.1847112  34.3848572  62.6190459 123.5041259
  41.3608783  70.4481152 121.2409409  40.5838226  70.1092311 120.7964571
  42.0400264  70.4533775 120.5664374  36.1760812  65.5675889 121.1316017
  35.8710948  65.8822038 121.9826160  37.1291255  65.6457309 121.1743350
  34.6207244  71.7266113 122.7808971  34.0928606  70.9918872 122.4682208
  34.1194747  72.5040789 122.5348939  39.6000090  69.9215133 127.8976017
  38.9423765  70.6114395 127.9856146  40.4040490  70.3111565 128.2410003
  38.4105549  68.2759506 125.9479959  38.9237431  68.9089498 126.4501668
  39.0606773  67.6760701 125.5823319  29.6795559  64.4190240 119.1611467
  28.8432871  64.7564926 119.4820742  29.5400329  64.2839220 118.2238604
  32.7659844  69.5446323 115.7843944  31.8586906  69.3135576 115.9835093
  33.2630876  68.7483942 115.9717925  35.6727923  78.2543830 118.7040630
  34.9989622  78.5575527 119.3125588  36.0593745  79.0572910 118.3546087
  35.6721428  67.1500377 123.3240979  36.4193247  67.6621774 123.0148101
  35.9413017  66.8284430 124.1845373  33.9448078  69.6458918 120.3067934
  33.0359297  69.3617951 120.4040403  33.9743162  70.0657996 119.4471241
  39.1767345  73.2565507 124.0759101  38.7229672  72.4156417 124.1324292
  38.5461312  73.8926906 124.4133881  38.1200265  64.1857493 125.3059769
  37.3823022  63.6734879 125.6370011  38.3727038  63.7457875 124.4943046
  37.6200285  75.0942004 125.0108919  37.9123259  75.6547061 124.2921285
  38.1298905  75.3870565 125.7662079  32.4932972  67.2587538 126.4077729
  32.5481582  66.3061375 126.3320206  31.6824174  67.4146977 126.8919027
  33.6424166  71.1867661 117.6456012  33.2043596  70.4703520 117.1861650
  34.3834607  71.4143776 117.0841104  30.4325332  65.8764598 124.1668108
  29.6193197  66.1758769 124.5733300  30.9284326  65.4820287 124.8842590
  32.5833910  75.8722355 126.1002373  32.5410089  76.0983201 125.1710905
  33.4996609  75.6385730 126.2488174  41.7597280  69.4624858 123.7032331
  41.6215179  69.6526454 122.7753520  41.4033499  70.2244241 124.1600382
  41.7866660  71.5301385 128.7143602  42.2203167  71.4376675 129.5626656
  42.4998241  71.5058886 128.0763618  30.6999711  72.7485384 125.8964335
  31.4940309  72.2535704 125.6946910  29.9891403  72.2203247 125.5332041
  27.0082474  66.8928466 121.9724088  26.0780062  66.8312921 122.1894050
  27.1039946  66.3704419 121.1760729  42.6482210  71.5725086 131.2476488
  42.8418100  72.4770897 131.4935763  42.5482828  71.1132505 132.0815073
  33.8719138  78.4223502 120.9187709  34.0470894  77.9511546 121.7333332
  33.1851927  79.0489269 121.1468970  34.8276202  72.6996009 126.9651010
  34.4926034  72.6596779 127.8608660  34.3280147  72.0340725 126.4921420
  37.7635393  70.0452043 117.2388070  37.1464564  69.3198871 117.1421123
  37.2951882  70.8061403 116.8955144  29.5533939  64.2637467 116.3609374
  28.6763406  64.1426268 115.9971621  30.0291692  63.4723546 116.1088263
  32.7397865  76.6163758 123.6071895  31.9565387  77.1585438 123.7010119
  33.4390610  77.1337737 124.0066136  43.9024273  68.1298753 127.8924392
  43.8914149  69.0123468 127.5218325  43.0341652  67.7770304 127.6978929
  37.1324296  71.1830074 123.8244523  36.1980575  71.3031537 123.6549228
  37.3100965  70.2802541 123.5604533  40.5196847  67.0247394 124.3594558
  40.9857300  67.8575385 124.2854860  40.9704348  66.5592375 125.0639816
  38.5873079  73.3691215 121.3580710  38.8632922  73.2547810 122.2674584
  37.7177577  72.9708700 121.3192883  35.2227143  77.6177566 125.0013523
  35.4049537  76.7999222 125.4641276  36.0460129  77.8345258 124.5638413
  35.5569308  76.5445751 122.2628572  36.0857074  76.0338206 121.6498734
  35.8197528  76.2288281 123.1274105  24.2812633  65.8579323 121.8022280
  24.5766074  64.9490001 121.7489333  23.3800669  65.8367062 121.4803282
  36.1898712  77.5786587 128.6072688  36.0649851  76.7776327 128.0983634
  36.8477803  78.0732780 128.1186658  38.2533620  75.3795607 130.2352238
  37.3063956  75.2600958 130.1630565  38.6016393  74.4918105 130.3178500
  35.2580054  75.1748323 126.4356590  35.1105016  74.2465030 126.6164161
  36.0833547  75.1968414 125.9513666  29.1242298  63.8266390 122.2937083
  29.4638370  64.3552311 121.5715691  29.5714418  64.1646796 123.0695649
  38.8614175  75.9976882 127.5221463  39.7860723  75.7919743 127.3845914
  38.6929479  75.7493283 128.4310805  31.1110445  62.3241012 120.4930375
  31.8318807  62.7022264 119.9894092  30.4875749  63.0429888 120.5965353
  35.2541568  63.0286161 121.4288708  35.4705182  63.9110799 121.1277536
  34.7735635  62.6372374 120.6994350  38.6509492  76.5162549 122.8783555
  38.8246369  75.9508972 122.1257407  39.1438383  77.3163444 122.6963045
  44.5048883  69.2798972 124.4973854  44.9480029  68.5306297 124.0992978
  43.6275393  69.2709108 124.1147586  39.6384664  75.8329314 119.9780453
  40.3335569  76.4536006 120.1967768  39.9807814  74.9824665 120.2532831
  41.5376087  73.2829019 121.5067784  42.0627411  73.6216292 120.7817104
  41.4498440  72.3476034 121.3230918  30.2304127  73.4442935 121.4143799
  30.3792247  74.1278399 120.7610472  31.0370570  73.4248025 121.9293255
  44.0481747  70.7504210 126.8896302  44.8828639  71.1894014 127.0533862
  44.1840876  70.2742864 126.0704548  27.9856760  69.4708112 122.4204868
  27.7402802  68.5670442 122.6185078  28.1552675  69.4725263 121.4784346
  27.2552407  65.2036470 119.9191030  26.5621652  65.2780825 119.2631065
  27.0104159  64.4396814 120.4412546  33.7299533  75.9391065 118.8855547
  33.1573500  76.5581252 118.4326018  34.3032326  76.4890427 119.4195469
  36.9496792  76.2228215 120.0164129  37.8827465  76.1573777 120.2197004
  36.8620005  77.0584482 119.5578661  39.5784809  75.5394086 116.9768076
  39.4998440  75.2053949 117.8703834  40.3994476  76.0315854 116.9759549
  42.2763000  68.4055825 130.1844395  42.2439320  67.4671826 130.3704079
  42.8863624  68.4839862 129.4510220  34.1146331  67.2751878 116.2271599
  35.0605436  67.1458086 116.2960017  33.7360576  66.5366540 116.7041027
  48.0939550  69.4671832 129.3250432  48.8242938  69.2057120 129.8858135
  47.4846495  68.7300554 129.3652500  46.1754847  67.6079694 129.9224883
  45.4488011  67.4735659 129.3141375  45.7602134  67.9156523 130.7281601
  32.2989248  65.2001854 116.1626484  31.3920704  64.9034967 116.2389198
  32.5765229  64.9031672 115.2960771  33.9151314  59.7438744 122.3170726
  33.1052042  59.3985829 122.6925972  34.6035731  59.4346288 122.9058337
  31.0688033  62.0588790 116.3038463  31.9307197  62.3843688 116.5634281
  31.2538377  61.2720286 115.7911529  39.2220669  60.9317316 123.4473686
  38.6419338  61.5902120 123.0651739  38.9556602  60.1094661 123.0361104
  38.0045547  63.0917406 122.5030035  37.1171402  63.3767057 122.2850229
  38.4199536  62.9311170 121.6557312  41.3560083  63.1163927 126.2184374
  42.1320474  63.6060380 126.4908991  40.6308218  63.5421982 126.6756243
  43.7932642  63.8291547 127.2758315  44.3877133  63.5887283 126.5651623
  43.8659226  63.1098677 127.9031851  37.1488761  72.8562081 116.5978055
  37.8524611  73.0612084 117.2135710  36.4251410  73.4238843 116.8627138
  37.9786571  68.6071942 122.7180325  37.9221772  69.0640494 121.8787957
  38.5314913  67.8462627 122.5403168  41.7891377  64.3961674 123.5430444
  41.5328311  63.9958310 124.3738652  41.1644245  65.1105468 123.4180584
  46.1003715  67.1357748 126.0501736  45.5403273  67.2050937 126.8233298
  45.4947218  66.9598732 125.3301232  39.0575458  73.2944610 118.6476515
  39.8921062  72.8625809 118.4653990  38.8959801  73.1226624 119.5753409
  38.7121350  69.7976724 120.0132854  38.6570154  69.6320995 119.0721298
  38.0867406  70.5052757 120.1695044  32.0217476  59.2984833 119.5918172
  32.0096146  60.2426673 119.7486443  32.9140898  59.1154978 119.2977634
  40.3536255  85.6177166 124.6690107  39.7901120  85.5267103 123.9006395
  40.2388650  84.7977070 125.1492600  45.9335814  89.2848134 119.9804572
  45.2823794  89.8702214 119.5938586  46.7280177  89.8154329 120.0399610
  39.8591441  86.3737271 120.3791706  40.6322317  85.8266258 120.2404582
  40.2116840  87.2381520 120.5906168  42.1957719  82.5329937 118.0110156
  42.4483240  82.0111458 117.2493619  41.2582278  82.3696082 118.1136840
  47.2401002  81.5365715 125.8184900  48.0264091  81.1185138 125.4675317
  47.5039706  82.4411807 125.9866548  47.4111079  86.9738566 120.5173556
  46.7756912  87.0473192 121.2294461  47.0808485  87.5632164 119.8392636
  41.9154008  84.4358043 120.2134531  41.7990266  83.7602946 120.8815616
  42.0256268  83.9490417 119.3966684  44.2585549  83.8968190 123.9181221
  43.8943756  83.3698811 124.6294142  45.1152664  83.5066659 123.7447706
  43.8991036  78.9258090 118.9142569  44.0665438  79.7938326 119.2813040
  43.7088205  79.0885371 117.9903858  40.1078850  83.8388865 126.6145104
  39.1829347  83.7065080 126.8222796  40.3563263  84.6183085 127.1115046
  43.8780256  81.3815747 119.8989236  43.7579882  81.8272798 120.7374716
  43.1832845  81.7301065 119.3402774  49.5765323  81.8537220 120.7269570
  50.4883179  82.0864607 120.5517267  49.0674970  82.4374265 120.1644649
  46.9201297  78.0295256 128.9759431  46.0585776  78.3276510 129.2676168
  46.9463732  78.2465655 128.0440463  43.7362867  86.5737447 125.3833236
  44.2001212  86.8525150 124.5937859  43.4719665  85.6720891 125.2006327
  42.6731753  82.6960599 122.1922802  43.3755796  83.1481643 122.6596728
  42.3412381  82.0544418 122.8202695  36.4157087  80.9544152 127.4939935
  35.6256141  81.2101680 127.0180046  36.9068334  81.7692490 127.5991976
  38.3671832  81.3188731 124.4523412  37.5702995  81.4307425 124.9706908
  38.1397424  81.6575383 123.5864302  43.9125517  89.5101542 122.2684907
  43.7771192  90.3553078 122.6969755  44.4535330  89.7120820 121.5050841
  37.3654915  87.0276980 122.8412832  37.8779435  87.8220230 122.9918397
  38.0177628  86.3303270 122.7746433  39.1749800  90.1442736 124.9235585
  39.3516428  91.0660701 124.7356569  39.9706633  89.8301155 125.3529965
  47.2617981  73.0332104 130.7983800  46.9182250  73.9233745 130.7222911
  47.6296944  72.8433761 129.9353385  35.3303832  85.3565634 123.6172402
  36.1679054  85.7662643 123.4006110  35.5082099  84.4165076 123.5872596
  47.2268264  83.0240715 119.3056235  46.7114887  83.7945320 119.5444623
  46.9545572  82.3505851 119.9289297  44.8115375  77.8690416 124.3641474
  43.9556971  77.4797266 124.1847112  45.2242327  77.9482376 123.5041259
  46.3414521  75.4036759 128.7633034  45.8379317  75.3666894 127.9500839
  46.6345128  76.3129502 128.8229690  42.5857407  75.4875489 127.7699215
  43.4510404  75.2918297 127.4105105  42.6534916  75.2585840 128.6968572
  52.2002538  85.7773070 121.2409409  51.4231981  85.4384229 120.7964571
  52.8794019  85.7825693 120.5664374  47.0154567  80.8967807 121.1316017
  46.7104702  81.2113956 121.9826160  47.9685009  80.9749227 121.1743350
  45.4600999  87.0558030 122.7808971  44.9322360  86.3210790 122.4682208
  44.9588501  87.8332707 122.5348939  40.1919726  77.7177697 125.1415582
  40.7663478  77.4952878 124.4088775  40.7790709  77.7866391 125.8944183
  40.5189313  79.7482158 119.1611467  39.6826626  80.0856844 119.4820742
  40.3794083  79.6131137 118.2238604  42.4942394  74.5918945 123.8690652
  41.8406806  74.2767963 123.2447266  42.4522868  73.9694686 124.5950474
  43.6053599  84.8738241 115.7843944  42.6980661  84.6427494 115.9835093
  44.1024631  84.0775860 115.9717925  46.5121678  93.5835748 118.7040630
  45.8383377  93.8867445 119.3125588  46.8987500  94.3864828 118.3546087
  45.7280134  81.0800879 128.1938299  44.8102696  81.3015826 128.0359987
  46.1440278  81.1547189 127.3350006  46.5115182  82.4792295 123.3240979
  47.2587001  82.9913692 123.0148101  46.7806772  82.1576347 124.1845373
  44.7841832  84.9750835 120.3067934  43.8753052  84.6909868 120.4040403
  44.8136916  85.3949914 119.4471241  48.9594019  79.5149411 125.3059769
  48.2216776  79.0026797 125.6370011  49.2120793  79.0749793 124.4943046
  49.0605647  72.2925663 125.9001538  49.3664523  71.4323026 125.6127453
  49.7858251  72.8843283 125.7000532  35.3530003  82.6956350 124.2883136
  35.1554403  82.1025710 123.5634202  34.7976667  82.3908560 125.0059075
  43.3326726  82.5879456 126.4077729  43.3875336  81.6353292 126.3320206
  42.5217928  82.7438895 126.8919027  44.4817920  86.5159579 117.6456012
  44.0437350  85.7995438 117.1861650  45.2228361  86.7435694 117.0841104
  41.2719086  81.2056516 124.1668108  40.4586952  81.5050686 124.5733300
  41.7678081  80.8112205 124.8842590  52.5991035  84.7916776 123.7032331
  52.4608934  84.9818372 122.7753520  52.2427254  85.5536159 124.1600382
  40.7633161  78.7774871 129.7829343  41.4032540  78.6363630 129.0852306
  39.9310692  78.4909385 129.4067945  41.5393465  88.0777302 125.8964335
  42.3334064  87.5827622 125.6946910  40.8285157  87.5495165 125.5332041
  37.8476228  82.2220383 121.9724088  36.9173817  82.1604839 122.1894050
  37.9433700  81.6996336 121.1760729  37.7661778  78.7475196 124.5602330
  38.0268595  79.6620530 124.4511490  38.5878950  78.2799639 124.7098942
  44.7112893  93.7515420 120.9187709  44.8864649  93.2803463 121.7333332
  44.0245681  94.3781186 121.1468970  48.6029148  85.3743961 117.2388070
  47.9858318  84.6490789 117.1421123  48.1345636  86.1353321 116.8955144
  40.3927694  79.5929385 116.3609374  39.5157160  79.4718186 115.9971621
  40.8685447  78.8015463 116.1088263  46.8888270  77.7550305 126.2506100
  47.3856969  77.0020267 125.9307170  46.1175251  77.7914622 125.6849309
  47.9718051  86.5121992 123.8244523  47.0374329  86.6323455 123.6549228
  48.1494719  85.6094459 123.5604533  43.4723239  79.8967688 125.9777785
  43.1021026  79.3438728 126.6658690  43.9682331  79.2925821 125.4252785
  51.3590602  82.3539311 124.3594558  51.8251054  83.1867303 124.2854860
  51.8098102  81.8884293 125.0639816  49.4266833  88.6983133 121.3580710
  49.7026677  88.5839727 122.2674584  48.5571332  88.3000618 121.3192883
  49.3307265  74.7219898 128.3985459  48.4170344  74.9524125 128.5667666
  49.7600366  74.8058342 129.2499491  46.3963063  91.8737669 122.2628572
  46.9250829  91.3630123 121.6498734  46.6591282  91.5580199 123.1274105
  38.8688572  77.3071679 132.2230891  38.9329899  78.1686510 131.8108288
  38.8055693  76.6945680 131.4903249  35.1206388  81.1871240 121.8022280
  35.4159829  80.2781919 121.7489333  34.2194423  81.1658980 121.4803282
  38.6500635  79.2627237 127.7849828  37.9287220  79.8763205 127.6457302
  39.4393890  79.7985002 127.7066474  36.8494229  78.8685338 121.9261605
  36.5206935  77.9882717 121.7436711  37.2033600  78.8133007 122.8137994
  39.9636052  79.1558308 122.2937083  40.3032125  79.6844229 121.5715691
  40.4108173  79.4938714 123.0695649  42.6579493  77.5395358 131.7440151
  42.3176313  76.7403172 132.1460831  41.9518499  77.8397069 131.1716984
  43.3095965  74.6244671 130.1967474  44.1322034  74.1505149 130.0746364
  43.5534028  75.4035155 130.6966160  41.9504199  77.6532929 120.4930375
  42.6712562  78.0314182 119.9894092  41.3269504  78.3721806 120.5965353
  46.0935322  78.3578078 121.4288708  46.3098937  79.2402716 121.1277536
  45.6129389  77.9664292 120.6994350  40.8334544  81.3163792 128.0059452
  40.6879124  81.6304095 128.8983734  40.3559747  81.9348692 127.4530351
  42.6930927  78.3066340 128.0540342  42.6792495  77.4107433 127.7172640
  43.4103355  78.3137003 128.6878628  44.5457057  78.7403680 130.0993469
  44.2874835  79.6620750 130.0977800  44.0142098  78.3434114 130.7893933
  42.0967823  77.1880720 123.3227912  42.2183734  76.2597366 123.5218800
  41.8069865  77.2019406 122.4106227  44.9659013  74.8735630 126.4594632
  44.9880710  74.9374963 125.5046611  45.3827072  74.0340139 126.6535138
  50.4778419  91.1621231 119.9780453  51.1729323  91.7827924 120.1967768
  50.8201569  90.3116582 120.2532831  52.3769842  88.6120937 121.5067784
  52.9021166  88.9508210 120.7817104  52.2892194  87.6767952 121.3230918
  41.0697881  88.7734852 121.4143799  41.2186002  89.4570317 120.7610472
  41.8764325  88.7539943 121.9293255  38.8250514  84.8000030 122.4204868
  38.5796556  83.8962360 122.6185078  38.9946429  84.8017181 121.4784346
  38.0946162  80.5328388 119.9191030  37.4015407  80.6072743 119.2631065
  37.8497914  79.7688731 120.4412546  46.7659818  72.0923989 127.3230520
  47.0461572  71.4247178 127.9490947  47.5510425  72.2853085 126.8105184
  44.5693287  91.2682983 118.8855547  43.9967254  91.8873170 118.4326018
  45.1426081  91.8182345 119.4195469  47.7890547  91.5520133 120.0164129
  48.7221220  91.4865695 120.2197004  47.7013760  92.3876400 119.5578661
  50.4178563  90.8686003 116.9768076  50.3392195  90.5345867 117.8703834
  51.2388230  91.3607771 116.9759549  44.9540085  82.6043796 116.2271599
  45.8999190  82.4750004 116.2960017  44.5754330  81.8658458 116.7041027
  50.9261970  74.2699802 126.1898491  50.7286791  73.9614890 127.0741823
  51.5361676  74.9961441 126.3196421  43.1383003  80.5293772 116.1626484
  42.2314458  80.2326885 116.2389198  43.4158984  80.2323590 115.2960771
  44.7545068  75.0730662 122.3170726  43.9445797  74.7277747 122.6925972
  45.4429485  74.7638206 122.9058337  46.6835617  74.1508709 123.9395022
  47.2366655  74.5704162 124.5985045  46.9205703  73.2244457 123.9817978
  41.9081787  77.3880707 116.3038463  42.7700951  77.7135606 116.5634281
  42.0932131  76.6012203 115.7911529  50.0614424  76.2609234 123.4473686
  49.4813093  76.9194038 123.0651739  49.7950356  75.4386578 123.0361104
  48.5117990  75.6614291 125.6495007  49.0117768  75.7730826 124.8409326
  49.1553598  75.3575344 126.2895815  48.8439302  78.4209324 122.5030035
  47.9565157  78.7058975 122.2850229  49.2593291  78.2603088 121.6557312
  52.1953838  78.4455845 126.2184374  52.9714228  78.9352298 126.4908991
  51.4701972  78.8713899 126.6756243  47.9882515  88.1853999 116.5978055
  48.6918365  88.3904001 117.2135710  47.2645164  88.7530761 116.8627138
  48.8180326  83.9363860 122.7180325  48.7615527  84.3932411 121.8787957
  49.3708668  83.1754545 122.5403168  52.6285131  79.7253592 123.5430444
  52.3722066  79.3250228 124.3738652  52.0037999  80.4397386 123.4180584
  49.8969213  88.6236528 118.6476515  50.7314817  88.1917726 118.4653990
  49.7353556  88.4518542 119.5753409  49.5515105  85.1268641 120.0132854
  49.4963909  84.9612913 119.0721298  48.9261160  85.8344674 120.1695044
  42.8611230  74.6276750 119.5918172  42.8489900  75.5718590 119.7486443
  43.7534652  74.4446896 119.2977634  46.6763350  71.2219527 123.8464109
  45.9095746  70.6678014 123.9920792  47.0874055  71.2941396 124.7078261
  51.3583068  95.0774075 119.1611467  50.5220380  95.4148762 119.4820742
  51.2187838  94.9423055 118.2238604  51.2321448  94.9221303 116.3609374
  50.3550915  94.8010104 115.9971621  51.7079201  94.1307381 116.1088263
  53.9776757  95.8585690 116.1626484  53.0708213  95.5618802 116.2389198
  54.2552738  95.5615508 115.2960771  52.7475542  92.7172625 116.3038463
  53.6094706  93.0427523 116.5634281  52.9325886  91.9304121 115.7911529
  53.7004985  89.9568668 119.5918172  53.6883655  90.9010508 119.7486443
  54.5928407  89.7738813 119.2977634  24.8334170  39.9314035 105.4285936
  24.1595869  40.2345732 106.0370894  25.2199992  40.7343115 105.0791393
  28.7990911  37.5099518 106.7025760  29.4941815  38.1306211 106.9213074
  29.1414061  36.6594870 106.9778137  22.8905779  37.6161270 105.6100853
  22.3179746  38.2351457 105.1571325  23.4638573  38.1660632 106.1440775
  26.1103039  37.8998420 106.7409435  27.0433712  37.8343982 106.9442311
  26.0226252  38.7354687 106.2823968  28.7391056  37.2164291 103.7013383
  28.6604687  36.8824154 104.5949141  29.5600723  37.7086059 103.7004855
  26.3095008  34.5332286 103.3223361  27.0130858  34.7382289 103.9381017
  25.5857656  35.1009048 103.5872445  28.2181705  34.9714815 105.3721821
  29.0527309  34.5396014 105.1899296  28.0566048  34.7996829 106.2998716
  36.8465980  45.4884466 115.4676998  37.4844390  45.3691214 114.7640338
  36.7286823  46.4365310 115.5264950  29.5142502  47.2947371 111.3935414
  28.9507367  47.2037308 110.6251702  29.3994897  46.4747275 111.8737906
  35.0942061  50.9618339 106.7049879  34.4430040  51.5472419 106.3183892
  35.8886424  51.4924533 106.7644916  29.0197688  48.0507476 107.1037013
  29.7928564  47.5036463 106.9649889  29.3723087  48.9151725 107.3151474
  31.3563966  44.2100142 104.7355463  31.6089486  43.6881663 103.9738926
  30.4188525  44.0466287 104.8382147  36.4007248  43.2135920 112.5430206
  37.1870338  42.7955343 112.1920623  36.6645953  44.1182012 112.7111855
  36.5717326  48.6508771 107.2418863  35.9363159  48.7243397 107.9539768
  36.2414732  49.2402369 106.5637942  41.8015676  43.1511153 113.4463185
  42.5340848  42.5810370 113.6801014  41.0455031  42.7632754 113.8869690
  31.0760254  46.1128248 106.9379838  30.9596513  45.4373151 107.6060922
  31.1862514  45.6260622 106.1211991  33.4191795  45.5738395 110.6426527
  33.0550003  45.0469016 111.3539449  34.2758911  45.1836864 110.4693013
  33.0597282  40.6028295 105.6387876  33.2271685  41.4708531 106.0058347
  32.8694451  40.7655576 104.7149165  33.0386503  43.0585952 106.6234543
  32.9186128  43.5043003 107.4620023  32.3439092  43.4071270 106.0648081
  30.7993395  55.8289594 110.2724674  30.7217425  56.7797419 110.3513154
  30.1955039  55.4835466 110.9299600  38.7371569  43.5307425 107.4514877
  39.6489425  43.7634812 107.2762574  38.2281216  44.1144469 106.8889955
  37.3441152  48.5133244 114.8428458  36.7150014  48.6778958 114.1404526
  36.9566814  48.9274853 115.6139422  41.2230384  49.4487682 112.1972822
  40.5381422  49.8286583 111.6469855  41.3074233  50.0583008 112.9304770
  32.8969114  48.2507652 112.1078543  33.3607459  48.5295355 111.3183166
  32.6325912  47.3491096 111.9251634  31.8338000  44.3730804 108.9168108
  32.5362043  44.8251848 109.3842035  31.5018628  43.7314623 109.5448001
  39.5927143  49.9719596 116.9690523  40.4144587  49.5699783 116.6873204
  39.5889546  49.8687830 117.9206638  47.6833136  46.3158345 113.3175494
  46.9296845  45.7465743 113.1619499  47.8180677  46.2821009 114.2646129
  33.0731764  51.1871747 108.9930213  32.9377439  52.0323283 109.4215061
  33.6141577  51.3891024 108.2296147  26.5261162  48.7047185 109.5658139
  27.0385682  49.4990435 109.7163703  27.1783874  48.0073475 109.4991740
  28.3356046  51.8212941 111.6480892  28.5122675  52.7430906 111.4601876
  29.1312880  51.5071360 112.0775272  29.4587362  53.3391115 117.6491234
  30.0094787  53.2108178 116.8768228  28.6198838  53.6386004 117.2986127
  24.4910078  47.0335839 110.3417709  25.3285300  47.4432848 110.1251417
  24.6688346  46.0935281 110.3117903  36.3874511  44.7010920 106.0301542
  35.8721134  45.4715524 106.2689929  36.1151819  44.0276056 106.6534603
  33.9721622  39.5460621 111.0886780  33.1163218  39.1567471 110.9092419
  34.3848573  39.6252581 110.2286566  41.3608785  47.4543274 107.9654716
  40.5838227  47.1154434 107.5209878  42.0400266  47.4595898 107.2909681
  36.1760814  42.5738012 107.8561323  35.8710949  42.8884161 108.7071466
  37.1291256  42.6519432 107.8988656  34.6207246  48.7328235 109.5054277
  34.0928607  47.9980995 109.1927515  34.1194748  49.5102912 109.2594246
  39.6000092  46.9277256 114.6221324  38.9423766  47.6176517 114.7101452
  40.4040491  47.3173688 114.9655310  38.4105550  45.2821628 112.6725265
  38.9237432  45.9151620 113.1746975  39.0606774  44.6822824 112.3068625
  29.6795560  41.4252363 105.8856774  28.8432873  41.7627049 106.2066049
  29.5400330  41.2901342 104.9483911  32.7659846  46.5508445 102.5089250
  31.8586907  46.3197699 102.7080399  33.2630878  45.7546065 102.6963232
  35.6727925  55.2605953 105.4285936  34.9989623  55.5637649 106.0370894
  36.0593747  56.0635033 105.0791393  35.6721429  44.1562500 110.0486286
  36.4193248  44.6683897 109.7393408  35.9413019  43.8346552 110.9090680
  33.9448079  46.6521040 107.0313240  33.0359298  46.3680073 107.1285710
  33.9743163  47.0720119 106.1716547  39.1767347  50.2627630 110.8004408
  38.7229674  49.4218540 110.8569598  38.5461313  50.8989028 111.1379188
  38.1200266  41.1919616 112.0305075  37.3823023  40.6797002 112.3615318
  38.3727040  40.7519997 111.2188352  37.6200286  52.1004127 111.7354226
  37.9123260  52.6609184 111.0166592  38.1298906  52.3932688 112.4907385
  32.4932973  44.2649661 113.1323036  32.5481583  43.3123497 113.0565512
  31.6824175  44.4209100 113.6164334  33.6424167  48.1929784 104.3701319
  33.2043597  47.4765643 103.9106956  34.3834608  48.4205899 103.8086410
  30.4325333  42.8826721 110.8913415  29.6193199  43.1820891 111.2978607
  30.9284327  42.4882409 111.6087897  32.5833911  52.8784478 112.8247679
  32.5410090  53.1045324 111.8956211  33.4996610  52.6447852 112.9733480
  41.7597282  46.4686981 110.4277637  41.6215180  46.6588577 109.4998827
  41.4033501  47.2306364 110.8845689  41.7866661  48.5363508 115.4388909
  42.2203168  48.4438797 116.2871963  42.4998242  48.5121009 114.8008925
  30.6999712  49.7547507 112.6209642  31.4940310  49.2597827 112.4192217
  29.9891404  49.2265370 112.2577348  35.5194556  52.1365602 116.9722010
  35.5731579  52.7056538 117.7399725  34.6509338  52.3067487 116.6076047
  27.0082475  43.8990588 108.6969395  26.0780063  43.8375044 108.9139357
  27.1039947  43.3766541 107.9006036  42.6482211  48.5787209 117.9721794
  42.8418101  49.4833019 118.2181069  42.5482829  48.1194628 118.8060379
  33.2770988  50.3276529 116.3007479  33.1382073  49.9595313 117.1733417
  32.4885584  50.8424168 116.1291437  33.8719140  55.4285625 107.6433016
  34.0470895  54.9573668 108.4578638  33.1851928  56.0551391 107.8714276
  34.8276203  49.7058131 113.6896317  34.4926036  49.6658901 114.5853967
  34.3280149  49.0402847 113.2166727  37.7635395  47.0514166 103.9633376
  37.1464565  46.3260994 103.8666429  37.2951883  47.8123526 103.6200451
  28.4380225  58.5774988 114.4172876  28.6776823  59.2093512 115.0951894
  27.5949422  58.2263028 114.7038235  29.5533940  41.2699590 103.0854681
  28.6763407  41.1488391 102.7216927  30.0291694  40.4785668 102.8333569
  32.9508087  54.3854110 116.8214380  32.8778258  55.1909082 117.3333684
  32.5085480  54.5846076 115.9962401  32.7397867  53.6225880 110.3317201
  31.9565388  54.1647561 110.4255426  33.4390612  54.1399860 110.7311442
  43.9024274  45.1360875 114.6169698  43.8914150  46.0185591 114.2463631
  43.0341653  44.7832426 114.4224235  35.4106770  54.2840944 118.9772538
  36.1234743  54.9188409 118.9048440  34.9196799  54.3804810 118.1612540
  37.1324297  48.1892197 110.5489830  36.1980576  48.3093659 110.3794534
  37.3100966  47.2864664 110.2849840  40.5196849  44.0309516 111.0839864
  40.9857301  44.8637508 111.0100167  40.9704349  43.5654498 111.7885123
  38.5873080  50.3753338 108.0826016  38.8632924  50.2609932 108.9919890
  37.7177579  49.9770822 108.0438189  35.2227144  54.6239688 111.7258830
  35.4049538  53.8061344 112.1886582  36.0460130  54.8407381 111.2883720
  35.5569309  53.5507874 108.9873878  36.0857076  53.0400328 108.3744040
  35.8197529  53.2350404 109.8519411  28.9125057  54.6022990 111.7471654
  28.2435432  55.0869118 111.2635694  28.7737927  54.8492211 112.6615033
  33.0530326  56.6366734 118.3454313  33.6048634  56.7998355 119.1103398
  33.3936519  57.2271172 117.6734337  24.2812634  42.8641445 108.5267586
  24.5766075  41.9552124 108.4734640  23.3800670  42.8429185 108.2048589
  36.1898713  54.5848709 115.3317995  36.0649853  53.7838449 114.8228940
  36.8477804  55.0794903 114.8431965  38.2533621  52.3857729 116.9597545
  37.3063957  52.2663081 116.8875872  38.6016395  51.4980227 117.0423806
  35.2580055  52.1810446 113.1601897  35.1105017  51.2527153 113.3409467
  36.0833548  52.2030536 112.6758972  29.1242299  40.8328513 109.0182389
  29.4638372  41.3614434 108.2960998  29.5714420  41.1708919 109.7940956
  38.8614177  53.0039004 114.2466770  39.7860724  52.7981866 114.1091221
  38.6929480  52.7555405 115.1556111  31.1110446  39.3303134 107.2175682
  31.8318809  39.7084387 106.7139399  30.4875750  40.0492011 107.3210660
  35.2541569  40.0348283 108.1534014  35.4705183  40.9172921 107.8522843
  34.7735636  39.6434497 107.4239656  38.6509493  53.5224672 109.6028861
  38.8246370  52.9571094 108.8502714  39.1438384  54.3225567 109.4208351
  44.5048884  46.2861095 111.2219161  44.9480030  45.5368420 110.8238284
  43.6275394  46.2771231 110.8392893  39.6384665  52.8391436 106.7025760
  40.3335570  53.4598129 106.9213074  39.9807815  51.9886787 106.9778137
  41.5376088  50.2891142 108.2313090  42.0627413  50.6278414 107.5062410
  41.4498441  49.3538157 108.0476225  33.2216749  56.3563125 112.5908344
  32.7821739  55.8639504 113.2841200  33.9724866  55.8136093 112.3500419
  25.7009088  52.5474666 112.5932972  26.5267108  52.2478438 112.2131615
  25.3503140  51.7782288 113.0422760  30.6690621  51.9001134 114.6630645
  30.0470631  51.2371839 114.3632873  31.3395488  51.9262266 113.9804293
  30.2304128  50.4505057 108.1389106  30.3792249  51.1340522 107.4855779
  31.0370572  50.4310147 108.6538562  44.0481749  47.7566333 113.6141609
  44.8828640  48.1956137 113.7779169  44.1840877  47.2804986 112.7949854
  27.9856761  46.4770235 109.1450175  27.7402803  45.5732565 109.3430385
  28.1552676  46.4787385 108.2029653  27.2552409  42.2098593 106.6436336
  26.5621654  42.2842948 105.9876372  27.0104161  41.4458936 107.1657853
  33.7299534  52.9453188 105.6100853  33.1573501  53.5643375 105.1571325
  34.3032327  53.4952550 106.1440775  36.9496794  53.2290338 106.7409435
  37.8827467  53.1635900 106.9442311  36.8620006  54.0646605 106.2823968
  42.2763001  45.4117948 116.9089702  42.2439322  44.4733948 117.0949385
  42.8863625  45.4901984 116.1755527  34.1146332  44.2814001 102.9516906
  35.0605437  44.1520209 103.0205324  33.7360577  43.5428663 103.4286334
  48.0939551  46.4733954 116.0495738  48.8242940  46.2119243 116.6103442
  47.4846497  45.7362676 116.0897806  46.1754848  44.6141817 116.6470190
  45.4488012  44.4797782 116.0386681  45.7602135  44.9218646 117.4526908
  32.2989249  42.2063977 102.8871791  31.3920705  41.9097090 102.9634505
  32.5765230  41.9093795 102.0206077  33.9151315  36.7500867 109.0416032
  33.1052043  36.4047952 109.4171278  34.6035732  36.4408410 109.6303644
  31.0688034  39.0650912 103.0283770  31.9307198  39.3905811 103.2879587
  31.2538378  38.2782408 102.5156836  39.2220671  37.9379439 110.1718993
  38.6419340  38.5964243 109.7897046  38.9556603  37.1156783 109.7606411
  38.0045549  40.0979529 109.2275341  37.1171404  40.3829180 109.0095536
  38.4199538  39.9373292 108.3802618  41.3560085  40.1226050 112.9429681
  42.1320475  40.6122502 113.2154297  40.6308219  40.5484104 113.4001550
  43.7932643  40.8353669 114.0003621  44.3877134  40.5949405 113.2896929
  43.8659227  40.1160800 114.6277158  26.0129799  54.6787280 114.3146786
  25.8784267  53.9187681 113.7484784  25.5961861  55.4028180 113.8475575
  37.1488762  49.8624204 103.3223361  37.8524612  50.0674206 103.9381017
  36.4251411  50.4300966 103.5872445  37.9786572  45.6134065 109.4425632
  37.9221774  46.0702616 108.6033264  38.5314915  44.8524750 109.2648474
  41.7891378  41.4023797 110.2675751  41.5328312  41.0020433 111.0983959
  41.1644246  42.1167591 110.1425890  46.1003716  44.1419870 112.7747042
  45.5403274  44.2113059 113.5478604  45.4947219  43.9660855 112.0546539
  29.1698925  55.5756597 114.5265229  29.0531309  56.5202030 114.4243919
  28.3491371  55.2730159 114.9151028  39.0575459  50.3006733 105.3721821
  39.8921063  49.8687931 105.1899296  38.8959802  50.1288747 106.2998716
  38.7121352  46.8038846 106.7378161  38.6570155  46.6383118 105.7966605
  38.0867407  47.5114879 106.8940350  32.0217477  36.3046955 106.3163479
  32.0096147  37.2488795 106.4731750  32.9140899  36.1217101 106.0222940
  30.1953439  56.2284859 117.7421157  31.0980686  56.2608469 118.0587652
  29.9690809  55.2985310 117.7567493  31.9507041  54.9815846 114.4031236
  31.0002672  54.9817707 114.2895608  32.2539527  54.2348580 113.8867270
  47.6859734  60.8176384 115.4676998  48.3238144  60.6983131 114.7640338
  47.5680577  61.7657228 115.5264950  44.4949441  60.7703812 115.4038523
  44.1567952  60.6544877 114.5159058  45.3639209  60.3694977 115.3839529
  44.9769224  61.9238664 121.3624728  44.9657865  61.5291462 120.4905232
  45.1389863  61.1904736 121.9558500  37.9000688  64.1190480 114.2319634
  38.6921980  63.7781305 113.8165934  38.1397339  64.2285455 115.1521788
  41.6976485  64.7075776 120.3103912  41.4066351  65.6121407 120.1950579
  42.3333469  64.7492303 121.0247982  42.6232692  62.0852624 116.9005272
  43.2196264  61.8608647 116.1862235  42.6807663  61.3437370 117.5030720
  47.2401003  58.5427838 112.5430206  48.0264092  58.1247261 112.1920623
  47.5039707  59.4473930 112.7111855  52.6409430  58.4803071 113.4463185
  53.3734602  57.9102288 113.6801014  51.8848786  58.0924672 113.8869690
  44.2585550  60.9030313 110.6426527  43.8943757  60.3760934 111.3539449
  45.1152666  60.5128782 110.4693013  50.1634850  52.1924645 117.9057793
  49.8318175  53.0620056 117.6819008  49.5680464  51.8760929 118.5851824
  46.6566370  64.3937191 117.3053706  46.3567093  65.2962230 117.1969513
  46.3117430  64.1269374 118.1574859  40.1078851  60.8450988 113.3390410
  39.1829348  60.7127202 113.5468102  40.3563265  61.6245207 113.8360353
  50.0563514  56.9119731 114.9851143  49.1480391  56.8435140 114.6909904
  50.0051110  57.3891676 115.8132969  37.4687663  60.4884262 114.1734200
  37.5980044  60.7418741 115.0873611  36.7885114  61.0811970 113.8538855
  44.1304380  58.3309377 122.9286041  43.3537714  58.8903297 122.9188905
  44.7694943  58.8166160 123.4500911  51.9225160  55.1136170 116.7629017
  51.2799540  55.4068703 116.1168812  51.4180089  54.9989090 117.5682214
  49.5765324  58.8599343 107.4514877  50.4883180  59.0926730 107.2762574
  49.0674971  59.4436387 106.8889955  42.3850752  61.1394830 122.4904008
  43.1265436  61.6779874 122.2138831  41.6787737  61.7661119 122.6475559
  47.8606092  63.2823971 121.0876169  48.2689448  62.8406381 120.3430801
  47.1383353  62.7076598 121.3410362  44.2137162  58.2196578 118.4609726
  45.0598357  58.6435991 118.6044375  44.1535799  57.5630202 119.1548289
  52.0624138  64.7779599 112.1972822  51.3775176  65.1578501 111.6469855
  52.1467987  65.3874926 112.9304770  47.3636607  55.8800946 120.1190900
  47.1197539  56.6343006 119.5825175  47.6396537  56.2586294 120.9538147
  49.3175070  62.4239558 118.7968165  49.5291965  63.0671318 118.1202546
  49.2704818  61.5901875 118.3290095  46.9201299  55.0357379 115.7004737
  46.0585778  55.3338633 115.9921475  46.9463733  55.2527778 114.7685770
  40.6286949  63.1271051 115.0458306  41.1988306  63.5558319 114.4075791
  41.2195061  62.8453636 115.7442492  41.1212116  58.2934478 123.2919318
  40.4910776  58.9750759 123.5254714  41.0148204  58.1817560 122.3472456
  36.4157088  57.9606275 114.2185242  35.6256142  58.2163803 113.7425352
  36.9068335  58.7754612 114.3237282  50.4320898  65.3011514 116.9690523
  51.2538341  64.8991701 116.6873204  50.4283300  65.1979748 117.9206638
  38.3671833  58.3250854 111.1768719  37.5702997  58.4369548 111.6952214
  38.1397426  58.6637506 110.3109609  44.1977501  64.8495557 119.1251233
  44.2621934  65.3115964 119.9609405  43.4888425  64.2192922 119.2533543
  34.6994791  58.2136765 116.6500233  34.9502829  59.0983775 116.9157809
  35.2354339  58.0341367 115.8775324  58.5226891  61.6450262 113.3175494
  57.7690599  61.0757660 113.1619499  58.6574432  61.6112927 114.2646129
  43.3160819  54.0113123 123.2464825  44.0570533  54.6120277 123.1669288
  43.5478742  53.2690761 122.6882868  38.4602157  59.1969491 121.5243055
  38.3455672  58.2954748 121.8250154  37.6046675  59.4433187 121.1727871
  45.5393995  67.1387231 123.1230556  45.0957849  66.3523610 122.8051460
  46.2011209  67.3266382 122.4574446  40.2981116  68.6683033 117.6491234
  40.8488541  68.5400096 116.8768228  39.4592592  68.9677922 117.2986127
  47.6375233  67.4190031 121.1511957  47.6193709  68.2398912 120.6592226
  48.5595153  67.2944106 121.3762098  44.0948287  64.9334160 121.9935465
  44.6276624  64.1722449 121.7634773  43.5662368  64.6407812 122.7359620
  47.2617982  50.0394226 117.5229107  46.9182252  50.9295868 117.4468218
  47.6296945  49.8495884 116.6598692  35.3303833  62.3627757 110.3417709
  36.1679055  62.7724765 110.1251417  35.5082101  61.4227199 110.3117903
  44.8115376  54.8752538 111.0886780  43.9556972  54.4859389 110.9092419
  45.2242328  54.9544499 110.2286566  46.3414523  52.4098882 115.4878340
  45.8379318  52.3729017 114.6746145  46.6345130  53.3191624 115.5474997
  42.5857409  52.4937611 114.4944522  43.4510405  52.2980420 114.1350411
  42.6534917  52.2647963 115.4213879  52.2002539  62.7835192 107.9654716
  51.4231982  62.4446352 107.5209878  52.8794020  62.7887815 107.2909681
  47.0154568  57.9029930 107.8561323  46.7104704  58.2176079 108.7071466
  47.9685010  57.9811349 107.8988656  50.4393846  62.2569173 114.6221324
  49.7817520  62.9468435 114.7101452  51.2434245  62.6465605 114.9655310
  40.1919728  54.7239819 111.8660889  40.7663480  54.5015001 111.1334082
  40.7790710  54.7928514 112.6189490  49.2499305  60.6113546 112.6725265
  49.7631187  61.2443538 113.1746975  49.9000529  60.0114742 112.3068625
  42.4942395  51.5981068 110.5935958  41.8406808  51.2830085 109.9692573
  42.4522869  50.9756809 111.3195781  45.7280136  58.0863002 114.9183606
  44.8102697  58.3077949 114.7605294  46.1440279  58.1609312 114.0595313
  46.5115183  59.4854417 110.0486286  47.2587002  59.9975815 109.7393408
  46.7806773  59.1638470 110.9090680  48.9594021  56.5211534 112.0305075
  48.2216777  56.0088920 112.3615318  49.2120794  56.0811915 111.2188352
  49.0605648  49.2987786 112.6246845  49.3664525  48.4385149 112.3372760
  49.7858253  49.8905406 112.4245839  35.3530004  59.7018472 111.0128443
  35.1554404  59.1087833 110.2879509  34.7976668  59.3970682 111.7304381
  43.3326728  59.5941579 113.1323036  43.3875337  58.6415415 113.0565512
  42.5217930  59.7501018 113.6164334  41.2719088  58.2118638 110.8913415
  40.4586953  58.5112809 111.2978607  41.7678082  57.8174327 111.6087897
  46.8693299  58.6760463 119.7228308  47.2242687  58.9031936 120.5822774
  47.5165431  59.0078840 119.1005564  52.5991036  61.7978899 110.4277637
  52.4608935  61.9880495 109.4998827  52.2427255  62.5598282 110.8845689
  40.7633162  55.7836994 116.5074650  41.4032542  55.6425753 115.8097613
  39.9310693  55.4971507 116.1313251  52.6260416  63.8655426 115.4388909
  53.0596922  63.7730715 116.2871963  53.3391997  63.8412926 114.8008925
  46.3588311  67.4657520 116.9722010  46.4125333  68.0348456 117.7399725
  45.4903092  67.6359405 116.6076047  37.8476230  59.2282506 108.6969395
  36.9173818  59.1666962 108.9139357  37.9433702  58.7058459 107.9006036
  37.7661779  55.7537319 111.2847636  38.0268596  56.6682652 111.1756797
  38.5878951  55.2861761 111.4344249  39.2386704  57.1675076 118.4546461
  39.9109758  56.9592438 117.8059110  38.4116491  56.9697162 118.0151693
  53.4875965  63.9079126 117.9721794  53.6811855  64.8124937 118.2181069
  53.3876584  63.4486545 118.8060379  45.1412276  53.7937017 120.4712122
  44.4940191  54.4926967 120.3776598  45.9113292  54.2273161 120.8388370
  48.5491074  64.0585869 123.5462675  48.3976580  63.8296421 122.6292759
  48.5395754  65.0156471 123.5594020  45.3176410  61.6317782 118.5308941
  46.2468470  61.7828941 118.3577909  44.8967440  61.7201803 117.6757588
  39.6414201  60.4417679 119.2148898  39.5033999  59.7097918 119.8160437
  40.5519125  60.3526579 118.9333086  42.2696502  60.1537638 118.7032578
  42.9796121  59.5130831 118.6619196  42.2265810  60.4050533 119.6258758
  50.2583281  67.0904992 121.6239157  50.1995827  66.4064212 120.9569740
  50.6602799  67.8323982 121.1719783  40.9825436  57.1402856 120.5228217
  40.4462793  56.6893595 121.1749813  40.3942144  57.2748765 119.7798681
  39.2773980  73.9066906 114.4172876  39.5170578  74.5385430 115.0951894
  38.4343176  73.5554946 114.7038235  50.2600688  65.0544576 119.8553137
  49.3727467  64.7170497 119.9779535  50.8299239  64.3227607 120.0921902
  31.9129835  61.3868667 113.1796188  32.6000875  61.0730397 112.5917203
  31.7577964  62.2910032 112.9063439  36.7164557  56.2758864 117.6081212
  36.6322746  55.6684533 116.8731622  35.8947264  56.7667882 117.6090708
  43.7901841  69.7146028 116.8214380  43.7172013  70.5200999 117.3333684
  43.3479234  69.9137994 115.9962401  46.8888271  54.7612427 112.9751407
  47.3856971  54.0082390 112.6552477  46.1175253  54.7976744 112.4094616
  54.7418029  60.4652793 114.6169698  54.7307905  61.3477508 114.2463631
  53.8735408  60.1124344 114.4224235  46.2500525  69.6132862 118.9772538
  46.9628497  70.2480327 118.9048440  45.7590554  69.7096728 118.1612540
  43.4723240  56.9029810 112.7023091  43.1021027  56.3500851 113.3903997
  43.9682332  56.2987944 112.1498091  51.3590603  59.3601434 111.0839864
  51.8251055  60.1929426 111.0100167  51.8098104  58.8946416 111.7885123
  41.3012438  67.3627305 119.7978109  42.0021898  67.9963788 119.9507503
  40.8307553  67.7042037 119.0373748  49.3307266  51.7282021 115.1230766
  48.4170346  51.9586248 115.2912972  49.7600367  51.8120465 115.9744798
  49.1013724  59.9171913 117.6230660  48.4485175  60.1647820 116.9683112
  49.4794104  59.1036051 117.2893137  45.1501297  60.6591724 124.1096697
  44.4741934  60.5585853 124.7799072  45.9728931  60.5030938 124.5732694
  36.8980156  66.8963661 116.7309212  37.4833593  66.1507348 116.8637116
  36.7004995  67.2067617 117.6145876  31.4897811  59.4669261 115.4513655
  31.5281911  58.9332851 116.2450773  30.9838104  58.9404466 114.8324632
  43.8924080  71.9658651 118.3454313  44.4442388  72.1290273 119.1103398
  44.2330274  72.5563089 117.6734337  38.8688574  54.3133801 118.9476197
  38.9329900  55.1748632 118.5353595  38.8055694  53.7007803 118.2148556
  48.7434955  66.7919909 124.2002967  49.2874859  67.4049867 123.7057922
  48.1621799  67.3499487 124.7169980  35.1206389  58.1933363 108.5267586
  35.4159830  57.2844041 108.4734640  34.2194425  58.1721102 108.2048589
  47.0292468  69.9140627 115.3317995  46.9043607  69.1130367 114.8228940
  47.6871559  70.4086820 114.8431965  38.6500636  56.2689359 114.5095135
  37.9287222  56.8825327 114.3702608  39.4393892  56.8047124 114.4311781
  49.0927376  67.7149647 116.9597545  48.1457711  67.5954998 116.8875872
  49.4410149  66.8272145 117.0423806  41.4526949  53.6043786 120.7835787
  41.9761351  53.8506083 121.5462096  41.2339283  54.4363821 120.3638924
  36.8494230  55.8747461 108.6506912  36.5206937  54.9944839 108.4682018
  37.2033601  55.8195129 109.5383301  39.9636054  56.1620430 109.0182389
  40.3032126  56.6906352 108.2960998  40.4108174  56.5000836 109.7940956
  49.7007931  68.3330922 114.2466770  50.6254479  68.1273783 114.1091221
  49.5323234  68.0847323 115.1556111  42.6579494  54.5457481 118.4685457
  42.3176315  53.7465294 118.8706137  41.9518501  54.8459192 117.8962291
  43.3095966  51.6306793 116.9212780  44.1322036  51.1567272 116.7991671
  43.5534030  52.4097277 117.4211467  41.9504201  54.6595052 107.2175682
  42.6712563  55.0376305 106.7139399  41.3269505  55.3783929 107.3210660
  46.0935324  55.3640201 108.1534014  46.3098938  56.2464839 107.8522843
  45.6129391  54.9726414 107.4239656  40.8334545  58.3225914 114.7304759
  40.6879126  58.6366217 115.6229040  40.3559749  58.9410814 114.1775658
  42.6930928  55.3128462 114.7785649  42.6792497  54.4169555 114.4417946
  43.4103356  55.3199126 115.4123935  44.5457059  55.7465802 116.8238776
  44.2874836  56.6682873 116.8223106  44.0142099  55.3496237 117.5139240
  35.3080207  60.8631259 117.6692420  34.7633675  61.6391066 117.8012694
  36.1859557  61.2102063 117.5111542  42.0967824  54.1942842 110.0473219
  42.2183735  53.2659489 110.2464106  41.8069866  54.2081528 109.1351534
  44.9659014  51.8797753 113.1839938  44.9880711  51.9437086 112.2291918
  45.3827073  51.0402261 113.3780445  55.3442638  61.6153012 111.2219161
  55.7873785  60.8660338 110.8238284  54.4669149  61.6063149 110.8392893
  36.0946229  59.9901155 120.5622577  35.3527965  60.1383790 121.1487207
  35.7738973  60.2509420 119.6989326  52.3769843  65.6183059 108.2313090
  52.9021167  65.9570332 107.5062410  52.2892195  64.6830075 108.0476225
  44.0389892  69.5317133 120.3602967  44.3477018  69.2866280 121.2325667
  44.8365374  69.7363771 119.8721837  34.7411448  65.7952910 113.5521905
  33.9043356  65.3675084 113.3705906  34.7135093  65.9885353 114.4892696
  52.0663749  66.2515963 123.5364288  51.2759293  66.2340102 122.9968788
  51.8297104  66.7904257 124.2913325  52.1861624  63.1008429 120.8497017
  52.2359629  62.9358437 121.7912540  52.0775547  62.2335688 120.4594898
  49.4765386  59.0839357 122.1656324  50.3775249  58.9445822 121.8740321
  49.5513361  59.2493812 123.1054501  43.8108192  56.4606212 121.0109510
  42.9411501  56.7539778 120.7392098  44.0467672  57.0446657 121.7316774
  53.6879821  65.5205371 121.0939038  53.3964629  65.8835351 121.9302499
  53.0751952  64.8072379 120.9152370  54.8875503  63.0858251 113.6141609
  55.7222395  63.5248055 113.7779169  55.0234632  62.6096904 112.7949854
  51.9367009  60.6437986 119.5619096  52.4121131  60.8365632 118.7537948
  51.0132574  60.6997171 119.3162480  46.5147226  52.6785829 118.5274930
  47.0329169  53.4146856 118.2021419  46.1602358  52.9849822 119.3621689
  38.0946163  57.5390510 106.6436336  37.4015408  57.6134865 105.9876372
  37.8497915  56.7750854 107.1657853  46.7659820  49.0986112 114.0475827
  47.0461574  48.4309301 114.6736253  47.5510427  49.2915207 113.5350491
  50.6368678  57.5203746 117.7947402  51.5886101  57.6201843 117.8159626
  50.4672129  56.7282014 118.3045486  48.6583058  54.6059329 117.9806803
  48.0632990  54.8864342 117.2853292  48.3732754  55.0953230 118.7523544
  50.4178565  67.8748126 103.7013383  50.3392196  67.5407990 104.5949141
  51.2388232  68.3669894 103.7004855  53.1156756  60.7409865 116.9089702
  53.0833076  59.8025866 117.0949385  53.7257380  60.8193902 116.1755527
  53.2651244  57.5320909 116.9547985  52.7490293  56.7479365 116.7677914
  54.1491193  57.2039625 117.1194504  50.9261971  51.2761924 112.9143798
  50.7286792  50.9677012 113.7987129  51.5361677  52.0023563 113.0441727
  58.9333306  61.8025872 116.0495738  59.6636694  61.5411160 116.6103442
  58.3240251  61.0654594 116.0897806  57.0148603  59.9433735 116.6470190
  56.2881766  59.8089700 116.0386681  56.5995890  60.2510563 117.4526908
  44.8378779  63.6623664 124.4117563  45.7581789  63.8402263 124.6057609
  44.8028362  62.7179710 124.2597262  34.0560944  58.8562258 113.3370837
  33.7363729  58.0027566 113.0445211  33.5094372  59.0710836 114.0928805
  37.8340852  61.5724699 117.0540344  38.0526862  62.5041807 117.0728378
  38.2466626  61.2132673 117.8395148  44.7545070  52.0792784 109.0416032
  43.9445798  51.7339869 109.4171278  45.4429487  51.7700328 109.6303644
  46.6835618  51.1570831 110.6640329  47.2366657  51.5766285 111.3230352
  46.9205704  50.2306579 110.7063285  33.9249204  62.4765170 115.3063959
  33.2312676  62.0619122 114.7933913  34.6722195  62.5185706 114.7097378
  50.0614425  53.2671356 110.1718993  49.4813094  53.9256160 109.7897046
  49.7950358  52.4448701 109.7606411  48.5117991  52.6676414 112.3740313
  49.0117770  52.7792949 111.5654632  49.1553599  52.3637467 113.0141122
  42.5699987  60.5755044 125.2608154  42.0867069  61.3755404 125.4672043
  42.6560926  60.5862989 124.3075598  35.8385947  62.4083423 113.1829974
  35.8156635  62.5071111 112.2311857  36.1486583  63.2548574 113.5047140
  38.4973325  64.4659578 117.2976588  39.4516578  64.4343521 117.2306520
  38.2985848  64.0050202 118.1126814  39.0872707  63.0360694 119.8647386
  39.9065596  63.5304773 119.8882223  39.3609515  62.1192663 119.8364953
  48.8439303  55.4271447 109.2275341  47.9565158  55.7121097 109.0095536
  49.2593292  55.2665210 108.3802618  52.1953839  55.4517968 112.9429681
  52.9714229  55.9414420 113.2154297  51.4701973  55.8776022 113.4001550
  54.6326398  56.1645587 114.0003621  55.2270889  55.9241323 113.2896929
  54.7052981  55.4452718 114.6277158  36.8523553  70.0079198 114.3146786
  36.7178021  69.2479599 113.7484784  36.4355616  70.7320098 113.8475575
  48.8180327  60.9425983 109.4425632  48.7615528  61.3994534 108.6033264
  49.3708669  60.1816667 109.2648474  52.6285133  56.7315715 110.2675751
  52.3722067  56.3312350 111.0983959  52.0038001  57.4459508 110.1425890
  56.9397471  59.4711788 112.7747042  56.3797029  59.5404977 113.5478604
  56.3340974  59.2952772 112.0546539  49.8969214  65.6298651 105.3721821
  50.7314818  65.1979849 105.1899296  49.7353557  65.4580664 106.2998716
  34.3407621  57.3698828 120.5639583  34.9866485  56.8597782 121.0526808
  34.1324772  58.1067510 121.1383008  46.8661013  64.4379676 126.0631723
  47.7352173  64.6120328 125.7018358  46.3867765  65.2574093 125.9407453
  42.8611232  51.6338873 106.3163479  42.8489901  52.5780713 106.4731750
  43.7534653  51.4509018 106.0222940  41.0347193  71.5576777 117.7421157
  41.9374440  71.5900387 118.0587652  40.8084564  70.6277228 117.7567493
  46.6763351  48.2281650 110.5709416  45.9095747  47.6740136 110.7166098
  47.0874056  48.3003518 111.4323568  58.5253489  76.1468302 115.4676998
  59.1631899  76.0275049 114.7640338  58.4074332  77.0949146 115.5264950
  55.3343195  76.0995730 115.4038523  54.9961707  75.9836795 114.5159058
  56.2032963  75.6986895 115.3839529  51.1930011  77.9531206 111.3935414
  50.6294876  77.8621143 110.6251702  51.0782406  77.1331111 111.8737906
  55.8162978  77.2530582 121.3624728  55.8051619  76.8583380 120.4905232
  55.9783618  76.5196654 121.9558500  48.7394443  79.4482398 114.2319634
  49.5315735  79.1073222 113.8165934  48.9791093  79.5577373 115.1521788
  56.7729570  81.6202174 106.7049879  56.1217549  82.2056254 106.3183892
  57.5673932  82.1508369 106.7644916  50.6985197  78.7091311 107.1037013
  51.4716073  78.1620298 106.9649889  51.0510596  79.5735560 107.3151474
  52.5370239  80.0367693 120.3103912  52.2460105  80.9413324 120.1950579
  53.1727224  80.0784221 121.0247982  53.4626446  77.4144542 116.9005272
  54.0590019  77.1900564 116.1862235  53.5201418  76.6729287 117.5030720
  53.0351475  74.8683977 104.7355463  53.2876995  74.3465498 103.9738926
  52.0976034  74.7050123 104.8382147  58.0794757  73.8719756 112.5430206
  58.8657847  73.4539179 112.1920623  58.3433462  74.7765848 112.7111855
  58.2504835  79.3092606 107.2418863  57.6150668  79.3827232 107.9539768
  57.9202241  79.8986205 106.5637942  63.4803185  73.8094989 113.4463185
  64.2128357  73.2394206 113.6801014  62.7242540  73.4216589 113.8869690
  52.7547763  76.7712083 106.9379838  52.6384021  76.0956987 107.6060922
  52.8650023  76.2844457 106.1211991  55.0979304  76.2322230 110.6426527
  54.7337512  75.7052851 111.3539449  55.9546420  75.8420699 110.4693013
  61.0028605  67.5216563 117.9057793  60.6711930  68.3911974 117.6819008
  60.4074218  67.2052847 118.5851824  54.7384791  71.2612130 105.6387876
  54.9059194  72.1292366 106.0058347  54.5481960  71.4239412 104.7149165
  57.4960124  79.7229109 117.3053706  57.1960848  80.6254148 117.1969513
  57.1511184  79.4561292 118.1574859  50.9472606  76.1742906 113.3390410
  50.0223102  76.0419120 113.5468102  51.1957019  76.9537125 113.8360353
  60.8957268  72.2411649 114.9851143  59.9874146  72.1727057 114.6909904
  60.8444864  72.7183594 115.8132969  54.7174012  73.7169787 106.6234543
  54.5973637  74.1626838 107.4620023  54.0226601  74.0655105 106.0648081
  48.3081417  75.8176179 114.1734200  48.4373798  76.0710658 115.0873611
  47.6278868  76.4103887 113.8538855  52.4780904  86.4873429 110.2724674
  52.4004934  87.4381254 110.3513154  51.8742548  86.1419302 110.9299600
  54.9698134  73.6601295 122.9286041  54.1931468  74.2195215 122.9188905
  55.6088697  74.1458078 123.4500911  62.7618915  70.4428087 116.7629017
  62.1193295  70.7360621 116.1168812  62.2573843  70.3281008 117.5682214
  60.4159078  74.1891261 107.4514877  61.3276934  74.4218647 107.2762574
  59.9068725  74.7728305 106.8889955  53.2244506  76.4686748 122.4904008
  53.9659191  77.0071792 122.2138831  52.5181492  77.0953037 122.6475559
  58.6999846  78.6115888 121.0876169  59.1083202  78.1698299 120.3430801
  57.9777108  78.0368516 121.3410362  55.0530916  73.5488495 118.4609726
  55.8992111  73.9727909 118.6044375  54.9929554  72.8922120 119.1548289
  59.0228661  79.1717079 114.8428458  58.3937523  79.3362793 114.1404526
  58.6354323  79.5858689 115.6139422  62.9017893  80.1071517 112.1972822
  62.2168931  80.4870418 111.6469855  62.9861742  80.7166844 112.9304770
  58.2030361  71.2092864 120.1190900  57.9591293  71.9634924 119.5825175
  58.4790292  71.5878211 120.9538147  60.1568824  77.7531476 118.7968165
  60.3685719  78.3963236 118.1202546  60.1098572  76.9193793 118.3290095
  57.7595053  70.3649297 115.7004737  56.8979532  70.6630550 115.9921475
  57.7857488  70.5819696 114.7685770  54.5756623  78.9091487 112.1078543
  55.0394968  79.1879190 111.3183166  54.3113421  78.0074932 111.9251634
  51.4680704  78.4562969 115.0458306  52.0382061  78.8850237 114.4075791
  52.0588815  78.1745553 115.7442492  53.5125509  75.0314640 108.9168108
  54.2149552  75.4835683 109.3842035  53.1806137  74.3898458 109.5448001
  51.9605870  73.6226396 123.2919318  51.3304531  74.3042677 123.5254714
  51.8541958  73.5109478 122.3472456  61.2714652  80.6303431 116.9690523
  62.0932096  80.2283619 116.6873204  61.2677055  80.5271666 117.9206638
  55.0371256  80.1787475 119.1251233  55.1015688  80.6407882 119.9609405
  54.3282179  79.5484840 119.2533543  45.5388546  73.5428683 116.6500233
  45.7896584  74.4275693 116.9157809  46.0748094  73.3633284 115.8775324
  69.3620645  76.9742180 113.3175494  68.6084354  76.4049578 113.1619499
  69.4968186  76.9404844 114.2646129  54.7519273  81.8455582 108.9930213
  54.6164948  82.6907118 109.4215061  55.2929086  82.0474860 108.2296147
  51.2386613  67.9247162 125.6544569  50.8453558  67.3713361 126.3292213
  52.0552753  68.2357740 126.0451086  48.2048671  79.3631020 109.5658139
  48.7173191  80.1574270 109.7163703  48.8571383  78.6657311 109.4991740
  50.0143555  82.4796776 111.6480892  50.1910184  83.4014741 111.4601876
  50.8100389  82.1655196 112.0775272  54.1554574  69.3405041 123.2464825
  54.8964287  69.9412194 123.1669288  54.3872497  68.5982679 122.6882868
  49.2995912  74.5261408 121.5243055  49.1849427  73.6246666 121.8250154
  48.4440430  74.7725105 121.1727871  56.3787750  82.4679149 123.1230556
  55.9351604  81.6815527 122.8051460  57.0404963  82.6558299 122.4574446
  51.1374871  83.9974950 117.6491234  51.6882296  83.8692014 116.8768228
  50.2986347  84.2969839 117.2986127  58.4768988  82.7481949 121.1511957
  58.4587463  83.5690830 120.6592226  59.3988908  82.6236024 121.3762098
  54.9342042  80.2626078 121.9935465  55.4670379  79.5014366 121.7634773
  54.4056123  79.9699730 122.7359620  58.1011737  65.3686144 117.5229107
  57.7576006  66.2587786 117.4468218  58.4690699  65.1787802 116.6598692
  58.0662019  75.3594755 106.0301542  57.5508643  76.1299360 106.2689929
  57.7939328  74.6859891 106.6534603  55.6509131  70.2044456 111.0886780
  54.7950727  69.8151306 110.9092419  56.0636082  70.2836417 110.2286566
  57.1808277  67.7390799 115.4878340  56.6773073  67.7020934 114.6746145
  57.4738884  68.6483542 115.5474997  53.4251163  67.8229529 114.4944522
  54.2904160  67.6272338 114.1350411  53.4928672  67.5939881 115.4213879
  63.0396294  78.1127110 107.9654716  62.2625736  77.7738269 107.5209878
  63.7187775  78.1179733 107.2909681  57.8548323  73.2321847 107.8561323
  57.5498458  73.5467996 108.7071466  58.8078765  73.3103267 107.8988656
  56.2994755  79.3912071 109.5054277  55.7716116  78.6564830 109.1927515
  55.7982257  80.1686747 109.2594246  61.2787601  77.5861091 114.6221324
  60.6211275  78.2760352 114.7101452  62.0828000  77.9757523 114.9655310
  51.0313482  70.0531737 111.8660889  51.6057234  69.8306918 111.1334082
  51.6184465  70.1220431 112.6189490  60.0893059  75.9405464 112.6725265
  60.6024941  76.5735456 113.1746975  60.7394283  75.3406659 112.3068625
  51.3583069  72.0836198 105.8856774  50.5220381  72.4210884 106.2066049
  51.2187839  71.9485178 104.9483911  53.3336150  66.9272986 110.5935958
  52.6800562  66.6122003 109.9692573  53.2916624  66.3048726 111.3195781
  54.4447355  77.2092281 102.5089250  53.5374416  76.9781534 102.7080399
  54.9418387  76.4129900 102.6963232  57.3515434  85.9189788 105.4285936
  56.6777132  86.2221485 106.0370894  57.7381256  86.7218868 105.0791393
  56.5673890  73.4154919 114.9183606  55.6496452  73.6369866 114.7605294
  56.9834034  73.4901230 114.0595313  57.3508938  74.8146335 110.0486286
  58.0980757  75.3267732 109.7393408  57.6200528  74.4930388 110.9090680
  55.6235588  77.3104876 107.0313240  54.7146807  77.0263909 107.1285710
  55.6530672  77.7303954 106.1716547  60.8554856  80.9211465 110.8004408
  60.4017183  80.0802375 110.8569598  60.2248822  81.5572864 111.1379188
  59.7987775  71.8503451 112.0305075  59.0610532  71.3380837 112.3615318
  60.0514549  71.4103833 111.2188352  59.2987795  82.7587962 111.7354226
  59.5910769  83.3193019 111.0166592  59.8086415  83.0516523 112.4907385
  59.8999402  64.6279703 112.6246845  60.2058279  63.7677067 112.3372760
  60.6252007  65.2197323 112.4245839  54.1720482  74.9233496 113.1323036
  54.2269092  73.9707333 113.0565512  53.3611684  75.0792935 113.6164334
  55.3211676  78.8513619 104.3701319  54.8831106  78.1349478 103.9106956
  56.0622117  79.0789734 103.8086410  52.1112842  73.5410556 110.8913415
  51.2980708  73.8404727 111.2978607  52.6071836  73.1466245 111.6087897
  54.2621420  83.5368313 112.8247679  54.2197599  83.7629159 111.8956211
  55.1784119  83.3031688 112.9733480  57.7087054  74.0052381 119.7228308
  58.0636441  74.2323854 120.5822774  58.3559185  74.3370757 119.1005564
  63.4384791  77.1270816 110.4277637  63.3002689  77.3172412 109.4998827
  63.0821010  77.8890199 110.8845689  51.6026917  71.1128912 116.5074650
  52.2426296  70.9717671 115.8097613  50.7704447  70.8263425 116.1313251
  63.4654170  79.1947343 115.4388909  63.8990677  79.1022633 116.2871963
  64.1785751  79.1704844 114.8008925  52.3787221  80.4131342 112.6209642
  53.1727819  79.9181662 112.4192217  51.6678913  79.8849205 112.2577348
  57.1982065  82.7949438 116.9722010  57.2519088  83.3640374 117.7399725
  56.3296847  82.9651323 116.6076047  50.0780459  72.4966994 118.4546461
  50.7503512  72.2884356 117.8059110  49.2510245  72.2989080 118.0151693
  64.3269720  79.2371044 117.9721794  64.5205610  80.1416855 118.2181069
  64.2270338  78.7778463 118.8060379  55.9806031  69.1228935 120.4712122
  55.3333946  69.8218884 120.3776598  56.7507046  69.5565079 120.8388370
  59.3884829  79.3877787 123.5462675  59.2370335  79.1588339 122.6292759
  59.3789508  80.3448388 123.5594020  56.1570165  76.9609700 118.5308941
  57.0862225  77.1120859 118.3577909  55.7361195  77.0493720 117.6757588
  54.9558497  80.9860364 116.3007479  54.8169582  80.6179148 117.1733417
  54.1673093  81.5008003 116.1291437  55.5506649  86.0869460 107.6433016
  55.7258404  85.6157504 108.4578638  54.8639437  86.7135227 107.8714276
  56.5063712  80.3641967 113.6896317  56.1713545  80.3242737 114.5853967
  56.0067658  79.6986683 113.2166727  50.4807956  75.7709597 119.2148898
  50.3427754  75.0389836 119.8160437  51.3912879  75.6818497 118.9333086
  59.4422904  77.7098001 103.9633376  58.8252074  76.9844829 103.8666429
  58.9739392  78.4707361 103.6200451  53.1090257  75.4829556 118.7032578
  53.8189875  74.8422748 118.6619196  53.0659565  75.7342451 119.6258758
  61.0977035  82.4196909 121.6239157  61.0389581  81.7356130 120.9569740
  61.4996554  83.1615899 121.1719783  51.8219191  72.4694774 120.5228217
  51.2856548  72.0185512 121.1749813  51.2335899  72.6040683 119.7798681
  50.1167734  89.2358823 114.4172876  50.3564332  89.8677347 115.0951894
  49.2736930  88.8846863 114.7038235  51.2321449  71.9283425 103.0854681
  50.3550916  71.8072226 102.7216927  51.7079203  71.1369504 102.8333569
  61.0994442  80.3836493 119.8553137  60.2121221  80.0462415 119.9779535
  61.6692994  79.6519525 120.0921902  42.7523590  76.7160585 113.1796188
  43.4394629  76.4022315 112.5917203  42.5971718  77.6201950 112.9063439
  47.5558312  71.6050782 117.6081212  47.4716500  70.9976451 116.8731622
  46.7341018  72.0959800 117.6090708  54.6295596  85.0437946 116.8214380
  54.5565767  85.8492917 117.3333684  54.1872989  85.2429911 115.9962401
  54.4185375  84.2809716 110.3317201  53.6352897  84.8231396 110.4255426
  55.1178121  84.7983695 110.7311442  57.7282026  70.0904345 112.9751407
  58.2250725  69.3374307 112.6552477  56.9569007  70.1268662 112.4094616
  65.5811783  75.7944711 114.6169698  65.5701659  76.6769426 114.2463631
  64.7129162  75.4416262 114.4224235  57.0894279  84.9424780 118.9772538
  57.8022252  85.5772245 118.9048440  56.5984308  85.0388646 118.1612540
  58.8111806  78.8476032 110.5489830  57.8768085  78.9677495 110.3794534
  58.9888475  77.9448499 110.2849840  54.3116994  72.2321728 112.7023091
  53.9414782  71.6792769 113.3903997  54.8076087  71.6279862 112.1498091
  62.1984358  74.6893352 111.0839864  62.6644810  75.5221343 111.0100167
  62.6491858  74.2238333 111.7885123  52.1406193  82.6919223 119.7978109
  52.8415652  83.3255706 119.9507503  51.6701308  83.0333955 119.0373748
  60.2660589  81.0337173 108.0826016  60.5420433  80.9193768 108.9919890
  59.3965087  80.6354658 108.0438189  60.1701020  67.0573939 115.1230766
  59.2564100  67.2878165 115.2912972  60.5994122  67.1412383 115.9744798
  59.9407479  75.2463831 117.6230660  59.2878929  75.4939738 116.9683112
  60.3187859  74.4327969 117.2893137  56.9014653  85.2823524 111.7258830
  57.0837047  84.4645180 112.1886582  57.7247639  85.4991216 111.2883720
  57.2356818  84.2091709 108.9873878  57.7644585  83.6984163 108.3744040
  57.4985038  83.8934239 109.8519411  55.9895052  75.9883642 124.1096697
  55.3135689  75.8877771 124.7799072  56.8122686  75.8322855 124.5732694
  47.7373911  82.2255578 116.7309212  48.3227348  81.4799266 116.8637116
  47.5398749  82.5359535 117.6145876  50.5912566  85.2606826 111.7471654
  49.9222941  85.7452953 111.2635694  50.4525436  85.5076046 112.6615033
  42.3291566  74.7961178 115.4513655  42.3675665  74.2624769 116.2450773
  41.8231859  74.2696384 114.8324632  54.7317835  87.2950569 118.3454313
  55.2836143  87.4582191 119.1103398  55.0724028  87.8855007 117.6734337
  49.7082328  69.6425719 118.9476197  49.7723655  70.5040550 118.5353595
  49.6449448  69.0299721 118.2148556  49.1834601  71.7148851 122.5949232
  49.8106639  71.3325929 123.2086756  48.3262519  71.4963053 122.9604924
  57.8686222  85.2432545 115.3317995  57.7437362  84.4422284 114.8228940
  58.5265313  85.7378738 114.8431965  49.4894390  71.5981277 114.5095135
  48.7680976  72.2117245 114.3702608  50.2787646  72.1339042 114.4311781
  59.9321130  83.0441565 116.9597545  58.9851466  82.9246916 116.8875872
  60.2803904  82.1564063 117.0423806  52.2920704  68.9335704 120.7835787
  52.8155106  69.1798000 121.5462096  52.0733037  69.7655738 120.3638924
  56.9367564  82.8394281 113.1601897  56.7892526  81.9110988 113.3409467
  57.7621057  82.8614372 112.6758972  60.5401686  83.6622840 114.2466770
  61.4648233  83.4565701 114.1091221  60.3716989  83.4139241 115.1556111
  53.4973249  69.8749399 118.4685457  53.1570069  69.0757212 118.8706137
  52.7912255  70.1751110 117.8962291  54.1489721  66.9598711 116.9212780
  54.9715790  66.4859189 116.7991671  54.3927784  67.7389195 117.4211467
  52.7897955  69.9886970 107.2175682  53.5106318  70.3668222 106.7139399
  52.1663259  70.7075846 107.3210660  56.9329078  70.6932119 108.1534014
  57.1492692  71.5756756 107.8522843  56.4523145  70.3018332 107.4239656
  51.6728299  73.6517832 114.7304759  51.5272880  73.9658135 115.6229040
  51.1953503  74.2702732 114.1775658  53.5324682  70.6420380 114.7785649
  53.5186251  69.7461473 114.4417946  54.2497110  70.6491044 115.4123935
  55.3850813  71.0757720 116.8238776  55.1268591  71.9974791 116.8223106
  54.8535853  70.6788155 117.5139240  60.3297002  84.1808507 109.6028861
  60.5033879  83.6154930 108.8502714  60.8225893  84.9809402 109.4208351
  46.1473962  76.1923176 117.6692420  45.6027430  76.9682984 117.8012694
  47.0253311  76.5393981 117.5111542  52.9361578  69.5234760 110.0473219
  53.0577489  68.5951406 110.2464106  52.6463621  69.5373446 109.1351534
  55.8052769  67.2089671 113.1839938  55.8274465  67.2729004 112.2291918
  56.2220828  66.3694179 113.3780445  66.1836393  76.9444930 111.2219161
  66.6267539  76.1952255 110.8238284  65.3062903  76.9355066 110.8392893
  61.3172174  83.4975272 106.7025760  62.0123079  84.1181964 106.9213074
  61.6595324  82.6470623 106.9778137  46.9339983  75.3193072 120.5622577
  46.1921720  75.4675708 121.1487207  46.6132728  75.5801338 119.6989326
  63.2163597  80.9474977 108.2313090  63.7414922  81.2862250 107.5062410
  63.1285950  80.0121992 108.0476225  54.8783646  84.8609051 120.3602967
  55.1870773  84.6158197 121.2325667  55.6759128  85.0655689 119.8721837
  54.9004258  87.0146960 112.5908344  54.4609248  86.5223339 113.2841200
  55.6512375  86.4719928 112.3500419  47.3796597  83.2058501 112.5932972
  48.2054617  82.9062273 112.2131615  47.0290649  82.4366124 113.0422760
  52.3478130  82.5584969 114.6630645  51.7258140  81.8955674 114.3632873
  53.0182997  82.5846101 113.9804293  45.5805202  81.1244828 113.5521905
  44.7437111  80.6967002 113.3705906  45.5528848  81.3177271 114.4892696
  52.4202658  71.0366757 124.2563151  52.4690813  71.9128880 123.8740921
  52.9625172  70.4944150 123.6834794  63.0255379  78.4300347 120.8497017
  63.0753383  78.2650355 121.7912540  62.9169302  77.5627606 120.4594898
  51.9091637  81.1088893 108.1389106  52.0579758  81.7924357 107.4855779
  52.7158081  81.0893983 108.6538562  60.3159141  74.4131275 122.1656324
  61.2169004  74.2737740 121.8740321  60.3907115  74.5785730 123.1054501
  54.6501946  71.7898130 121.0109510  53.7805256  72.0831696 120.7392098
  54.8861427  72.3738575 121.7316774  64.5273575  80.8497289 121.0939038
  64.2358384  81.2127269 121.9302499  63.9145707  80.1364297 120.9152370
  65.7269258  78.4150168 113.6141609  66.5616149  78.8539972 113.7779169
  65.8628386  77.9388822 112.7949854  62.7760764  75.9729903 119.5619096
  63.2514885  76.1657550 118.7537948  61.8526329  76.0289089 119.3162480
  49.6644270  77.1354070 109.1450175  49.4190312  76.2316400 109.3430385
  49.8340185  77.1371221 108.2029653  57.3540980  68.0077747 118.5274930
  57.8722924  68.7438774 118.2021419  56.9996113  68.3141740 119.3621689
  57.6053574  64.4278029 114.0475827  57.8855328  63.7601218 114.6736253
  58.3904181  64.6207125 113.5350491  55.4087043  83.6037023 105.6100853
  54.8361010  84.2227210 105.1571325  55.9819836  84.1536385 106.1440775
  61.4762433  72.8495663 117.7947402  62.4279855  72.9493761 117.8159626
  61.3065883  72.0573932 118.3045486  59.4976812  69.9351247 117.9806803
  58.9026744  70.2156259 117.2853292  59.2126509  70.4245147 118.7523544
  58.6284303  83.8874173 106.7409435  59.5614976  83.8219735 106.9442311
  58.5407515  84.7230440 106.2823968  61.2572319  83.2040044 103.7013383
  61.1785951  82.8699907 104.5949141  62.0781986  83.6961812 103.7004855
  63.9550510  76.0701783 116.9089702  63.9226830  75.1317784 117.0949385
  64.5651134  76.1485820 116.1755527  55.7933841  74.9397836 102.9516906
  56.7392946  74.8104044 103.0205324  55.4148086  74.2012498 103.4286334
  64.1044999  72.8612826 116.9547985  63.5884048  72.0771283 116.7677914
  64.9884947  72.5331543 117.1194504  61.7655726  66.6053842 112.9143798
  61.5680547  66.2968930 113.7987129  62.3755431  67.3315481 113.0441727
  69.7727060  77.1317790 116.0495738  70.5030449  76.8703078 116.6103442
  69.1634006  76.3946512 116.0897806  67.8542357  75.2725652 116.6470190
  67.1275521  75.1381617 116.0386681  67.4389644  75.5802481 117.4526908
  55.6772534  78.9915582 124.4117563  56.5975543  79.1694181 124.6057609
  55.6422117  78.0471627 124.2597262  53.9776758  72.8647812 102.8871791
  53.0708214  72.5680925 102.9634505  54.2552739  72.5677630 102.0206077
  48.6734606  76.9016617 117.0540344  48.8920616  77.8333725 117.0728378
  49.0860380  76.5424591 117.8395148  55.5938824  67.4084702 109.0416032
  54.7839552  67.0631787 109.4171278  56.2823241  67.0992246 109.6303644
  57.5229372  66.4862749 110.6640329  58.0760411  66.9058202 111.3230352
  57.7599459  65.5598497 110.7063285  53.5462472  72.4749823 126.4443093
  53.4459199  73.4244179 126.3755184  53.3284014  72.1468061 125.5719163
  52.7475543  69.7234748 103.0283770  53.6094707  70.0489646 103.2879587
  52.9325887  68.9366243 102.5156836  44.7642959  77.8057087 115.3063959
  44.0706430  77.3911040 114.7933913  45.5115950  77.8477624 114.7097378
  60.9008179  68.5963274 110.1718993  60.3206849  69.2548078 109.7897046
  60.6344112  67.7740619 109.7606411  59.3511746  67.9968332 112.3740313
  59.8511524  68.1084866 111.5654632  59.9947354  67.6929385 113.0141122
  53.4093742  75.9046961 125.2608154  52.9260823  76.7047321 125.4672043
  53.4954681  75.9154906 124.3075598  46.6779701  77.7375341 113.1829974
  46.6550389  77.8363028 112.2311857  46.9880338  78.5840492 113.5047140
  49.3367079  79.7951496 117.2976588  50.2910333  79.7635438 117.2306520
  49.1379603  79.3342120 118.1126814  49.9266461  78.3652612 119.8647386
  50.7459350  78.8596691 119.8882223  50.2003269  77.4484580 119.8364953
  59.6833058  70.7563364 109.2275341  58.7958913  71.0413015 109.0095536
  60.0987047  70.5957128 108.3802618  63.0347594  70.7809885 112.9429681
  63.8107984  71.2706338 113.2154297  62.3095728  71.2067940 113.4001550
  65.4720152  71.4937505 114.0003621  66.0664643  71.2533241 113.2896929
  65.5446736  70.7744635 114.6277158  47.6917308  85.3371116 114.3146786
  47.5571776  84.5771516 113.7484784  47.2749370  86.0612015 113.8475575
  58.8276271  80.5208039 103.3223361  59.5312121  80.7258042 103.9381017
  58.1038920  81.0884801 103.5872445  59.6574081  76.2717900 109.4425632
  59.6009283  76.7286452 108.6033264  60.2102424  75.5108585 109.2648474
  63.4678887  72.0607632 110.2675751  63.2115821  71.6604268 111.0983959
  62.8431755  72.7751426 110.1425890  67.7791225  74.8003705 112.7747042
  67.2190783  74.8696895 113.5478604  67.1734728  74.6244690 112.0546539
  50.8486434  86.2340433 114.5265229  50.7318818  87.1785865 114.4243919
  50.0278880  85.9313994 114.9151028  60.7362968  80.9590568 105.3721821
  61.5708572  80.5271767 105.1899296  60.5747311  80.7872582 106.2998716
  60.3908861  77.4622682 106.7378161  60.3357664  77.2966953 105.7966605
  59.7654916  78.1698714 106.8940350  45.1801376  72.6990746 120.5639583
  45.8260239  72.1889700 121.0526808  44.9718527  73.4359428 121.1383008
  53.7004986  66.9630791 106.3163479  53.6883656  67.9072631 106.4731750
  54.5928408  66.7800936 106.0222940  51.8740948  86.8868694 117.7421157
  52.7768195  86.9192305 118.0587652  51.6478318  85.9569145 117.7567493
  53.6294550  85.6399681 114.4031236  52.6790181  85.6401543 114.2895608
  53.9327036  84.8932416 113.8867270  57.5157105  63.5573567 110.5709416
  56.7489501  63.0032054 110.7166098  57.9267810  63.6295436 111.4323568
  49.5198867  69.8458363 124.6614597  50.3830328  69.4895168 124.8717922
  48.9464277  69.5072258 125.3490001  62.0323765  93.2823124 111.3935414
  61.4688631  93.1913061 110.6251702  61.9176161  92.4623028 111.8737906
  59.5788197  94.7774316 114.2319634  60.3709489  94.4365140 113.8165934
  59.8184848  94.8869291 115.1521788  67.6123324  96.9494092 106.7049879
  66.9611304  97.5348172 106.3183892  68.4067687  97.4800287 106.7644916
  61.5378951  94.0383229 107.1037013  62.3109827  93.4912216 106.9649889
  61.8904350  94.9027478 107.3151474  63.8745229  90.1975895 104.7355463
  64.1270750  89.6757416 103.9738926  62.9369788  90.0342040 104.8382147
  68.9188512  89.2011673 112.5430206  69.7051601  88.7831096 112.1920623
  69.1827216  90.1057765 112.7111855  69.0898589  94.6384524 107.2418863
  68.4544422  94.7119150 107.9539768  68.7595996  95.2278122 106.5637942
  63.5941518  92.1004001 106.9379838  63.4777776  91.4248904 107.6060922
  63.7043778  91.6136375 106.1211991  65.9373059  91.5614148 110.6426527
  65.5731266  91.0344769 111.3539449  66.7940175  91.1712617 110.4693013
  65.5778546  86.5904048 105.6387876  65.7452948  87.4584284 106.0058347
  65.3875715  86.7531329 104.7149165  61.7866360  91.5034823 113.3390410
  60.8616857  91.3711037 113.5468102  62.0350774  92.2829043 113.8360353
  65.5567767  89.0461705 106.6234543  65.4367392  89.4918756 107.4620023
  64.8620355  89.3947023 106.0648081  59.1475171  91.1468097 114.1734200
  59.2767553  91.4002576 115.0873611  58.4672623  91.7395805 113.8538855
  71.2552833  89.5183178 107.4514877  72.1670689  89.7510565 107.2762574
  70.7462480  90.1020223 106.8889955  68.5988808  85.6941214 115.7004737
  67.7373287  85.9922468 115.9921475  68.6251242  85.9111613 114.7685770
  65.4150377  94.2383405 112.1078543  65.8788723  94.5171108 111.3183166
  65.1507175  93.3366849 111.9251634  64.3519263  90.3606557 108.9168108
  65.0543306  90.8127601 109.3842035  64.0199892  89.7190376 109.5448001
  58.0944597  88.6190110 114.2185242  57.3043651  88.8747638 113.7425352
  58.5855844  89.4338448 114.3237282  60.0459342  88.9834689 111.1768719
  59.2490506  89.0953383 111.6952214  59.8184935  89.3221341 110.3109609
  56.3782300  88.8720600 116.6500233  56.6290338  89.7567610 116.9157809
  56.9141848  88.6925202 115.8775324  65.5913028  97.1747500 108.9930213
  65.4558702  98.0199036 109.4215061  66.1322840  97.3766777 108.2296147
  59.0442425  94.6922938 109.5658139  59.5566946  95.4866188 109.7163703
  59.6965138  93.9949228 109.4991740  60.8537310  97.8088694 111.6480892
  61.0303938  98.7306659 111.4601876  61.6494143  97.4947113 112.0775272
  68.9405491  80.6978062 117.5229107  68.5969761  81.5879703 117.4468218
  69.3084454  80.5079719 116.6598692  57.0091342  93.0211592 110.3417709
  57.8466564  93.4308601 110.1251417  57.1869610  92.0811034 110.3117903
  68.9055774  90.6886673 106.0301542  68.3902397  91.4591277 106.2689929
  68.6333082  90.0151809 106.6534603  66.4902885  85.5336374 111.0886780
  65.6344481  85.1443224 110.9092419  66.9029837  85.6128334 110.2286566
  68.0202032  83.0682717 115.4878340  67.5166827  83.0312852 114.6746145
  68.3132639  83.9775460 115.5474997  64.2644918  83.1521447 114.4944522
  65.1297914  82.9564255 114.1350411  64.3322426  82.9231798 115.4213879
  73.8790048  93.4419027 107.9654716  73.1019491  93.1030187 107.5209878
  74.5581529  93.4471651 107.2909681  68.6942077  88.5613765 107.8561323
  68.3892213  88.8759914 108.7071466  69.6472519  88.6395185 107.8988656
  67.1388509  94.7203988 109.5054277  66.6109871  93.9856748 109.1927515
  66.6376012  95.4978665 109.2594246  61.8707237  85.3823655 111.8660889
  62.4450989  85.1598836 111.1334082  62.4578219  85.4512349 112.6189490
  62.1976824  87.4128116 105.8856774  61.3614136  87.7502802 106.2066049
  62.0581593  87.2777095 104.9483911  64.1729904  82.2564903 110.5935958
  63.5194317  81.9413921 109.9692573  64.1310378  81.6340644 111.3195781
  65.2841109  92.5384199 102.5089250  64.3768171  92.3073452 102.7080399
  65.7812141  91.7421818 102.6963232  68.1909188 101.2481706 105.4285936
  67.5170887 101.5513402 106.0370894  68.5775010 102.0510786 105.0791393
  67.4067645  88.7446837 114.9183606  66.4890206  88.9661784 114.7605294
  67.8227788  88.8193147 114.0595313  68.1902692  90.1438253 110.0486286
  68.9374511  90.6559650 109.7393408  68.4594282  89.8222305 110.9090680
  66.4629343  92.6396793 107.0313240  65.5540562  92.3555826 107.1285710
  66.4924426  93.0595872 106.1716547  70.6381530  87.1795369 112.0305075
  69.9004286  86.6672755 112.3615318  70.8908303  86.7395751 111.2188352
  70.7393157  79.9571621 112.6246845  71.0452034  79.0968984 112.3372760
  71.4645762  80.5489241 112.4245839  57.0317513  90.3602308 111.0128443
  56.8341913  89.7671668 110.2879509  56.4764177  90.0554518 111.7304381
  65.0114237  90.2525414 113.1323036  65.0662846  89.2999250 113.0565512
  64.2005439  90.4084853 113.6164334  66.1605430  94.1805537 104.3701319
  65.7224860  93.4641396 103.9106956  66.9015871  94.4081652 103.8086410
  62.9506597  88.8702474 110.8913415  62.1374462  89.1696644 111.2978607
  63.4465591  88.4758162 111.6087897  74.2778545  92.4562734 110.4277637
  74.1396444  92.6464330 109.4998827  73.9214764  93.2182117 110.8845689
  62.4420671  86.4420829 116.5074650  63.0820051  86.3009588 115.8097613
  61.6098202  86.1555343 116.1313251  63.2180975  95.7423260 112.6209642
  64.0121574  95.2473580 112.4192217  62.5072668  95.2141123 112.2577348
  59.5263739  89.8866341 108.6969395  58.5961327  89.8250797 108.9139357
  59.6221211  89.3642294 107.9006036  59.4449288  86.4121154 111.2847636
  59.7056105  87.3266487 111.1756797  60.2666460  85.9445597 111.4344249
  60.9174213  87.8258911 118.4546461  61.5897267  87.6176274 117.8059110
  60.0904000  87.6280997 118.0151693  66.3900403 101.4161378 107.6433016
  66.5652159 100.9449421 108.4578638  65.7033191 102.0427144 107.8714276
  70.2816658  93.0389919 103.9633376  69.6645829  92.3136747 103.8666429
  69.8133146  93.7999279 103.6200451  62.0715204  87.2575343 103.0854681
  61.1944670  87.1364144 102.7216927  62.5472957  86.4661421 102.8333569
  53.5917344  92.0452503 113.1796188  54.2788384  91.7314233 112.5917203
  53.4365473  92.9493867 112.9063439  58.3952066  86.9342699 117.6081212
  58.3110255  86.3268369 116.8731622  57.5734773  87.4251718 117.6090708
  68.5675780  85.4196263 112.9751407  69.0644480  84.6666225 112.6552477
  67.7962762  85.4560579 112.4094616  69.6505561  94.1767950 110.5489830
  68.7161840  94.2969413 110.3794534  69.8282229  93.2740417 110.2849840
  65.1510749  87.5613646 112.7023091  64.7808536  87.0084686 113.3903997
  65.6469841  86.9571779 112.1498091  73.0378112  90.0185269 111.0839864
  73.5038564  90.8513261 111.0100167  73.4885613  89.5530251 111.7885123
  71.1054343  96.3629091 108.0826016  71.3814187  96.2485685 108.9919890
  70.2358842  95.9646575 108.0438189  71.0094775  82.3865856 115.1230766
  70.0957855  82.6170083 115.2912972  71.4387876  82.4704300 115.9744798
  68.0750573  99.5383627 108.9873878  68.6038339  99.0276081 108.3744040
  68.3378792  99.2226157 109.8519411  53.1685320  90.1253096 115.4513655
  53.2069420  89.5916687 116.2450773  52.6625613  89.5988302 114.8324632
  60.5476083  84.9717637 118.9476197  60.6117409  85.8332467 118.5353595
  60.4843203  84.3591638 118.2148556  56.7993898  88.8517198 108.5267586
  57.0947339  87.9427877 108.4734640  55.8981934  88.8304938 108.2048589
  60.3288145  86.9273195 114.5095135  59.6074731  87.5409163 114.3702608
  61.1181401  87.4630960 114.4311781  58.5281739  86.5331296 108.6506912
  58.1994446  85.6528675 108.4682018  58.8821110  86.4778965 109.5383301
  61.6423563  86.8204266 109.0182389  61.9819635  87.3490187 108.2960998
  62.0895683  87.1584672 109.7940956  64.3367003  85.2041316 118.4685457
  63.9963824  84.4049129 118.8706137  63.6306010  85.5043027 117.8962291
  64.9883475  82.2890629 116.9212780  65.8109544  81.8151107 116.7991671
  65.2321539  83.0681113 117.4211467  63.6291710  85.3178887 107.2175682
  64.3500072  85.6960140 106.7139399  63.0057014  86.0367764 107.3210660
  67.7722833  86.0224036 108.1534014  67.9886447  86.9048674 107.8522843
  67.2916900  85.6310250 107.4239656  62.5122054  88.9809749 114.7304759
  62.3666635  89.2950053 115.6229040  62.0347258  89.5994650 114.1775658
  64.3718437  85.9712297 114.7785649  64.3580006  85.0753391 114.4417946
  65.0890865  85.9782961 115.4123935  66.2244568  86.4049638 116.8238776
  65.9662345  87.3266708 116.8223106  65.6929608  86.0080072 117.5139240
  56.9867716  91.5215094 117.6692420  56.4421184  92.2974902 117.8012694
  57.8647066  91.8685898 117.5111542  63.7755333  84.8526678 110.0473219
  63.8971244  83.9243324 110.2464106  63.4857375  84.8665364 109.1351534
  66.6446523  82.5381588 113.1839938  66.6668220  82.6020921 112.2291918
  67.0614582  81.6986097 113.3780445  72.1565929  98.8267189 106.7025760
  72.8516833  99.4473882 106.9213074  72.4989079  97.9762540 106.9778137
  74.0557352  96.2766895 108.2313090  74.5808676  96.6154167 107.5062410
  73.9679704  95.3413910 108.0476225  58.2190352  98.5350419 112.5932972
  59.0448372  98.2354191 112.2131615  57.8684404  97.7658041 113.0422760
  56.4198957  96.4536745 113.5521905  55.5830865  96.0258920 113.3705906
  56.3922602  96.6469189 114.4892696  62.7485392  96.4380810 108.1389106
  62.8973512  97.1216275 107.4855779  63.5551835  96.4185900 108.6538562
  60.5038025  92.4645988 109.1450175  60.2584067  91.5608318 109.3430385
  60.6733939  92.4663139 108.2029653  59.7733672  88.1974346 106.6436336
  59.0802917  88.2718701 105.9876372  59.5285424  87.4334689 107.1657853
  68.4447329  79.7569947 114.0475827  68.7249083  79.0893136 114.6736253
  69.2297936  79.9499043 113.5350491  66.2480797  98.9328941 105.6100853
  65.6754764  99.5519128 105.1571325  66.8213591  99.4828303 106.1440775
  69.4678057  99.2166091 106.7409435  70.4008730  99.1511653 106.9442311
  69.3801270 100.0522358 106.2823968  72.0966074  98.5331961 103.7013383
  72.0179705  98.1991825 104.5949141  72.9175740  99.0253729 103.7004855
  66.6327596  90.2689754 102.9516906  67.5786700  90.1395962 103.0205324
  66.2541841  89.5304416 103.4286334  72.6049480  81.9345760 112.9143798
  72.4074301  81.6260848 113.7987129  73.2149186  82.6607399 113.0441727
  64.8170513  88.1939730 102.8871791  63.9101968  87.8972843 102.9634505
  65.0946494  87.8969548 102.0206077  55.7348453  89.5146093 113.3370837
  55.4151238  88.6611402 113.0445211  55.1881881  89.7294672 114.0928805
  66.4332579  82.7376620 109.0416032  65.6233307  82.3923705 109.4171278
  67.1216996  82.4284163 109.6303644  68.3623127  81.8154667 110.6640329
  68.9154166  82.2350120 111.3230352  68.5993213  80.8890415 110.7063285
  63.5869298  85.0526665 103.0283770  64.4488462  85.3781564 103.2879587
  63.7719642  84.2658161 102.5156836  55.6036713  93.1349005 115.3063959
  54.9100185  92.7202958 114.7933913  56.3509704  93.1769541 114.7097378
  71.7401934  83.9255192 110.1718993  71.1600603  84.5839996 109.7897046
  71.4737867  83.1032536 109.7606411  70.1905500  83.3260249 112.3740313
  70.6905279  83.4376784 111.5654632  70.8341108  83.0221302 113.0141122
  57.5173456  93.0667259 113.1829974  57.4944144  93.1654946 112.2311857
  57.8274092  93.9132410 113.5047140  70.5226812  86.0855282 109.2275341
  69.6352667  86.3704933 109.0095536  70.9380801  85.9249045 108.3802618
  73.8741348  86.1101803 112.9429681  74.6501738  86.5998256 113.2154297
  73.1489482  86.5359857 113.4001550  69.6670025  95.8499957 103.3223361
  70.3705876  96.0549959 103.9381017  68.9432674  96.4176719 103.5872445
  70.4967836  91.6009818 109.4425632  70.4403037  92.0578369 108.6033264
  71.0496178  90.8400503 109.2648474  74.3072642  87.3899550 110.2675751
  74.0509576  86.9896186 111.0983959  73.6825510  88.1043344 110.1425890
  71.5756723  96.2882486 105.3721821  72.4102327  95.8563684 105.1899296
  71.4141066  96.1164500 106.2998716  71.2302615  92.7914599 106.7378161
  71.1751419  92.6258871 105.7966605  70.6048670  93.4990632 106.8940350
  56.0195130  88.0282664 120.5639583  56.6653994  87.5181618 121.0526808
  55.8112281  88.7651345 121.1383008  64.5398741  82.2922708 106.3163479
  64.5277410  83.2364548 106.4731750  65.4322162  82.1092854 106.0222940
  68.3550860  78.8865485 110.5709416  67.5883256  78.3323972 110.7166098
  68.7661565  78.9587354 111.4323568  73.0370578 102.7420033 105.8856774
  72.2007890 103.0794720 106.2066049  72.8975348 102.6069013 104.9483911
  72.9108958 102.5867261 103.0854681  72.0338425 102.4656061 102.7216927
  73.3866712 101.7953339 102.8333569  75.6564267 103.5231648 102.8871791
  74.7495723 103.2264760 102.9634505  75.9340248 103.2261466 102.0206077
  74.4263052 100.3818583 103.0283770  75.2882216 100.7073481 103.2879587
  74.6113396  99.5950079 102.5156836  75.3792495  97.6214626 106.3163479
  75.3671165  98.5656466 106.4731750  76.2715917  97.4384771 106.0222940
  24.8334171  16.9376158  92.1531243  24.1595870  17.2407854  92.7616201
  25.2199993  17.7405238  91.8036700  28.7990912  14.5161641  93.4271066
  29.4941817  15.1368334  93.6458381  29.1414062  13.6656992  93.7023444
  22.8905781  14.6223393  92.3346160  22.3179748  15.2413580  91.8816632
  23.4638574  15.1722754  92.8686082  26.1103040  14.9060543  93.4654742
  27.0433713  14.8406105  93.6687618  26.0226253  15.7416810  93.0069275
  28.7391057  14.2226413  90.4258690  28.6604689  13.8886277  91.3194448
  29.5600724  14.7148181  90.4250162  26.3095009  11.5394409  90.0468668
  27.0130859  11.7444411  90.6626324  25.5857658  12.1071171  90.3117752
  28.2181706  11.9776938  92.0967128  29.0527310  11.5458136  91.9144603
  28.0566049  11.8058952  93.0244023  36.8465981  22.4946589 102.1922305
  37.4844391  22.3753336 101.4885645  36.7286824  23.4427433 102.2510257
  29.5142503  24.3009493  98.1180720  28.9507368  24.2099430  97.3497008
  29.3994898  23.4809398  98.5983213  35.0942062  27.9680461  93.4295185
  34.4430042  28.5534542  93.0429199  35.8886425  28.4986656  93.4890223
  29.0197689  25.0569598  93.8282320  29.7928565  24.5098585  93.6895196
  29.3723088  25.9213848  94.0396781  31.3563967  21.2162264  91.4600770
  31.6089488  20.6943786  90.6984233  30.4188526  21.0528410  91.5627453
  36.4007250  20.2198043  99.2675513  37.1870339  19.8017466  98.9165930
  36.6645954  21.1244135  99.4357161  36.5717327  25.6570893  93.9664170
  35.9363160  25.7305520  94.6785074  36.2414734  26.2464492  93.2883249
  41.8015677  20.1573276 100.1708491  42.5340849  19.5872493 100.4046321
  41.0455033  19.7694876 100.6114997  31.0760256  23.1190370  93.6625145
  30.9596514  22.4435274  94.3306229  31.1862516  22.6322744  92.8457298
  33.4191797  22.5800518  97.3671834  33.0550004  22.0531138  98.0784755
  34.2758913  22.1898987  97.1938319  33.0597284  17.6090417  92.3633182
  33.2271686  18.4770654  92.7303653  32.8694453  17.7717699  91.4394472
  33.0386504  20.0648075  93.3479849  32.9186130  20.5105125  94.1865329
  32.3439093  20.4133392  92.7893387  30.7993397  32.8351716  96.9969980
  30.7217426  33.7859542  97.0758461  30.1955040  32.4897589  97.6544907
  38.7371571  20.5369548  94.1760183  39.6489427  20.7696935  94.0007881
  38.2281218  21.1206592  93.6135262  37.3441153  25.5195366 101.5673765
  36.7150015  25.6841080 100.8649833  36.9566815  25.9336976 102.3384729
  41.2230385  26.4549804  98.9218128  40.5381423  26.8348706  98.3715162
  41.3074234  27.0645131  99.6550076  32.8969115  25.2569774  98.8323850
  33.3607460  25.5357477  98.0428472  32.6325913  24.3553219  98.6496940
  31.8338001  21.3792927  95.6413415  32.5362044  21.8313970  96.1087341
  31.5018629  20.7376746  96.2693308  39.5927144  26.9781719 103.6935829
  40.4144588  26.5761906 103.4118511  39.5889547  26.8749953 104.6451945
  47.6833137  23.3220467 100.0420801  46.9296846  22.7527865  99.8864805
  47.8180679  23.2883132 100.9891435  33.0731765  28.1933869  95.7175520
  32.9377440  29.0385405  96.1460368  33.6141578  28.3953147  94.9541454
  26.5261163  25.7109307  96.2903445  27.0385683  26.5052558  96.4409010
  27.1783876  25.0135598  96.2237047  28.3356048  28.8275064  98.3726198
  28.5122676  29.7493028  98.1847182  29.1312881  28.5133483  98.8020578
  29.4587363  30.3453238 104.3736541  30.0094788  30.2170301 103.6013535
  28.6198839  30.6448127 104.0231434  24.4910080  24.0397962  97.0663016
  25.3285302  24.4494970  96.8496723  24.6688347  23.0997404  97.0363210
  36.3874512  21.7073042  92.7546849  35.8721135  22.4777647  92.9935236
  36.1151820  21.0338179  93.3779910  33.9721623  16.5522743  97.8132087
  33.1163219  16.1629594  97.6337726  34.3848575  16.6314704  96.9531873
  41.3608786  24.4605397  94.6900022  40.5838229  24.1216557  94.2455184
  42.0400267  24.4658020  94.0154987  36.1760815  19.5800134  94.5806630
  35.8710951  19.8946284  95.4316773  37.1291257  19.6581554  94.6233963
  34.6207247  25.7390358  96.2299584  34.0928608  25.0043117  95.9172821
  34.1194750  26.5165034  95.9839552  39.6000093  23.9339378 101.3466630
  38.9423767  24.6238640 101.4346759  40.4040492  24.3235810 101.6900617
  38.4105552  22.2883751  99.3970572  38.9237433  22.9213743  99.8992282
  39.0606775  21.6884947  99.0313932  29.6795562  18.4314485  92.6102081
  28.8432874  18.7689172  92.9311355  29.5400331  18.2963465  91.6729218
  32.7659847  23.5570568  89.2334557  31.8586909  23.3259822  89.4325706
  33.2630879  22.7608187  89.4208538  35.6727926  32.2668075  92.1531243
  34.9989625  32.5699772  92.7616201  36.0593748  33.0697156  91.8036700
  35.6721430  21.1624622  96.7731593  36.4193249  21.6746019  96.4638715
  35.9413020  20.8408675  97.6335986  33.9448080  23.6583163  93.7558547
  33.0359300  23.3742196  93.8531017  33.9743164  24.0782242  92.8961854
  39.1767348  27.2689752  97.5249715  38.7229675  26.4280662  97.5814905
  38.5461315  27.9051151  97.8624495  38.1200267  18.1981738  98.7550382
  37.3823024  17.6859125  99.0860625  38.3727041  17.7582120  97.9433659
  37.6200287  29.1066249  98.4599533  37.9123261  29.6671306  97.7411898
  38.1298908  29.3994810  99.2152692  32.4932974  21.2711784  99.8568342
  32.5481584  20.3185620  99.7810819  31.6824176  21.4271223 100.3409641
  33.6424168  25.1991907  91.0946626  33.2043598  24.4827766  90.6352263
  34.3834609  25.4268021  90.5331717  30.4325334  19.8888843  97.6158721
  29.6193200  20.1883014  98.0223913  30.9284329  19.4944532  98.3333203
  32.5833912  29.8846600  99.5492986  32.5410091  30.1107447  98.6201518
  33.4996611  29.6509975  99.6978787  41.7597283  23.4749104  97.1522944
  41.6215182  23.6650700  96.2244133  41.4033502  24.2368486  97.6090995
  41.7866663  25.5425631 102.1634216  42.2203169  25.4500920 103.0117270
  42.4998243  25.5183131 101.5254232  30.6999713  26.7609629  99.3454949
  31.4940312  26.2659949  99.1437524  29.9891405  26.2327492  98.9822654
  35.5194558  29.1427725 103.6967316  35.5731580  29.7118661 104.4645032
  34.6509339  29.3129610 103.3321353  27.0082476  20.9052711  95.4214701
  26.0780065  20.8437166  95.6384663  27.1039948  20.3828664  94.6251343
  42.6482212  25.5849331 104.6967101  42.8418102  26.4895142 104.9426376
  42.5482830  25.1256750 105.5305686  33.2770989  27.3338651 103.0252786
  33.1382075  26.9657436 103.8978724  32.4885585  27.8486291 102.8536743
  33.8719141  32.4347748  94.3678322  34.0470897  31.9635791  95.1823945
  33.1851929  33.0613514  94.5959583  34.8276204  26.7120254 100.4141623
  34.4926037  26.6721024 101.3099273  34.3280150  26.0464970  99.9412034
  37.7635396  24.0576288  90.6878683  37.1464566  23.3323116  90.5911736
  37.2951884  24.8185649  90.3445757  28.4380226  35.5837110 101.1418182
  28.6776825  36.2155635 101.8197201  27.5949423  35.2325150 101.4283542
  29.5533942  18.2761713  89.8099987  28.6763408  18.1550513  89.4462234
  30.0291695  17.4847791  89.5578876  32.9508088  31.3916233 103.5459686
  32.8778260  32.1971204 104.0578991  32.5085481  31.5908199 102.7207708
  32.7397868  30.6288003  97.0562508  31.9565390  31.1709683  97.1500732
  33.4390613  31.1461983  97.4556749  43.9024275  22.1422998 101.3415005
  43.8914152  23.0247713 100.9708938  43.0341655  21.7894549 101.1469542
  35.4106772  31.2903067 105.7017845  36.1234744  31.9250532 105.6293746
  34.9196800  31.3866933 104.8857847  37.1324299  25.1954320  97.2735137
  36.1980577  25.3155782  97.1039841  37.3100967  24.2926786  97.0095147
  40.5196850  21.0371639  97.8085171  40.9857302  21.8699630  97.7345474
  40.9704350  20.5716620  98.5130429  38.5873081  27.3815460  94.8071323
  38.8632925  27.2672055  95.7165197  37.7177580  26.9832945  94.7683496
  35.2227145  31.6301811  98.4504137  35.4049540  30.8123467  98.9131889
  36.0460131  31.8469503  98.0129026  35.5569311  30.5569996  95.7119185
  36.0857077  30.0462451  95.0989347  35.8197530  30.2412526  96.5764718
  28.9125058  31.6085113  98.4716961  28.2435434  32.0931240  97.9881001
  28.7737928  31.8554333  99.3860339  33.0530327  33.6428856 105.0699619
  33.6048635  33.8060478 105.8348705  33.3936521  34.2333294 104.3979644
  24.2812636  19.8703568  95.2512893  24.5766077  18.9614246  95.1979947
  23.3800671  19.8491307  94.9293895  36.1898714  31.5910832 102.0563301
  36.0649854  30.7900572 101.5474247  36.8477805  32.0857025 101.5677271
  38.2533623  29.3919852 103.6842852  37.3063958  29.2725203 103.6121178
  38.6016396  28.5042350 103.7669113  35.2580056  29.1872568  99.8847204
  35.1105018  28.2589276 100.0654774  36.0833550  29.2092659  99.4004279
  29.1242300  17.8390635  95.7427696  29.4638373  18.3676557  95.0206304
  29.5714421  18.1771041  96.5186262  38.8614178  30.0101127 100.9712077
  39.7860725  29.8043988 100.8336528  38.6929481  29.7617528 101.8801418
  31.1110447  16.3365257  93.9420989  31.8318810  16.7146510  93.4384706
  30.4875752  17.0554134  94.0455967  35.2541570  17.0410406  94.8779321
  35.4705185  17.9235044  94.5768149  34.7735637  16.6496619  94.1484963
  38.6509494  30.5286794  96.3274168  38.8246372  29.9633217  95.5748020
  39.1438385  31.3287689  96.1453658  44.5048885  23.2923217  97.9464468
  44.9480031  22.5430543  97.5483591  43.6275396  23.2833354  97.5638200
  39.6384667  29.8453559  93.4271066  40.3335571  30.4660251  93.6458381
  39.9807817  28.9948910  93.7023444  41.5376090  27.2953264  94.9558397
  42.0627414  27.6340537  94.2307717  41.4498442  26.3600280  94.7721532
  33.2216750  33.3625248  99.3153650  32.7821741  32.8701626 100.0086507
  33.9724867  32.8198215  99.0745725  25.7009089  29.5536788  99.3178278
  26.5267109  29.2540560  98.9376922  25.3503141  28.7844411  99.7668067
  30.6690623  28.9063257 101.3875952  30.0470632  28.2433962 101.0878180
  31.3395489  28.9324389 100.7049600  30.2304129  27.4567180  94.8634412
  30.3792250  28.1402644  94.2101085  31.0370573  27.4372270  95.3783868
  44.0481750  24.7628456 100.3386915  44.8828641  25.2018260 100.5024476
  44.1840879  24.2867109  99.5195161  27.9856762  23.4832358  95.8695481
  27.7402804  22.5794688  96.0675691  28.1552677  23.4849508  94.9274959
  27.2552410  19.2160715  93.3681643  26.5621655  19.2905070  92.7121679
  27.0104162  18.4521059  93.8903160  33.7299535  29.9515310  92.3346160
  33.1573502  30.5705498  91.8816632  34.3032329  30.5014672  92.8686082
  36.9496795  30.2352461  93.4654742  37.8827468  30.1698022  93.6687618
  36.8620008  31.0708727  93.0069275  39.5784811  29.5518331  90.4258690
  39.4998443  29.2178195  91.3194448  40.3994478  30.0440099  90.4250162
  42.2763003  22.4180070 103.6335008  42.2439323  21.4796071 103.8194692
  42.8863626  22.4964107 102.9000833  34.1146334  21.2876123  89.6762212
  35.0605438  21.1582331  89.7450630  33.7360578  20.5490785  90.1531641
  48.0939553  23.4796077 102.7741045  48.8242941  23.2181365 103.3348748
  47.4846498  22.7424799 102.8143113  46.1754850  21.6203940 103.3715496
  45.4488013  21.4859905 102.7631988  45.7602137  21.9280768 104.1772214
  32.2989251  19.2126100  89.6117098  31.3920706  18.9159212  89.6879811
  32.5765232  18.9155918  88.7451384  33.9151316  13.7562989  95.7661339
  33.1052045  13.4110074  96.1416585  34.6035733  13.4470533  96.3548950
  31.0688035  16.0713035  89.7529077  31.9307199  16.3967933  90.0124894
  31.2538379  15.2844531  89.2402143  39.2220672  14.9441561  96.8964300
  38.6419341  15.6026365  96.5142352  38.9556604  14.1218906  96.4851717
  38.0045550  17.1041652  95.9520648  37.1171405  17.3891302  95.7340843
  38.4199539  16.9435415  95.1047925  41.3560086  17.1288173  99.6674987
  42.1320476  17.6184625  99.9399604  40.6308220  17.5546227 100.1246857
  43.7932645  17.8415792 100.7248928  44.3877135  17.6011528 100.0142236
  43.8659228  17.1222922 101.3522464  26.0129800  31.6849403 101.0392093
  25.8784268  30.9249804 100.4730091  25.5961863  32.4090303 100.5720882
  37.1488763  26.8686326  90.0468668  37.8524613  27.0736329  90.6626324
  36.4251412  27.4363088  90.3117752  37.9786574  22.6196188  96.1670938
  37.9221775  23.0764739  95.3278571  38.5314916  21.8586872  95.9893781
  41.7891379  18.4085919  96.9921058  41.5328314  18.0082555  97.8229265
  41.1644247  19.1229713  96.8671197  46.1003717  21.1481993  99.4992349
  45.5403275  21.2175182 100.2723911  45.4947221  20.9722977  98.7791845
  29.1698926  32.5818720 101.2510535  29.0531310  33.5264152 101.1489226
  28.3491372  32.2792281 101.6396335  39.0575461  27.3068856  92.0967128
  39.8921065  26.8750054  91.9144603  38.8959804  27.1350869  93.0244023
  38.7121353  23.8100969  93.4623467  38.6570157  23.6445240  92.5211911
  38.0867408  24.5177002  93.6185657  32.0217478  13.3109078  93.0408786
  32.0096148  14.2550918  93.1977057  32.9140900  13.1279223  92.7468247
  30.1953440  33.2346982 104.4666464  31.0980687  33.2670592 104.7832959
  29.9690810  32.3047433 104.4812800  31.9507042  31.9877968 101.1276542
  31.0002673  31.9879830 101.0140915  32.2539528  31.2410703 100.6112577
  47.6859736  37.8238507 102.1922305  48.3238146  37.7045254 101.4885645
  47.5680579  38.7719351 102.2510257  44.4949442  37.7765935 102.1283830
  44.1567954  37.6606999 101.2404364  45.3639210  37.3757100 102.1084836
  40.3536258  39.6301411  98.1180720  39.7901123  39.5391348  97.3497008
  40.2388653  38.8101316  98.5983213  44.9769225  38.9300786 108.0870035
  44.9657866  38.5353585 107.2150539  45.1389865  38.1966859 108.6803806
  37.9000690  41.1252603 100.9564941  38.6921982  40.7843427 100.5411240
  38.1397340  41.2347578 101.8767094  45.9335816  43.2972379  93.4295185
  45.2823796  43.8826459  93.0429199  46.7280179  43.8278574  93.4890223
  39.8591444  40.3861516  93.8282320  40.6322320  39.8390503  93.6895196
  40.2116842  41.2505765  94.0396781  41.6976486  41.7137898 107.0349219
  41.4066352  42.6183529 106.9195885  42.3333471  41.7554426 107.7493289
  42.6232693  39.0914747 103.6250579  43.2196265  38.8670769 102.9107542
  42.6807665  38.3499492 104.2276027  42.1957721  36.5454182  91.4600770
  42.4483242  36.0235703  90.6984233  41.2582281  36.3820328  91.5627453
  47.2401004  35.5489960  99.2675513  48.0264093  35.1309384  98.9165930
  47.5039709  36.4536053  99.4357161  47.4111082  40.9862811  93.9664170
  46.7756915  41.0597437  94.6785074  47.0808488  41.5756410  93.2883249
  52.6409431  35.4865194 100.1708491  53.3734603  34.9164410 100.4046321
  51.8848787  35.0986794 100.6114997  41.9154010  38.4482288  93.6625145
  41.7990268  37.7727191  94.3306229  42.0256270  37.9614662  92.8457298
  44.2585551  37.9092435  97.3671834  43.8943758  37.3823056  98.0784755
  45.1152667  37.5190904  97.1938319  50.1634852  29.1986768 104.6303100
  49.8318177  30.0682179 104.4064315  49.5680465  28.8823052 105.3097130
  43.8991038  32.9382335  92.3633182  44.0665440  33.8062571  92.7303653
  43.7088207  33.1009617  91.4394472  46.6566371  41.3999314 104.0299013
  46.3567094  42.3024353 103.9214820  46.3117431  41.1331497 104.8820166
  40.1078853  37.8513111 100.0635717  39.1829349  37.7189325 100.2713409
  40.3563266  38.6307330 100.5605660  50.0563515  33.9181854 101.7096450
  49.1480392  33.8497262 101.4155211  50.0051111  34.3953799 102.5378276
  43.8780259  35.3939992  93.3479849  43.7579884  35.8397043  94.1865329
  43.1832847  35.7425310  92.7893387  37.4687664  37.4946384 100.8979506
  37.5980045  37.7480863 101.8118918  36.7885115  38.0874092 100.5784161
  44.1304381  35.3371500 109.6531347  43.3537715  35.8965420 109.6434212
  44.7694944  35.8228283 110.1746217  51.9225161  32.1198292 103.4874324
  51.2799542  32.4130826 102.8414119  51.4180090  32.0051213 104.2927521
  49.5765325  35.8661466  94.1760183  50.4883181  36.0988852  94.0007881
  49.0674972  36.4498510  93.6135262  42.3850753  38.1456953 109.2149314
  43.1265438  38.6841997 108.9384138  41.6787739  38.7723242 109.3720866
  47.8606093  40.2886093 107.8121476  48.2689449  39.8468504 107.0676108
  47.1383354  39.7138721 108.0655669  44.2137163  35.2258700 105.1855033
  45.0598358  35.6498114 105.3289682  44.1535800  34.5692324 105.8793596
  48.1834907  40.8487284 101.5673765  47.5543770  41.0132998 100.8649833
  47.7960570  41.2628894 102.3384729  52.0624139  41.7841722  98.9218128
  51.3775177  42.1640623  98.3715162  52.1467989  42.3937049  99.6550076
  47.3636608  32.8863069 106.8436206  47.1197540  33.6405129 106.3070482
  47.6396539  33.2648416 107.6783453  49.3175071  39.4301681 105.5213472
  49.5291966  40.0733441 104.8447853  49.2704819  38.5963997 105.0535402
  46.9201300  32.0419502 102.4250044  46.0585779  32.3400755 102.7166782
  46.9463735  32.2589900 101.4931077  43.7362869  40.5861692  98.8323850
  44.2001215  40.8649395  98.0428472  43.4719667  39.6845137  98.6496940
  40.6286950  40.1333174 101.7703613  41.1988307  40.5620442 101.1321098
  41.2195062  39.8515758 102.4687799  42.6731755  36.7084844  95.6413415
  43.3755799  37.1605888  96.1087341  42.3412384  36.0668663  96.2693308
  41.1212117  35.2996601 110.0164624  40.4910777  35.9812882 110.2500021
  41.0148205  35.1879683 109.0717763  36.4157089  34.9668397 100.9430548
  35.6256143  35.2225926 100.4670659  36.9068337  35.7816735 101.0482589
  50.4320899  42.3073636 103.6935829  51.2538343  41.9053824 103.4118511
  50.4283302  42.2041870 104.6451945  38.3671835  35.3312976  97.9014025
  37.5702998  35.4431671  98.4197521  38.1397427  35.6699629  97.0354916
  44.1977502  41.8557680 105.8496540  44.2621935  42.3178087 106.6854712
  43.4888426  41.2255045 105.9778850  34.6994792  35.2198888 103.3745539
  34.9502831  36.1045897 103.6403115  35.2354341  35.0403489 102.6020631
  58.5226892  38.6512385 100.0420801  57.7690600  38.0819783  99.8864805
  58.6574433  38.6175049 100.9891435  43.9125520  43.5225787  95.7175520
  43.7771195  44.3677323  96.1460368  44.4535332  43.7245065  94.9541454
  37.3654917  41.0401225  96.2903445  37.8779438  41.8344475  96.4409010
  38.0177630  40.3427516  96.2237047  39.1749802  44.1566981  98.3726198
  39.3516430  45.0784946  98.1847182  39.9706636  43.8425401  98.8020578
  43.3160821  31.0175246 109.9710132  44.0570534  31.6182399 109.8914594
  43.5478743  30.2752884 109.4128174  38.4602159  36.2031613 108.2488362
  38.3455674  35.3016871 108.5495460  37.6046676  36.4495310 107.8973178
  45.5393996  44.1449354 109.8475862  45.0957851  43.3585732 109.5296767
  46.2011210  44.3328504 109.1819753  40.2981118  45.6745155 104.3736541
  40.8488543  45.5462219 103.6013535  39.4592593  45.9740044 104.0231434
  47.6375234  44.4252154 107.8757263  47.6193710  45.2461035 107.3837533
  48.5595154  44.3006229 108.1007405  44.0948289  41.9396283 108.7180772
  44.6276625  41.1784571 108.4880080  43.5662370  41.6469935 109.4604926
  47.2617984  27.0456349 104.2474414  46.9182253  27.9357991 104.1713524
  47.6296946  26.8558007 103.3843999  35.3303834  39.3689879  97.0663016
  36.1679056  39.7786888  96.8496723  35.5082102  38.4289322  97.0363210
  47.2268266  37.0364960  92.7546849  46.7114890  37.8069565  92.9935236
  46.9545575  36.3630096  93.3779910  44.8115377  31.8814661  97.8132087
  43.9556974  31.4921511  97.6337726  45.2242329  31.9606622  96.9531873
  46.3414524  29.4161004 102.2123647  45.8379320  29.3791139 101.3991452
  46.6345131  30.3253747 102.2720303  42.5857410  29.4999734 101.2189829
  43.4510407  29.3042543 100.8595718  42.6534919  29.2710086 102.1459185
  52.2002540  39.7897315  94.6900022  51.4231983  39.4508474  94.2455184
  52.8794021  39.7949938  94.0154987  47.0154569  34.9092052  94.5806630
  46.7104705  35.2238201  95.4316773  47.9685012  34.9873472  94.6233963
  45.4601001  41.0682275  96.2299584  44.9322363  40.3335035  95.9172821
  44.9588504  41.8456952  95.9839552  50.4393847  39.2631296 101.3466630
  49.7817522  39.9530557 101.4346759  51.2434247  39.6527728 101.6900617
  40.1919729  31.7301942  98.5906195  40.7663481  31.5077123  97.8579388
  40.7790711  31.7990636  99.3434797  49.2499306  37.6175669  99.3970572
  49.7631188  38.2505661  99.8992282  49.9000530  37.0176864  99.0313932
  40.5189316  33.7606403  92.6102081  39.6826628  34.0981089  92.9311355
  40.3794086  33.6255383  91.6729218  42.4942397  28.6043191  97.3181265
  41.8406809  28.2892208  96.6937880  42.4522871  27.9818931  98.0441088
  43.6053601  38.8862486  89.2334557  42.6980663  38.6551739  89.4325706
  44.1024633  38.0900105  89.4208538  45.7280137  35.0925124 101.6428912
  44.8102698  35.3140071 101.4850600  46.1440281  35.1671435 100.7840620
  46.5115185  36.4916540  96.7731593  47.2587004  37.0037937  96.4638715
  46.7806774  36.1700593  97.6335986  44.7841835  38.9875081  93.7558547
  43.8753054  38.7034113  93.8531017  44.8136919  39.4074159  92.8961854
  50.0161102  42.5981670  97.5249715  49.5623429  41.7572580  97.5814905
  49.3855069  43.2343068  97.8624495  48.9594022  33.5273656  98.7550382
  48.2216779  33.0151042  99.0860625  49.2120795  33.0874038  97.9433659
  48.4594042  44.4358167  98.4599533  48.7517016  44.9963224  97.7411898
  48.9692662  44.7286728  99.2152692  49.0605649  26.3049908  99.3492151
  49.3664526  25.4447272  99.0618066  49.7858254  26.8967528  99.1491145
  35.3530005  36.7080595  97.7373749  35.1554405  36.1149955  97.0124816
  34.7976669  36.4032805  98.4549688  43.3326729  36.6003701  99.8568342
  43.3875339  35.6477538  99.7810819  42.5217931  36.7563140 100.3409641
  44.4817923  40.5283824  91.0946626  44.0437353  39.8119683  90.6352263
  45.2228364  40.7559939  90.5331717  41.2719089  35.2180761  97.6158721
  40.4586954  35.5174932  98.0223913  41.7678083  34.8236450  98.3333203
  43.4227667  45.2138518  99.5492986  43.3803846  45.4399364  98.6201518
  44.3390366  44.9801892  99.6978787  46.8693301  35.6822585 106.4473615
  47.2242688  35.9094059 107.3068081  47.5165432  36.0140962 105.8250870
  52.5991037  38.8041021  97.1522944  52.4608936  38.9942617  96.2244133
  52.2427256  39.5660404  97.6090995  40.7633164  32.7899116 103.2319956
  41.4032543  32.6487876 102.5342919  39.9310694  32.5033630 102.8558558
  52.6260417  40.8717548 102.1634216  53.0596924  40.7792837 103.0117270
  53.3391998  40.8475049 101.5254232  41.5393468  42.0901547  99.3454949
  42.3334066  41.5951867  99.1437524  40.8285160  41.5619410  98.9822654
  46.3588312  44.4719642 103.6967316  46.4125334  45.0410579 104.4645032
  45.4903093  44.6421527 103.3321353  37.8476231  36.2344629  95.4214701
  36.9173819  36.1729084  95.6384663  37.9433703  35.7120581  94.6251343
  37.7661780  32.7599441  98.0092943  38.0268597  33.6744775  97.9002103
  38.5878952  32.2923884  98.1589556  39.2386705  34.1737199 105.1791767
  39.9109759  33.9654561 104.5304416  38.4116492  33.9759285 104.7397000
  53.4875967  40.9141249 104.6967101  53.6811857  41.8187059 104.9426376
  53.3876585  40.4548668 105.5305686  45.1412277  30.7999140 107.1957428
  44.4940192  31.4989089 107.1021905  45.9113293  31.2335283 107.5633677
  48.5491075  41.0647992 110.2707982  48.3976582  40.8358543 109.3538065
  48.5395755  42.0218593 110.2839327  45.3176412  38.6379904 105.2554248
  46.2468472  38.7891064 105.0823215  44.8967442  38.7263925 104.4002895
  44.1164744  42.6630569 103.0252786  43.9775829  42.2949353 103.8978724
  43.3279340  43.1778208 102.8536743  45.6669959  42.0412172 100.4141623
  45.3319791  42.0012942 101.3099273  45.1673904  41.3756888  99.9412034
  39.6414203  37.4479802 105.9394205  39.5034001  36.7160040 106.5405744
  40.5519126  37.3588702 105.6578392  48.6029150  39.3868206  90.6878683
  47.9858321  38.6615034  90.5911736  48.1345639  40.1477566  90.3445757
  42.2696503  37.1599761 105.4277884  42.9796122  36.5192953 105.3864503
  42.2265811  37.4112656 106.3504065  50.2583282  44.0967114 108.3484463
  50.1995828  43.4126334 107.6815047  50.6602800  44.8386104 107.8965089
  40.9825437  34.1464979 107.2473524  40.4462794  33.6955717 107.8995120
  40.3942146  34.2810888 106.5043988  39.2773981  50.9129028 101.1418182
  39.5170579  51.5447552 101.8197201  38.4343177  50.5617068 101.4283542
  40.3927696  33.6053630  89.8099987  39.5157163  33.4842431  89.4462234
  40.8685449  32.8139709  89.5578876  50.2600689  42.0606698 106.5798443
  49.3727468  41.7232620 106.7024842  50.8299240  41.3289729 106.8167209
  31.9129836  38.3930790  99.9041495  32.6000876  38.0792520  99.3162510
  31.7577965  39.2972155  99.6308746  36.7164559  33.2820987 104.3326518
  36.6322747  32.6746656 103.5976928  35.8947265  33.7730005 104.3336015
  43.7901843  46.7208151 103.5459686  43.7172014  47.5263122 104.0578991
  43.3479236  46.9200116 102.7207708  46.8888272  31.7674550  99.6996713
  47.3856972  31.0144512  99.3797784  46.1175254  31.8038867  99.1339923
  54.7418030  37.4714916 101.3415005  54.7307906  38.3539631 100.9708938
  53.8735409  37.1186466 101.1469542  46.2500526  46.6194985 105.7017845
  46.9628498  47.2542449 105.6293746  45.7590555  46.7158851 104.8857847
  47.9718053  40.5246237  97.2735137  47.0374332  40.6447700  97.1039841
  48.1494722  39.6218704  97.0095147  43.4723241  33.9091933  99.4268398
  43.1021029  33.3562973 100.1149303  43.9682334  33.3050067  98.8743398
  51.3590604  36.3663557  97.8085171  51.8251057  37.1991548  97.7345474
  51.8098105  35.9008538  98.5130429  41.3012440  44.3689428 106.5223416
  42.0021899  45.0025911 106.6752810  40.8307555  44.7104160 105.7619055
  49.4266836  42.7107378  94.8071323  49.7026679  42.5963972  95.7165197
  48.5571334  42.3124863  94.7683496  49.3307267  28.7344144 101.8476072
  48.4170347  28.9648370 102.0158279  49.7600369  28.8182588 102.6990105
  49.1013726  36.9234036 104.3475966  48.4485176  37.1709943 103.6928419
  49.4794106  36.1098174 104.0138443  46.0620900  46.9593729  98.4504137
  46.2443294  46.1415385  98.9131889  46.8853886  47.1761421  98.0129026
  46.3963065  45.8861914  95.7119185  46.9250831  45.3754368  95.0989347
  46.6591285  45.5704444  96.5764718  45.1501299  37.6653847 110.8342003
  44.4741936  37.5647976 111.5044379  45.9728933  37.5093060 111.2978001
  36.8980158  43.9025783 103.4554519  37.4833595  43.1569471 103.5882423
  36.7004996  44.2129740 104.3391182  39.7518813  46.9377031  98.4716961
  39.0829188  47.4223158  97.9881001  39.6131683  47.1846251  99.3860339
  31.4897812  36.4731383 102.1758962  31.5281912  35.9394974 102.9696080
  30.9838105  35.9466589 101.5569939  43.8924082  48.9720774 105.0699619
  44.4442390  49.1352396 105.8348705  44.2330275  49.5625212 104.3979644
  38.8688575  31.3195924 105.6721504  38.9329901  32.1810755 105.2598902
  38.8055695  30.7069925 104.9393863  48.7434956  43.7982032 110.9248274
  49.2874860  44.4111990 110.4303229  48.1621801  44.3561610 111.4415287
  35.1206390  35.1995485  95.2512893  35.4159831  34.2906164  95.1979947
  34.2194426  35.1783225  94.9293895  47.0292469  46.9202750 102.0563301
  46.9043608  46.1192489 101.5474247  47.6871560  47.4148943 101.5677271
  38.6500637  33.2751482 101.2340442  37.9287223  33.8887450 101.0947915
  39.4393893  33.8109247 101.1557088  49.0927377  44.7211770 103.6842852
  48.1457713  44.6017121 103.6121178  49.4410150  43.8334268 103.7669113
  41.4526951  30.6105909 107.5081093  41.9761352  30.8568205 108.2707403
  41.2339284  31.4425943 107.0884231  36.8494232  32.8809583  95.3752218
  36.5206938  32.0006962  95.1927324  37.2033602  32.8257252  96.2628607
  46.0973811  44.5164486  99.8847204  45.9498773  43.5881193 100.0654774
  46.9227304  44.5384577  99.4004279  39.9636055  33.1682553  95.7427696
  40.3032127  33.6968474  95.0206304  40.4108175  33.5062959  96.5186262
  49.7007932  45.3393045 100.9712077  50.6254480  45.1335906 100.8336528
  49.5323236  45.0909446 101.8801418  42.6579496  31.5519604 105.1930764
  42.3176316  30.7527417 105.5951444  41.9518502  31.8521315 104.6207597
  43.3095967  28.6368916 103.6458087  44.1322037  28.1629394 103.5236977
  43.5534031  29.4159400 104.1456773  41.9504202  31.6657175  93.9420989
  42.6712564  32.0438427  93.4384706  41.3269506  32.3846051  94.0455967
  46.0935325  32.3702324  94.8779321  46.3098939  33.2526961  94.5768149
  45.6129392  31.9788537  94.1484963  40.8334546  35.3288037 101.4550066
  40.6879127  35.6428340 102.3474347  40.3559750  35.9472937 100.9020964
  42.6930929  32.3190585 101.5030955  42.6792498  31.4231678 101.1663253
  43.4103357  32.3261248 102.1369241  44.5457060  32.7527925 103.5484083
  44.2874838  33.6744996 103.5468413  44.0142100  32.3558359 104.2384547
  49.4903249  45.8578712  96.3274168  49.6640126  45.2925135  95.5748020
  49.9832140  46.6579607  96.1453658  35.3080208  37.8693381 104.3937727
  34.7633676  38.6453189 104.5258001  36.1859558  38.2164186 104.2356848
  42.0967825  31.2004965  96.7718525  42.2183736  30.2721611  96.9709413
  41.8069867  31.2143651  95.8596841  44.9659015  28.8859875  99.9085245
  44.9880712  28.9499209  98.9537225  45.3827074  28.0464384 100.1025751
  55.3442640  38.6215135  97.9464468  55.7873786  37.8722460  97.5483591
  54.4669150  38.6125271  97.5638200  50.4778421  45.1745476  93.4271066
  51.1729326  45.7952169  93.6458381  50.8201571  44.3240828  93.7023444
  36.0946230  36.9963277 107.2867884  35.3527966  37.1445913 107.8732514
  35.7738975  37.2571543 106.4234633  52.3769844  42.6245182  94.9558397
  52.9021168  42.9632455  94.2307717  52.2892197  41.6892197  94.7721532
  44.0389893  46.5379256 107.0848274  44.3477019  46.2928402 107.9570973
  44.8365375  46.7425894 106.5967144  44.0610505  48.6917165  99.3153650
  43.6215495  48.1993544 100.0086507  44.8118622  48.1490133  99.0745725
  36.5402844  44.8828706  99.3178278  37.3660864  44.5832478  98.9376922
  36.1896896  44.1136329  99.7668067  41.5084377  44.2355174 101.3875952
  40.8864386  43.5725879 101.0878180  42.1789244  44.2616306 100.7049600
  34.7411449  42.8015033 100.2767212  33.9043357  42.3737207 100.0951213
  34.7135094  42.9947476 101.2138003  52.0663750  43.2578086 110.2609595
  51.2759294  43.2402224 109.7214094  51.8297105  43.7966379 111.0158632
  52.1861625  40.1070552 107.5742324  52.2359630  39.9420559 108.5157846
  52.0775549  39.2397811 107.1840204  41.0697884  42.7859098  94.8634412
  41.2186004  43.4694562  94.2101085  41.8764327  42.7664188  95.3783868
  49.4765388  36.0901480 108.8901630  50.3775250  35.9507945 108.5985628
  49.5513362  36.2555935 109.8299808  43.8108193  33.4668335 107.7354817
  42.9411502  33.7601901 107.4637405  44.0467673  34.0508780 108.4562080
  53.6879822  42.5267493 107.8184345  53.3964630  42.8897474 108.6547806
  53.0751953  41.8134502 107.6397677  54.8875504  40.0920373 100.3386915
  55.7222396  40.5310177 100.5024476  55.0234633  39.6159026  99.5195161
  51.9367010  37.6500108 106.2864403  52.4121132  37.8427754 105.4783254
  51.0132576  37.7059294 106.0407787  38.8250517  38.8124275  95.8695481
  38.5796559  37.9086605  96.0675691  38.9946432  38.8141426  94.9274959
  46.5147227  29.6847952 105.2520237  47.0329171  30.4208979 104.9266726
  46.1602360  29.9911945 106.0866996  38.0946165  34.5452633  93.3681643
  37.4015409  34.6196988  92.7121679  37.8497916  33.7812977  93.8903160
  46.7659821  26.1048234 100.7721134  47.0461575  25.4371423 101.3981560
  47.5510428  26.2977330 100.2595797  50.6368679  34.5265868 104.5192709
  51.5886102  34.6263966 104.5404933  50.4672130  33.7344137 105.0290793
  48.6583059  31.6121451 104.7052110  48.0632991  31.8926464 104.0098598
  48.3732756  32.1015352 105.4768851  50.4178566  44.8810249  90.4258690
  50.3392197  44.5470112  91.3194448  51.2388233  45.3732017  90.4250162
  53.1156757  37.7471988 103.6335008  53.0833077  36.8087989 103.8194692
  53.7257381  37.8256025 102.9000833  44.9540088  36.6168041  89.6762212
  45.8999193  36.4874249  89.7450630  44.5754333  35.8782703  90.1531641
  53.2651246  34.5383031 103.6793291  52.7490294  33.7541488 103.4923220
  54.1491194  34.2101748 103.8439811  50.9261973  28.2824047  99.6389104
  50.7286794  27.9739135 100.5232436  51.5361678  29.0085686  99.7687034
  58.9333307  38.8087995 102.7741045  59.6636695  38.5473283 103.3348748
  58.3240252  38.0716717 102.8143113  57.0148604  36.9495857 103.3715496
  56.2881768  36.8151822 102.7631988  56.5995891  37.2572686 104.1772214
  44.8378781  40.6685787 111.1362869  45.7581790  40.8464386 111.3302916
  44.8028364  39.7241832 110.9842569  43.1383005  34.5418017  89.6117098
  42.2314461  34.2451130  89.6879811  43.4158986  34.2447835  88.7451384
  34.0560946  35.8624381 100.0616144  33.7363730  35.0089689  99.7690518
  33.5094374  36.0772959 100.8174111  37.8340853  38.5786822 103.7785650
  38.0526863  39.5103929 103.7973684  38.2466627  38.2194796 104.5640454
  44.7545071  29.0854907  95.7661339  43.9445799  28.7401992  96.1416585
  45.4429488  28.7762451  96.3548950  46.6835619  28.1632954  97.3885635
  47.2366658  28.5828407  98.0475659  46.9205706  27.2368702  97.4308592
  41.9081790  31.4004952  89.7529077  42.7700954  31.7259851  90.0124894
  42.0932134  30.6136448  89.2402143  33.9249206  39.4827292 102.0309266
  33.2312677  39.0681245 101.5179220  34.6722197  39.5247829 101.4342684
  50.0614426  30.2733479  96.8964300  49.4813095  30.9318283  96.5142352
  49.7950359  29.4510824  96.4851717  48.5117993  29.6738537  99.0985620
  49.0117771  29.7855071  98.2899939  49.1553601  29.3699589  99.7386429
  42.5699988  37.5817166 111.9853461  42.0867070  38.3817526 112.1917350
  42.6560928  37.5925111 111.0320905  35.8385948  39.4145546  99.9075280
  35.8156636  39.5133233  98.9557164  36.1486585  40.2610697 100.2292447
  38.4973326  41.4721701 104.0221895  39.4516580  41.4405643 103.9551826
  38.2985850  41.0112325 104.8372121  39.0872708  40.0422817 106.5892693
  39.9065597  40.5366896 106.6127530  39.3609516  39.1254785 106.5610260
  48.8439304  32.4333569  95.9520648  47.9565159  32.7183220  95.7340843
  49.2593293  32.2727333  95.1047925  52.1953840  32.4580090  99.6674987
  52.9714231  32.9476543  99.9399604  51.4701975  32.8838145 100.1246857
  54.6326399  33.1707710 100.7248928  55.2270890  32.9303445 100.0142236
  54.7052983  32.4514840 101.3522464  36.8523555  47.0141320 101.0392093
  36.7178023  46.2541721 100.4730091  36.4355617  47.7382220 100.5720882
  47.9882518  42.1978244  90.0468668  48.6918368  42.4028246  90.6626324
  47.2645167  42.7655006  90.3117752  48.8180328  37.9488105  96.1670938
  48.7615529  38.4056657  95.3278571  49.3708670  37.1878790  95.9893781
  52.6285134  33.7377837  96.9921058  52.3722068  33.3374473  97.8229265
  52.0038002  34.4521631  96.8671197  56.9397472  36.4773910  99.4992349
  56.3797030  36.5467100 100.2723911  56.3340975  36.3014895  98.7791845
  40.0092681  47.9110637 101.2510535  39.8925065  48.8556070 101.1489226
  39.1885127  47.6084199 101.6396335  49.8969215  42.6360773  92.0967128
  50.7314819  42.2041972  91.9144603  49.7353558  42.4642787  93.0244023
  49.5515107  39.1392887  93.4623467  49.4963911  38.9737158  92.5211911
  48.9261163  39.8468919  93.6185657  34.3407622  34.3760951 107.2884890
  34.9866486  33.8659905 107.7772115  34.1324773  35.1129633 107.8628315
  46.8661015  41.4441798 112.7877030  47.7352174  41.6182451 112.4263665
  46.3867766  42.2636215 112.6652759  42.8611233  28.6400996  93.0408786
  42.8489903  29.5842835  93.1977057  43.7534655  28.4571141  92.7468247
  41.0347195  48.5638899 104.4666464  41.9374441  48.5962510 104.7832959
  40.8084565  47.6339350 104.4812800  42.7900797  47.3169886 101.1276542
  41.8396428  47.3171748 101.0140915  43.0933283  46.5702620 100.6112577
  46.6763352  25.2343772  97.2954723  45.9095748  24.6802259  97.4411405
  47.0874057  25.3065641  98.1568874  58.5253490  53.1530424 102.1922305
  59.1631900  53.0337172 101.4885645  58.4074333  54.1011268 102.2510257
  55.3343197  53.1057852 102.1283830  54.9961708  52.9898917 101.2404364
  56.2032965  52.7049018 102.1084836  55.8162980  54.2592704 108.0870035
  55.8051620  53.8645502 107.2150539  55.9783619  53.5258777 108.6803806
  56.7729571  58.6264297  93.4295185  56.1217551  59.2118377  93.0429199
  57.5673934  59.1570491  93.4890223  52.5370241  57.0429816 107.0349219
  52.2460107  57.9475447 106.9195885  53.1727225  57.0846344 107.7493289
  53.4626448  54.4206664 103.6250579  54.0590020  54.1962687 102.9107542
  53.5201419  53.6791410 104.2276027  53.0351476  51.8746100  91.4600770
  53.2876997  51.3527621  90.6984233  52.0976035  51.7112245  91.5627453
  58.0794759  50.8781878  99.2675513  58.8657848  50.4601301  98.9165930
  58.3433463  51.7827970  99.4357161  58.2504836  56.3154728  93.9664170
  57.6150669  56.3889355  94.6785074  57.9202243  56.9048327  93.2883249
  63.4803186  50.8157111 100.1708491  64.2128358  50.2456328 100.4046321
  62.7242542  50.4278712 100.6114997  52.7547765  53.7774206  93.6625145
  52.6384023  53.1019109  94.3306229  52.8650025  53.2906580  92.8457298
  55.0979306  53.2384353  97.3671834  54.7337513  52.7114974  98.0784755
  55.9546422  52.8482822  97.1938319  61.0028606  44.5278685 104.6303100
  60.6711931  45.3974096 104.4064315  60.4074220  44.2114969 105.3097130
  54.7384793  48.2674253  92.3633182  54.9059195  49.1354489  92.7303653
  54.5481962  48.4301534  91.4394472  57.4960126  56.7291231 104.0299013
  57.1960849  57.6316270 103.9214820  57.1511185  56.4623415 104.8820166
  50.9472607  53.1805028 100.0635717  50.0223104  53.0481242 100.2713409
  51.1957020  53.9599248 100.5605660  60.8957270  49.2473772 101.7096450
  59.9874147  49.1789180 101.4155211  60.8444865  49.7245717 102.5378276
  54.7174013  50.7231910  93.3479849  54.5973639  51.1688961  94.1865329
  54.0226602  51.0717228  92.7893387  52.4780906  63.4935552  96.9969980
  52.4004935  64.4443377  97.0758461  51.8742549  63.1481424  97.6544907
  54.9698135  50.6663417 109.6531347  54.1931469  51.2257337 109.6434212
  55.6088698  51.1520200 110.1746217  62.7618916  47.4490210 103.4874324
  62.1193296  47.7422743 102.8414119  62.2573844  47.3343130 104.2927521
  60.4159080  51.1953383  94.1760183  61.3276936  51.4280770  94.0007881
  59.9068727  51.7790427  93.6135262  53.2244508  53.4748871 109.2149314
  53.9659192  54.0133915 108.9384138  52.5181493  54.1015159 109.3720866
  58.6999847  55.6178011 107.8121476  59.1083203  55.1760422 107.0676108
  57.9777109  55.0430639 108.0655669  55.0530917  50.5550618 105.1855033
  55.8992113  50.9790031 105.3289682  54.9929555  49.8984242 105.8793596
  59.0228662  56.1779202 101.5673765  58.3937524  56.3424916 100.8649833
  58.6354324  56.5920811 102.3384729  62.9017894  57.1133640  98.9218128
  62.2168932  57.4932541  98.3715162  62.9861743  57.7228966  99.6550076
  58.2030363  48.2154986 106.8436206  57.9591295  48.9697047 106.3070482
  58.4790293  48.5940334 107.6783453  60.1568825  54.7593599 105.5213472
  60.3685721  55.4025358 104.8447853  60.1098574  53.9255915 105.0535402
  57.7595054  47.3711419 102.4250044  56.8979533  47.6692673 102.7166782
  57.7857489  47.5881818 101.4931077  54.5756624  55.9153610  98.8323850
  55.0394969  56.1941313  98.0428472  54.3113422  55.0137054  98.6496940
  51.4680705  55.4625091 101.7703613  52.0382062  55.8912360 101.1321098
  52.0588817  55.1807676 102.4687799  53.5125510  52.0376762  95.6413415
  54.2149553  52.4897806  96.1087341  53.1806138  51.3960581  96.2693308
  51.9605871  50.6288519 110.0164624  51.3304532  51.3104800 110.2500021
  51.8541959  50.5171600 109.0717763  61.2714653  57.6365554 103.6935829
  62.0932097  57.2345741 103.4118511  61.2677056  57.5333788 104.6451945
  55.0371257  57.1849597 105.8496540  55.1015689  57.6470005 106.6854712
  54.3282181  56.5546962 105.9778850  69.3620646  53.9804302 100.0420801
  68.6084355  53.4111701  99.8864805  69.4968188  53.9466967 100.9891435
  54.7519274  58.8517705  95.7175520  54.6164949  59.6969240  96.1460368
  55.2929087  59.0536982  94.9541454  51.2386614  44.9309285 112.3789875
  50.8453560  44.3775483 113.0537520  52.0552754  45.2419863 112.7696393
  54.1554575  46.3467164 109.9710132  54.8964288  46.9474317 109.8914594
  54.3872498  45.6044801 109.4128174  49.2995913  51.5323531 108.2488362
  49.1849428  50.6308788 108.5495460  48.4440431  51.7787228 107.8973178
  56.3787751  59.4741271 109.8475862  55.9351605  58.6877650 109.5296767
  57.0404964  59.6620422 109.1819753  58.4768989  59.7544071 107.8757263
  58.4587464  60.5752952 107.3837533  59.3988909  59.6298146 108.1007405
  54.9342043  57.2688201 108.7180772  55.4670380  56.5076489 108.4880080
  54.4056124  56.9761852 109.4604926  58.1011738  42.3748267 104.2474414
  57.7576007  43.2649908 104.1713524  58.4690701  42.1849924 103.3843999
  58.0662021  52.3656878  92.7546849  57.5508644  53.1361482  92.9935236
  57.7939329  51.6922014  93.3779910  55.6509132  47.2106579  97.8132087
  54.7950728  46.8213429  97.6337726  56.0636084  47.2898539  96.9531873
  57.1808278  44.7452922 102.2123647  56.6773074  44.7083057 101.3991452
  57.4738885  45.6545665 102.2720303  53.4251164  44.8291652 101.2189829
  54.2904161  44.6334460 100.8595718  53.4928673  44.6002003 102.1459185
  63.0396295  55.1189232  94.6900022  62.2625738  54.7800392  94.2455184
  63.7187776  55.1241856  94.0154987  57.8548324  50.2383970  94.5806630
  57.5498459  50.5530119  95.4316773  58.8078766  50.3165390  94.6233963
  56.2994756  56.3974193  96.2299584  55.7716117  55.6626953  95.9172821
  55.7982258  57.1748870  95.9839552  61.2787602  54.5923214 101.3466630
  60.6211276  55.2822475 101.4346759  62.0828001  54.9819646 101.6900617
  51.0313483  47.0593859  98.5906195  51.6057235  46.8369041  97.8579388
  51.6184466  47.1282554  99.3434797  60.0893061  52.9467586  99.3970572
  60.6024942  53.5797578  99.8992282  60.7394284  52.3468782  99.0313932
  51.3583070  49.0898320  92.6102081  50.5220383  49.4273007  92.9311355
  51.2187840  48.9547300  91.6729218  53.3336151  43.9335108  97.3181265
  52.6800563  43.6184126  96.6937880  53.2916625  43.3110849  98.0441088
  54.4447356  54.2154403  89.2334557  53.5374418  53.9843657  89.4325706
  54.9418388  53.4192023  89.4208538  57.3515435  62.9251911  92.1531243
  56.6777134  63.2283607  92.7616201  57.7381257  63.7280991  91.8036700
  56.5673891  50.4217042 101.6428912  55.6496453  50.6431989 101.4850600
  56.9834035  50.4963352 100.7840620  57.3508939  51.8208458  96.7731593
  58.0980758  52.3329855  96.4638715  57.6200529  51.4992510  97.6335986
  55.6235589  54.3166998  93.7558547  54.7146809  54.0326031  93.8531017
  55.6530673  54.7366077  92.8961854  60.8554857  57.9273588  97.5249715
  60.4017184  57.0864498  97.5814905  60.2248824  58.5634986  97.8624495
  59.7987776  48.8565574  98.7550382  59.0610533  48.3442960  99.0860625
  60.0514550  48.4165955  97.9433659  59.2987796  59.7650084  98.4599533
  59.5910770  60.3255142  97.7411898  59.8086417  60.0578645  99.2152692
  59.8999404  41.6341826  99.3492151  60.2058280  40.7739189  99.0618066
  60.6252009  42.2259446  99.1491145  54.1720483  51.9295619  99.8568342
  54.2269093  50.9769455  99.7810819  53.3611685  52.0855058 100.3409641
  55.3211677  55.8575742  91.0946626  54.8831107  55.1411601  90.6352263
  56.0622118  56.0851857  90.5331717  52.1112843  50.5472679  97.6158721
  51.2980709  50.8466849  98.0223913  52.6071838  50.1528367  98.3333203
  54.2621421  60.5430436  99.5492986  54.2197600  60.7691282  98.6201518
  55.1784120  60.3093810  99.6978787  57.7087055  51.0114503 106.4473615
  58.0636443  51.2385976 107.3068081  58.3559186  51.3432880 105.8250870
  63.4384792  54.1332939  97.1522944  63.3002691  54.3234535  96.2244133
  63.0821011  54.8952322  97.6090995  51.6026918  48.1191034 103.2319956
  52.2426297  47.9779793 102.5342919  50.7704449  47.8325548 102.8558558
  63.4654172  56.2009466 102.1634216  63.8990678  56.1084755 103.0117270
  64.1785752  56.1766966 101.5254232  52.3787222  57.4193465  99.3454949
  53.1727821  56.9243785  99.1437524  51.6678914  56.8911328  98.9822654
  57.1982066  59.8011560 103.6967316  57.2519089  60.3702496 104.4645032
  56.3296848  59.9713445 103.3321353  48.6055535  48.0891359  98.0092943
  48.8662352  49.0036692  97.9002103  49.4272707  47.6215802  98.1589556
  50.0780460  49.5029116 105.1791767  50.7503513  49.2946478 104.5304416
  49.2510246  49.3051202 104.7397000  64.3269721  56.2433167 104.6967101
  64.5205611  57.1478977 104.9426376  64.2270339  55.7840586 105.5305686
  55.9806032  46.1291057 107.1957428  55.3333947  46.8281007 107.1021905
  56.7507047  46.5627201 107.5633677  59.3884830  56.3939909 110.2707982
  59.2370336  56.1650461 109.3538065  59.3789509  57.3510511 110.2839327
  56.1570166  53.9671822 105.2554248  57.0862226  54.1182982 105.0823215
  55.7361196  54.0555843 104.4002895  54.9558498  57.9922487 103.0252786
  54.8169584  57.6241271 103.8978724  54.1673094  58.5070126 102.8536743
  55.5506650  63.0931583  94.3678322  55.7258406  62.6219626  95.1823945
  54.8639438  63.7197349  94.5959583  56.5063713  57.3704089 100.4141623
  56.1713546  57.3304859 101.3099273  56.0067659  56.7048805  99.9412034
  50.4807957  52.7771719 105.9394205  50.3427755  52.0451958 106.5405744
  51.3912881  52.6880619 105.6578392  59.4422905  54.7160124  90.6878683
  58.8252075  53.9906952  90.5911736  58.9739393  55.4769484  90.3445757
  53.1090258  52.4891679 105.4277884  53.8189876  51.8484871 105.3864503
  53.0659566  52.7404573 106.3504065  61.0977036  59.4259032 108.3484463
  61.0389583  58.7418252 107.6815047  61.4996555  60.1678022 107.8965089
  51.8219192  49.4756897 107.2473524  51.2856549  49.0247635 107.8995120
  51.2335900  49.6102805 106.5043988  50.1167735  66.2420946 101.1418182
  50.3564333  66.8739470 101.8197201  49.2736932  65.8908986 101.4283542
  51.2321451  48.9345548  89.8099987  50.3550917  48.8134349  89.4462234
  51.7079204  48.1431626  89.5578876  61.0994444  57.3898616 106.5798443
  60.2121222  57.0524538 106.7024842  61.6692995  56.6581647 106.8167209
  47.5558313  48.6112904 104.3326518  47.4716502  48.0038574 103.5976928
  46.7341019  49.1021923 104.3336015  54.6295597  62.0500068 103.5459686
  54.5565769  62.8555040 104.0578991  54.1872990  62.2492034 102.7207708
  54.4185377  61.2871838  97.0562508  53.6352899  61.8293518  97.1500732
  55.1178122  61.8045818  97.4556749  57.7282027  47.0966468  99.6996713
  58.2250726  46.3436430  99.3797784  56.9569008  47.1330784  99.1339923
  65.5811784  52.8006833 101.3415005  65.5701661  53.6831549 100.9708938
  64.7129164  52.4478384 101.1469542  57.0894281  61.9486902 105.7017845
  57.8022253  62.5834367 105.6293746  56.5984309  62.0450768 104.8857847
  58.8111808  55.8538155  97.2735137  57.8768086  55.9739617  97.1039841
  58.9888476  54.9510622  97.0095147  54.3116996  49.2383851  99.4268398
  53.9414783  48.6854891 100.1149303  54.8076088  48.6341984  98.8743398
  62.1984359  51.6955474  97.8085171  62.6644811  52.5283466  97.7345474
  62.6491859  51.2300456  98.5130429  60.2660590  58.0399296  94.8071323
  60.5420434  57.9255890  95.7165197  59.3965089  57.6416780  94.7683496
  60.1701022  44.0636061 101.8476072  59.2564101  44.2940288 102.0158279
  60.5994123  44.1474505 102.6990105  59.9407480  52.2525953 104.3475966
  59.2878930  52.5001861 103.6928419  60.3187860  51.4390091 104.0138443
  56.9014654  62.2885646  98.4504137  57.0837049  61.4707302  98.9131889
  57.7247640  62.5053339  98.0129026  57.2356820  61.2153832  95.7119185
  57.7644586  60.7046286  95.0989347  57.4985039  60.8996362  96.5764718
  55.9895053  52.9945764 110.8342003  55.3135690  52.8939894 111.5044379
  56.8122687  52.8384978 111.2978001  54.7317836  64.3012692 105.0699619
  55.2836144  64.4644313 105.8348705  55.0724030  64.8917130 104.3979644
  49.7082329  46.6487842 105.6721504  49.7723656  47.5102672 105.2598902
  49.6449450  46.0361843 104.9393863  49.1834602  48.7210974 109.3194538
  49.8106641  48.3388051 109.9332063  48.3262521  48.5025176 109.6850231
  59.5828710  59.1273949 110.9248274  60.1268614  59.7403907 110.4303229
  59.0015555  59.6853528 111.4415287  57.8686223  62.2494667 102.0563301
  57.7437363  61.4484407 101.5474247  58.5265314  62.7440861 101.5677271
  49.4894392  48.6043400 101.2340442  48.7680977  49.2179367 101.0947915
  50.2787647  49.1401165 101.1557088  59.9321132  60.0503687 103.6842852
  58.9851467  59.9309039 103.6121178  60.2803905  59.1626185 103.7669113
  52.2920705  45.9397826 107.5081093  52.8155107  46.1860123 108.2707403
  52.0733038  46.7717861 107.0884231  47.6887986  48.2101501  95.3752218
  47.3600692  47.3298880  95.1927324  48.0427357  48.1549170  96.2628607
  56.9367565  59.8456404  99.8847204  56.7892527  58.9173111 100.0654774
  57.7621059  59.8676494  99.4004279  50.8029809  48.4974471  95.7427696
  51.1425882  49.0260392  95.0206304  51.2501930  48.8354877  96.5186262
  60.5401687  60.6684962 100.9712077  61.4648234  60.4627824 100.8336528
  60.3716990  60.4201363 101.8801418  53.4973250  46.8811521 105.1930764
  53.1570070  46.0819334 105.5951444  52.7912256  47.1813232 104.6207597
  54.1489722  43.9660834 103.6458087  54.9715791  43.4921312 103.5236977
  54.3927785  44.7451318 104.1456773  52.7897956  46.9949092  93.9420989
  53.5106319  47.3730345  93.4384706  52.1663261  47.7137969  94.0455967
  56.9329079  47.6994241  94.8779321  57.1492694  48.5818879  94.5768149
  56.4523146  47.3080455  94.1484963  51.6728301  50.6579954 101.4550066
  51.5272881  50.9720257 102.3474347  51.1953504  51.2764855 100.9020964
  53.5324684  47.6482502 101.5030955  53.5186252  46.7523596 101.1663253
  54.2497112  47.6553166 102.1369241  55.3850814  48.0819843 103.5484083
  55.1268592  49.0036913 103.5468413  54.8535855  47.6850277 104.2384547
  60.3297003  61.1870630  96.3274168  60.5033881  60.6217052  95.5748020
  60.8225894  61.9871525  96.1453658  52.9361580  46.5296883  96.7718525
  53.0577491  45.6013529  96.9709413  52.6463622  46.5435569  95.8596841
  55.8052770  44.2151793  99.9085245  55.8274467  44.2791126  98.9537225
  56.2220829  43.3756302 100.1025751  66.1836394  53.9507053  97.9464468
  66.6267540  53.2014378  97.5483591  65.3062905  53.9417189  97.5638200
  61.3172176  60.5037394  93.4271066  62.0123080  61.1244087  93.6458381
  61.6595326  59.6532745  93.7023444  46.9339985  52.3255195 107.2867884
  46.1921721  52.4737830 107.8732514  46.6132729  52.5863461 106.4234633
  63.2163599  57.9537100  94.9558397  63.7414923  58.2924372  94.2307717
  63.1285951  57.0184115  94.7721532  54.8783647  61.8671173 107.0848274
  55.1870774  61.6220320 107.9570973  55.6759129  62.0717812 106.5967144
  54.9004259  64.0209083  99.3153650  54.4609250  63.5285462 100.0086507
  55.6512376  63.4782051  99.0745725  52.4202659  48.0428880 110.9808458
  52.4690815  48.9191003 110.5986228  52.9625173  47.5006273 110.4080101
  62.9057505  58.5870003 110.2609595  62.1153048  58.5694142 109.7214094
  62.6690859  59.1258297 111.0158632  63.0255380  55.4362470 107.5742324
  63.0753385  55.2712477 108.5157846  62.9169303  54.5689729 107.1840204
  51.9091638  58.1151015  94.8634412  52.0579759  58.7986480  94.2101085
  52.7158082  58.0956105  95.3783868  60.3159142  51.4193398 108.8901630
  61.2169005  51.2799863 108.5985628  60.3907117  51.5847853 109.8299808
  54.6501948  48.7960252 107.7354817  53.7805257  49.0893818 107.4637405
  54.8861428  49.3800697 108.4562080  64.5273577  57.8559411 107.8184345
  64.2358385  58.2189392 108.6547806  63.9145708  57.1426419 107.6397677
  65.7269259  55.4212291 100.3386915  66.5616150  55.8602095 100.5024476
  65.8628388  54.9450944  99.5195161  62.7760765  52.9792026 106.2864403
  63.2514886  53.1719672 105.4783254  61.8526330  53.0351212 106.0407787
  57.3540981  45.0139869 105.2520237  57.8722925  45.7500896 104.9266726
  56.9996114  45.3203863 106.0866996  48.9339919  49.8744551  93.3681643
  48.2409164  49.9488906  92.7121679  48.6891671  49.1104894  93.8903160
  57.6053576  41.4340152 100.7721134  57.8855329  40.7663341 101.3981560
  58.3904182  41.6269248 100.2595797  55.4087044  60.6099146  92.3346160
  54.8361011  61.2289333  91.8816632  55.9819838  61.1598507  92.8686082
  61.4762434  49.8557786 104.5192709  62.4279857  49.9555884 104.5404933
  61.3065884  49.0636054 105.0290793  59.4976813  46.9413369 104.7052110
  58.9026745  47.2218382 104.0098598  59.2126510  47.4307270 105.4768851
  58.6284304  60.8936296  93.4654742  59.5614977  60.8281858  93.6687618
  58.5407517  61.7292563  93.0069275  61.2572320  60.2102166  90.4258690
  61.1785952  59.8762030  91.3194448  62.0781987  60.7023934  90.4250162
  63.9550512  53.0763906 103.6335008  63.9226832  52.1379906 103.8194692
  64.5651135  53.1547942 102.9000833  55.7933842  51.9459959  89.6762212
  56.7392947  51.8166167  89.7450630  55.4148087  51.2074620  90.1531641
  64.1045000  49.8674949 103.6793291  63.5884049  49.0833406 103.4923220
  64.9884949  49.5393666 103.8439811  61.7655727  43.6115965  99.6389104
  61.5680548  43.3031053 100.5232436  62.3755433  44.3377603  99.7687034
  69.7727061  54.1379912 102.7741045  70.5030450  53.8765201 103.3348748
  69.1634007  53.4008634 102.8143113  67.8542359  52.2787775 103.3715496
  67.1275522  52.1443740 102.7631988  67.4389645  52.5864604 104.1772214
  55.6772535  55.9977705 111.1362869  56.5975545  56.1756304 111.3302916
  55.6422118  55.0533750 110.9842569  53.9776760  49.8709935  89.6117098
  53.0708215  49.5743048  89.6879811  54.2552741  49.5739753  88.7451384
  55.5938825  44.4146825  95.7661339  54.7839554  44.0693910  96.1416585
  56.2823242  44.1054368  96.3548950  57.5229374  43.4924871  97.3885635
  58.0760412  43.9120325  98.0475659  57.7599460  42.5660620  97.4308592
  53.5462473  49.4811945 113.1688399  53.4459200  50.4306302 113.1000491
  53.3284015  49.1530184 112.2964469  52.7475544  46.7296870  89.7529077
  53.6094708  47.0551768  90.0124894  52.9325888  45.9428366  89.2402143
  60.9008181  45.6025397  96.8964300  60.3206850  46.2610201  96.5142352
  60.6344113  44.7802741  96.4851717  59.3511747  45.0030454  99.0985620
  59.8511525  45.1146989  98.2899939  59.9947355  44.6991507  99.7386429
  53.4093743  52.9109084 111.9853461  52.9260825  53.7109444 112.1917350
  53.4954682  52.9217029 111.0320905  49.3367080  56.8013619 104.0221895
  50.2910334  56.7697561 103.9551826  49.1379604  56.3404242 104.8372121
  49.9266463  55.3714735 106.5892693  50.7459352  55.8658813 106.6127530
  50.2003270  54.4546703 106.5610260  59.6833059  47.7625487  95.9520648
  58.7958914  48.0475138  95.7340843  60.0987048  47.6019250  95.1047925
  63.0347595  47.7872008  99.6674987  63.8107985  48.2768460  99.9399604
  62.3095729  48.2130062 100.1246857  65.4720154  48.4999627 100.7248928
  66.0664644  48.2595363 100.0142236  65.5446737  47.7806758 101.3522464
  58.8276272  57.5270162  90.0468668  59.5312122  57.7320164  90.6626324
  58.1038921  58.0946924  90.3117752  59.6574083  53.2780023  96.1670938
  59.6009284  53.7348574  95.3278571  60.2102425  52.5170708  95.9893781
  63.4678888  49.0669755  96.9921058  63.2115823  48.6666390  97.8229265
  62.8431756  49.7813549  96.8671197  67.7791226  51.8065828  99.4992349
  67.2190784  51.8759017 100.2723911  67.1734730  51.6306813  98.7791845
  60.7362970  57.9652691  92.0967128  61.5708574  57.5333889  91.9144603
  60.5747313  57.7934705  93.0244023  60.3908862  54.4684804  93.4623467
  60.3357666  54.3029076  92.5211911  59.7654917  55.1760837  93.6185657
  45.1801377  49.7052869 107.2884890  45.8260240  49.1951823 107.7772115
  44.9718528  50.4421550 107.8628315  57.7054769  56.7733716 112.7877030
  58.5745929  56.9474368 112.4263665  57.2261520  57.5928133 112.6652759
  53.7004987  43.9692913  93.0408786  53.6883657  44.9134753  93.1977057
  54.5928409  43.7863059  92.7468247  57.5157107  40.5635690  97.2954723
  56.7489503  40.0094177  97.4411405  57.9267812  40.6357559  98.1568874
  49.5198868  46.8520486 111.3859904  50.3830329  46.4957290 111.5963228
  48.9464278  46.5134380 112.0735308  69.3647245  68.4822342 102.1922305
  70.0025655  68.3629089 101.4885645  69.2468088  69.4303186 102.2510257
  66.1736951  68.4349770 102.1283830  65.8355463  68.3190835 101.2404364
  67.0426719  68.0340935 102.1084836  62.0323767  70.2885247  98.1180720
  61.4688632  70.1975183  97.3497008  61.9176162  69.4685151  98.5983213
  66.6556734  69.5884622 108.0870035  66.6445375  69.1937420 107.2150539
  66.8177373  68.8550694 108.6803806  59.5788199  71.7836438 100.9564941
  60.3709491  71.4427263 100.5411240  59.8184849  71.8931413 101.8767094
  67.6123325  73.9556214  93.4295185  66.9611305  74.5410295  93.0429199
  68.4067688  74.4862409  93.4890223  61.5378953  71.0445351  93.8282320
  62.3109829  70.4974338  93.6895196  61.8904351  71.9089601  94.0396781
  63.3763995  72.3721734 107.0349219  63.0853861  73.2767364 106.9195885
  64.0120980  72.4138261 107.7493289  64.3020202  69.7498582 103.6250579
  64.8983774  69.5254605 102.9107542  64.3595174  69.0083328 104.2276027
  63.8745230  67.2038017  91.4600770  64.1270751  66.6819539  90.6984233
  62.9369789  67.0404163  91.5627453  68.9188513  66.2073796  99.2675513
  69.7051602  65.7893219  98.9165930  69.1827218  67.1119888  99.4357161
  69.0898591  71.6446646  93.9664170  68.4544424  71.7181273  94.6785074
  68.7595997  72.2340245  93.2883249  74.3196940  66.1449029 100.1708491
  75.0522112  65.5748246 100.4046321  73.5636296  65.7570629 100.6114997
  63.5941519  69.1066123  93.6625145  63.4777777  68.4311027  94.3306229
  63.7043779  68.6198497  92.8457298  65.9373060  68.5676271  97.3671834
  65.5731267  68.0406892  98.0784755  66.7940176  68.1774740  97.1938319
  71.8422361  59.8570603 104.6303100  71.5105685  60.7266014 104.4064315
  71.2467974  59.5406887 105.3097130  65.5778547  63.5966170  92.3633182
  65.7452949  64.4646407  92.7303653  65.3875716  63.7593452  91.4394472
  68.3353880  72.0583149 104.0299013  68.0354603  72.9608188 103.9214820
  67.9904940  71.7915332 104.8820166  61.7866362  68.5096946 100.0635717
  60.8616858  68.3773160 100.2713409  62.0350775  69.2891165 100.5605660
  71.7351024  64.5765689 101.7096450  70.8267901  64.5081098 101.4155211
  71.6838620  65.0537634 102.5378276  65.5567768  66.0523828  93.3479849
  65.4367393  66.4980878  94.1865329  64.8620356  66.4009145  92.7893387
  59.1475173  68.1530220 100.8979506  59.2767554  68.4064698 101.8118918
  58.4672624  68.7457928 100.5784161  63.3174660  78.8227469  96.9969980
  63.2398690  79.7735295  97.0758461  62.7136304  78.4773342  97.6544907
  65.8091890  65.9955335 109.6531347  65.0325224  66.5549255 109.6434212
  66.4482453  66.4812118 110.1746217  73.6012670  62.7782128 103.4874324
  72.9587051  63.0714661 102.8414119  73.0967599  62.6635048 104.2927521
  71.2552834  66.5245301  94.1760183  72.1670690  66.7572688  94.0007881
  70.7462481  67.1082345  93.6135262  64.0638262  68.8040788 109.2149314
  64.8052946  69.3425832 108.9384138  63.3575248  69.4307077 109.3720866
  69.5393602  70.9469929 107.8121476  69.9476958  70.5052339 107.0676108
  68.8170863  70.3722556 108.0655669  65.8924672  65.8842536 105.1855033
  66.7385867  66.3081949 105.3289682  65.8323309  65.2276160 105.8793596
  69.8622416  71.5071119 101.5673765  69.2331279  71.6716833 100.8649833
  69.4748078  71.9212729 102.3384729  73.7411648  72.4425557  98.9218128
  73.0562686  72.8224459  98.3715162  73.8255498  73.0520884  99.6550076
  69.0424117  63.5446904 106.8436206  68.7985049  64.2988964 106.3070482
  69.3184048  63.9232251 107.6783453  70.9962580  70.0885516 105.5213472
  71.2079475  70.7317276 104.8447853  70.9492328  69.2547833 105.0535402
  68.5988809  62.7003337 102.4250044  67.7373288  62.9984590 102.7166782
  68.6251244  62.9173736 101.4931077  65.4150378  71.2445527  98.8323850
  65.8788724  71.5233230  98.0428472  65.1507176  70.3428972  98.6496940
  62.3074459  70.7917009 101.7703613  62.8775816  71.2204277 101.1321098
  62.8982571  70.5099594 102.4687799  64.3519264  67.3668680  95.6413415
  65.0543308  67.8189723  96.1087341  64.0199893  66.7252499  96.2693308
  62.7999626  65.9580436 110.0164624  62.1698286  66.6396717 110.2500021
  62.6935714  65.8463518 109.0717763  58.0944598  65.6252232 100.9430548
  57.3043652  65.8809761 100.4670659  58.5855846  66.4400570 101.0482589
  72.1108408  72.9657472 103.6935829  72.9325852  72.5637659 103.4118511
  72.1070811  72.8625706 104.6451945  60.0459344  65.9896812  97.9014025
  59.2490507  66.1015506  98.4197521  59.8184936  66.3283464  97.0354916
  65.8765011  72.5141515 105.8496540  65.9409444  72.9761922 106.6854712
  65.1675935  71.8838880 105.9778850  56.3782301  65.8782723 103.3745539
  56.6290340  66.7629733 103.6403115  56.9141850  65.6987324 102.6020631
  80.2014401  69.3096220 100.0420801  79.4478109  68.7403618  99.8864805
  80.3361942  69.2758885 100.9891435  65.5913029  74.1809622  95.7175520
  65.4558704  75.0261158  96.1460368  66.1322841  74.3828900  94.9541454
  62.0780369  60.2601202 112.3789875  61.6847314  59.7067401 113.0537520
  62.8946509  60.5711781 112.7696393  59.0442426  71.6985060  96.2903445
  59.5566947  72.4928311  96.4409010  59.6965139  71.0011351  96.2237047
  60.8537311  74.8150817  98.3726198  61.0303939  75.7368781  98.1847182
  61.6494145  74.5009236  98.8020578  64.9948330  61.6759081 109.9710132
  65.7358043  62.2766235 109.8914594  65.2266252  60.9336719 109.4128174
  60.1389668  66.8615449 108.2488362  60.0243183  65.9600706 108.5495460
  59.2834185  67.1079145 107.8973178  67.2181505  74.8033189 109.8475862
  66.7745360  74.0169568 109.5296767  67.8798719  74.9912339 109.1819753
  61.9768627  76.3328991 104.3736541  62.5276052  76.2046054 103.6013535
  61.1380102  76.6323880 104.0231434  69.3162743  75.0835989 107.8757263
  69.2981219  75.9044870 107.3837533  70.2382663  74.9590064 108.1007405
  65.7735798  72.5980118 108.7180772  66.3064134  71.8368407 108.4880080
  65.2449879  72.3053770 109.4604926  68.9405493  57.7040184 104.2474414
  68.5969762  58.5941826 104.1713524  69.3084455  57.5141842 103.3843999
  57.0091343  70.0273715  97.0663016  57.8466565  70.4370723  96.8496723
  57.1869611  69.0873157  97.0363210  68.9055775  67.6948795  92.7546849
  68.3902399  68.4653400  92.9935236  68.6333084  67.0213932  93.3779910
  66.4902886  62.5398496  97.8132087  65.6344483  62.1505347  97.6337726
  66.9029838  62.6190457  96.9531873  68.0202033  60.0744839 102.2123647
  67.5166828  60.0374975 101.3991452  68.3132640  60.9837582 102.2720303
  64.2644919  60.1583569 101.2189829  65.1297916  59.9626378 100.8595718
  64.3322428  59.9293921 102.1459185  73.8790049  70.4481150  94.6900022
  73.1019492  70.1092310  94.2455184  74.5581530  70.4533773  94.0154987
  68.6942078  65.5675888  94.5806630  68.3892214  65.8822037  95.4316773
  69.6472521  65.6457307  94.6233963  67.1388510  71.7266111  96.2299584
  66.6109872  70.9918870  95.9172821  66.6376013  72.5040787  95.9839552
  72.1181356  69.9215131 101.3466630  71.4605031  70.6114393 101.4346759
  72.9221755  70.3111563 101.6900617  61.8707238  62.3885777  98.5906195
  62.4450990  62.1660959  97.8579388  62.4578220  62.4574472  99.3434797
  70.9286815  68.2759504  99.3970572  71.4418697  68.9089496  99.8992282
  71.5788039  67.6760700  99.0313932  62.1976825  64.4190238  92.6102081
  61.3614137  64.7564925  92.9311355  62.0581595  64.2839218  91.6729218
  64.1729906  59.2627026  97.3181265  63.5194318  58.9476043  96.6937880
  64.1310380  58.6402766  98.0441088  65.2841110  69.5446321  89.2334557
  64.3768172  69.3135575  89.4325706  65.7812142  68.7483940  89.4208538
  68.1909189  78.2543828  92.1531243  67.5170888  78.5575525  92.7616201
  68.5775011  79.0572909  91.8036700  67.4067646  65.7508960 101.6428912
  66.4890207  65.9723907 101.4850600  67.8227790  65.8255270 100.7840620
  68.1902694  67.1500375  96.7731593  68.9374513  67.6621772  96.4638715
  68.4594283  66.8284428  97.6335986  66.4629344  69.6458916  93.7558547
  65.5540563  69.3617949  93.8531017  66.4924428  70.0657995  92.8961854
  71.6948611  73.2565505  97.5249715  71.2410938  72.4156415  97.5814905
  71.0642578  73.8926904  97.8624495  70.6381531  64.1857492  98.7550382
  69.9004288  63.6734878  99.0860625  70.8908304  63.7457873  97.9433659
  70.1381551  75.0942002  98.4599533  70.4304525  75.6547059  97.7411898
  70.6480171  75.3870563  99.2152692  70.7393158  56.9633744  99.3492151
  71.0452035  56.1031107  99.0618066  71.4645763  57.5551364  99.1491145
  57.0317514  67.3664430  97.7373749  56.8341914  66.7733791  97.0124816
  56.4764178  67.0616640  98.4549688  65.0114238  67.2587537  99.8568342
  65.0662848  66.3061373  99.7810819  64.2005440  67.4146976 100.3409641
  66.1605432  71.1867660  91.0946626  65.7224862  70.4703519  90.6352263
  66.9015873  71.4143774  90.5331717  62.9506598  65.8764596  97.6158721
  62.1374463  66.1758767  98.0223913  63.4465592  65.4820285  98.3333203
  65.1015176  75.8722353  99.5492986  65.0591355  76.0983200  98.6201518
  66.0177875  75.6385728  99.6978787  68.5480810  66.3406421 106.4473615
  68.9030197  66.5677894 107.3068081  69.1952941  66.6724798 105.8250870
  74.2778546  69.4624857  97.1522944  74.1396445  69.6526453  96.2244133
  73.9214765  70.2244239  97.6090995  62.4420673  63.4482952 103.2319956
  63.0820052  63.3071711 102.5342919  61.6098203  63.1617465 102.8558558
  74.3047926  71.5301384 102.1634216  74.7384433  71.4376673 103.0117270
  75.0179507  71.5058884 101.5254232  63.2180977  72.7485382  99.3454949
  64.0121575  72.2535702  99.1437524  62.5072669  72.2203245  98.9822654
  68.0375821  75.1303478 103.6967316  68.0912843  75.6994414 104.4645032
  67.1690602  75.3005363 103.3321353  59.5263740  66.8928464  95.4214701
  58.5961328  66.8312919  95.6384663  59.6221212  66.3704417  94.6251343
  59.4449289  63.4183277  98.0092943  59.7056106  64.3328610  97.9002103
  60.2666461  62.9507719  98.1589556  60.9174214  64.8321034 105.1791767
  61.5897268  64.6238396 104.5304416  60.0904001  64.6343120 104.7397000
  75.1663476  71.5725084 104.6967101  75.3599366  72.4770895 104.9426376
  75.0664094  71.1132503 105.5305686  66.8199786  61.4582975 107.1957428
  66.1727701  62.1572925 107.1021905  67.5900802  61.8919119 107.5633677
  70.2278584  71.7231827 110.2707982  70.0764091  71.4942379 109.3538065
  70.2183264  72.6802429 110.2839327  66.9963921  69.2963740 105.2554248
  67.9255981  69.4474899 105.0823215  66.5754951  69.3847761 104.4002895
  65.7952252  73.3214404 103.0252786  65.6563338  72.9533189 103.8978724
  65.0066849  73.8362044 102.8536743  66.3900404  78.4223501  94.3678322
  66.5652160  77.9511544  95.1823945  65.7033192  79.0489267  94.5959583
  67.3457468  72.6996007 100.4141623  67.0107300  72.6596777 101.3099273
  66.8461413  72.0340723  99.9412034  61.3201712  68.1063637 105.9394205
  61.1821510  67.3743876 106.5405744  62.2306635  68.0172537 105.6578392
  70.2816659  70.0452041  90.6878683  69.6645830  69.3198869  90.5911736
  69.8133148  70.8061402  90.3445757  63.9484012  67.8183596 105.4277884
  64.6583631  67.1776788 105.3864503  63.9053320  68.0696491 106.3504065
  71.9370791  74.7550950 108.3484463  71.8783337  74.0710170 107.6815047
  72.3390309  75.4969940 107.8965089  62.6612946  64.8048814 107.2473524
  62.1250303  64.3539553 107.8995120  62.0729655  64.9394723 106.5043988
  60.9561490  81.5712863 101.1418182  61.1958088  82.2031388 101.8197201
  60.1130686  81.2200904 101.4283542  62.0715205  64.2637466  89.8099987
  61.1944672  64.1426266  89.4462234  62.5472958  63.4723544  89.5578876
  71.9388198  72.7190534 106.5798443  71.0514977  72.3816455 106.7024842
  72.5086749  71.9873565 106.8167209  53.5917345  69.0514625  99.9041495
  54.2788385  68.7376355  99.3162510  53.4365474  69.9555990  99.6308746
  58.3952067  63.9404822 104.3326518  58.3110256  63.3330491 103.5976928
  57.5734774  64.4313840 104.3336015  65.4689352  77.3791986 103.5459686
  65.3959523  78.1846957 104.0578991  65.0266745  77.5783952 102.7207708
  65.2579131  76.6163756  97.0562508  64.4746653  77.1585436  97.1500732
  65.9571876  77.1337736  97.4556749  68.5675781  62.4258385  99.6996713
  69.0644481  61.6728348  99.3797784  67.7962763  62.4622702  99.1339923
  76.4205539  68.1298751 101.3415005  76.4095415  69.0123466 100.9708938
  75.5522918  67.7770302 101.1469542  67.9288035  77.2778820 105.7017845
  68.6416007  77.9126285 105.6293746  67.4378064  77.3742686 104.8857847
  69.6505562  71.1830073  97.2735137  68.7161841  71.3031535  97.1039841
  69.8282231  70.2802539  97.0095147  65.1510750  64.5675768  99.4268398
  64.7808538  64.0146809 100.1149303  65.6469843  63.9633902  98.8743398
  73.0378113  67.0247392  97.8085171  73.5038566  67.8575384  97.7345474
  73.4885614  66.5592373  98.5130429  62.9799949  75.0273263 106.5223416
  63.6809408  75.6609746 106.6752810  62.5095064  75.3687995 105.7619055
  71.1054345  73.3691213  94.8071323  71.3814188  73.2547808  95.7165197
  70.2358843  72.9708698  94.7683496  71.0094776  59.3927979 101.8476072
  70.0957856  59.6232206 102.0158279  71.4387878  59.4766423 102.6990105
  70.7801235  67.5817871 104.3475966  70.1272685  67.8293778 103.6928419
  71.1581615  66.7682009 104.0138443  67.7408409  77.6177564  98.4504137
  67.9230803  76.7999220  98.9131889  68.5641395  77.8345256  98.0129026
  68.0750574  76.5445749  95.7119185  68.6038340  76.0338204  95.0989347
  68.3378794  76.2288279  96.5764718  66.8288808  68.3237682 110.8342003
  66.1529445  68.2231811 111.5044379  67.6516442  68.1676896 111.2978001
  58.5767667  74.5609618 103.4554519  59.1621104  73.8153306 103.5882423
  58.3792505  74.8713575 104.3391182  61.4306322  77.5960866  98.4716961
  60.7616697  78.0806993  97.9881001  61.2919192  77.8430086  99.3860339
  53.1685321  67.1315219 102.1758962  53.2069421  66.5978809 102.9696080
  52.6625614  66.6050424 101.5569939  65.5711591  79.6304609 105.0699619
  66.1229899  79.7936231 105.8348705  65.9117784  80.2209047 104.3979644
  60.5476084  61.9779759 105.6721504  60.6117410  62.8394590 105.2598902
  60.4843204  61.3653761 104.9393863  60.0228356  64.0502892 109.3194538
  60.6500395  63.6679969 109.9332063  59.1656275  63.8317094 109.6850231
  70.4222465  74.4565867 110.9248274  70.9662369  75.0695825 110.4303229
  69.8409310  75.0145445 111.4415287  56.7993899  65.8579321  95.2512893
  57.0947340  64.9489999  95.1979947  55.8981935  65.8367060  94.9293895
  68.7079978  77.5786585 102.0563301  68.5831117  76.7776325 101.5474247
  69.3659069  78.0732778 101.5677271  60.3288146  63.9335317 101.2340442
  59.6074732  64.5471285 101.0947915  61.1181402  64.4693082 101.1557088
  70.7714886  75.3795605 103.6842852  69.8245222  75.2600956 103.6121178
  71.1197659  74.4918103 103.7669113  63.1314460  61.2689744 107.5081093
  63.6548861  61.5152040 108.2707403  62.9126793  62.1009779 107.0884231
  58.5281741  63.5393418  95.3752218  58.1994447  62.6590797  95.1927324
  58.8821111  63.4841087  96.2628607  67.7761320  75.1748321  99.8847204
  67.6286282  74.2465029 100.0654774  68.6014813  75.1968412  99.4004279
  61.6423564  63.8266388  95.7427696  61.9819636  64.3552310  95.0206304
  62.0895684  64.1646794  96.5186262  71.3795441  75.9976880 100.9712077
  72.3041989  75.7919741 100.8336528  71.2110745  75.7493281 101.8801418
  64.3367005  62.2103439 105.1930764  63.9963825  61.4111252 105.5951444
  63.6306011  62.5105150 104.6207597  64.9883476  59.2952751 103.6458087
  65.8109546  58.8213230 103.5236977  65.2321540  60.0743235 104.1456773
  63.6291711  62.3241010  93.9420989  64.3500073  62.7022263  93.4384706
  63.0057015  63.0429887  94.0455967  67.7722834  63.0286159  94.8779321
  67.9886448  63.9110797  94.5768149  67.2916901  62.6372372  94.1484963
  62.5122055  65.9871872 101.4550066  62.3666636  66.3012175 102.3474347
  62.0347259  66.6056772 100.9020964  64.3718438  62.9774420 101.5030955
  64.3580007  62.0815513 101.1663253  65.0890866  62.9845084 102.1369241
  66.2244569  63.4111760 103.5484083  65.9662347  64.3328831 103.5468413
  65.6929609  63.0142195 104.2384547  71.1690758  76.5162547  96.3274168
  71.3427635  75.9508970  95.5748020  71.6619649  77.3163442  96.1453658
  56.9867717  68.5277216 104.3937727  56.4421185  69.3037024 104.5258001
  57.8647067  68.8748021 104.2356848  63.7755334  61.8588800  96.7718525
  63.8971245  60.9305447  96.9709413  63.4857376  61.8727486  95.8596841
  66.6446524  59.5443711  99.9085245  66.6668221  59.6083044  98.9537225
  67.0614583  58.7048219 100.1025751  77.0230149  69.2798970  97.9464468
  77.4661295  68.5306296  97.5483591  76.1456659  69.2709107  97.5638200
  72.1565930  75.8329312  93.4271066  72.8516835  76.4536004  93.6458381
  72.4989080  74.9824663  93.7023444  57.7733739  67.6547113 107.2867884
  57.0315475  67.8029748 107.8732514  57.4526484  67.9155378 106.4234633
  74.0557353  73.2829017  94.9558397  74.5808677  73.6216290  94.2307717
  73.9679706  72.3476033  94.7721532  65.7177402  77.1963091 107.0848274
  66.0264528  76.9512238 107.9570973  66.5152884  77.4009729 106.5967144
  65.7398014  79.3501001  99.3153650  65.3003004  78.8577379 100.0086507
  66.4906131  78.8073968  99.0745725  58.2190353  75.5412541  99.3178278
  59.0448373  75.2416313  98.9376922  57.8684405  74.7720164  99.7668067
  63.1871886  74.8939010 101.3875952  62.5651895  74.2309715 101.0878180
  63.8576753  74.9200142 100.7049600  56.4198958  73.4598868 100.2767212
  55.5830866  73.0321042 100.0951213  56.3922603  73.6531311 101.2138003
  63.2596414  63.3720798 110.9808458  63.3084569  64.2482921 110.5986228
  63.8018928  62.8298191 110.4080101  73.7451259  73.9161921 110.2609595
  72.9546803  73.8986060 109.7214094  73.5084614  74.4550215 111.0158632
  73.8649134  70.7654387 107.5742324  73.9147139  70.6004395 108.5157846
  73.7563058  69.8981646 107.1840204  62.7485393  73.4442933  94.8634412
  62.8973513  74.1278397  94.2101085  63.5551836  73.4248023  95.3783868
  71.1552897  66.7485315 108.8901630  72.0562759  66.6091780 108.5985628
  71.2300871  66.9139770 109.8299808  65.4895702  64.1252170 107.7354817
  64.6199011  64.4185736 107.4637405  65.7255182  64.7092615 108.4562080
  75.3667331  73.1851329 107.8184345  75.0752139  73.5481309 108.6547806
  74.7539462  72.4718337 107.6397677  76.5663013  70.7504209 100.3386915
  77.4009905  71.1894013 100.5024476  76.7022142  70.2742862  99.5195161
  73.6154519  68.3083943 106.2864403  74.0908641  68.5011590 105.4783254
  72.6920085  68.3643129 106.0407787  60.5038026  69.4708111  95.8695481
  60.2584068  68.5670441  96.0675691  60.6733940  69.4725261  94.9274959
  68.1934736  60.3431787 105.2520237  68.7116680  61.0792814 104.9266726
  67.8389869  60.6495780 106.0866996  59.7733673  65.2036468  93.3681643
  59.0802918  65.2780823  92.7121679  59.5285425  64.4396812  93.8903160
  68.4447330  56.7632070 100.7721134  68.7249084  56.0955259 101.3981560
  69.2297937  56.9561165 100.2595797  66.2480798  75.9391063  92.3346160
  65.6754766  76.5581251  91.8816632  66.8213592  76.4890425  92.8686082
  72.3156188  65.1849704 104.5192709  73.2673611  65.2847801 104.5404933
  72.1459639  64.3927972 105.0290793  70.3370568  62.2705287 104.7052110
  69.7420500  62.5510300 104.0098598  70.0520265  62.7599188 105.4768851
  69.4678058  76.2228214  93.4654742  70.4008731  76.1573775  93.6687618
  69.3801271  77.0584480  93.0069275  72.0966075  75.5394084  90.4258690
  72.0179706  75.2053948  91.3194448  72.9175742  76.0315852  90.4250162
  74.7944266  68.4055823 103.6335008  74.7620586  67.4671824 103.8194692
  75.4044890  68.4839860 102.9000833  66.6327597  67.2751876  89.6762212
  67.5786702  67.1458084  89.7450630  66.2541842  66.5366538  90.1531641
  74.9438755  65.1966867 103.6793291  74.4277803  64.4125323 103.4923220
  75.8278703  64.8685583 103.8439811  72.6049482  58.9407882  99.6389104
  72.4074303  58.6322970 100.5232436  73.2149187  59.6669521  99.7687034
  80.6120816  69.4671830 102.7741045  81.3424204  69.2057118 103.3348748
  80.0027761  68.7300552 102.8143113  78.6936113  67.6079693 103.3715496
  77.9669277  67.4735658 102.7631988  78.2783400  67.9156521 104.1772214
  66.5166290  71.3269622 111.1362869  67.4369299  71.5048221 111.3302916
  66.4815873  70.3825668 110.9842569  64.8170514  65.2001853  89.6117098
  63.9101970  64.9034965  89.6879811  65.0946495  64.9031671  88.7451384
  55.7348455  66.5208216 100.0616144  55.4151239  65.6673524  99.7690518
  55.1881883  66.7356794 100.8174111  59.5128362  69.2370657 103.7785650
  59.7314372  70.1687765 103.7973684  59.9254136  68.8778631 104.5640454
  66.4332580  59.7438742  95.7661339  65.6233308  59.3985827  96.1416585
  67.1216997  59.4346286  96.3548950  68.3623128  58.8216789  97.3885635
  68.9154167  59.2412243  98.0475659  68.5993215  57.8952537  97.4308592
  64.3856227  64.8103863 113.1688399  64.2852954  65.7598220 113.1000491
  64.1677769  64.4822102 112.2964469  63.5869299  62.0588788  89.7529077
  64.4488463  62.3843686  90.0124894  63.7719643  61.2720284  89.2402143
  55.6036715  70.1411128 102.0309266  54.9100186  69.7265080 101.5179220
  56.3509706  70.1831664 101.4342684  71.7401935  60.9317314  96.8964300
  71.1600604  61.5902118  96.5142352  71.4737868  60.1094659  96.4851717
  70.1905502  60.3322372  99.0985620  70.6905280  60.4438907  98.2899939
  70.8341110  60.0283425  99.7386429  64.2487497  68.2401002 111.9853461
  63.7654579  69.0401362 112.1917350  64.3348436  68.2508946 111.0320905
  57.5173457  70.0729381  99.9075280  57.4944145  70.1717069  98.9557164
  57.8274094  70.9194532 100.2292447  60.1760835  72.1305536 104.0221895
  61.1304088  72.0989479 103.9551826  59.9773359  71.6696160 104.8372121
  60.7660217  70.7006652 106.5892693  61.5853106  71.1950731 106.6127530
  61.0397025  69.7838621 106.5610260  70.5226813  63.0917405  95.9520648
  69.6352668  63.3767055  95.7340843  70.9380802  62.9311168  95.1047925
  73.8741349  63.1163926  99.6674987  74.6501740  63.6060378  99.9399604
  73.1489484  63.5421980 100.1246857  76.3113908  63.8291545 100.7248928
  76.9058399  63.5887281 100.0142236  76.3840492  63.1098675 101.3522464
  58.5311064  77.6725156 101.0392093  58.3965532  76.9125557 100.4730091
  58.1143126  78.3966056 100.5720882  69.6670027  72.8562079  90.0468668
  70.3705877  73.0612082  90.6626324  68.9432676  73.4238841  90.3117752
  70.4967837  68.6071941  96.1670938  70.4403038  69.0640492  95.3278571
  71.0496179  67.8462625  95.9893781  74.3072643  64.3961672  96.9921058
  74.0509577  63.9958308  97.8229265  73.6825511  65.1105466  96.8671197
  78.6184981  67.1357746  99.4992349  78.0584539  67.2050935 100.2723911
  78.0128484  66.9598730  98.7791845  61.6880190  78.5694473 101.2510535
  61.5712574  79.5139905 101.1489226  60.8672636  78.2668034 101.6396335
  71.5756724  73.2944609  92.0967128  72.4102328  72.8625807  91.9144603
  71.4141067  73.1226622  93.0244023  71.2302616  69.7976722  93.4623467
  71.1751420  69.6320993  92.5211911  70.6048672  70.5052755  93.6185657
  56.0195131  65.0344786 107.2884890  56.6653995  64.5243740 107.7772115
  55.8112282  65.7713468 107.8628315  68.5448524  72.1025634 112.7877030
  69.4139683  72.2766286 112.4263665  68.0655275  72.9220051 112.6652759
  64.5398742  59.2984831  93.0408786  64.5277412  60.2426671  93.1977057
  65.4322164  59.1154976  92.7468247  62.7134704  79.2222735 104.4666464
  63.6161950  79.2546345 104.7832959  62.4872074  78.2923186 104.4812800
  64.4688306  77.9753721 101.1276542  63.5183937  77.9755583 101.0140915
  64.7720792  77.2286456 100.6112577  68.3550861  55.8927608  97.2954723
  67.5883257  55.3386094  97.4411405  68.7661566  55.9649476  98.1568874
  60.3592622  62.1812403 111.3859904  61.2224084  61.8249208 111.5963228
  59.7858033  61.8426298 112.0735308  80.2040999  83.8114260 102.1922305
  80.8419409  83.6921007 101.4885645  80.0861842  84.7595104 102.2510257
  77.0130706  83.7641688 102.1283830  76.6749217  83.6482752 101.2404364
  77.8820474  83.3632853 102.1084836  72.8717521  85.6177164  98.1180720
  72.3082386  85.5267101  97.3497008  72.7569916  84.7977069  98.5983213
  77.4950489  84.9176539 108.0870035  77.4839129  84.5229338 107.2150539
  77.6571128  84.1842612 108.6803806  70.4181953  87.1128356 100.9564941
  71.2103245  86.7719180 100.5411240  70.6578603  87.2223331 101.8767094
  78.4517080  89.2848132  93.4295185  77.8005060  89.8702212  93.0429199
  79.2461443  89.8154327  93.4890223  72.3772707  86.3737269  93.8282320
  73.1503583  85.8266256  93.6895196  72.7298106  87.2381518  94.0396781
  74.2157750  87.7013651 107.0349219  73.9247616  88.6059282 106.9195885
  74.8514734  87.7430179 107.7493289  75.1413957  85.0790500 103.6250579
  75.7377529  84.8546522 102.9107542  75.1988928  84.3375245 104.2276027
  74.7138985  82.5329935  91.4600770  74.9664506  82.0111456  90.6984233
  73.7763544  82.3696081  91.5627453  79.7582268  81.5365714  99.2675513
  80.5445357  81.1185137  98.9165930  80.0220972  82.4411806  99.4357161
  79.9292345  86.9738564  93.9664170  79.2938178  87.0473190  94.6785074
  79.5989751  87.5632163  93.2883249  85.1590695  81.4740947 100.1708491
  85.8915867  80.9040164 100.4046321  84.4030051  81.0862547 100.6114997
  74.4335274  84.4358041  93.6625145  74.3171532  83.7602944  94.3306229
  74.5437534  83.9490415  92.8457298  76.7766815  83.8968188  97.3671834
  76.4125022  83.3698809  98.0784755  77.6333930  83.5066657  97.1938319
  82.6816115  75.1862521 104.6303100  82.3499440  76.0557932 104.4064315
  82.0861729  74.8698805 105.3097130  76.4172302  78.9258088  92.3633182
  76.5846704  79.7938324  92.7303653  76.2269471  79.0885370  91.4394472
  79.1747635  87.3875067 104.0299013  78.8748358  88.2900106 103.9214820
  78.8298694  87.1207250 104.8820166  72.6260116  83.8388864 100.0635717
  71.7010613  83.7065078 100.2713409  72.8744529  84.6183083 100.5605660
  82.5744779  79.9057607 101.7096450  81.6661656  79.8373015 101.4155211
  82.5232374  80.3829552 102.5378276  76.3961522  81.3815745  93.3479849
  76.2761148  81.8272796  94.1865329  75.7014111  81.7301063  92.7893387
  69.9868927  83.4822137 100.8979506  70.1161308  83.7356616 101.8118918
  69.3066379  84.0749845 100.5784161  74.1568415  94.1519387  96.9969980
  74.0792444  95.1027212  97.0758461  73.5530058  93.8065260  97.6544907
  76.6485644  81.3247253 109.6531347  75.8718978  81.8841173 109.6434212
  77.2876207  81.8104036 110.1746217  84.4406425  78.1074045 103.4874324
  83.7980805  78.4006579 102.8414119  83.9361353  77.9926966 104.2927521
  82.0946589  81.8537219  94.1760183  83.0064445  82.0864605  94.0007881
  81.5856236  82.4374263  93.6135262  74.9032017  84.1332706 109.2149314
  75.6446701  84.6717750 108.9384138  74.1969002  84.7598995 109.3720866
  80.3787356  86.2761846 107.8121476  80.7870712  85.8344257 107.0676108
  79.6564618  85.7014474 108.0655669  76.7318426  81.2134453 105.1855033
  77.5779621  81.6373867 105.3289682  76.6717064  80.5568077 105.8793596
  80.7016171  86.8363037 101.5673765  80.0725033  87.0008751 100.8649833
  80.3141833  87.2504647 102.3384729  84.5805403  87.7717475  98.9218128
  83.8956441  88.1516376  98.3715162  84.6649252  88.3812802  99.6550076
  79.8817872  78.8738822 106.8436206  79.6378804  79.6280882 106.3070482
  80.1577802  79.2524169 107.6783453  81.8356334  85.4177434 105.5213472
  82.0473230  86.0609194 104.8447853  81.7886083  84.5839750 105.0535402
  79.4382563  78.0295255 102.4250044  78.5767042  78.3276508 102.7166782
  79.4644998  78.2465653 101.4931077  76.2544133  86.5737445  98.8323850
  76.7182478  86.8525148  98.0428472  75.9900931  85.6720890  98.6496940
  73.1468214  86.1208927 101.7703613  73.7169571  86.5496195 101.1321098
  73.7376326  85.8391511 102.4687799  75.1913019  82.6960597  95.6413415
  75.8937062  83.1481641  96.1087341  74.8593647  82.0544416  96.2693308
  73.6393380  81.2872354 110.0164624  73.0092041  81.9688635 110.2500021
  73.5329468  81.1755436 109.0717763  68.9338353  80.9544150 100.9430548
  68.1437407  81.2101679 100.4670659  69.4249600  81.7692488 101.0482589
  82.9502162  88.2949389 103.6935829  83.7719606  87.8929577 103.4118511
  82.9464565  88.1917623 104.6451945  70.8853098  81.3188729  97.9014025
  70.0884261  81.4307424  98.4197521  70.6578690  81.6575382  97.0354916
  76.7158766  87.8433433 105.8496540  76.7803198  88.3053840 106.6854712
  76.0069690  87.2130798 105.9778850  67.2176056  81.2074641 103.3745539
  67.4684094  82.0921651 103.6403115  67.7535604  81.0279242 102.6020631
  91.0408155  84.6388138 100.0420801  90.2871864  84.0695536  99.8864805
  91.1755697  84.6050802 100.9891435  76.4306783  89.5101540  95.7175520
  76.2952458  90.3553076  96.1460368  76.9716596  89.7120818  94.9541454
  72.9174123  75.5893120 112.3789875  72.5241069  75.0359319 113.0537520
  73.7340263  75.9003698 112.7696393  69.8836181  87.0276978  96.2903445
  70.3960701  87.8220228  96.4409010  70.5358894  86.3303269  96.2237047
  71.6931066  90.1442734  98.3726198  71.8697694  91.0660699  98.1847182
  72.4887899  89.8301154  98.8020578  75.8342084  77.0050999 109.9710132
  76.5751797  77.6058152 109.8914594  76.0660007  76.2628637 109.4128174
  70.9783422  82.1907366 108.2488362  70.8636937  81.2892624 108.5495460
  70.1227940  82.4371063 107.8973178  78.0575260  90.1325107 109.8475862
  77.6139114  89.3461485 109.5296767  78.7192473  90.3204257 109.1819753
  72.8162381  91.6620908 104.3736541  73.3669806  91.5337972 103.6013535
  71.9773857  91.9615797 104.0231434  80.1556498  90.4127907 107.8757263
  80.1374973  91.2336788 107.3837533  81.0776418  90.2881982 108.1007405
  76.6129552  87.9272036 108.7180772  77.1457889  87.1660324 108.4880080
  76.0843633  87.6345688 109.4604926  79.7799247  73.0332102 104.2474414
  79.4363516  73.9233744 104.1713524  80.1478210  72.8433760 103.3843999
  67.8485098  85.3565632  97.0663016  68.6860320  85.7662641  96.8496723
  68.0263365  84.4165075  97.0363210  79.7449530  83.0240713  92.7546849
  79.2296153  83.7945318  92.9935236  79.4726838  82.3505849  93.3779910
  77.3296641  77.8690414  97.8132087  76.4738237  77.4797264  97.6337726
  77.7423593  77.9482375  96.9531873  78.8595787  75.4036757 102.2123647
  78.3560583  75.3666892 101.3991452  79.1526394  76.3129500 102.2720303
  75.1038673  75.4875487 101.2189829  75.9691670  75.2918296 100.8595718
  75.1716182  75.2585839 102.1459185  84.7183804  85.7773068  94.6900022
  83.9413247  85.4384227  94.2455184  85.3975285  85.7825691  94.0154987
  79.5335833  80.8967805  94.5806630  79.2285968  81.2113954  95.4316773
  80.4866275  80.9749225  94.6233963  77.9782265  87.0558029  96.2299584
  77.4503626  86.3210788  95.9172821  77.4769767  87.8332705  95.9839552
  82.9575111  85.2507049 101.3466630  82.2998785  85.9406310 101.4346759
  83.7615510  85.6403481 101.6900617  72.7100992  77.7177695  98.5906195
  73.2844744  77.4952876  97.8579388  73.2971975  77.7866389  99.3434797
  81.7680570  83.6051422  99.3970572  82.2812451  84.2381414  99.8992282
  82.4181793  83.0052617  99.0313932  73.0370579  79.7482156  92.6102081
  72.2007892  80.0856842  92.9311355  72.8975349  79.6131136  91.6729218
  75.0123660  74.5918944  97.3181265  74.3588072  74.2767961  96.6937880
  74.9704134  73.9694684  98.0441088  76.1234865  84.8738239  89.2334557
  75.2161927  84.6427492  89.4325706  76.6205897  84.0775858  89.4208538
  79.0302944  93.5835746  92.1531243  78.3564643  93.8867443  92.7616201
  79.4168766  94.3864826  91.8036700  78.2461400  81.0800877 101.6428912
  77.3283962  81.3015824 101.4850600  78.6621544  81.1547188 100.7840620
  79.0296448  82.4792293  96.7731593  79.7768267  82.9913690  96.4638715
  79.2988038  82.1576346  97.6335986  77.3023098  84.9750834  93.7558547
  76.3934318  84.6909866  93.8531017  77.3318182  85.3949912  92.8961854
  82.5342366  88.5857423  97.5249715  82.0804693  87.7448333  97.5814905
  81.9036332  89.2218822  97.8624495  81.4775285  79.5149409  98.7550382
  80.7398042  79.0026795  99.0860625  81.7302059  79.0749791  97.9433659
  80.9775305  90.4233920  98.4599533  81.2698279  90.9838977  97.7411898
  81.4873926  90.7162481  99.2152692  81.5786913  72.2925661  99.3492151
  81.8845789  71.4323025  99.0618066  82.3039517  72.8843281  99.1491145
  67.8711269  82.6956348  97.7373749  67.6735669  82.1025708  97.0124816
  67.3157933  82.3908558  98.4549688  75.8507992  82.5879454  99.8568342
  75.9056602  81.6353291  99.7810819  75.0399194  82.7438893 100.3409641
  76.9999186  86.5159577  91.0946626  76.5618616  85.7995436  90.6352263
  77.7409627  86.7435692  90.5331717  73.7900352  81.2056514  97.6158721
  72.9768218  81.5050685  98.0223913  74.2859347  80.8112203  98.3333203
  75.9408930  91.2014271  99.5492986  75.8985109  91.4275117  98.6201518
  76.8571629  90.9677646  99.6978787  79.3874564  81.6698338 106.4473615
  79.7423952  81.8969812 107.3068081  80.0346695  82.0016715 105.8250870
  85.1172301  84.7916774  97.1522944  84.9790200  84.9818370  96.2244133
  84.7608520  85.5536157  97.6090995  73.2814427  78.7774870 103.2319956
  73.9213806  78.6363629 102.5342919  72.4491958  78.4909383 102.8558558
  85.1441681  86.8593301 102.1634216  85.5778187  86.7668590 103.0117270
  85.8573261  86.8350802 101.5254232  74.0574731  88.0777300  99.3454949
  74.8515329  87.5827620  99.1437524  73.3466423  87.5495163  98.9822654
  78.8769575  90.4595395 103.6967316  78.9306598  91.0286332 104.4645032
  78.0084357  90.6297281 103.3321353  70.3657494  82.2220382  95.4214701
  69.4355083  82.1604837  95.6384663  70.4614966  81.6996334  94.6251343
  70.2843044  78.7475195  98.0092943  70.5449861  79.6620528  97.9002103
  71.1060216  78.2799637  98.1589556  71.7567969  80.1612952 105.1791767
  72.4291022  79.9530314 104.5304416  70.9297755  79.9635038 104.7397000
  86.0057230  86.9017002 104.6967101  86.1993120  87.8062813 104.9426376
  85.9057848  86.4424421 105.5305686  77.6593541  76.7874893 107.1957428
  77.0121456  77.4864842 107.1021905  78.4294556  77.2211037 107.5633677
  81.0672339  87.0523745 110.2707982  80.9157845  86.8234296 109.3538065
  81.0577018  88.0094346 110.2839327  77.8357675  84.6255658 105.2554248
  78.7649735  84.7766817 105.0823215  77.4148705  84.7139678 104.4002895
  76.6346007  88.6506322 103.0252786  76.4957093  88.2825106 103.8978724
  75.8460603  89.1653961 102.8536743  77.2294159  93.7515418  94.3678322
  77.4045915  93.2803462  95.1823945  76.5426947  94.3781185  94.5959583
  78.1851222  88.0287925 100.4141623  77.8501055  87.9888695 101.3099273
  77.6855168  87.3632641  99.9412034  72.1595466  83.4355555 105.9394205
  72.0215264  82.7035793 106.5405744  73.0700390  83.3464455 105.6578392
  81.1210414  85.3743959  90.6878683  80.5039584  84.6490787  90.5911736
  80.6526902  86.1353319  90.3445757  74.7877767  83.1475514 105.4277884
  75.4977385  82.5068706 105.3864503  74.7447075  83.3988409 106.3504065
  82.7764545  90.0842867 108.3484463  82.7177092  89.4002087 107.6815047
  83.1784064  90.8261857 107.8965089  73.5006701  80.1340732 107.2473524
  72.9644058  79.6831470 107.8995120  72.9123409  80.2686641 106.5043988
  71.7955244  96.9004781 101.1418182  72.0351842  97.5323305 101.8197201
  70.9524441  96.5492821 101.4283542  72.9108960  79.5929383  89.8099987
  72.0338426  79.4718184  89.4462234  73.3866713  78.8015462  89.5578876
  82.7781953  88.0482451 106.5798443  81.8908731  87.7108373 106.7024842
  83.3480504  87.3165482 106.8167209  64.4311100  84.3806543  99.9041495
  65.1182140  84.0668273  99.3162510  64.2759229  85.2847908  99.6308746
  69.2345822  79.2696740 104.3326518  69.1504011  78.6622409 103.5976928
  68.4128528  79.7605758 104.3336015  76.3083106  92.7083904 103.5459686
  76.2353278  93.5138875 104.0578991  75.8660499  92.9075869 102.7207708
  76.0972886  91.9455674  97.0562508  75.3140408  92.4877354  97.1500732
  76.7965631  92.4629653  97.4556749  79.4069536  77.7550303  99.6996713
  79.9038235  77.0020265  99.3797784  78.6356517  77.7914620  99.1339923
  87.2599293  83.4590669 101.3415005  87.2489169  84.3415384 100.9708938
  86.3916673  83.1062219 101.1469542  78.7681790  92.6070738 105.7017845
  79.4809762  93.2418202 105.6293746  78.2771818  92.7034604 104.8857847
  80.4899317  86.5121990  97.2735137  79.5555595  86.6323453  97.1039841
  80.6675985  85.6094457  97.0095147  75.9904505  79.8967686  99.4268398
  75.6202292  79.3438726 100.1149303  76.4863597  79.2925820  98.8743398
  83.8771868  82.3539310  97.8085171  84.3432320  83.1867301  97.7345474
  84.3279368  81.8884291  98.5130429  73.8193703  90.3565181 106.5223416
  74.5203163  90.9901664 106.6752810  73.3488818  90.6979913 105.7619055
  81.9448099  88.6983131  94.8071323  82.2207943  88.5839725  95.7165197
  81.0752598  88.3000616  94.7683496  81.8488531  74.7219897 101.8476072
  80.9351610  74.9524123 102.0158279  82.2781632  74.8058341 102.6990105
  81.6194989  82.9109789 104.3475966  80.9666439  83.1585696 103.6928419
  81.9975369  82.0973927 104.0138443  78.5802163  92.9469482  98.4504137
  78.7624558  92.1291138  98.9131889  79.4035149  93.1637174  98.0129026
  78.9144329  91.8737667  95.7119185  79.4432095  91.3630121  95.0989347
  79.1772548  91.5580197  96.5764718  77.6682562  83.6529600 110.8342003
  76.9923199  83.5523729 111.5044379  78.4910196  83.4968813 111.2978001
  69.4161421  89.8901536 103.4554519  70.0014858  89.1445224 103.5882423
  69.2186260  90.2005493 104.3391182  72.2700076  92.9252784  98.4716961
  71.6010452  93.4098911  97.9881001  72.1312946  93.1722004  99.3860339
  64.0079076  82.4607136 102.1758962  64.0463175  81.9270727 102.9696080
  63.5019369  81.9342342 101.5569939  76.4105345  94.9596527 105.0699619
  76.9623653  95.1228149 105.8348705  76.7511538  95.5500965 104.3979644
  71.3869838  77.3071677 105.6721504  71.4511165  78.1686508 105.2598902
  71.3236959  76.6945679 104.9393863  70.8622111  79.3794809 109.3194538
  71.4894150  78.9971887 109.9332063  70.0050030  79.1609011 109.6850231
  67.6387654  81.1871239  95.2512893  67.9341095  80.2781917  95.1979947
  66.7375689  81.1658978  94.9293895  79.5473732  92.9078503 102.0563301
  79.4224872  92.1068242 101.5474247  80.2052823  93.4024696 101.5677271
  71.1681901  79.2627235 101.2340442  70.4468486  79.8763203 101.0947915
  71.9575156  79.7985000 101.1557088  81.6108641  90.7087523 103.6842852
  80.6638976  90.5892874 103.6121178  81.9591414  89.8210021 103.7669113
  73.9708214  76.5981662 107.5081093  74.4942616  76.8443958 108.2707403
  73.7520547  77.4301696 107.0884231  69.3675495  78.8685336  95.3752218
  69.0388201  77.9882715  95.1927324  69.7214866  78.8133005  96.2628607
  78.6155074  90.5040239  99.8847204  78.4680036  89.5756946 100.0654774
  79.4408567  90.5260330  99.4004279  72.4817318  79.1558306  95.7427696
  72.8213391  79.6844227  95.0206304  72.9289439  79.4938712  96.5186262
  82.2189196  91.3268798 100.9712077  83.1435743  91.1211659 100.8336528
  82.0504499  91.0785199 101.8801418  75.1760759  77.5395357 105.1930764
  74.8357579  76.7403170 105.5951444  74.4699765  77.8397068 104.6207597
  75.8277231  74.6244669 103.6458087  76.6503300  74.1505147 103.5236977
  76.0715294  75.4035153 104.1456773  74.4685465  77.6532928  93.9420989
  75.1893828  78.0314180  93.4384706  73.8450770  78.3721804  94.0455967
  78.6116588  78.3578077  94.8779321  78.8280203  79.2402714  94.5768149
  78.1310655  77.9664290  94.1484963  73.3515810  81.3163790 101.4550066
  73.2060390  81.6304093 102.3474347  72.8741013  81.9348690 100.9020964
  75.2112193  78.3066338 101.5030955  75.1973761  77.4107431 101.1663253
  75.9284621  78.3137001 102.1369241  77.0638323  78.7403678 103.5484083
  76.8056101  79.6620749 103.5468413  76.5323364  78.3434112 104.2384547
  82.0084512  91.8454465  96.3274168  82.1821390  91.2800888  95.5748020
  82.5013403  92.6455360  96.1453658  67.8261472  83.8569134 104.3937727
  67.2814940  84.6328942 104.5258001  68.7040822  84.2039939 104.2356848
  74.6149089  77.1880718  96.7718525  74.7365000  76.2597364  96.9709413
  74.3251131  77.2019404  95.8596841  77.4840279  74.8735628  99.9085245
  77.5061976  74.9374962  98.9537225  77.9008338  74.0340137 100.1025751
  87.8623903  84.6090888  97.9464468  88.3055049  83.8598213  97.5483591
  86.9850414  84.6001024  97.5638200  82.9959685  91.1621229  93.4271066
  83.6910589  91.7827922  93.6458381  83.3382835  90.3116581  93.7023444
  68.6127494  82.9839030 107.2867884  67.8709230  83.1321666 107.8732514
  68.2920238  83.2447296 106.4234633  84.8951108  88.6120935  94.9558397
  85.4202432  88.9508208  94.2307717  84.8073460  87.6767950  94.7721532
  76.5571156  92.5255009 107.0848274  76.8658283  92.2804155 107.9570973
  77.3546638  92.7301647 106.5967144  76.5791768  94.6792918  99.3153650
  76.1396759  94.1869297 100.0086507  77.3299885  94.1365886  99.0745725
  69.0584107  90.8704459  99.3178278  69.8842127  90.5708231  98.9376922
  68.7078159  90.1012082  99.7668067  74.0265641  90.2230927 101.3875952
  73.4045650  89.5601632 101.0878180  74.6970507  90.2492059 100.7049600
  67.2592712  88.7890786 100.2767212  66.4224621  88.3612960 100.0951213
  67.2316358  88.9823229 101.2138003  74.0990168  78.7012715 110.9808458
  74.1478324  79.5774838 110.5986228  74.6412682  78.1590108 110.4080101
  84.7042889  86.0946305 107.5742324  84.7540894  85.9296312 108.5157846
  84.5956812  85.2273564 107.1840204  73.5879147  88.7734851  94.8634412
  73.7367268  89.4570315  94.2101085  74.3945591  88.7539941  95.3783868
  81.9946651  82.0777233 108.8901630  82.8956514  81.9383698 108.5985628
  82.0694626  82.2431688 109.8299808  76.3289456  79.4544088 107.7354817
  75.4592766  79.7477654 107.4637405  76.5648937  80.0384533 108.4562080
  86.2061086  88.5143247 107.8184345  85.9145894  88.8773227 108.6547806
  85.5933217  87.8010255 107.6397677  87.4056768  86.0796126 100.3386915
  88.2403659  86.5185930 100.5024476  87.5415897  85.6034780  99.5195161
  84.4548274  83.6375861 106.2864403  84.9302395  83.8303507 105.4783254
  83.5313839  83.6935047 106.0407787  71.3431780  84.8000028  95.8695481
  71.0977822  83.8962358  96.0675691  71.5127695  84.8017179  94.9274959
  79.0328490  75.6723705 105.2520237  79.5510434  76.4084732 104.9266726
  78.6783623  75.9787698 106.0866996  70.6127428  80.5328386  93.3681643
  69.9196673  80.6072741  92.7121679  70.3679180  79.7688730  93.8903160
  79.2841084  72.0923987 100.7721134  79.5642838  71.4247176 101.3981560
  80.0691691  72.2853083 100.2595797  77.0874553  91.2682981  92.3346160
  76.5148520  91.8873168  91.8816632  77.6607347  91.8182343  92.8686082
  83.1549943  80.5141621 104.5192709  84.1067366  80.6139719 104.5404933
  82.9853393  79.7219890 105.0290793  81.1764322  77.5997204 104.7052110
  80.5814254  77.8802217 104.0098598  80.8914019  78.0891105 105.4768851
  80.3071813  91.5520131  93.4654742  81.2402486  91.4865693  93.6687618
  80.2195026  92.3876398  93.0069275  82.9359829  90.8686002  90.4258690
  82.8573461  90.5345865  91.3194448  83.7569496  91.3607770  90.4250162
  85.6338021  83.7347741 103.6335008  85.6014341  82.7963742 103.8194692
  86.2438644  83.8131778 102.9000833  77.4721351  82.6043794  89.6762212
  78.4180456  82.4750002  89.7450630  77.0935596  81.8658456  90.1531641
  85.7832509  80.5258784 103.6793291  85.2671558  79.7417241 103.4923220
  86.6672458  80.1977501 103.8439811  83.4443236  74.2699800  99.6389104
  83.2468057  73.9614888 100.5232436  84.0542942  74.9961439  99.7687034
  91.4514570  84.7963748 102.7741045  92.1817959  84.5349036 103.3348748
  90.8421516  84.0592470 102.8143113  89.5329868  82.9371610 103.3715496
  88.8063031  82.8027575 102.7631988  89.1177154  83.2448439 104.1772214
  77.3560044  86.6561540 111.1362869  78.2763053  86.8340139 111.3302916
  77.3209627  85.7117585 110.9842569  75.6564269  80.5293770  89.6117098
  74.7495724  80.2326883  89.6879811  75.9340250  80.2323588  88.7451384
  66.5742209  81.8500134 100.0616144  66.2544993  80.9965442  99.7690518
  66.0275637  82.0648712 100.8174111  70.3522117  84.5662575 103.7785650
  70.5708126  85.4979683 103.7973684  70.7647890  84.2070549 104.5640454
  77.2726334  75.0730660  95.7661339  76.4627063  74.7277745  96.1416585
  77.9610751  74.7638204  96.3548950  79.2016883  74.1508707  97.3885635
  79.7547921  74.5704160  98.0475659  79.4386969  73.2244455  97.4308592
  75.2249982  80.1395780 113.1688399  75.1246709  81.0890137 113.1000491
  75.0071524  79.8114019 112.2964469  74.4263053  77.3880706  89.7529077
  75.2882217  77.7135604  90.0124894  74.6113397  76.6012201  89.2402143
  66.4430469  85.4703045 102.0309266  65.7493940  85.0556998 101.5179220
  67.1903460  85.5123582 101.4342684  82.5795690  76.2609232  96.8964300
  81.9994359  76.9194036  96.5142352  82.3131622  75.4386577  96.4851717
  81.0299256  75.6614290  99.0985620  81.5299034  75.7730824  98.2899939
  81.6734864  75.3575343  99.7386429  75.0881252  83.5692919 111.9853461
  74.6048334  84.3693279 112.1917350  75.1742191  83.5800864 111.0320905
  68.3567212  85.4021299  99.9075280  68.3337900  85.5008986  98.9557164
  68.6667848  86.2486450 100.2292447  71.0154589  87.4597454 104.0221895
  71.9697843  87.4281396 103.9551826  70.8167113  86.9988078 104.8372121
  71.6053972  86.0298570 106.5892693  72.4246861  86.5242649 106.6127530
  71.8790779  85.1130538 106.5610260  81.3620568  78.4209322  95.9520648
  80.4746423  78.7058973  95.7340843  81.7774557  78.2603086  95.1047925
  84.7135104  78.4455843  99.6674987  85.4895494  78.9352296  99.9399604
  83.9883238  78.8713898 100.1246857  87.1507663  79.1583463 100.7248928
  87.7452153  78.9179199 100.0142236  87.2234246  78.4390593 101.3522464
  69.3704818  93.0017073 101.0392093  69.2359286  92.2417474 100.4730091
  68.9536880  93.7257973 100.5720882  80.5063781  88.1853997  90.0468668
  81.2099631  88.3904000  90.6626324  79.7826430  88.7530759  90.3117752
  81.3361592  83.9363858  96.1670938  81.2796793  84.3932410  95.3278571
  81.8889934  83.1754543  95.9893781  85.1466397  79.7253590  96.9921058
  84.8903332  79.3250226  97.8229265  84.5219265  80.4397384  96.8671197
  89.4578735  82.4649663  99.4992349  88.8978293  82.5342853 100.2723911
  88.8522239  82.2890648  98.7791845  72.5273944  93.8986391 101.2510535
  72.4106328  94.8431823 101.1489226  71.7066390  93.5959952 101.6396335
  82.4150479  88.6236526  92.0967128  83.2496083  88.1917725  91.9144603
  82.2534822  88.4518540  93.0244023  82.0696371  85.1268640  93.4623467
  82.0145175  84.9612911  92.5211911  81.4442426  85.8344672  93.6185657
  66.8588886  80.3636704 107.2884890  67.5047749  79.8535658 107.7772115
  66.6506037  81.1005386 107.8628315  75.3792496  74.6276749  93.0408786
  75.3671166  75.5718588  93.1977057  76.2715918  74.4446894  92.7468247
  73.5528458  94.5514652 104.4666464  74.4555705  94.5838263 104.7832959
  73.3265828  93.6215103 104.4812800  75.3082060  93.3045639 101.1276542
  74.3577691  93.3047501 101.0140915  75.6114546  92.5578374 100.6112577
  79.1944616  71.2219525  97.2954723  78.4277012  70.6678012  97.4411405
  79.6055321  71.2941394  98.1568874  71.1986377  77.5104321 111.3859904
  72.0617838  77.1541126 111.5963228  70.6251787  77.1718216 112.0735308
  83.7111276 100.9469082  98.1180720  83.1476141 100.8559019  97.3497008
  83.5963671 100.1268986  98.5983213  81.2575708 102.4420273 100.9564941
  82.0497000 102.1011098 100.5411240  81.4972358 102.5515249 101.8767094
  89.2910834 104.6140050  93.4295185  88.6398814 105.1994130  93.0429199
  90.0855197 105.1446244  93.4890223  83.2166462 101.7029187  93.8282320
  83.9897338 101.1558174  93.6895196  83.5691860 102.5673436  94.0396781
  85.5532739  97.8621853  91.4600770  85.8058260  97.3403374  90.6984233
  84.6157298  97.6987998  91.5627453  90.5976022  96.8657631  99.2675513
  91.3839111  96.4477054  98.9165930  90.8614727  97.7703723  99.4357161
  90.7686100 102.3030481  93.9664170  90.1331933 102.3765108  94.6785074
  90.4383506 102.8924080  93.2883249  85.2729028  99.7649959  93.6625145
  85.1565286  99.0894862  94.3306229  85.3831288  99.2782333  92.8457298
  87.6160569  99.2260106  97.3671834  87.2518776  98.6990727  98.0784755
  88.4727685  98.8358575  97.1938319  87.2566056  94.2550006  92.3633182
  87.4240458  95.1230242  92.7303653  87.0663225  94.4177287  91.4394472
  83.4653871  99.1680781 100.0635717  82.5404367  99.0356995 100.2713409
  83.7138284  99.9475001 100.5605660  87.2355277  96.7107663  93.3479849
  87.1154902  97.1564714  94.1865329  86.5407865  97.0592981  92.7893387
  80.8262682  98.8114055 100.8979506  80.9555063  99.0648534 101.8118918
  80.1460133  99.4041763 100.5784161  92.9340343  97.1829136  94.1760183
  93.8458199  97.4156523  94.0007881  92.4249990  97.7666180  93.6135262
  90.2776318  93.3587172 102.4250044  89.4160797  93.6568426 102.7166782
  90.3038752  93.5757571 101.4931077  87.0937887 101.9029363  98.8323850
  87.5576233 102.1817066  98.0428472  86.8294685 101.0012807  98.6496940
  86.0306773  98.0252515  95.6413415  86.7330817  98.4773559  96.1087341
  85.6987402  97.3836334  96.2693308  79.7732107  96.2836068 100.9430548
  78.9831161  96.5393596 100.4670659  80.2643355  97.0984406 101.0482589
  81.7246853  96.6480647  97.9014025  80.9278016  96.7599341  98.4197521
  81.4972445  96.9867299  97.0354916  78.0569810  96.5366558 103.3745539
  78.3077849  97.4213568 103.6403115  78.5929359  96.3571160 102.6020631
  87.2700538 104.8393458  95.7175520  87.1346213 105.6844994  96.1460368
  87.8110350 105.0412735  94.9541454  80.7229935 102.3568896  96.2903445
  81.2354456 103.1512146  96.4409010  81.3752648 101.6595186  96.2237047
  82.5324820 105.4734652  98.3726198  82.7091448 106.3952617  98.1847182
  83.3281654 105.1593071  98.8020578  90.6193002  88.3624020 104.2474414
  90.2757271  89.2525661 104.1713524  90.9871964  88.1725677 103.3843999
  78.6878852 100.6857550  97.0663016  79.5254074 101.0954558  96.8496723
  78.8657120  99.7456992  97.0363210  90.5843284  98.3532631  92.7546849
  90.0689908  99.1237235  92.9935236  90.3120593  97.6797767  93.3779910
  88.1690395  93.1982332  97.8132087  87.3131992  92.8089182  97.6337726
  88.5817347  93.2774292  96.9531873  89.6989542  90.7328675 102.2123647
  89.1954337  90.6958810 101.3991452  89.9920149  91.6421418 102.2720303
  85.9432428  90.8167405 101.2189829  86.8085425  90.6210213 100.8595718
  86.0109937  90.5877756 102.1459185  95.5577558 101.1064985  94.6900022
  94.7807001 100.7676145  94.2455184  96.2369039 101.1117609  94.0154987
  90.3729587  96.2259723  94.5806630  90.0679723  96.5405872  95.4316773
  91.3260030  96.3041143  94.6233963  88.8176019 102.3849946  96.2299584
  88.2897381 101.6502706  95.9172821  88.3163522 103.1624623  95.9839552
  83.5494747  93.0469612  98.5906195  84.1238499  92.8244794  97.8579388
  84.1365729  93.1158307  99.3434797  83.8764334  95.0774074  92.6102081
  83.0401646  95.4148760  92.9311355  83.7369104  94.9423053  91.6729218
  85.8517415  89.9210861  97.3181265  85.1981827  89.6059879  96.6937880
  85.8097889  89.2986602  98.0441088  86.9628619 100.2030156  89.2334557
  86.0555681  99.9719410  89.4325706  87.4599651  99.4067776  89.4208538
  89.8696698 108.9127664  92.1531243  89.1958397 109.2159360  92.7616201
  90.2562520 109.7156744  91.8036700  89.0855155  96.4092795 101.6428912
  88.1677716  96.6307742 101.4850600  89.5015299  96.4839105 100.7840620
  89.8690203  97.8084211  96.7731593  90.6162022  98.3205608  96.4638715
  90.1381792  97.4868263  97.6335986  88.1416853 100.3042751  93.7558547
  87.2328072 100.0201784  93.8531017  88.1711937 100.7241830  92.8961854
  92.3169040  94.8441327  98.7550382  91.5791797  94.3318713  99.0860625
  92.5695813  94.4041708  97.9433659  92.4180667  87.6217579  99.3492151
  92.7239544  86.7614942  99.0618066  93.1433272  88.2135199  99.1491145
  78.7105023  98.0248265  97.7373749  78.5129423  97.4317626  97.0124816
  78.1551687  97.7200476  98.4549688  86.6901747  97.9171372  99.8568342
  86.7450357  96.9645208  99.7810819  85.8792949  98.0730811 100.3409641
  87.8392941 101.8451495  91.0946626  87.4012371 101.1287354  90.6352263
  88.5803382 102.0727610  90.5331717  84.6294107  96.5348432  97.6158721
  83.8161972  96.8342602  98.0223913  85.1253101  96.1404120  98.3333203
  95.9566055 100.1208692  97.1522944  95.8183954 100.3110288  96.2244133
  95.6002274 100.8828075  97.6090995  84.1208182  94.1066787 103.2319956
  84.7607561  93.9655546 102.5342919  83.2885712  93.8201301 102.8558558
  84.8968485 103.4069218  99.3454949  85.6909084 102.9119538  99.1437524
  84.1860178 102.8787081  98.9822654  81.2051249  97.5512299  95.4214701
  80.2748837  97.4896755  95.6384663  81.3008721  97.0288252  94.6251343
  81.1236798  94.0767112  98.0092943  81.3843615  94.9912445  97.9002103
  81.9453970  93.6091555  98.1589556  82.5961723  95.4904869 105.1791767
  83.2684777  95.2822231 104.5304416  81.7691510  95.2926955 104.7397000
  88.0687913 109.0807336  94.3678322  88.2439669 108.6095379  95.1823945
  87.3820701 109.7073102  94.5959583  91.9604168 100.7035877  90.6878683
  91.3433339  99.9782705  90.5911736  91.4920657 101.4645237  90.3445757
  83.7502714  94.9221301  89.8099987  82.8732181  94.8010102  89.4462234
  84.2260467  94.1307379  89.5578876  75.2704854  99.7098461  99.9041495
  75.9575894  99.3960191  99.3162510  75.1152983 100.6139825  99.6308746
  80.0739576  94.5988657 104.3326518  79.9897765  93.9914327 103.5976928
  79.2522283  95.0897676 104.3336015  90.2463290  93.0842221  99.6996713
  90.7431990  92.3312183  99.3797784  89.4750272  93.1206537  99.1339923
  91.3293071 101.8413908  97.2735137  90.3949350 101.9615370  97.1039841
  91.5069739 100.9386375  97.0095147  86.8298259  95.2259604  99.4268398
  86.4596047  94.6730644 100.1149303  87.3257352  94.6217737  98.8743398
  94.7165622  97.6831227  97.8085171  95.1826075  98.5159219  97.7345474
  95.1673123  97.2176209  98.5130429  92.7841853 104.0275049  94.8071323
  93.0601697 103.9131643  95.7165197  91.9146352 103.6292533  94.7683496
  92.6882285  90.0511814 101.8476072  91.7745365  90.2816041 102.0158279
  93.1175387  90.1350258 102.6990105  89.7538083 107.2029585  95.7119185
  90.2825849 106.6922039  95.0989347  90.0166303 106.8872115  96.5764718
  74.8472830  97.7899054 102.1758962  74.8856930  97.2562645 102.9696080
  74.3413123  97.2634260 101.5569939  82.2263593  92.6363595 105.6721504
  82.2904919  93.4978425 105.2598902  82.1630713  92.0237596 104.9393863
  78.4781408  96.5163156  95.2512893  78.7734849  95.6073835  95.1979947
  77.5769444  96.4950896  94.9293895  82.0075655  94.5919153 101.2340442
  81.2862241  95.2055120 101.0947915  82.7968911  95.1276918 101.1557088
  80.2069250  94.1977254  95.3752218  79.8781956  93.3174633  95.1927324
  80.5608620  94.1424923  96.2628607  83.3211073  94.4850224  95.7427696
  83.6607145  95.0136145  95.0206304  83.7683193  94.8230630  96.5186262
  86.0154514  92.8687274 105.1930764  85.6751334  92.0695087 105.5951444
  85.3093520  93.1688985 104.6207597  86.6670985  89.9536587 103.6458087
  87.4897055  89.4797065 103.5236977  86.9109049  90.7327071 104.1456773
  85.3079220  92.9824845  93.9420989  86.0287582  93.3606098  93.4384706
  84.6844524  93.7013722  94.0455967  89.4510343  93.6869994  94.8779321
  89.6673957  94.5694632  94.5768149  88.9704410  93.2956208  94.1484963
  84.1909564  96.6455707 101.4550066  84.0454145  96.9596010 102.3474347
  83.7134768  97.2640608 100.9020964  86.0505947  93.6358255 101.5030955
  86.0367516  92.7399349 101.1663253  86.7678375  93.6428919 102.1369241
  87.9032078  94.0695596 103.5484083  87.6449856  94.9912666 103.5468413
  87.3717118  93.6726030 104.2384547  78.6655226  99.1861052 104.3937727
  78.1208694  99.9620860 104.5258001  79.5434576  99.5331856 104.2356848
  85.4542843  92.5172636  96.7718525  85.5758754  91.5889282  96.9709413
  85.1644885  92.5311322  95.8596841  88.3234033  90.2027546  99.9085245
  88.3455730  90.2666879  98.9537225  88.7402092  89.3632055 100.1025751
  93.8353439 106.4913147  93.4271066  94.5304344 107.1119840  93.6458381
  94.1776589 105.6408498  93.7023444  95.7344862 103.9412853  94.9558397
  96.2596186 104.2800125  94.2307717  95.6467215 103.0059868  94.7721532
  79.8977862 106.1996377  99.3178278  80.7235882 105.9000149  98.9376922
  79.5471914 105.4303999  99.7668067  78.0986467 104.1182703 100.2767212
  77.2618375 103.6904878 100.0951213  78.0710112 104.3115147 101.2138003
  84.4272902 104.1026768  94.8634412  84.5761022 104.7862233  94.2101085
  85.2339345 104.0831858  95.3783868  82.1825535 100.1291946  95.8695481
  81.9371577  99.2254276  96.0675691  82.3521449 100.1309096  94.9274959
  81.4521182  95.8620304  93.3681643  80.7590427  95.9364659  92.7121679
  81.2072934  95.0980647  93.8903160  90.1234839  87.4215905 100.7721134
  90.4036593  86.7539094 101.3981560  90.9085446  87.6145001 100.2595797
  87.9268307 106.5974899  92.3346160  87.3542275 107.2165086  91.8816632
  88.5001101 107.1474261  92.8686082  91.1465567 106.8812049  93.4654742
  92.0796240 106.8157611  93.6687618  91.0588780 107.7168316  93.0069275
  93.7753584 106.1977919  90.4258690  93.6967215 105.8637783  91.3194448
  94.5963251 106.6899687  90.4250162  88.3115106  97.9335712  89.6762212
  89.2574211  97.8041920  89.7450630  87.9329351  97.1950373  90.1531641
  94.2836991  89.5991718  99.6389104  94.0861812  89.2906806 100.5232436
  94.8936696  90.3253357  99.7687034  86.4958023  95.8585688  89.6117098
  85.5889479  95.5618801  89.6879811  86.7734004  95.5615506  88.7451384
  77.4135964  97.1792051 100.0616144  77.0938748  96.3257360  99.7690518
  76.8669392  97.3940630 100.8174111  88.1120089  90.4022578  95.7661339
  87.3020817  90.0569663  96.1416585  88.8004506  90.0930121  96.3548950
  90.0410637  89.4800624  97.3885635  90.5941676  89.8996078  98.0475659
  90.2780724  88.5536373  97.4308592  85.2656808  92.7172623  89.7529077
  86.1275972  93.0427522  90.0124894  85.4507152  91.9304119  89.2402143
  77.2824224 100.7994963 102.0309266  76.5887695 100.3848916 101.5179220
  78.0297215 100.8415499 101.4342684  93.4189444  91.5901150  96.8964300
  92.8388113  92.2485954  96.5142352  93.1525377  90.7678494  96.4851717
  91.8693011  90.9906207  99.0985620  92.3692789  91.1022742  98.2899939
  92.5128619  90.6867260  99.7386429  79.1960966 100.7313217  99.9075280
  79.1731654 100.8300904  98.9557164  79.5061603 101.5778367 100.2292447
  92.2014322  93.7501240  95.9520648  91.3140177  94.0350891  95.7340843
  92.6168311  93.5895003  95.1047925  95.5528858  93.7747761  99.6674987
  96.3289248  94.2644213  99.9399604  94.8276993  94.2005815 100.1246857
  91.3457536 103.5145915  90.0468668  92.0493386 103.7195917  90.6626324
  90.6220184 104.0822677  90.3117752  92.1755346  99.2655776  96.1670938
  92.1190547  99.7224327  95.3278571  92.7283688  98.5046461  95.9893781
  95.9860152  95.0545508  96.9921058  95.7297086  94.6542144  97.8229265
  95.3613020  95.7689302  96.8671197  93.2544233 103.9528444  92.0967128
  94.0889837 103.5209642  91.9144603  93.0928576 103.7810458  93.0244023
  92.9090125 100.4560557  93.4623467  92.8538929 100.2904829  92.5211911
  92.2836181 101.1636590  93.6185657  77.6982640  95.6928622 107.2884890
  78.3441504  95.1827576 107.7772115  77.4899791  96.4297303 107.8628315
  86.2186251  89.9568666  93.0408786  86.2064921  90.9010506  93.1977057
  87.1109673  89.7738812  92.7468247  90.0338370  86.5511443  97.2954723
  89.2670766  85.9969930  97.4411405  90.4449075  86.6233312  98.1568874
  94.7158088 110.4065991  92.6102081  93.8795401 110.7440678  92.9311355
  94.5762858 110.2714971  91.6729218  94.5896469 110.2513219  89.8099987
  93.7125935 110.1302019  89.4462234  95.0654222 109.4599297  89.5578876
  97.3351778 111.1877606  89.6117098  96.4283233 110.8910718  89.6879811
  97.6127759 110.8907424  88.7451384  96.1050562 108.0464541  89.7529077
  96.9669726 108.3719439  90.0124894  96.2900906 107.2596037  89.2402143
  97.0580005 105.2860584  93.0408786  97.0458675 106.2302424  93.1977057
  97.9503427 105.1030729  92.7468247  36.8465983  -0.4991288  88.9167611
  37.4844392  -0.6184541  88.2130952  36.7286825   0.4489556  88.9755564
  29.5142504   1.3071616  84.8426027  28.9507370   1.2161553  84.0742315
  29.3994900   0.4871521  85.3228520  35.0942063   4.9742584  80.1540492
  34.4430043   5.5596664  79.7674506  35.8886426   5.5048779  80.2135529
  29.0197690   2.0631721  80.5527626  29.7928566   1.5160708  80.4140502
  29.3723089   2.9275970  80.7642088  31.3563968  -1.7775613  78.1846076
  31.6089489  -2.2994092  77.4229539  30.4188527  -1.9409468  78.2872760
  36.4007251  -2.7739835  85.9920819  37.1870340  -3.1920411  85.6411236
  36.6645955  -1.8693742  86.1602468  36.5717328   2.6633016  80.6909476
  35.9363161   2.7367642  81.4030381  36.2414735   3.2526615  80.0128556
  41.8015678  -2.8364601  86.8953798  42.5340850  -3.4065385  87.1291627
  41.0455034  -3.2243001  87.3360304  31.0760257   0.1252493  80.3870451
  30.9596515  -0.5502604  81.0551536  31.1862517  -0.3615133  79.5702604
  33.4191798  -0.4137360  84.0917140  33.0550005  -0.9406739  84.8030062
  34.2758914  -0.8038891  83.9183626  33.0386506  -2.9289803  80.0725156
  32.9186131  -2.4832752  80.9110636  32.3439094  -2.5804485  79.5138694
  30.7993398   9.8413839  83.7215287  30.7217428  10.7921664  83.8003768
  30.1955041   9.4959712  84.3790213  38.7371572  -2.4568330  80.9005490
  39.6489428  -2.2240943  80.7253187  38.2281219  -1.8731285  80.3380568
  37.3441154   2.5257489  88.2919071  36.7150017   2.6903203  87.5895139
  36.9566816   2.9399098  89.0630035  41.2230386   3.4611927  85.6463435
  40.5381424   3.8410828  85.0960468  41.3074235   4.0707253  86.3795383
  32.8969116   2.2631897  85.5569156  33.3607462   2.5419600  84.7673779
  32.6325914   1.3615342  85.3742247  31.8338002  -1.6144951  82.3658722
  32.5362045  -1.1623907  82.8332648  31.5018631  -2.2561132  82.9938615
  39.5927146   3.9843841  90.4181136  40.4144589   3.5824029  90.1363818
  39.5889549   3.8812075  91.3697252  47.6833139   0.3282590  86.7666107
  46.9296847  -0.2410012  86.6110112  47.8180680   0.2945254  87.7136742
  33.0731767   5.1995992  82.4420827  32.9377442   6.0447528  82.8705675
  33.6141579   5.4015270  81.6786761  26.5261164   2.7171430  83.0148752
  27.0385685   3.5114680  83.1654317  27.1783877   2.0197720  82.9482353
  28.3356049   5.8337186  85.0971505  28.5122677   6.7555151  84.9092489
  29.1312882   5.5195606  85.5265885  29.4587364   7.3515360  91.0981847
  30.0094789   7.2232423  90.3258841  28.6198840   7.6510249  90.7476740
  36.3874513  -1.2864835  79.4792155  35.8721136  -0.5160230  79.7180543
  36.1151821  -1.9599699  80.1025217  41.3608787   1.4667520  81.4145329
  40.5838230   1.1278679  80.9700491  42.0400268   1.4720143  80.7400294
  36.1760816  -3.4137743  81.3051936  35.8710952  -3.0991594  82.1562080
  37.1291258  -3.3356323  81.3479269  34.6207248   2.7452480  82.9544890
  34.0928610   2.0105240  82.6418128  34.1194751   3.5227157  82.7084859
  39.6000094   0.9401501  88.0711937  38.9423769   1.6300762  88.1592065
  40.4040493   1.3297933  88.4145923  38.4105553  -0.7054126  86.1215879
  38.9237435  -0.0724135  86.6237588  39.0606777  -1.3052931  85.7559239
  32.7659848   0.5632691  75.9579864  31.8586910   0.3321944  76.1571012
  33.2630880  -0.2329690  76.1453845  35.6727927   9.2730198  78.8776550
  34.9989626   9.5761895  79.4861508  36.0593749  10.0759278  78.5282007
  35.6721431  -1.8313255  83.4976899  36.4193250  -1.3191858  83.1884021
  35.9413021  -2.1529202  84.3581293  33.9448082   0.6645286  80.4803854
  33.0359301   0.3804318  80.5776323  33.9743165   1.0844364  79.6207160
  39.1767349   4.2751875  84.2495021  38.7229676   3.4342785  84.3060212
  38.5461316   4.9113273  84.5869801  38.1200269  -4.7956139  85.4795689
  37.3823025  -5.3078753  85.8105931  38.3727042  -5.2355757  84.6678965
  37.6200288   6.1128372  85.1844839  37.9123263   6.6733429  84.4657205
  38.1298909   6.4056933  85.9397998  32.4932976  -1.7226094  86.5813649
  32.5481585  -2.6752257  86.5056126  31.6824178  -1.5666655  87.0654947
  33.6424169   2.2054029  77.8191932  33.2043599   1.4889888  77.3597570
  34.3834610   2.4330144  77.2577024  32.5833914   6.8908723  86.2738293
  32.5410092   7.1169569  85.3446825  33.4996612   6.6572097  86.4224094
  41.7597284   0.4811226  83.8768251  41.6215183   0.6712822  82.9489440
  41.4033503   1.2430609  84.3336302  41.7866664   2.5487753  88.8879522
  42.2203171   2.4563042  89.7362576  42.4998245   2.5245254  88.2499538
  30.6999714   3.7671752  86.0700255  31.4940313   3.2722072  85.8682830
  29.9891407   3.2389615  85.7067961  35.5194559   6.1489847  90.4212623
  35.5731581   6.7180784  91.1890339  34.6509340   6.3191732  90.0566660
  42.6482213   2.5911454  91.4212408  42.8418103   3.4957264  91.6671683
  42.5482832   2.1318873  92.2550993  33.2770990   4.3400774  89.7498092
  33.1382076   3.9719558  90.6224030  32.4885587   4.8548413  89.5782050
  33.8719142   9.4409870  81.0923629  34.0470898   8.9697913  81.9069252
  33.1851930  10.0675636  81.3204890  34.8276205   3.7182377  87.1386930
  34.4926038   3.6783146  88.0344580  34.3280151   3.0527092  86.6657340
  37.7635397   1.0638411  77.4123990  37.1464568   0.3385239  77.3157042
  37.2951886   1.8247771  77.0691064  28.4380228  12.5899233  87.8663489
  28.6776826  13.2217757  88.5442508  27.5949424  12.2387273  88.1528848
  32.9508089   8.3978355  90.2704993  32.8778261   9.2033327  90.7824298
  32.5085483   8.5970321  89.4453014  32.7397869   7.6350126  83.7807815
  31.9565391   8.1771806  83.8746039  33.4390614   8.1524105  84.1802056
  43.9024277  -0.8514879  88.0660311  43.8914153   0.0309836  87.6954245
  43.0341656  -1.2043329  87.8714849  35.4106773   8.2965190  92.4263152
  36.1234745   8.9312654  92.3539053  34.9196802   8.3929056  91.6103154
  37.1324300   2.2016442  83.9980443  36.1980579   2.3217905  83.8285148
  37.3100968   1.2988909  83.7340453  40.5196851  -1.9566239  84.5330477
  40.9857303  -1.1238247  84.4590780  40.9704352  -2.4221257  85.2375736
  38.5873082   4.3877583  81.5316630  38.8632926   4.2734177  82.4410504
  37.7177581   3.9895068  81.4928803  35.2227146   8.6363934  85.1749443
  35.4049541   7.8185590  85.6377195  36.0460132   8.8531626  84.7374333
  35.5569312   7.5632119  82.4364492  36.0857078   7.0524573  81.8234654
  35.8197531   7.2474649  83.3010025  28.9125060   8.6147235  85.1962268
  28.2435435   9.0993363  84.7126308  28.7737929   8.8616456  86.1105646
  33.0530328  10.6490979  91.7944926  33.6048636  10.8122600  92.5594011
  33.3936522  11.2395417  91.1224951  36.1898716   8.5972954  88.7808608
  36.0649855   7.7962694  88.2719554  36.8477807   9.0919148  88.2922578
  38.2533624   6.3981975  90.4088158  37.3063960   6.2787326  90.3366485
  38.6016397   5.5104473  90.4914420  35.2580057   6.1934691  86.6092510
  35.1105020   5.2651398  86.7900080  36.0833551   6.2154781  86.1249586
  38.8614179   7.0163249  87.6957383  39.7860727   6.8106111  87.5581834
  38.6929483   6.7679651  88.6046725  38.6509495   7.5348917  83.0519475
  38.8246373   6.9695339  82.2993327  39.1438387   8.3349812  82.8698965
  44.5048887   0.2985340  84.6709774  44.9480033  -0.4507335  84.2728898
  43.6275397   0.2895476  84.2883506  39.6384668   6.8515681  80.1516373
  40.3335572   7.4722374  80.3703688  39.9807818   6.0011033  80.4268751
  41.5376091   4.3015387  81.6803704  42.0627415   4.6402660  80.9553024
  41.4498444   3.3662402  81.4966838  33.2216752  10.3687370  86.0398957
  32.7821742   9.8763749  86.7331814  33.9724869   9.8260338  85.7991032
  25.7009091   6.5598911  86.0423585  26.5267111   6.2602683  85.6622228
  25.3503143   5.7906533  86.4913374  30.6690624   5.9125379  88.1121259
  30.0470633   5.2496084  87.8123486  31.3395491   5.9386511  87.4294906
  30.2304131   4.4629303  81.5879719  30.3792251   5.1464767  80.9346392
  31.0370574   4.4434393  82.1029175  44.0481751   1.7690578  87.0632222
  44.8828643   2.2080382  87.2269782  44.1840880   1.2929231  86.2440468
  27.9856764   0.4894480  82.5940788  27.7402806  -0.4143190  82.7920998
  28.1552678   0.4911631  81.6520266  33.7299536   6.9577433  79.0591466
  33.1573503   7.5767620  78.6061938  34.3032330   7.5076795  79.5931388
  36.9496796   7.2414583  80.1900049  37.8827469   7.1760145  80.3932924
  36.8620009   8.0770850  79.7314581  39.5784813   6.5580454  77.1503996
  39.4998444   6.2240317  78.0439754  40.3994480   7.0502221  77.1495469
  42.2763004  -0.5757807  90.3580315  42.2439324  -1.5141806  90.5439999
  42.8863628  -0.4973770  89.6246140  34.1146335  -1.7061754  76.4007519
  35.0605440  -1.8355546  76.4695937  33.7360580  -2.4447092  76.8776947
  48.0939554   0.4858200  89.4986352  48.8242942   0.2243488  90.0594055
  47.4846499  -0.2513078  89.5388420  46.1754851  -1.3733938  90.0960803
  45.4488014  -1.5077973  89.4877295  45.7602138  -1.0657109  90.9017521
  39.2220673  -8.0496316  83.6209606  38.6419342  -7.3911512  83.2387659
  38.9556606  -8.8718972  83.2097024  38.0045551  -5.8896226  82.6765955
  37.1171406  -5.6046575  82.4586149  38.4199540  -6.0502462  81.8293232
  41.3560087  -5.8649705  86.3920294  42.1320477  -5.3753252  86.6644911
  40.6308221  -5.4391651  86.8492163  43.7932646  -5.1522086  87.4494235
  44.3877137  -5.3926350  86.7387543  43.8659230  -5.8714955  88.0767771
  26.0129802   8.6911525  87.7637399  25.8784269   7.9311926  87.1975397
  25.5961864   9.4152425  87.2966188  37.1488765   3.8748449  76.7713975
  37.8524615   4.0798451  77.3871630  36.4251413   4.4425211  77.0363058
  37.9786575  -0.3741690  82.8916245  37.9221776   0.0826862  82.0523877
  38.5314917  -1.1351005  82.7139088  41.7891381  -4.5851958  83.7166364
  41.5328315  -4.9855322  84.5474572  41.1644249  -3.8708164  83.5916503
  46.1003719  -1.8455885  86.2237656  45.5403277  -1.7762695  86.9969218
  45.4947222  -2.0214900  85.5037152  29.1698927   9.5880842  87.9755842
  29.0531312  10.5326275  87.8734532  28.3491374   9.2854404  88.3641641
  39.0575462   4.3130978  78.8212435  39.8921066   3.8812177  78.6389909
  38.8959805   4.1412992  79.7489329  38.7121354   0.8163091  80.1868774
  38.6570158   0.6507363  79.2457218  38.0867409   1.5239124  80.3430964
  30.1953442  10.2409104  91.1911770  31.0980688  10.2732715  91.5078265
  29.9690812   9.3109555  91.2058106  31.9507044   8.9940091  87.8521849
  31.0002675   8.9941952  87.7386221  32.2539530   8.2472825  87.3357884
  47.6859737  14.8300629  88.9167611  48.3238147  14.7107377  88.2130952
  47.5680580  15.7781473  88.9755564  44.4949443  14.7828057  88.8529136
  44.1567955  14.6669122  87.9649671  45.3639211  14.3819222  88.8330142
  40.3536259  16.6363534  84.8426027  39.7901124  16.5453471  84.0742315
  40.2388654  15.8163438  85.3228520  44.9769226  15.9362909  94.8115342
  44.9657867  15.5415707  93.9395845  45.1389866  15.2028982  95.4049113
  37.9000691  18.1314725  87.6810248  38.6921983  17.7905550  87.2656547
  38.1397341  18.2409700  88.6012401  45.9335818  20.3034501  80.1540492
  45.2823797  20.8888582  79.7674506  46.7280181  20.8340696  80.2135529
  39.8591445  17.3923639  80.5527626  40.6322321  16.8452626  80.4140502
  40.2116844  18.2567888  80.7642088  41.6976487  18.7200021  93.7594526
  41.4066353  19.6245652  93.6441192  42.3333472  18.7616548  94.4738595
  42.6232694  16.0976869  90.3495885  43.2196267  15.8732892  89.6352848
  42.6807666  15.3561615  90.9521333  42.1957723  13.5516305  78.1846076
  42.4483243  13.0297826  77.4229539  41.2582282  13.3882450  78.2872760
  47.2401006  12.5552083  85.9920819  48.0264095  12.1371506  85.6411236
  47.5039710  13.4598175  86.1602468  47.4111083  17.9924933  80.6909476
  46.7756916  18.0659560  81.4030381  47.0808489  18.5818532  80.0128556
  52.6409433  12.4927316  86.8953798  53.3734605  11.9226533  87.1291627
  51.8848788  12.1048917  87.3360304  41.9154011  15.4544411  80.3870451
  41.7990270  14.7789314  81.0551536  42.0256271  14.9676785  79.5702604
  44.2585552  14.9154558  84.0917140  43.8943760  14.3885179  84.8030062
  45.1152668  14.5253027  83.9183626  50.1634853   6.2048890  91.3548407
  49.8318178   7.0744301  91.1309622  49.5680466   5.8885174  92.0342437
  43.8991039   9.9444457  79.0878489  44.0665442  10.8124694  79.4548960
  43.7088208  10.1071739  78.1639778  46.6566373  18.4061436  90.7544319
  46.3567096  19.3086475  90.6460127  46.3117432  18.1393620  91.6065472
  40.1078854  14.8575233  86.7881024  39.1829350  14.7251447  86.9958716
  40.3563267  15.6369452  87.2850966  50.0563516  10.9243977  88.4341757
  49.1480394  10.8559385  88.1400518  50.0051112  11.4015921  89.2623582
  43.8780260  12.4002115  80.0725156  43.7579885  12.8459166  80.9110636
  43.1832849  12.7487433  79.5138694  37.4687665  14.5008507  87.6224813
  37.5980046  14.7542986  88.5364225  36.7885116  15.0936215  87.3029468
  41.6387152  25.1705757  83.7215287  41.5611182  26.1213582  83.8003768
  41.0348796  24.8251629  84.3790213  44.1304382  12.3433622  96.3776654
  43.3537716  12.9027542  96.3679519  44.7694945  12.8290405  96.8991524
  51.9225163   9.1260415  90.2119631  51.2799543   9.4192948  89.5659425
  51.4180091   9.0113335  91.0172827  49.5765326  12.8723588  80.9005490
  50.4883182  13.1050975  80.7253187  49.0674973  13.4560632  80.3380568
  42.3850754  15.1519076  95.9394621  43.1265439  15.6904119  95.6629445
  41.6787740  15.7785364  96.0966173  47.8606094  17.2948216  94.5366782
  48.2689450  16.8530627  93.7921415  47.1383356  16.7200843  94.7900975
  44.2137164  12.2320823  91.9100339  45.0598359  12.6560236  92.0534988
  44.1535802  11.5754447  92.6038902  48.1834909  17.8549407  88.2919071
  47.5543771  18.0195121  87.5895139  47.7960571  18.2691016  89.0630035
  52.0624141  18.7903844  85.6463435  51.3775179  19.1702746  85.0960468
  52.1467990  19.3999171  86.3795383  47.3636609   9.8925191  93.5681513
  47.1197541  10.6467252  93.0315789  47.6396540  10.2710539  94.4028760
  49.3175072  16.4363803  92.2458779  49.5291967  17.0795563  91.5693160
  49.2704820  15.6026120  91.7780709  46.9201301   9.0481624  89.1495351
  46.0585780   9.3462878  89.4412088  46.9463736   9.2652023  88.2176383
  43.7362871  17.5923815  85.5569156  44.2001216  17.8711518  84.7673779
  43.4719669  16.6907259  85.3742247  40.6286952  17.1395296  88.4948920
  41.1988309  17.5682565  87.8566404  41.2195063  16.8577881  89.1933105
  42.6731757  13.7146967  82.3658722  43.3755800  14.1668011  82.8332648
  42.3412385  13.0730786  82.9938615  41.1212118  12.3058724  96.7409931
  40.4910779  12.9875005  96.9745328  41.0148206  12.1941805  95.7963069
  36.4157091  11.9730520  87.6675855  35.6256145  12.2288048  87.1915966
  36.9068338  12.7878858  87.7727896  50.4320900  19.3135759  90.4181136
  51.2538344  18.9115946  90.1363818  50.4283303  19.2103993  91.3697252
  38.3671836  12.3375099  84.6259332  37.5702999  12.4493793  85.1442827
  38.1397428  12.6761751  83.7600222  44.1977504  18.8619802  92.5741846
  44.2621936  19.3240209  93.4100018  43.4888427  18.2317167  92.7024156
  34.6994794  12.2261010  90.0990846  34.9502832  13.1108020  90.3648422
  35.2354342  12.0465612  89.3265938  58.5226893  15.6574507  86.7666107
  57.7690602  15.0881905  86.6110112  58.6574434  15.6237172  87.7136742
  43.9125521  20.5287910  82.4420827  43.7771196  21.3739445  82.8705675
  44.4535334  20.7307187  81.6786761  37.3654919  18.0463348  83.0148752
  37.8779439  18.8406598  83.1654317  38.0177631  17.3489638  82.9482353
  39.1749803  21.1629104  85.0971505  39.3516432  22.0847069  84.9092489
  39.9706637  20.8487523  85.5265885  43.3160822   8.0237369  96.6955439
  44.0570535   8.6244522  96.6159901  43.5478745   7.2815006  96.1373481
  38.4602160  13.2093736  94.9733668  38.3455675  12.3078993  95.2740767
  37.6046678  13.4557433  94.6218485  45.5393998  21.1511476  96.5721169
  45.0957852  20.3647855  96.2542073  46.2011211  21.3390627  95.9065060
  40.2981119  22.6807278  91.0981847  40.8488544  22.5524341  90.3258841
  39.4592595  22.9802167  90.7476740  47.6375236  21.4314276  94.6002570
  47.6193711  22.2523157  94.1082839  48.5595156  21.3068351  94.8252711
  44.0948290  18.9458406  95.4426078  44.6276627  18.1846694  95.2125386
  43.5662371  18.6532057  96.1850233  47.2617985   4.0518472  90.9719720
  46.9182254   4.9420113  90.8958831  47.6296947   3.8620129  90.1089305
  35.3303835  16.3752002  83.7908322  36.1679057  16.7849010  83.5742030
  35.5082103  15.4351444  83.7608516  47.2268268  14.0427083  79.4792155
  46.7114891  14.8131687  79.7180543  46.9545576  13.3692219  80.1025217
  44.8115379   8.8876783  84.5377394  43.9556975   8.4983634  84.3583032
  45.2242330   8.9668744  83.6777179  46.3414525   6.4223127  88.9368953
  45.8379321   6.3853262  88.1236759  46.6345132   7.3315869  88.9965610
  42.5857411   6.5061856  87.9435135  43.4510408   6.3104665  87.5841025
  42.6534920   6.2772208  88.8704492  52.2002542  16.7959437  81.4145329
  51.4231984  16.4570597  80.9700491  52.8794023  16.8012060  80.7400294
  47.0154571  11.9154175  81.3051936  46.7104706  12.2300324  82.1562080
  47.9685013  11.9935595  81.3479269  45.4601003  18.0744398  82.9544890
  44.9322364  17.3397158  82.6418128  44.9588505  18.8519074  82.7084859
  50.4393849  16.2693419  88.0711937  49.7817523  16.9592680  88.1592065
  51.2434248  16.6589851  88.4145923  40.1919730   8.7364064  85.3151502
  40.7663482   8.5139246  84.5824695  40.7790713   8.8052759  86.0680103
  49.2499307  14.6237791  86.1215879  49.7631189  15.2567783  86.6237588
  49.9000531  14.0238987  85.7559239  40.5189317  10.7668525  79.3347387
  39.6826630  11.1043212  79.6556662  40.3794087  10.6317505  78.3974524
  42.4942398   5.6105313  84.0426571  41.8406810   5.2954330  83.4183186
  42.4522872   4.9881054  84.7686394  43.6053603  15.8924608  75.9579864
  42.6980664  15.6613862  76.1571012  44.1024635  15.0962228  76.1453845
  46.5121682  24.6022116  78.8776550  45.8383380  24.9053812  79.4861508
  46.8987504  25.4051196  78.5282007  45.7280138  12.0987247  88.3674219
  44.8102700  12.3202194  88.2095907  46.1440282  12.1733557  87.5085926
  46.5115186  13.4978662  83.4976899  47.2587005  14.0100060  83.1884021
  46.7806776  13.1762715  84.3581293  44.7841836  15.9937203  80.4803854
  43.8753055  15.7096236  80.5776323  44.8136920  16.4136282  79.6207160
  50.0161104  19.6043793  84.2495021  49.5623431  18.7634703  84.3060212
  49.3855070  20.2405191  84.5869801  48.9594023  10.5335779  85.4795689
  48.2216780  10.0213165  85.8105931  49.2120797  10.0936160  84.6678965
  48.4594043  21.4420289  85.1844839  48.7517017  22.0025347  84.4657205
  48.9692663  21.7348850  85.9397998  49.0605650   3.3112031  86.0737458
  49.3664527   2.4509394  85.7863373  49.7858255   3.9029651  85.8736452
  35.3530007  13.7142717  84.4619056  35.1554406  13.1212078  83.7370122
  34.7976671  13.4094928  85.1794995  43.3326730  13.6065824  86.5813649
  43.3875340  12.6539660  86.5056126  42.5217932  13.7625263  87.0654947
  44.4817924  17.5345947  77.8191932  44.0437354  16.8181806  77.3597570
  45.2228365  17.7622062  77.2577024  41.2719090  12.2242884  84.3404028
  40.4586956  12.5237054  84.7469220  41.7678084  11.8298572  85.0578510
  43.4227668  22.2200640  86.2738293  43.3803847  22.4461487  85.3446825
  44.3390367  21.9864015  86.4224094  46.8693302  12.6884708  93.1718922
  47.2242690  12.9156181  94.0313387  47.5165433  13.0203085  92.5496177
  52.5991039  15.8103144  83.8768251  52.4608937  16.0004740  82.9489440
  52.2427258  16.5722527  84.3336302  40.7633165   9.7961239  89.9565263
  41.4032544   9.6549998  89.2588226  39.9310695   9.5095752  89.5803865
  52.6260418  17.8779671  88.8879522  53.0596925  17.7854960  89.7362576
  53.3391999  17.8537171  88.2499538  41.5393469  19.0963670  86.0700255
  42.3334067  18.6013990  85.8682830  40.8285161  18.5681533  85.7067961
  46.3588313  21.4781765  90.4212623  46.4125336  22.0472701  91.1890339
  45.4903095  21.6483650  90.0566660  37.8476232  13.2406751  82.1460008
  36.9173820  13.1791207  82.3629970  37.9433704  12.7182704  81.3496649
  37.7661781   9.7661564  84.7338250  38.0268599  10.6806897  84.6247410
  38.5878954   9.2986007  84.8834862  39.2386707  11.1799321  91.9037074
  39.9109760  10.9716683  91.2549723  38.4116493  10.9821407  91.4642306
  53.4875968  17.9203372  91.4212408  53.6811858  18.8249182  91.6671683
  53.3876586  17.4610791  92.2550993  45.1412279   7.8061262  93.9202735
  44.4940194   8.5051212  93.8267211  45.9113294   8.2397406  94.2878983
  48.5491077  18.0710114  96.9953288  48.3976583  17.8420666  96.0783372
  48.5395756  19.0280716  97.0084633  45.3176413  15.6442027  91.9799555
  46.2468473  15.7953187  91.8068522  44.8967443  15.7326048  91.1248201
  44.1164745  19.6692691  89.7498092  43.9775830  19.3011476  90.6224030
  43.3279341  20.1840331  89.5782050  44.7112897  24.7701788  81.0923629
  44.8864652  24.2989831  81.9069252  44.0245685  25.3967554  81.3204890
  45.6669960  19.0474294  87.1386930  45.3319793  19.0075064  88.0344580
  45.1673906  18.3819010  86.6657340  39.6414204  14.4541924  92.6639511
  39.5034002  13.7222163  93.2651050  40.5519127  14.3650824  92.3823699
  48.6029152  16.3930329  77.4123990  47.9858322  15.6677157  77.3157042
  48.1345640  17.1539689  77.0691064  42.2696505  14.1661884  92.1523191
  42.9796123  13.5255076  92.1109809  42.2265813  14.4174778  93.0749372
  50.2583283  21.1029237  95.0729770  50.1995829  20.4188457  94.4060353
  50.6602802  21.8448227  94.6210396  40.9825439  11.1527101  93.9718830
  40.4462796  10.7017840  94.6240427  40.3942147  11.2873010  93.2289295
  39.2773982  27.9191151  87.8663489  39.5170580  28.5509675  88.5442508
  38.4343179  27.5679191  88.1528848  40.3927697  10.6115753  76.5345294
  39.5157164  10.4904554  76.1707541  40.8685451   9.8201831  76.2824183
  50.2600691  19.0668821  93.3043750  49.3727469  18.7294743  93.4270149
  50.8299242  18.3351852  93.5412515  31.9129838  15.3992913  86.6286801
  32.6000877  15.0854643  86.0407817  31.7577966  16.3034277  86.3554053
  36.7164560  10.2883109  91.0571825  36.6322748   9.6808779  90.3222235
  35.8947266  10.7792127  91.0581321  43.7901844  23.7270273  90.2704993
  43.7172015  24.5325245  90.7824298  43.3479237  23.9262239  89.4453014
  43.5791624  22.9642043  83.7807815  42.7959145  23.5063723  83.8746039
  44.2784369  23.4816023  84.1802056  46.8888274   8.7736673  86.4242020
  47.3856973   8.0206635  86.1043090  46.1175255   8.8100989  85.8585229
  54.7418031  14.4777038  88.0660311  54.7307907  15.3601754  87.6954245
  53.8735410  14.1248589  87.8714849  46.2500527  23.6257107  92.4263152
  46.9628500  24.2604572  92.3539053  45.7590556  23.7220973  91.6103154
  47.9718054  17.5308360  83.9980443  47.0374333  17.6509822  83.8285148
  48.1494723  16.6280827  83.7340453  43.4723242  10.9154056  86.1513705
  43.1021030  10.3625096  86.8394610  43.9682335  10.3112189  85.5988705
  51.3590606  13.3725679  84.5330477  51.8251058  14.2053671  84.4590780
  51.8098106  12.9070661  85.2375736  41.3012441  21.3751551  93.2468722
  42.0021900  22.0088034  93.3998117  40.8307556  21.7166282  92.4864362
  49.4266837  19.7169500  81.5316630  49.7026681  19.6026095  82.4410504
  48.5571336  19.3186985  81.4928803  49.3307268   5.7406266  88.5721379
  48.4170348   5.9710493  88.7403586  49.7600370   5.8244710  89.4235411
  49.1013727  13.9296158  91.0721273  48.4485177  14.1772066  90.4173726
  49.4794107  13.1160296  90.7383750  46.0620901  23.9655851  85.1749443
  46.2443295  23.1477507  85.6377195  46.8853887  24.1823544  84.7374333
  46.3963066  22.8924036  82.4364492  46.9250833  22.3816491  81.8234654
  46.6591286  22.5766567  83.3010025  45.1501300  14.6715969  97.5587310
  44.4741937  14.5710098  98.2289685  45.9728934  14.5155183  98.0223307
  36.8980159  20.9087906  90.1799825  37.4833596  20.1631594  90.3127729
  36.7004997  21.2191862  91.0636489  39.7518814  23.9439153  85.1962268
  39.0829189  24.4285281  84.7126308  39.6131684  24.1908374  86.1105646
  31.4897814  13.4793506  88.9004268  31.5281913  12.9457097  89.6941386
  30.9838107  12.9528711  88.2815246  43.8924083  25.9782897  91.7944926
  44.4442391  26.1414518  92.5594011  44.2330276  26.5687334  91.1224951
  38.8688576   8.3258046  92.3966811  38.9329903   9.1872877  91.9844208
  38.8055696   7.7132048  91.6639169  48.7434957  20.8044154  97.6493580
  49.2874861  21.4174112  97.1548535  48.1621802  21.3623733  98.1660593
  35.1206391  12.2057608  81.9758200  35.4159832  11.2968286  81.9225253
  34.2194427  12.1845348  81.6539202  47.0292470  23.9264872  88.7808608
  46.9043610  23.1254612  88.2719554  47.6871561  24.4211066  88.2922578
  38.6500638  10.2813605  87.9585748  37.9287224  10.8949572  87.8193222
  39.4393894  10.8171369  87.8802394  49.0927378  21.7273892  90.4088158
  48.1457714  21.6079243  90.3366485  49.4410152  20.8396390  90.4914420
  41.4526952   7.6168031  94.2326400  41.9761354   7.8630328  94.9952709
  41.2339285   8.4488066  93.8129537  36.8494233   9.8871706  82.0997525
  36.5206939   9.0069085  81.9172631  37.2033604   9.8319374  82.9873914
  46.0973812  21.5226608  86.6092510  45.9498774  20.5943316  86.7900080
  46.9227305  21.5446699  86.1249586  39.9636056  10.1744676  82.4673003
  40.3032129  10.7030597  81.7451611  40.4108177  10.5125082  83.2431569
  49.7007934  22.3455167  87.6957383  50.6254481  22.1398029  87.5581834
  49.5323237  22.0971568  88.6046725  42.6579497   8.5581726  91.9176071
  42.3176317   7.7589539  92.3196750  41.9518503   8.8583437  91.3452904
  43.3095969   5.6431039  90.3703394  44.1322038   5.1691517  90.2482284
  43.5534032   6.4221522  90.8702080  41.9504203   8.6719297  80.6666295
  42.6712566   9.0500550  80.1630012  41.3269507   9.3908174  80.7701273
  46.0935326   9.3764446  81.6024628  46.3098940  10.2589084  81.3013456
  45.6129393   8.9850660  80.8730270  40.8334547  12.3350159  88.1795372
  40.6879128  12.6490462  89.0719654  40.3559751  12.9535060  87.6266271
  42.6930930   9.3252707  88.2276262  42.6792499   8.4293801  87.8908560
  43.4103358   9.3323371  88.8614548  44.5457061   9.7590048  90.2729389
  44.2874839  10.6807118  90.2713720  44.0142101   9.3620482  90.9629853
  49.4903250  22.8640835  83.0519475  49.6640127  22.2987257  82.2993327
  49.9832141  23.6641730  82.8698965  35.3080210  14.8755504  91.1183033
  34.7633678  15.6515312  91.2503308  36.1859560  15.2226308  90.9602155
  42.0967826   8.2067088  83.4963832  42.2183737   7.2783734  83.6954719
  41.8069869   8.2205774  82.5842147  44.9659017   5.8921998  86.6330552
  44.9880713   5.9561331  85.6782531  45.3827076   5.0526507  86.8271058
  55.3442641  15.6277258  84.6709774  55.7873787  14.8784583  84.2728898
  54.4669151  15.6187394  84.2883506  50.4778422  22.1807599  80.1516373
  51.1729327  22.8014292  80.3703688  50.8201572  21.3302950  80.4268751
  36.0946231  14.0025400  94.0113190  35.3527968  14.1508035  94.5977821
  35.7738976  14.2633666  93.1479940  52.3769845  19.6307305  81.6803704
  52.9021170  19.9694577  80.9553024  52.2892198  18.6954320  81.4966838
  44.0389894  23.5441378  93.8093580  44.3477021  23.2990525  94.6816280
  44.8365376  23.7488017  93.3212451  44.0610506  25.6979288  86.0398957
  43.6215496  25.2055667  86.7331814  44.8118623  25.1552256  85.7991032
  36.5402845  21.8890829  86.0423585  37.3660865  21.5894601  85.6622228
  36.1896897  21.1198451  86.4913374  41.5084378  21.2417297  88.1121259
  40.8864388  20.5788002  87.8123486  42.1789245  21.2678429  87.4294906
  34.7411450  19.8077155  87.0012519  33.9043359  19.3799330  86.8196520
  34.7135096  20.0009599  87.9383310  52.0663752  20.2640208  96.9854902
  51.2759295  20.2464347  96.4459401  51.8297106  20.8028502  97.7403938
  52.1861627  17.1132675  94.2987630  52.2359631  16.9482682  95.2403153
  52.0775550  16.2459934  93.9085511  41.0697885  19.7921220  81.5879719
  41.2186006  20.4756685  80.9346392  41.8764329  19.7726310  82.1029175
  49.4765389  13.0963603  95.6146937  50.3775252  12.9570067  95.3230935
  49.5513363  13.2618057  96.5545114  43.8108194  10.4730457  94.4600123
  42.9411504  10.7664023  94.1882712  44.0467675  11.0570902  95.1807387
  53.6879823  19.5329616  94.5429652  53.3964632  19.8959597  95.3793113
  53.0751955  18.8196624  94.3642984  54.8875506  17.0982496  87.0632222
  55.7222397  17.5372300  87.2269782  55.0234634  16.6221149  86.2440468
  51.9367012  14.6562231  93.0109710  52.4121133  14.8489877  92.2028561
  51.0132577  14.7121417  92.7653093  38.8250518  15.8186398  82.5940788
  38.5796560  14.9148728  82.7920998  38.9946433  15.8203548  81.6520266
  46.5147228   6.6910074  91.9765544  47.0329172   7.4271101  91.6512032
  46.1602361   6.9974068  92.8112303  38.0946166  11.5514755  80.0926949
  37.4015411  11.6259110  79.4366985  37.8497918  10.7875099  80.6148466
  46.7659822   3.1110357  87.4966440  47.0461576   2.4433546  88.1226867
  47.5510429   3.3039452  86.9841104  44.5693291  22.2869351  79.0591466
  43.9967258  22.9059538  78.6061938  45.1426084  22.8368712  79.5931388
  50.6368681  11.5327991  91.2438015  51.5886104  11.6326088  91.2650239
  50.4672131  10.7406259  91.7536100  48.6583060   8.6183574  91.4297416
  48.0632992   8.8988587  90.7343905  48.3732757   9.1077475  92.2014157
  47.7890551  22.5706501  80.1900049  48.7221224  22.5052063  80.3932924
  47.7013763  23.4062768  79.7314581  50.4178567  21.8872371  77.1503996
  50.3392199  21.5532235  78.0439754  51.2388234  22.3794139  77.1495469
  53.1156758  14.7534111  90.3580315  53.0833079  13.8150111  90.5439999
  53.7257382  14.8318147  89.6246140  44.9540089  13.6230163  76.4007519
  45.8999194  13.4936372  76.4695937  44.5754334  12.8844825  76.8776947
  53.2651247  11.5445154  90.4038598  52.7490296  10.7603611  90.2168527
  54.1491195  11.2163871  90.5685118  50.9261974   5.2886170  86.3634411
  50.7286795   4.9801258  87.2477743  51.5361679   6.0147808  86.4932341
  58.9333308  15.8150117  89.4986352  59.6636697  15.5535405  90.0594055
  58.3240254  15.0778839  89.5388420  57.0148605  13.9557980  90.0960803
  56.2881769  13.8213945  89.4877295  56.5995892  14.2634809  90.9017521
  44.8378782  17.6747910  97.8608176  45.7581791  17.8526509  98.0548222
  44.8028365  16.7303955  97.7087875  43.1383006  11.5480140  76.3362404
  42.2314462  11.2513253  76.4125118  43.4158987  11.2509958  75.4696690
  34.0560947  12.8686503  86.7861451  33.7363731  12.0151811  86.4935825
  33.5094375  13.0835081  87.5419418  37.8340854  15.5848944  90.5030957
  38.0526864  16.5166052  90.5218991  38.2466628  15.2256919  91.2885761
  44.7545072   6.0917030  82.4906645  43.9445800   5.7464115  82.8661892
  45.4429489   5.7824573  83.0794257  46.6835620   5.1695076  84.1130942
  47.2366659   5.5890530  84.7720965  46.9205707   4.2430824  84.1553898
  41.9081791   8.4067075  76.4774383  42.7700955   8.7321973  76.7370201
  42.0932135   7.6198571  75.9647449  33.9249207  16.4889415  88.7554572
  33.2312678  16.0743368  88.2424527  34.6722198  16.5309951  88.1587991
  50.0614428   7.2795602  83.6209606  49.4813097   7.9380406  83.2387659
  49.7950360   6.4572946  83.2097024  48.5117994   6.6800659  85.8230927
  49.0117772   6.7917194  85.0145246  49.1553602   6.3761712  86.4631735
  42.5699990  14.5879289  98.7098768  42.0867071  15.3879649  98.9162657
  42.6560929  14.5987234  97.7566212  35.8385949  16.4207669  86.6320587
  35.8156637  16.5195356  85.6802470  36.1486586  17.2672819  86.9537753
  38.4973327  18.4783824  90.7467201  39.4516581  18.4467766  90.6797133
  38.2985851  18.0174447  91.5617427  39.0872709  17.0484940  93.3137999
  39.9065598  17.5429018  93.3372836  39.3609517  16.1316908  93.2855567
  48.8439306   9.4395692  82.6765955  47.9565161   9.7245343  82.4586149
  49.2593295   9.2789455  81.8293232  52.1953842   9.4642213  86.3920294
  52.9714232   9.9538665  86.6644911  51.4701976   9.8900267  86.8492163
  54.6326400  10.1769832  87.4494235  55.2270891   9.9365568  86.7387543
  54.7052984   9.4576963  88.0767771  36.8523556  24.0203443  87.7637399
  36.7178024  23.2603844  87.1975397  36.4355618  24.7444343  87.2966188
  47.9882519  19.2040367  76.7713975  48.6918369  19.4090369  77.3871630
  47.2645168  19.7717128  77.0363058  48.8180329  14.9550228  82.8916245
  48.7615531  15.4118779  82.0523877  49.3708672  14.1940912  82.7139088
  52.6285135  10.7439960  83.7166364  52.3722069  10.3436595  84.5474572
  52.0038003  11.4583754  83.5916503  56.9397473  13.4836033  86.2237656
  56.3797031  13.5529222  86.9969218  56.3340976  13.3077018  85.5037152
  40.0092682  24.9172760  87.9755842  39.8925066  25.8618193  87.8734532
  39.1885128  24.6146322  88.3641641  49.8969216  19.6422896  78.8212435
  50.7314820  19.2104094  78.6389909  49.7353559  19.4704909  79.7489329
  49.5515109  16.1455009  80.1868774  49.4963912  15.9799281  79.2457218
  48.9261164  16.8531042  80.3430964  34.3407624  11.3823073  94.0130196
  34.9866487  10.8722027  94.5017421  34.1324775  12.1191755  94.5873621
  46.8661016  18.4503921  99.5122337  47.7352175  18.6244573  99.1508972
  46.3867767  19.2698338  99.3898066  42.8611234   5.6463118  79.7654092
  42.8489904   6.5904958  79.9222363  43.7534656   5.4633264  79.4713554
  41.0347196  25.5701022  91.1911770  41.9374443  25.6024632  91.5078265
  40.8084566  24.6401473  91.2058106  42.7900798  24.3232009  87.8521849
  41.8396429  24.3233870  87.7386221  43.0933284  23.5764743  87.3357884
  46.6763354   2.2405895  84.0200029  45.9095749   1.6864381  84.1656712
  47.0874058   2.3127764  84.8814181  58.5253492  30.1592547  88.9167611
  59.1631901  30.0399294  88.2130952  58.4074334  31.1073391  88.9755564
  55.3343198  30.1119975  88.8529136  54.9961709  29.9961040  87.9649671
  56.2032966  29.7111140  88.8330142  51.1930013  31.9655451  84.8426027
  50.6294879  31.8745388  84.0742315  51.0782409  31.1455356  85.3228520
  55.8162981  31.2654827  94.8115342  55.8051622  30.8707625  93.9395845
  55.9783620  30.5320899  95.4049113  48.7394445  33.4606643  87.6810248
  49.5315737  33.1197468  87.2656547  48.9791096  33.5701618  88.6012401
  56.7729572  35.6326419  80.1540492  56.1217552  36.2180500  79.7674506
  57.5673935  36.1632614  80.2135529  50.6985199  32.7215556  80.5527626
  51.4716075  32.1744543  80.4140502  51.0510598  33.5859806  80.7642088
  52.5370242  34.0491939  93.7594526  52.2460108  34.9537569  93.6441192
  53.1727226  34.0908466  94.4738595  53.4626449  31.4268787  90.3495885
  54.0590021  31.2024809  89.6352848  53.5201420  30.6853533  90.9521333
  53.0351477  28.8808222  78.1846076  53.2876998  28.3589744  77.4229539
  52.0976036  28.7174368  78.2872760  58.0794760  27.8844001  85.9920819
  58.8657849  27.4663424  85.6411236  58.3433464  28.7890093  86.1602468
  58.2504837  33.3216851  80.6909476  57.6150670  33.3951478  81.4030381
  57.9202244  33.9110450  80.0128556  63.4803187  27.8219234  86.8953798
  64.2128359  27.2518451  87.1291627  62.7242543  27.4340834  87.3360304
  52.7547766  30.7836328  80.3870451  52.6384024  30.1081232  81.0551536
  52.8650026  30.2968702  79.5702604  55.0979307  30.2446475  84.0917140
  54.7337514  29.7177096  84.8030062  55.9546423  29.8544945  83.9183626
  61.0028607  21.5340808  91.3548407  60.6711932  22.4036219  91.1309622
  60.4074221  21.2177092  92.0342437  54.7384794  25.2736375  79.0878489
  54.9059196  26.1416612  79.4548960  54.5481963  25.4363657  78.1639778
  57.4960127  33.7353354  90.7544319  57.1960850  34.6378393  90.6460127
  57.1511187  33.4685537  91.6065472  50.9472608  30.1867151  86.7881024
  50.0223105  30.0543365  86.9958716  51.1957022  30.9661370  87.2850966
  60.8957271  26.2535894  88.4341757  59.9874148  26.1851303  88.1400518
  60.8444867  26.7307839  89.2623582  54.7174015  27.7294033  80.0725156
  54.5973640  28.1751083  80.9110636  54.0226603  28.0779350  79.5138694
  48.3081420  29.8300424  87.6224813  48.4373801  30.0834903  88.5364225
  47.6278871  30.4228132  87.3029468  52.4780907  40.4997674  83.7215287
  52.4004936  41.4505499  83.8003768  51.8742550  40.1543547  84.3790213
  54.9698137  27.6725540  96.3776654  54.1931471  28.2319460  96.3679519
  55.6088700  28.1582323  96.8991524  62.7618917  24.4552333  90.2119631
  62.1193297  24.7484866  89.5659425  62.2573846  24.3405253  91.0172827
  60.4159081  28.2015506  80.9005490  61.3276937  28.4342893  80.7253187
  59.9068728  28.7852550  80.3380568  53.2244509  30.4810993  95.9394621
  53.9659193  31.0196037  95.6629445  52.5181494  31.1077282  96.0966173
  58.6999849  32.6240134  94.5366782  59.1083205  32.1822544  93.7921415
  57.9777110  32.0492761  94.7900975  55.0530919  27.5612740  91.9100339
  55.8992114  27.9852154  92.0534988  54.9929556  26.9046365  92.6038902
  59.0228663  33.1841324  88.2919071  58.3937526  33.3487038  87.5895139
  58.6354325  33.5982934  89.0630035  62.9017895  34.1195762  85.6463435
  62.2168933  34.4994663  85.0960468  62.9861744  34.7291089  86.3795383
  58.2030364  25.2217109  93.5681513  57.9591296  25.9759169  93.0315789
  58.4790294  25.6002456  94.4028760  60.1568827  31.7655721  92.2458779
  60.3685722  32.4087481  91.5693160  60.1098575  30.9318038  91.7780709
  57.7595056  24.3773542  89.1495351  56.8979535  24.6754795  89.4412088
  57.7857490  24.5943941  88.2176383  54.5756625  32.9215732  85.5569156
  55.0394971  33.2003435  84.7673779  54.3113423  32.0199177  85.3742247
  51.4680706  32.4687214  88.4948920  52.0382063  32.8974482  87.8566404
  52.0588818  32.1869799  89.1933105  53.5125511  29.0438885  82.3658722
  54.2149554  29.4959928  82.8332648  53.1806140  28.4022704  82.9938615
  51.9605873  27.6350641  96.7409931  51.3304533  28.3166922  96.9745328
  51.8541961  27.5233723  95.7963069  47.2550845  27.3022437  87.6675855
  46.4649899  27.5579966  87.1915966  47.7462092  28.1170775  87.7727896
  61.2714655  34.6427677  90.4181136  62.0932098  34.2407864  90.1363818
  61.2677057  34.5395911  91.3697252  49.2065590  27.6667017  84.6259332
  48.4096754  27.7785711  85.1442827  48.9791183  28.0053669  83.7600222
  55.0371258  34.1911720  92.5741846  55.1015691  34.6532127  93.4100018
  54.3282182  33.5609085  92.7024156  45.5388548  27.5552928  90.0990846
  45.7896586  28.4399938  90.3648422  46.0748096  27.3757529  89.3265938
  69.3620648  30.9866425  86.7666107  68.6084356  30.4173823  86.6110112
  69.4968189  30.9529090  87.7136742  54.7519276  35.8579827  82.4420827
  54.6164951  36.7031363  82.8705675  55.2929088  36.0599105  81.6786761
  51.2386615  21.9371407  99.1035182  50.8453561  21.3837606  99.7782826
  52.0552756  22.2481986  99.4941699  48.2048673  33.3755265  83.0148752
  48.7173194  34.1698516  83.1654317  48.8571386  32.6781556  82.9482353
  50.0143558  36.4921022  85.0971505  50.1910186  37.4138986  84.9092489
  50.8100391  36.1779441  85.5265885  54.1554576  23.3529286  96.6955439
  54.8964290  23.9536439  96.6159901  54.3872499  22.6106924  96.1373481
  49.2995914  28.5385654  94.9733668  49.1849429  27.6370911  95.2740767
  48.4440432  28.7849350  94.6218485  56.3787752  36.4803394  96.5721169
  55.9351606  35.6939772  96.2542073  57.0404966  36.6682544  95.9065060
  51.1374873  38.0099195  91.0981847  51.6882298  37.8816259  90.3258841
  50.2986349  38.3094084  90.7476740  58.4768990  36.7606194  94.6002570
  58.4587466  37.5815075  94.1082839  59.3988910  36.6360269  94.8252711
  54.9342044  34.2750323  95.4426078  55.4670381  33.5138611  95.2125386
  54.4056125  33.9823975  96.1850233  58.1011739  19.3810389  90.9719720
  57.7576009  20.2712031  90.8958831  58.4690702  19.1912047  90.1089305
  46.1697590  31.7043920  83.7908322  47.0072812  32.1140928  83.5742030
  46.3475858  30.7643362  83.7608516  58.0662022  29.3719000  79.4792155
  57.5508645  30.1423605  79.7180543  57.7939330  28.6984137  80.1025217
  55.6509133  24.2168701  84.5377394  54.7950729  23.8275552  84.3583032
  56.0636085  24.2960662  83.6777179  57.1808280  21.7515044  88.9368953
  56.6773075  21.7145180  88.1236759  57.4738887  22.6607787  88.9965610
  53.4251166  21.8353774  87.9435135  54.2904162  21.6396583  87.5841025
  53.4928674  21.6064126  88.8704492  63.0396296  32.1251355  81.4145329
  62.2625739  31.7862514  80.9700491  63.7187777  32.1303978  80.7400294
  57.8548325  27.2446092  81.3051936  57.5498461  27.5592242  82.1562080
  58.8078767  27.3227512  81.3479269  56.2994757  33.4036316  82.9544890
  55.7716119  32.6689075  82.6418128  55.7982260  34.1810992  82.7084859
  61.2787603  31.5985336  88.0711937  60.6211277  32.2884598  88.1592065
  62.0828002  31.9881768  88.4145923  51.0313485  24.0655982  85.3151502
  51.6057237  23.8431164  84.5824695  51.6184467  24.1344677  86.0680103
  60.0893062  29.9529709  86.1215879  60.6024944  30.5859701  86.6237588
  60.7394286  29.3530904  85.7559239  51.3583072  26.0960443  79.3347387
  50.5220384  26.4335130  79.6556662  51.2187841  25.9609423  78.3974524
  53.3336152  20.9397231  84.0426571  52.6800565  20.6246248  83.4183186
  53.2916626  20.3172971  84.7686394  54.4447357  31.2216526  75.9579864
  53.5374419  30.9905779  76.1571012  54.9418389  30.4254145  76.1453845
  57.3515436  39.9314033  78.8776550  56.6777135  40.2345730  79.4861508
  57.7381258  40.7343114  78.5282007  56.5673893  27.4279164  88.3674219
  55.6496454  27.6494111  88.2095907  56.9834036  27.5025475  87.5085926
  57.3508940  28.8270580  83.4976899  58.0980759  29.3391977  83.1884021
  57.6200530  28.5054633  84.3581293  55.6235591  31.3229121  80.4803854
  54.7146810  31.0388154  80.5776323  55.6530674  31.7428199  79.6207160
  60.8554858  34.9335710  84.2495021  60.4017185  34.0926620  84.3060212
  60.2248825  35.5697109  84.5869801  59.7987778  25.8627696  85.4795689
  59.0610534  25.3505083  85.8105931  60.0514551  25.4228078  84.6678965
  59.2987797  36.7712207  85.1844839  59.5910772  37.3317264  84.4657205
  59.8086418  37.0640768  85.9397998  59.8999405  18.6403948  86.0737458
  60.2058282  17.7801312  85.7863373  60.6252010  19.2321569  85.8736452
  46.1923761  29.0434635  84.4619056  45.9948161  28.4503996  83.7370122
  45.6370425  28.7386845  85.1794995  54.1720485  28.9357741  86.5813649
  54.2269094  27.9831578  86.5056126  53.3611687  29.0917181  87.0654947
  55.3211678  32.8637865  77.8191932  54.8831108  32.1473723  77.3597570
  56.0622119  33.0913979  77.2577024  52.1112845  27.5534801  84.3404028
  51.2980710  27.8528972  84.7469220  52.6071839  27.1590490  85.0578510
  54.2621422  37.5492558  86.2738293  54.2197601  37.7753404  85.3446825
  55.1784121  37.3155933  86.4224094  57.7087056  28.0176626  93.1718922
  58.0636444  28.2448099  94.0313387  58.3559188  28.3495002  92.5496177
  63.4384793  31.1395062  83.8768251  63.3002692  31.3296658  82.9489440
  63.0821012  31.9014444  84.3336302  51.6026919  25.1253157  89.9565263
  52.2426299  24.9841916  89.2588226  50.7704450  24.8387670  89.5803865
  63.4654173  33.2071589  88.8879522  63.8990680  33.1146878  89.7362576
  64.1785754  33.1829089  88.2499538  52.3787223  34.4255587  86.0700255
  53.1727822  33.9305907  85.8682830  51.6678916  33.8973450  85.7067961
  57.1982068  36.8073683  90.4212623  57.2519090  37.3764619  91.1890339
  56.3296849  36.9775568  90.0566660  48.6869987  28.5698669  82.1460008
  47.7567575  28.5083124  82.3629970  48.7827459  28.0474622  81.3496649
  48.6055536  25.0953482  84.7338250  48.8662353  26.0098815  84.6247410
  49.4272708  24.6277924  84.8834862  50.0780461  26.5091239  91.9037074
  50.7503515  26.3008601  91.2549723  49.2510248  26.3113325  91.4642306
  64.3269722  33.2495289  91.4212408  64.5205612  34.1541100  91.6671683
  64.2270341  32.7902708  92.2550993  55.9806033  23.1353180  93.9202735
  55.3333948  23.8343129  93.8267211  56.7507049  23.5689324  94.2878983
  59.3884831  33.4002032  96.9953288  59.2370337  33.1712584  96.0783372
  59.3789511  34.3572633  97.0084633  56.1570167  30.9733945  91.9799555
  57.0862227  31.1245104  91.8068522  55.7361197  31.0617966  91.1248201
  54.9558499  34.9984609  89.7498092  54.8169585  34.6303394  90.6224030
  54.1673095  35.5132249  89.5782050  55.5506651  40.0993706  81.0923629
  55.7258407  39.6281749  81.9069252  54.8639439  40.7259472  81.3204890
  56.5063714  34.3766212  87.1386930  56.1713547  34.3366982  88.0344580
  56.0067660  33.7110928  86.6657340  50.4807958  29.7833842  92.6639511
  50.3427756  29.0514081  93.2651050  51.3912882  29.6942742  92.3823699
  59.4422906  31.7222246  77.4123990  58.8252077  30.9969074  77.3157042
  58.9739395  32.4831606  77.0691064  53.1090259  29.4953801  92.1523191
  53.8189878  28.8546993  92.1109809  53.0659567  29.7466696  93.0749372
  61.0977038  36.4321155  95.0729770  61.0389584  35.7480375  94.4060353
  61.4996556  37.1740145  94.6210396  51.8219193  26.4819019  93.9718830
  51.2856550  26.0309758  94.6240427  51.2335901  26.6164928  93.2289295
  50.1167737  43.2483068  87.8663489  50.3564335  43.8801593  88.5442508
  49.2736933  42.8971108  88.1528848  51.2321452  25.9407671  76.5345294
  50.3550918  25.8196471  76.1707541  51.7079205  25.1493749  76.2824183
  61.0994445  34.3960739  93.3043750  60.2121224  34.0586660  93.4270149
  61.6692996  33.6643770  93.5412515  42.7523592  30.7284830  86.6286801
  43.4394632  30.4146560  86.0407817  42.5971721  31.6326195  86.3554053
  47.5558314  25.6175027  91.0571825  47.4716503  25.0100696  90.3222235
  46.7341021  26.1084045  91.0581321  54.6295598  39.0562191  90.2704993
  54.5565770  39.8617162  90.7824298  54.1872991  39.2554157  89.4453014
  54.4185378  38.2933961  83.7807815  53.6352900  38.8355641  83.8746039
  55.1178123  38.8107941  84.1802056  57.7282028  24.1028590  86.4242020
  58.2250728  23.3498553  86.1043090  56.9569010  24.1392907  85.8585229
  65.5811786  29.8068956  88.0660311  65.5701662  30.6893671  87.6954245
  64.7129165  29.4540507  87.8714849  57.0894282  38.9549025  92.4263152
  57.8022254  39.5896490  92.3539053  56.5984311  39.0512891  91.6103154
  58.8111809  32.8600278  83.9980443  57.8768088  32.9801740  83.8285148
  58.9888477  31.9572744  83.7340453  54.3116997  26.2445973  86.1513705
  53.9414784  25.6917014  86.8394610  54.8076089  25.6404107  85.5988705
  62.1984360  28.7017597  84.5330477  62.6644812  29.5345588  84.4590780
  62.6491861  28.2362578  85.2375736  52.1406195  36.7043468  93.2468722
  52.8415655  37.3379951  93.3998117  51.6701310  37.0458200  92.4864362
  60.2660591  35.0461418  81.5316630  60.5420435  34.9318013  82.4410504
  59.3965090  34.6478903  81.4928803  60.1701023  21.0698184  88.5721379
  59.2564103  21.3002411  88.7403586  60.5994124  21.1536628  89.4235411
  59.9407481  29.2588076  91.0721273  59.2878932  29.5063983  90.4173726
  60.3187861  28.4452214  90.7383750  56.9014655  39.2947769  85.1749443
  57.0837050  38.4769425  85.6377195  57.7247641  39.5115461  84.7374333
  57.2356821  38.2215954  82.4364492  57.7644587  37.7108409  81.8234654
  57.4985040  37.9058484  83.3010025  55.9895054  30.0007887  97.5587310
  55.3135691  29.9002016  98.2289685  56.8122688  29.8447101  98.0223307
  47.7373913  36.2379823  90.1799825  48.3227350  35.4923511  90.3127729
  47.5398752  36.5483780  91.0636489  50.5912569  39.2731071  85.1962268
  49.9222944  39.7577198  84.7126308  50.4525438  39.5200291  86.1105646
  42.3291568  28.8085424  88.9004268  42.3675668  28.2749014  89.6941386
  41.8231861  28.2820629  88.2815246  54.7317837  41.3074814  91.7944926
  55.2836145  41.4706436  92.5594011  55.0724031  41.8979252  91.1224951
  49.7082331  23.6549964  92.3966811  49.7723657  24.5164795  91.9844208
  49.6449451  23.0423966  91.6639169  49.1834603  25.7273097  96.0439845
  49.8106642  25.3450174  96.6577369  48.3262522  25.5087299  96.4095537
  59.5828712  36.1336072  97.6493580  60.1268616  36.7466030  97.1548535
  59.0015556  36.6915650  98.1660593  45.9600146  27.5349526  81.9758200
  46.2553587  26.6260204  81.9225253  45.0588182  27.5137265  81.6539202
  57.8686225  39.2556790  88.7808608  57.7437364  38.4546530  88.2719554
  58.5265316  39.7502983  88.2922578  49.4894393  25.6105522  87.9585748
  48.7680979  26.2241490  87.8193222  50.2787649  26.1463287  87.8802394
  59.9321133  37.0565810  90.4088158  58.9851468  36.9371161  90.3366485
  60.2803906  36.1688308  90.4914420  52.2920706  22.9459949  94.2326400
  52.8155108  23.1922245  94.9952709  52.0733040  23.7779984  93.8129537
  47.6887987  25.2163623  82.0997525  47.3600694  24.3361002  81.9172631
  48.0427358  25.1611292  82.9873914  56.9367566  36.8518526  86.6092510
  56.7892529  35.9235234  86.7900080  57.7621060  36.8738617  86.1249586
  50.8029811  25.5036593  82.4673003  51.1425883  26.0322514  81.7451611
  51.2501931  25.8416999  83.2431569  60.5401688  37.6747085  87.6957383
  61.4648236  37.4689946  87.5581834  60.3716991  37.4263486  88.6046725
  53.4973251  23.8873644  91.9176071  53.1570072  23.0881457  92.3196750
  52.7912258  24.1875355  91.3452904  54.1489723  20.9722956  90.3703394
  54.9715793  20.4983435  90.2482284  54.3927787  21.7513440  90.8702080
  52.7897958  24.0011215  80.6666295  53.5106320  24.3792468  80.1630012
  52.1663262  24.7200092  80.7701273  56.9329081  24.7056364  81.6024628
  57.1492695  25.5881002  81.3013456  56.4523148  24.3142577  80.8730270
  51.6728302  27.6642077  88.1795372  51.5272883  27.9782380  89.0719654
  51.1953506  28.2826977  87.6266271  53.5324685  24.6544625  88.2276262
  53.5186254  23.7585718  87.8908560  54.2497113  24.6615289  88.8614548
  55.3850816  25.0881965  90.2729389  55.1268593  26.0099036  90.2713720
  54.8535856  24.6912400  90.9629853  60.3297004  38.1932752  83.0519475
  60.5033882  37.6279175  82.2993327  60.8225896  38.9933647  82.8698965
  46.1473964  30.2047421  91.1183033  45.6027432  30.9807229  91.2503308
  47.0253314  30.5518226  90.9602155  52.9361581  23.5359005  83.4963832
  53.0577492  22.6075651  83.6954719  52.6463623  23.5497691  82.5842147
  55.8052771  21.2213916  86.6330552  55.8274468  21.2853249  85.6782531
  56.2220830  20.3818424  86.8271058  66.1836395  30.9569175  84.6709774
  66.6267542  30.2076500  84.2728898  65.3062906  30.9479312  84.2883506
  61.3172177  37.5099517  80.1516373  62.0123081  38.1306209  80.3703688
  61.6595327  36.6594868  80.4268751  46.9339986  29.3317318  94.0113190
  46.1921722  29.4799953  94.5977821  46.6132730  29.5925583  93.1479940
  63.2163600  34.9599222  81.6803704  63.7414924  35.2986495  80.9553024
  63.1285952  34.0246238  81.4966838  54.8783649  38.8733296  93.8093580
  55.1870775  38.6282443  94.6816280  55.6759131  39.0779934  93.3212451
  54.9004261  41.0271206  86.0398957  54.4609251  40.5347584  86.7331814
  55.6512378  40.4844173  85.7991032  47.3796600  37.2182746  86.0423585
  48.2054620  36.9186518  85.6622228  47.0290652  36.4490369  86.4913374
  52.3478133  36.5709215  88.1121259  51.7258142  35.9079920  87.8123486
  53.0183000  36.5970346  87.4294906  45.5805205  35.1369073  87.0012519
  44.7437113  34.7091247  86.8196520  45.5528850  35.3301516  87.9383310
  52.4202660  25.0491003  97.7053765  52.4690816  25.9253125  97.3231534
  52.9625175  24.5068396  97.1325408  62.9057506  35.5932126  96.9854902
  62.1153050  35.5756265  96.4459401  62.6690861  36.1320420  97.7403938
  63.0255381  32.4424592  94.2987630  63.0753386  32.2774600  95.2403153
  62.9169304  31.5751851  93.9085511  51.9091640  35.1213138  81.5879719
  52.0579760  35.8048602  80.9346392  52.7158083  35.1018228  82.1029175
  60.3159143  28.4255520  95.6146937  61.2169006  28.2861985  95.3230935
  60.3907118  28.5909975  96.5545114  54.6501949  25.8022375  94.4600123
  53.7805258  26.0955941  94.1882712  54.8861429  26.3862820  95.1807387
  64.5273578  34.8621534  94.5429652  64.2358386  35.2251514  95.3793113
  63.9145709  34.1488542  94.3642984  65.7269260  32.4274414  87.0632222
  66.5616152  32.8664218  87.2269782  65.8628389  31.9513067  86.2440468
  62.7760766  29.9854148  93.0109710  63.2514888  30.1781795  92.2028561
  61.8526331  30.0413334  92.7653093  49.6644273  31.1478316  82.5940788
  49.4190315  30.2440646  82.7920998  49.8340187  31.1495466  81.6520266
  57.3540983  22.0201992  91.9765544  57.8722926  22.7563019  91.6512032
  56.9996115  22.3265985  92.8112303  48.9339920  26.8806673  80.0926949
  48.2409165  26.9551028  79.4366985  48.6891672  26.1167017  80.6148466
  57.6053577  18.4402274  87.4966440  57.8855331  17.7725464  88.1226867
  58.3904184  18.6331370  86.9841104  55.4087045  37.6161268  79.0591466
  54.8361012  38.2351456  78.6061938  55.9819839  38.1660630  79.5931388
  61.4762435  26.8619908  91.2438015  62.4279858  26.9618006  91.2650239
  61.3065886  26.0698177  91.7536100  59.4976815  23.9475492  91.4297416
  58.9026747  24.2280504  90.7343905  59.2126511  24.4369393  92.2014157
  58.6284305  37.8998419  80.1900049  59.5614978  37.8343980  80.3932924
  58.5407518  38.7354685  79.7314581  61.2572322  37.2164289  77.1503996
  61.1785953  36.8824152  78.0439754  62.0781989  37.7086057  77.1495469
  63.9550513  30.0826028  90.3580315  63.9226833  29.1442029  90.5439999
  64.5651137  30.1610065  89.6246140  55.7933844  28.9522081  76.4007519
  56.7392948  28.8228289  76.4695937  55.4148089  28.2136743  76.8776947
  64.1045001  26.8737072  90.4038598  63.5884050  26.0895528  90.2168527
  64.9884950  26.5455788  90.5685118  61.7655728  20.6178087  86.3634411
  61.5680549  20.3093175  87.2477743  62.3755434  21.3439726  86.4932341
  69.7727063  31.1442035  89.4986352  70.5030451  30.8827323  90.0594055
  69.1634008  30.4070757  89.5388420  67.8542360  29.2849898  90.0960803
  67.1275523  29.1505863  89.4877295  67.4389647  29.5926726  90.9017521
  55.6772536  33.0039827  97.8608176  56.5975546  33.1818426  98.0548222
  55.6422119  32.0595873  97.7087875  53.9776761  26.8772058  76.3362404
  53.0708216  26.5805170  76.4125118  54.2552742  26.5801876  75.4696690
  44.8954701  28.1978421  86.7861451  44.5757486  27.3443729  86.4935825
  44.3488129  28.4126999  87.5419418  48.6734609  30.9140862  90.5030957
  48.8920619  31.8457970  90.5218991  49.0860383  30.5548836  91.2885761
  55.5938827  21.4208947  82.4906645  54.7839555  21.0756032  82.8661892
  56.2823244  21.1116491  83.0794257  57.5229375  20.4986994  84.1130942
  58.0760414  20.9182447  84.7720965  57.7599461  19.5722742  84.1553898
  53.5462474  26.4874068  99.8933706  53.4459201  27.4368425  99.8245797
  53.3284016  26.1592307  99.0209776  52.7475546  23.7358993  76.4774383
  53.6094710  24.0613891  76.7370201  52.9325890  22.9490489  75.9647449
  44.7642961  31.8181332  88.7554572  44.0706433  31.4035285  88.2424527
  45.5115952  31.8601869  88.1587991  60.9008182  22.6087519  83.6209606
  60.3206851  23.2672323  83.2387659  60.6344115  21.7864864  83.2097024
  59.3511748  22.0092577  85.8230927  59.8511527  22.1209111  85.0145246
  59.9947356  21.7053630  86.4631735  53.4093744  29.9171207  98.7098768
  52.9260826  30.7171567  98.9162657  53.4954683  29.9279151  97.7566212
  46.6779704  31.7499586  86.6320587  46.6550392  31.8487273  85.6802470
  46.9880340  32.5964737  86.9537753  49.3367082  33.8075741  90.7467201
  50.2910335  33.7759684  90.6797133  49.1379605  33.3466365  91.5617427
  49.9266464  32.3776857  93.3137999  50.7459353  32.8720936  93.3372836
  50.2003272  31.4608825  93.2855567  59.6833060  24.7687610  82.6765955
  58.7958915  25.0537260  82.4586149  60.0987049  24.6081373  81.8293232
  63.0347596  24.7934131  86.3920294  63.8107986  25.2830583  86.6644911
  62.3095730  25.2192185  86.8492163  65.4720155  25.5061750  87.4494235
  66.0664646  25.2657486  86.7387543  65.5446738  24.7868880  88.0767771
  47.6917310  39.3495361  87.7637399  47.5571778  38.5895762  87.1975397
  47.2749373  40.0736261  87.2966188  58.8276273  34.5332284  76.7713975
  59.5312124  34.7382287  77.3871630  58.1038922  35.1009046  77.0363058
  59.6574084  30.2842146  82.8916245  59.6009285  30.7410697  82.0523877
  60.2102426  29.5232830  82.7139088  63.4678890  26.0731877  83.7166364
  63.2115824  25.6728513  84.5474572  62.8431758  26.7875671  83.5916503
  67.7791228  28.8127951  86.2237656  67.2190786  28.8821140  86.9969218
  67.1734731  28.6368935  85.5037152  50.8486436  40.2464678  87.9755842
  50.7318821  41.1910110  87.8734532  50.0278883  39.9438239  88.3641641
  60.7362971  34.9714813  78.8212435  61.5708575  34.5396012  78.6389909
  60.5747314  34.7996827  79.7489329  60.3908863  31.4746927  80.1868774
  60.3357667  31.3091198  79.2457218  59.7654918  32.1822960  80.3430964
  45.1801378  26.7114991  94.0130196  45.8260242  26.2013945  94.5017421
  44.9718529  27.4483673  94.5873621  57.7054770  33.7795839  99.5122337
  58.5745930  33.9536491  99.1508972  57.2261522  34.5990255  99.3898066
  53.7004989  20.9755036  79.7654092  53.6883658  21.9196876  79.9222363
  54.5928410  20.7925181  79.4713554  51.8740950  40.8992940  91.1911770
  52.7768197  40.9316550  91.5078265  51.6478321  39.9693391  91.2058106
  53.6294553  39.6523926  87.8521849  52.6790184  39.6525788  87.7386221
  53.9327039  38.9056661  87.3357884  57.5157108  17.5697812  84.0200029
  56.7489504  17.0156299  84.1656712  57.9267813  17.6419681  84.8814181
  49.5198869  23.8582608  98.1105210  50.3830331  23.5019413  98.3208535
  48.9464280  23.5196503  98.7980615  69.3647246  45.4884465  88.9167611
  70.0025656  45.3691212  88.2130952  69.2468089  46.4365309  88.9755564
  66.1736952  45.4411893  88.8529136  65.8355464  45.3252957  87.9649671
  67.0426720  45.0403058  88.8330142  62.0323768  47.2947369  84.8426027
  61.4688633  47.2037306  84.0742315  61.9176163  46.4747274  85.3228520
  66.6556735  46.5946744  94.8115342  66.6445376  46.1999543  93.9395845
  66.8177375  45.8612817  95.4049113  59.5788200  48.7898561  87.6810248
  60.3709492  48.4489385  87.2656547  59.8184850  48.8993536  88.6012401
  67.6123327  50.9618337  80.1540492  66.9611306  51.5472417  79.7674506
  68.4067689  51.4924532  80.2135529  61.5378954  48.0507474  80.5527626
  62.3109830  47.5036461  80.4140502  61.8904353  48.9151723  80.7642088
  63.3763996  49.3783856  93.7594526  63.0853862  50.2829487  93.6441192
  64.0120981  49.4200384  94.4738595  64.3020203  46.7560705  90.3495885
  64.8983776  46.5316727  89.6352848  64.3595175  46.0145450  90.9521333
  63.8745232  44.2100140  78.1846076  64.1270752  43.6881661  77.4229539
  62.9369791  44.0466286  78.2872760  68.9188514  43.2135918  85.9920819
  69.7051604  42.7955342  85.6411236  69.1827219  44.1182011  86.1602468
  69.0898592  48.6508769  80.6909476  68.4544425  48.7243395  81.4030381
  68.7595998  49.2402368  80.0128556  74.3196942  43.1511152  86.8953798
  75.0522114  42.5810368  87.1291627  73.5636297  42.7632752  87.3360304
  63.5941520  46.1128246  80.3870451  63.4777779  45.4373149  81.0551536
  63.7043780  45.6260620  79.5702604  65.9373061  45.5738393  84.0917140
  65.5731269  45.0469014  84.8030062  66.7940177  45.1836862  83.9183626
  71.8422362  36.8632726  91.3548407  71.5105687  37.7328137  91.1309622
  71.2467975  36.5469010  92.0342437  65.5778548  40.6028293  79.0878489
  65.7452951  41.4708529  79.4548960  65.3875717  40.7655575  78.1639778
  68.3353881  49.0645272  90.7544319  68.0354605  49.9670311  90.6460127
  67.9904941  48.7977455  91.6065472  61.7866363  45.5159069  86.7881024
  60.8616859  45.3835283  86.9958716  62.0350776  46.2953288  87.2850966
  71.7351025  41.5827812  88.4341757  70.8267903  41.5143220  88.1400518
  71.6838621  42.0599757  89.2623582  65.5567769  43.0585950  80.0725156
  65.4367394  43.5043001  80.9110636  64.8620358  43.4071268  79.5138694
  59.1475174  45.1592342  87.6224813  59.2767555  45.4126821  88.5364225
  58.4672625  45.7520050  87.3029468  63.3174661  55.8289592  83.7215287
  63.2398691  56.7797417  83.8003768  62.7136305  55.4835465  84.3790213
  65.8091891  43.0017458  96.3776654  65.0325225  43.5611378  96.3679519
  66.4482454  43.4874240  96.8991524  73.6012672  39.7844250  90.2119631
  72.9587052  40.0776783  89.5659425  73.0967600  39.6697171  91.0172827
  71.2552835  43.5307424  80.9005490  72.1670691  43.7634810  80.7253187
  70.7462482  44.1144468  80.3380568  64.0638263  45.8102911  95.9394621
  64.8052948  46.3487955  95.6629445  63.3575249  46.4369200  96.0966173
  69.5393603  47.9532051  94.5366782  69.9476959  47.5114462  93.7921415
  68.8170865  47.3784679  94.7900975  65.8924673  42.8904658  91.9100339
  66.7385868  43.3144072  92.0534988  65.8323311  42.2338282  92.6038902
  69.8622418  48.5133242  88.2919071  69.2331280  48.6778956  87.5895139
  69.4748080  48.9274852  89.0630035  73.7411650  49.4487680  85.6463435
  73.0562688  49.8286581  85.0960468  73.8255499  50.0583006  86.3795383
  69.0424118  40.5509026  93.5681513  68.7985050  41.3051087  93.0315789
  69.3184049  40.9294374  94.4028760  70.9962581  47.0947639  92.2458779
  71.2079476  47.7379399  91.5693160  70.9492329  46.2609955  91.7780709
  68.5988810  39.7065459  89.1495351  67.7373289  40.0046713  89.4412088
  68.6251245  39.9235858  88.2176383  65.4150380  48.2507650  85.5569156
  65.8788725  48.5295353  84.7673779  65.1507178  47.3491095  85.3742247
  62.3074461  47.7979132  88.4948920  62.8775818  48.2266400  87.8566404
  62.8982572  47.5161716  89.1933105  64.3519266  44.3730802  82.3658722
  65.0543309  44.8251846  82.8332648  64.0199894  43.7314621  82.9938615
  62.7999627  42.9642559  96.7409931  62.1698288  43.6458840  96.9745328
  62.6935715  42.8525641  95.7963069  58.0944600  42.6314355  87.6675855
  57.3043654  42.8871884  87.1915966  58.5855847  43.4462693  87.7727896
  72.1108409  49.9719594  90.4181136  72.9325853  49.5699782  90.1363818
  72.1070812  49.8687828  91.3697252  60.0459345  42.9958934  84.6259332
  59.2490508  43.1077629  85.1442827  59.8184937  43.3345587  83.7600222
  65.8765013  49.5203638  92.5741846  65.9409445  49.9824045  93.4100018
  65.1675936  48.8901002  92.7024156  56.3782303  42.8844846  90.0990846
  56.6290341  43.7691855  90.3648422  56.9141851  42.7049447  89.3265938
  80.2014402  46.3158343  86.7666107  79.4478111  45.7465741  86.6110112
  80.3361943  46.2821007  87.7136742  65.5913030  51.1871745  82.4420827
  65.4558705  52.0323281  82.8705675  66.1322843  51.3891023  81.6786761
  62.0780370  37.2663325  99.1035182  61.6847315  36.7129523  99.7782826
  62.8946510  37.5773903  99.4941699  59.0442428  48.7047183  83.0148752
  59.5566948  49.4990433  83.1654317  59.6965140  48.0073474  82.9482353
  60.8537312  51.8212939  85.0971505  61.0303941  52.7430904  84.9092489
  61.6494146  51.5071359  85.5265885  64.9948331  38.6821204  96.6955439
  65.7358044  39.2828357  96.6159901  65.2266254  37.9398842  96.1373481
  60.1389669  43.8677571  94.9733668  60.0243184  42.9662828  95.2740767
  59.2834187  44.1141268  94.6218485  67.2181507  51.8095312  96.5721169
  66.7745361  51.0231690  96.2542073  67.8798720  51.9974462  95.9065060
  61.9768628  53.3391113  91.0981847  62.5276053  53.2108177  90.3258841
  61.1380104  53.6386002  90.7476740  69.3162745  52.0898111  94.6002570
  69.2981220  52.9106993  94.1082839  70.2382665  51.9652187  94.8252711
  65.7735799  49.6042241  95.4426078  66.3064136  48.8430529  95.2125386
  65.2449880  49.3115893  96.1850233  68.9405494  34.7102307  90.9719720
  68.5969763  35.6003949  90.8958831  69.3084456  34.5203965  90.1089305
  57.0091344  47.0335837  83.7908322  57.8466566  47.4432846  83.5742030
  57.1869612  46.0935280  83.7608516  68.9055776  44.7010918  79.4792155
  68.3902400  45.4715523  79.7180543  68.6333085  44.0276054  80.1025217
  66.4902888  39.5460619  84.5377394  65.6344484  39.1567469  84.3583032
  66.9029839  39.6252580  83.6777179  68.0202034  37.0806962  88.9368953
  67.5166830  37.0437097  88.1236759  68.3132641  37.9899705  88.9965610
  64.2644920  37.1645692  87.9435135  65.1297917  36.9688500  87.5841025
  64.3322429  36.9356044  88.8704492  73.8790051  47.4543273  81.4145329
  73.1019493  47.1154432  80.9700491  74.5581532  47.4595896  80.7400294
  68.6942080  42.5738010  81.3051936  68.3892215  42.8884159  82.1562080
  69.6472522  42.6519430  81.3479269  67.1388512  48.7328233  82.9544890
  66.6109873  47.9980993  82.6418128  66.6376014  49.5102910  82.7084859
  72.1181358  46.9277254  88.0711937  71.4605032  47.6176515  88.1592065
  72.9221757  47.3173686  88.4145923  61.8707239  39.3947900  85.3151502
  62.4450991  39.1723081  84.5824695  62.4578222  39.4636594  86.0680103
  70.9286816  45.2821627  86.1215879  71.4418698  45.9151618  86.6237588
  71.5788040  44.6822822  85.7559239  62.1976826  41.4252361  79.3347387
  61.3614138  41.7627047  79.6556662  62.0581596  41.2901341  78.3974524
  64.1729907  36.2689149  84.0426571  63.5194319  35.9538166  83.4183186
  64.1310381  35.6464889  84.7686394  65.2841112  46.5508444  75.9579864
  64.3768173  46.3197697  76.1571012  65.7812144  45.7546063  76.1453845
  68.1909191  55.2605951  78.8776550  67.5170889  55.5637648  79.4861508
  68.5775013  56.0635031  78.5282007  67.4067647  42.7571082  88.3674219
  66.4890209  42.9786029  88.2095907  67.8227791  42.8317393  87.5085926
  68.1902695  44.1562498  83.4976899  68.9374514  44.6683895  83.1884021
  68.4594285  43.8346551  84.3581293  66.4629345  46.6521039  80.4803854
  65.5540564  46.3680071  80.5776323  66.4924429  47.0720117  79.6207160
  71.6948613  50.2627628  84.2495021  71.2410940  49.4218538  84.3060212
  71.0642579  50.8989026  84.5869801  70.6381532  41.1919614  85.4795689
  69.9004289  40.6797000  85.8105931  70.8908306  40.7519996  84.6678965
  70.1381552  52.1004125  85.1844839  70.4304526  52.6609182  84.4657205
  70.6480172  52.3932686  85.9397998  70.7393159  33.9695866  86.0737458
  71.0452036  33.1093230  85.7863373  71.4645764  34.5613486  85.8736452
  57.0317516  44.3726553  84.4619056  56.8341915  43.7795913  83.7370122
  56.4764180  44.0678763  85.1794995  65.0114239  44.2649659  86.5813649
  65.0662849  43.3123496  86.5056126  64.2005441  44.4209098  87.0654947
  66.1605433  48.1929782  77.8191932  65.7224863  47.4765641  77.3597570
  66.9015874  48.4205897  77.2577024  62.9506599  42.8826719  84.3404028
  62.1374465  43.1820889  84.7469220  63.4465593  42.4882408  85.0578510
  65.1015177  52.8784476  86.2738293  65.0591356  53.1045322  85.3446825
  66.0177876  52.6447850  86.4224094  68.5480811  43.3468543  93.1718922
  68.9030199  43.5740017  94.0313387  69.1952942  43.6786920  92.5496177
  74.2778548  46.4686979  83.8768251  74.1396446  46.6588575  82.9489440
  73.9214767  47.2306362  84.3336302  62.4420674  40.4545074  89.9565263
  63.0820053  40.3133834  89.2588226  61.6098204  40.1679588  89.5803865
  74.3047927  48.5363506  88.8879522  74.7384434  48.4438795  89.7362576
  75.0179508  48.5121007  88.2499538  63.2180978  49.7547505  86.0700255
  64.0121576  49.2597825  85.8682830  62.5072670  49.2265368  85.7067961
  68.0375822  52.1365600  90.4212623  68.0912845  52.7056537  91.1890339
  67.1690604  52.3067485  90.0566660  59.5263741  43.8990587  82.1460008
  58.5961329  43.8375042  82.3629970  59.6221213  43.3766539  81.3496649
  59.4449290  40.4245399  84.7338250  59.7056108  41.3390733  84.6247410
  60.2666463  39.9569842  84.8834862  60.9174216  41.8383157  91.9037074
  61.5897269  41.6300519  91.2549723  60.0904002  41.6405243  91.4642306
  75.1663477  48.5787207  91.4212408  75.3599367  49.4833017  91.6671683
  75.0664095  48.1194626  92.2550993  66.8199788  38.4645098  93.9202735
  66.1727703  39.1635047  93.8267211  67.5900803  38.8981241  94.2878983
  70.2278586  48.7293950  96.9953288  70.0764092  48.5004501  96.0783372
  70.2183265  49.6864551  97.0084633  66.9963922  46.3025862  91.9799555
  67.9255982  46.4537022  91.8068522  66.5754952  46.3909883  91.1248201
  65.7952254  50.3276527  89.7498092  65.6563339  49.9595311  90.6224030
  65.0066850  50.8424166  89.5782050  66.3900406  55.4285623  81.0923629
  66.5652161  54.9573667  81.9069252  65.7033194  56.0551390  81.3204890
  67.3457469  49.7058130  87.1386930  67.0107302  49.6658900  88.0344580
  66.8461415  49.0402845  86.6657340  61.3201713  45.1125760  92.6639511
  61.1821511  44.3805998  93.2651050  62.2306636  45.0234660  92.3823699
  70.2816661  47.0514164  77.4123990  69.6645831  46.3260992  77.3157042
  69.8133149  47.8123524  77.0691064  63.9484014  44.8245719  92.1523191
  64.6583632  44.1838911  92.1109809  63.9053322  45.0758614  93.0749372
  71.9370792  51.7613072  95.0729770  71.8783338  51.0772292  94.4060353
  72.3390311  52.5032062  94.6210396  62.6612948  41.8110937  93.9718830
  62.1250305  41.3601675  94.6240427  62.0729656  41.9456846  93.2289295
  60.9561491  58.5774986  87.8663489  61.1958089  59.2093510  88.5442508
  60.1130687  58.2263026  88.1528848  62.0715206  41.2699588  76.5345294
  61.1944673  41.1488389  76.1707541  62.5472960  40.4785666  76.2824183
  71.9388199  49.7252656  93.3043750  71.0514978  49.3878578  93.4270149
  72.5086751  48.9935687  93.5412515  53.5917347  46.0576748  86.6286801
  54.2788386  45.7438478  86.0407817  53.4365475  46.9618113  86.3554053
  58.3952069  40.9466944  91.0571825  58.3110257  40.3392614  90.3222235
  57.5734775  41.4375963  91.0581321  65.4689353  54.3854109  90.2704993
  65.3959524  55.1909080  90.7824298  65.0266746  54.5846074  89.4453014
  65.2579132  53.6225879  83.7807815  64.4746654  54.1647559  83.8746039
  65.9571878  54.1399858  84.1802056  68.5675783  39.4320508  86.4242020
  69.0644482  38.6790470  86.1043090  67.7962764  39.4684825  85.8585229
  76.4205540  45.1360874  88.0660311  76.4095416  46.0185589  87.6954245
  75.5522919  44.7832424  87.8714849  67.9288036  54.2840943  92.4263152
  68.6416009  54.9188407  92.3539053  67.4378065  54.3804809  91.6103154
  69.6505563  48.1892195  83.9980443  68.7161842  48.3093658  83.8285148
  69.8282232  47.2864662  83.7340453  65.1510751  41.5737891  86.1513705
  64.7808539  41.0208931  86.8394610  65.6469844  40.9696024  85.5988705
  73.0378115  44.0309515  84.5330477  73.5038567  44.8637506  84.4590780
  73.4885615  43.5654496  85.2375736  62.9799950  52.0335386  93.2468722
  63.6809409  52.6671869  93.3998117  62.5095065  52.3750118  92.4864362
  71.1054346  50.3753336  81.5316630  71.3814190  50.2609930  82.4410504
  70.2358844  49.9770821  81.4928803  71.0094777  36.3990102  88.5721379
  70.0957857  36.6294328  88.7403586  71.4387879  36.4828546  89.4235411
  70.7801236  44.5879993  91.0721273  70.1272686  44.8355901  90.4173726
  71.1581616  43.7744132  90.7383750  67.7408410  54.6239687  85.1749443
  67.9230804  53.8061343  85.6377195  68.5641396  54.8407379  84.7374333
  68.0750575  53.5507872  82.4364492  68.6038342  53.0400326  81.8234654
  68.3378795  53.2350402  83.3010025  66.8288809  45.3299805  97.5587310
  66.1529446  45.2293934  98.2289685  67.6516443  45.1739018  98.0223307
  58.5767668  51.5671741  90.1799825  59.1621105  50.8215429  90.3127729
  58.3792506  51.8775698  91.0636489  61.4306323  54.6022988  85.1962268
  60.7616698  55.0869116  84.7126308  61.2919193  54.8492209  86.1105646
  53.1685323  44.1377341  88.9004268  53.2069422  43.6040932  89.6941386
  52.6625616  43.6112547  88.2815246  65.5711592  56.6366732  91.7944926
  66.1229900  56.7998353  92.5594011  65.9117785  57.2271170  91.1224951
  60.5476085  38.9841882  92.3966811  60.6117412  39.8456713  91.9844208
  60.4843205  38.3715883  91.6639169  60.0228358  41.0565014  96.0439845
  60.6500396  40.6742092  96.6577369  59.1656276  40.8379216  96.4095537
  70.4222466  51.4627989  97.6493580  70.9662370  52.0757948  97.1548535
  69.8409311  52.0207568  98.1660593  56.7993900  42.8641443  81.9758200
  57.0947341  41.9552122  81.9225253  55.8981936  42.8429183  81.6539202
  68.7079979  54.5848708  88.7808608  68.5831119  53.7838447  88.2719554
  69.3659070  55.0794901  88.2922578  60.3288147  40.9397440  87.9585748
  59.6074733  41.5533408  87.8193222  61.1181403  41.4755205  87.8802394
  70.7714887  52.3857728  90.4088158  69.8245223  52.2663079  90.3366485
  71.1197661  51.4980226  90.4914420  63.1314461  38.2751867  94.2326400
  63.6548863  38.5214163  94.9952709  62.9126794  39.1071901  93.8129537
  58.5281742  40.5455541  82.0997525  58.1994448  39.6652920  81.9172631
  58.8821113  40.4903210  82.9873914  67.7761321  52.1810444  86.6092510
  67.6286283  51.2527151  86.7900080  68.6014814  52.2030535  86.1249586
  61.6423565  40.8328511  82.4673003  61.9819638  41.3614432  81.7451611
  62.0895686  41.1708917  83.2431569  71.3795443  53.0039003  87.6957383
  72.3041990  52.7981864  87.5581834  71.2110746  52.7555404  88.6046725
  64.3367006  39.2165562  91.9176071  63.9963826  38.4173375  92.3196750
  63.6306012  39.5167272  91.3452904  64.9883478  36.3014874  90.3703394
  65.8109547  35.8275352  90.2482284  65.2321541  37.0805358  90.8702080
  63.6291712  39.3303132  80.6666295  64.3500075  39.7084385  80.1630012
  63.0057016  40.0492009  80.7701273  67.7722835  40.0348281  81.6024628
  67.9886449  40.9172919  81.3013456  67.2916902  39.6434495  80.8730270
  62.5122056  42.9933995  88.1795372  62.3666637  43.3074298  89.0719654
  62.0347260  43.6118895  87.6266271  64.3718439  39.9836543  88.2276262
  64.3580008  39.0877636  87.8908560  65.0890867  39.9907206  88.8614548
  66.2244570  40.4173883  90.2729389  65.9662348  41.3390954  90.2713720
  65.6929610  40.0204317  90.9629853  56.9867719  45.5339339  91.1183033
  56.4421187  46.3099147  91.2503308  57.8647068  45.8810144  90.9602155
  63.7755335  38.8650923  83.4963832  63.8971246  37.9367569  83.6954719
  63.4857378  38.8789609  82.5842147  66.6446526  36.5505833  86.6330552
  66.6668222  36.6145166  85.6782531  67.0614585  35.7110342  86.8271058
  77.0230150  46.2861093  84.6709774  77.4661296  45.5368418  84.2728898
  76.1456660  46.2771229  84.2883506  72.1565931  52.8391434  80.1516373
  72.8516836  53.4598127  80.3703688  72.4989081  51.9886786  80.4268751
  57.7733740  44.6609235  94.0113190  57.0315477  44.8091871  94.5977821
  57.4526485  44.9217501  93.1479940  74.0557354  50.2891140  81.6803704
  74.5808679  50.6278413  80.9553024  73.9679707  49.3538155  81.4966838
  65.7177403  54.2025214  93.8093580  66.0264530  53.9574360  94.6816280
  66.5152885  54.4071852  93.3212451  65.7398015  56.3563123  86.0398957
  65.3003005  55.8639502  86.7331814  66.4906132  55.8136091  85.7991032
  58.2190354  52.5474664  86.0423585  59.0448374  52.2478436  85.6622228
  57.8684406  51.7782286  86.4913374  63.1871887  51.9001132  88.1121259
  62.5651897  51.2371837  87.8123486  63.8576754  51.9262264  87.4294906
  56.4198959  50.4660991  87.0012519  55.5830868  50.0383165  86.8196520
  56.3922605  50.6593434  87.9383310  63.2596415  40.3782920  97.7053765
  63.3084570  41.2545043  97.3231534  63.8018929  39.8360313  97.1325408
  73.7451260  50.9224044  96.9854902  72.9546804  50.9048182  96.4459401
  73.5084615  51.4612337  97.7403938  73.8649136  47.7716510  94.2987630
  73.9147140  47.6066517  95.2403153  73.7563059  46.9043769  93.9085511
  62.7485394  50.4505056  81.5879719  62.8973515  51.1340520  80.9346392
  63.5551838  50.4310146  82.1029175  71.1552898  43.7547438  95.6146937
  72.0562761  43.6153903  95.3230935  71.2300872  43.9201893  96.5545114
  65.4895703  41.1314293  94.4600123  64.6199013  41.4247859  94.1882712
  65.7255184  41.7154738  95.1807387  75.3667332  50.1913451  94.5429652
  75.0752141  50.5543432  95.3793113  74.7539464  49.4780460  94.3642984
  76.5663015  47.7566331  87.0632222  77.4009906  48.1956135  87.2269782
  76.7022143  47.2804984  86.2440468  73.6154521  45.3146066  93.0109710
  74.0908642  45.5073712  92.2028561  72.6920086  45.3705252  92.7653093
  60.5038027  46.4770233  82.5940788  60.2584069  45.5732563  82.7920998
  60.6733942  46.4787384  81.6520266  68.1934737  37.3493910  91.9765544
  68.7116681  38.0854937  91.6512032  67.8389870  37.6557903  92.8112303
  59.7733675  42.2098591  80.0926949  59.0802920  42.2842946  79.4366985
  59.5285427  41.4458934  80.6148466  68.4447331  33.7694192  87.4966440
  68.7249085  33.1017381  88.1226867  69.2297938  33.9623288  86.9841104
  66.2480800  52.9453186  79.0591466  65.6754767  53.5643373  78.6061938
  66.8213593  53.4952548  79.5931388  72.3156190  42.1911826  91.2438015
  73.2673612  42.2909924  91.2650239  72.1459640  41.3990095  91.7536100
  70.3370569  39.2767409  91.4297416  69.7420501  39.5572422  90.7343905
  70.0520266  39.7661310  92.2014157  69.4678060  53.2290336  80.1900049
  70.4008733  53.1635898  80.3932924  69.3801272  54.0646603  79.7314581
  72.0966076  52.5456207  77.1503996  72.0179708  52.2116070  78.0439754
  72.9175743  53.0377974  77.1495469  74.7944267  45.4117946  90.3580315
  74.7620587  44.4733947  90.5439999  75.4044891  45.4901983  89.6246140
  66.6327598  44.2813999  76.4007519  67.5786703  44.1520207  76.4695937
  66.2541843  43.5428661  76.8776947  74.9438756  42.2028989  90.4038598
  74.4277805  41.4187446  90.2168527  75.8278704  41.8747706  90.5685118
  72.6049483  35.9470005  86.3634411  72.4074304  35.6385093  87.2477743
  73.2149188  36.6731644  86.4932341  80.6120817  46.4733953  89.4986352
  81.3424206  46.2119241  90.0594055  80.0027763  45.7362675  89.5388420
  78.6936114  44.6141815  90.0960803  77.9669278  44.4797780  89.4877295
  78.2783401  44.9218644  90.9017521  66.5166291  48.3331745  97.8608176
  67.4369300  48.5110344  98.0548222  66.4815874  47.3887790  97.7087875
  64.8170515  42.2063975  76.3362404  63.9101971  41.9097088  76.4125118
  65.0946496  41.9093793  75.4696690  55.7348456  43.5270339  86.7861451
  55.4151240  42.6735647  86.4935825  55.1881884  43.7418917  87.5419418
  59.5128363  46.2432780  90.5030957  59.7314373  47.1749887  90.5218991
  59.9254137  45.8840754  91.2885761  66.4332581  36.7500865  82.4906645
  65.6233309  36.4047950  82.8661892  67.1216998  36.4408409  83.0794257
  68.3623129  35.8278912  84.1130942  68.9154168  36.2474365  84.7720965
  68.5993216  34.9014660  84.1553898  64.3856229  41.8165985  99.8933706
  64.2852956  42.7660342  99.8245797  64.1677771  41.4884224  99.0209776
  63.5869300  39.0650910  76.4774383  64.4488464  39.3905809  76.7370201
  63.7719644  38.2782406  75.9647449  55.6036716  47.1473250  88.7554572
  54.9100187  46.7327203  88.2424527  56.3509707  47.1893787  88.1587991
  71.7401936  37.9379437  83.6209606  71.1600606  38.5964241  83.2387659
  71.4737869  37.1156781  83.2097024  70.1905503  37.3384495  85.8230927
  70.6905281  37.4501029  85.0145246  70.8341111  37.0345547  86.4631735
  64.2487499  45.2463124  98.7098768  63.7654580  46.0463484  98.9162657
  64.3348438  45.2571069  97.7566212  57.5173458  47.0791504  86.6320587
  57.4944146  47.1779191  85.6802470  57.8274095  47.9256655  86.9537753
  60.1760836  49.1367659  90.7467201  61.1304090  49.1051601  90.6797133
  59.9773360  48.6758283  91.5617427  60.7660218  47.7068775  93.3137999
  61.5853107  48.2012854  93.3372836  61.0397026  46.7900743  93.2855567
  70.5226815  40.0979527  82.6765955  69.6352670  40.3829178  82.4586149
  70.9380804  39.9373291  81.8293232  73.8741351  40.1226048  86.3920294
  74.6501741  40.6122501  86.6644911  73.1489485  40.5484102  86.8492163
  76.3113909  40.8353667  87.4494235  76.9058400  40.5949403  86.7387543
  76.3840493  40.1160798  88.0767771  58.5311065  54.6787278  87.7637399
  58.3965533  53.9187679  87.1975397  58.1143127  55.4028178  87.2966188
  69.6670028  49.8624202  76.7713975  70.3705878  50.0674204  77.3871630
  68.9432677  50.4300964  77.0363058  70.4967838  45.6134063  82.8916245
  70.4403040  46.0702615  82.0523877  71.0496181  44.8524748  82.7139088
  74.3072644  41.4023795  83.7166364  74.0509578  41.0020431  84.5474572
  73.6825512  42.1167589  83.5916503  78.6184982  44.1419868  86.2237656
  78.0584540  44.2113058  86.9969218  78.0128485  43.9660853  85.5037152
  61.6880191  55.5756595  87.9755842  61.5712575  56.5202028  87.8734532
  60.8672637  55.2730157  88.3641641  71.5756725  50.3006731  78.8212435
  72.4102329  49.8687930  78.6389909  71.4141068  50.1288745  79.7489329
  71.2302618  46.8038844  80.1868774  71.1751421  46.6383116  79.2457218
  70.6048673  47.5114877  80.3430964  56.0195133  42.0406909  94.0130196
  56.6653996  41.5305863  94.5017421  55.8112284  42.7775590  94.5873621
  68.5448525  49.1087756  99.5122337  69.4139684  49.2828409  99.1508972
  68.0655276  49.9282173  99.3898066  64.5398743  36.3046953  79.7654092
  64.5277413  37.2488793  79.9222363  65.4322165  36.1217099  79.4713554
  62.7134705  56.2284857  91.1911770  63.6161952  56.2608468  91.5078265
  62.4872075  55.2985308  91.2058106  64.4688307  54.9815844  87.8521849
  63.5183938  54.9817705  87.7386221  64.7720793  54.2348578  87.3357884
  68.3550862  32.8989730  84.0200029  67.5883258  32.3448217  84.1656712
  68.7661567  32.9711599  84.8814181  60.3592624  39.1874526  98.1105210
  61.2224085  38.8311331  98.3208535  59.7858034  38.8488421  98.7980615
  80.2041000  60.8176382  88.9167611  80.8419410  60.6983130  88.2130952
  80.0861843  61.7657226  88.9755564  77.0130707  60.7703810  88.8529136
  76.6749218  60.6544875  87.9649671  77.8820475  60.3694975  88.8330142
  72.8717522  62.6239287  84.8426027  72.3082388  62.5329224  84.0742315
  72.7569918  61.8039191  85.3228520  77.4950490  61.9238662  94.8115342
  77.4839131  61.5291460  93.9395845  77.6571129  61.1904735  95.4049113
  70.4181954  64.1190478  87.6810248  71.2103246  63.7781303  87.2656547
  70.6578605  64.2285453  88.6012401  74.2157751  64.7075774  93.7594526
  73.9247617  65.6121405  93.6441192  74.8514735  64.7492302  94.4738595
  75.1413958  62.0852622  90.3495885  75.7377530  61.8608645  89.6352848
  75.1988929  61.3437368  90.9521333  79.7582269  58.5427836  85.9920819
  80.5445358  58.1247259  85.6411236  80.0220973  59.4473928  86.1602468
  79.9292346  63.9800686  80.6909476  79.2938179  64.0535313  81.4030381
  79.5989753  64.5694285  80.0128556  85.1590696  58.4803069  86.8953798
  85.8915868  57.9102286  87.1291627  84.4030052  58.0924670  87.3360304
  76.7766816  60.9030311  84.0917140  76.4125023  60.3760932  84.8030062
  77.6333932  60.5128780  83.9183626  82.6816116  52.1924643  91.3548407
  82.3499441  53.0620054  91.1309622  82.0861730  51.8760927  92.0342437
  76.4172303  55.9320210  79.0878489  76.5846705  56.8000447  79.4548960
  76.2269472  56.0947492  78.1639778  79.1747636  64.3937189  90.7544319
  78.8748359  65.2962228  90.6460127  78.8298696  64.1269373  91.6065472
  72.6260117  60.8450986  86.7881024  71.7010614  60.7127200  86.9958716
  72.8744531  61.6245205  87.2850966  82.5744780  56.9119730  88.4341757
  81.6661657  56.8435138  88.1400518  82.5232376  57.3891675  89.2623582
  69.9868929  60.4884260  87.6224813  70.1161310  60.7418739  88.5364225
  69.3066380  61.0811968  87.3029468  74.1568416  71.1581510  83.7215287
  74.0792445  72.1089335  83.8003768  73.5530059  70.8127382  84.3790213
  76.6485646  58.3309375  96.3776654  75.8718980  58.8903295  96.3679519
  77.2876209  58.8166158  96.8991524  84.4406426  55.1136168  90.2119631
  83.7980806  55.4068701  89.5659425  83.9361355  54.9989088  91.0172827
  82.0946590  58.8599341  80.9005490  83.0064446  59.0926728  80.7253187
  81.5856237  59.4436385  80.3380568  74.9032018  61.1394829  95.9394621
  75.6446702  61.6779873  95.6629445  74.1969003  61.7661117  96.0966173
  80.3787358  63.2823969  94.5366782  80.7870714  62.8406380  93.7921415
  79.6564619  62.7076597  94.7900975  76.7318428  58.2196576  91.9100339
  77.5779623  58.6435989  92.0534988  76.6717065  57.5630200  92.6038902
  80.7016172  63.8425160  88.2919071  80.0725035  64.0070874  87.5895139
  80.3141834  64.2566769  89.0630035  84.5805404  64.7779597  85.6463435
  83.8956442  65.1578499  85.0960468  84.6649253  65.3874924  86.3795383
  79.8817873  55.8800944  93.5681513  79.6378805  56.6343005  93.0315789
  80.1577803  56.2586292  94.4028760  81.8356336  62.4239557  92.2458779
  82.0473231  63.0671316  91.5693160  81.7886084  61.5901873  91.7780709
  79.4382565  55.0357377  89.1495351  78.5767044  55.3338631  89.4412088
  79.4644999  55.2527776  88.2176383  76.2544134  63.5799568  85.5569156
  76.7182480  63.8587271  84.7673779  75.9900932  62.6783012  85.3742247
  73.1468215  63.1271049  88.4948920  73.7169572  63.5558318  87.8566404
  73.7376327  62.8453634  89.1933105  75.1913020  59.7022720  82.3658722
  75.8937063  60.1543764  82.8332648  74.8593649  59.0606539  82.9938615
  73.6393382  58.2934477  96.7409931  73.0092042  58.9750758  96.9745328
  73.5329469  58.1817558  95.7963069  68.9338354  57.9606273  87.6675855
  68.1437408  58.2163801  87.1915966  69.4249601  58.7754611  87.7727896
  82.9502164  65.3011512  90.4181136  83.7719607  64.8991699  90.1363818
  82.9464566  65.1979746  91.3697252  76.7158767  64.8495555  92.5741846
  76.7803200  65.3115962  93.4100018  76.0069691  64.2192920  92.7024156
  67.2176057  58.2136763  90.0990846  67.4684095  59.0983773  90.3648422
  67.7535605  58.0341365  89.3265938  91.0408157  61.6450260  86.7666107
  90.2871865  61.0757658  86.6110112  91.1755698  61.6112925  87.7136742
  72.9174124  52.5955243  99.1035182  72.5241070  52.0421441  99.7782826
  73.7340265  52.9065821  99.4941699  71.6931067  67.1504857  85.0971505
  71.8697695  68.0722822  84.9092489  72.4887900  66.8363276  85.5265885
  75.8342085  54.0113122  96.6955439  76.5751799  54.6120275  96.6159901
  76.0660008  53.2690759  96.1373481  70.9783423  59.1969489  94.9733668
  70.8636938  58.2954746  95.2740767  70.1227941  59.4433186  94.6218485
  78.0575261  67.1387229  96.5721169  77.6139115  66.3523608  96.2542073
  78.7192475  67.3266380  95.9065060  72.8162382  68.6683031  91.0981847
  73.3669807  68.5400094  90.3258841  71.9773858  68.9677920  90.7476740
  80.1556499  67.4190029  94.6002570  80.1374974  68.2398910  94.1082839
  81.0776419  67.2944104  94.8252711  76.6129553  64.9334159  95.4426078
  77.1457890  64.1722447  95.2125386  76.0843634  64.6407810  96.1850233
  79.7799248  50.0394225  90.9719720  79.4363518  50.9295866  90.8958831
  80.1478211  49.8495882  90.1089305  67.8485099  62.3627755  83.7908322
  68.6860321  62.7724763  83.5742030  68.0263367  61.4227197  83.7608516
  79.7449531  60.0302836  79.4792155  79.2296154  60.8007440  79.7180543
  79.4726839  59.3567972  80.1025217  77.3296642  54.8752536  84.5377394
  76.4738238  54.4859387  84.3583032  77.7423594  54.9544497  83.6777179
  78.8595789  52.4098880  88.9368953  78.3560584  52.3729015  88.1236759
  79.1526396  53.3191622  88.9965610  75.1038675  52.4937609  87.9435135
  75.9691671  52.2980418  87.5841025  75.1716183  52.2647961  88.8704492
  84.7183805  62.7835190  81.4145329  83.9413248  62.4446350  80.9700491
  85.3975286  62.7887814  80.7400294  79.5335834  57.9029928  81.3051936
  79.2285970  58.2176077  82.1562080  80.4866276  57.9811348  81.3479269
  77.9782266  64.0620151  82.9544890  77.4503628  63.3272911  82.6418128
  77.4769769  64.8394827  82.7084859  82.9575112  62.2569172  88.0711937
  82.2998786  62.9468433  88.1592065  83.7615511  62.6465604  88.4145923
  81.7680571  60.6113544  86.1215879  82.2812453  61.2443536  86.6237588
  82.4181795  60.0114740  85.7559239  75.0123661  51.5981066  84.0426571
  74.3588074  51.2830083  83.4183186  74.9704135  50.9756807  84.7686394
  79.0302945  70.5897869  78.8776550  78.3564644  70.8929565  79.4861508
  79.4168767  71.3926949  78.5282007  78.2461402  58.0863000  88.3674219
  77.3283963  58.3077947  88.2095907  78.6621545  58.1609310  87.5085926
  79.0296449  59.4854416  83.4976899  79.7768268  59.9975813  83.1884021
  79.2988039  59.1638468  84.3581293  77.3023100  61.9812956  80.4803854
  76.3934319  61.6971989  80.5776323  77.3318183  62.4012035  79.6207160
  82.5342367  65.5919546  84.2495021  82.0804694  64.7510456  84.3060212
  81.9036334  66.2280944  84.5869801  81.4775287  56.5211532  85.4795689
  80.7398043  56.0088918  85.8105931  81.7302060  56.0811913  84.6678965
  80.9775306  67.4296042  85.1844839  81.2698281  67.9901100  84.4657205
  81.4873927  67.7224603  85.9397998  81.5786914  49.2987784  86.0737458
  81.8845791  48.4385147  85.7863373  82.3039519  49.8905404  85.8736452
  67.8711270  59.7018470  84.4619056  67.6735670  59.1087831  83.7370122
  67.3157934  59.3970681  85.1794995  75.8507994  59.5941577  86.5813649
  75.9056603  58.6415413  86.5056126  75.0399196  59.7501016  87.0654947
  75.9408931  68.2076394  86.2738293  75.8985110  68.4337240  85.3446825
  76.8571630  67.9739768  86.4224094  79.3874565  58.6760461  93.1718922
  79.7423953  58.9031934  94.0313387  80.0346696  59.0078838  92.5496177
  85.1172302  61.7978897  83.8768251  84.9790201  61.9880493  82.9489440
  84.7608521  62.5598280  84.3336302  73.2814428  55.7836992  89.9565263
  73.9213808  55.6425751  89.2588226  72.4491959  55.4971506  89.5803865
  85.1441682  63.8655424  88.8879522  85.5778188  63.7730713  89.7362576
  85.8573263  63.8412924  88.2499538  74.0574732  65.0839423  86.0700255
  74.8515331  64.5889743  85.8682830  73.3466425  64.5557286  85.7067961
  78.8769577  67.4657518  90.4212623  78.9306599  68.0348454  91.1890339
  78.0084358  67.6359403  90.0566660  71.7567970  57.1675074  91.9037074
  72.4291024  56.9592436  91.2549723  70.9297757  56.9697160  91.4642306
  86.0057231  63.9079125  91.4212408  86.1993121  64.8124935  91.6671683
  85.9057850  63.4486544  92.2550993  77.6593542  53.7937015  93.9202735
  77.0121457  54.4926965  93.8267211  78.4294558  54.2273159  94.2878983
  81.0672340  64.0585867  96.9953288  80.9157846  63.8296419  96.0783372
  81.0577020  65.0156469  97.0084633  77.8357676  61.6317780  91.9799555
  78.7649736  61.7828940  91.8068522  77.4148706  61.7201801  91.1248201
  76.6346008  65.6568445  89.7498092  76.4957094  65.2887229  90.6224030
  75.8460604  66.1716084  89.5782050  77.2294160  70.7577541  81.0923629
  77.4045916  70.2865584  81.9069252  76.5426948  71.3843307  81.3204890
  78.1851223  65.0350047  87.1386930  77.8501056  64.9950817  88.0344580
  77.6855169  64.3694763  86.6657340  72.1595467  60.4417677  92.6639511
  72.0215265  59.7097916  93.2651050  73.0700391  60.3526577  92.3823699
  81.1210415  62.3806082  77.4123990  80.5039586  61.6552910  77.3157042
  80.6526904  63.1415442  77.0691064  74.7877768  60.1537637  92.1523191
  75.4977387  59.5130829  92.1109809  74.7447076  60.4050531  93.0749372
  82.7764547  67.0904990  95.0729770  82.7177093  66.4064210  94.4060353
  83.1784065  67.8323980  94.6210396  73.5006702  57.1402854  93.9718830
  72.9644059  56.6893593  94.6240427  72.9123410  57.2748763  93.2289295
  82.7781954  65.0544574  93.3043750  81.8908733  64.7170496  93.4270149
  83.3480505  64.3227605  93.5412515  64.4311101  61.3868666  86.6286801
  65.1182141  61.0730396  86.0407817  64.2759230  62.2910030  86.3554053
  69.2345823  56.2758862  91.0571825  69.1504012  55.6684532  90.3222235
  68.4128530  56.7667880  91.0581321  76.3083107  69.7146026  90.2704993
  76.2353279  70.5200998  90.7824298  75.8660500  69.9137992  89.4453014
  79.4069537  54.7612426  86.4242020  79.9038237  54.0082388  86.1043090
  78.6356519  54.7976742  85.8585229  87.2599295  60.4652791  88.0660311
  87.2489171  61.3477507  87.6954245  86.3916674  60.1124342  87.8714849
  78.7681791  69.6132860  92.4263152  79.4809763  70.2480325  92.3539053
  78.2771820  69.7096726  91.6103154  80.4899318  63.5184113  83.9980443
  79.5555597  63.6385575  83.8285148  80.6675986  62.6156580  83.7340453
  75.9904506  56.9029809  86.1513705  75.6202293  56.3500849  86.8394610
  76.4863598  56.2987942  85.5988705  83.8771869  59.3601432  84.5330477
  84.3432321  60.1929424  84.4590780  84.3279370  58.8946414  85.2375736
  73.8193704  67.3627304  93.2468722  74.5203164  67.9963787  93.3998117
  73.3488819  67.7042035  92.4864362  81.9448100  65.7045253  81.5316630
  82.2207944  65.5901848  82.4410504  81.0752599  65.3062738  81.4928803
  81.8488532  51.7282019  88.5721379  80.9351612  51.9586246  88.7403586
  82.2781633  51.8120463  89.4235411  81.6194990  59.9171911  91.0721273
  80.9666441  60.1647819  90.4173726  81.9975370  59.1036049  90.7383750
  78.5802164  69.9531604  85.1749443  78.7624559  69.1353260  85.6377195
  79.4035150  70.1699297  84.7374333  78.9144330  68.8799789  82.4364492
  79.4432096  68.3692244  81.8234654  79.1772549  68.5642320  83.3010025
  77.6682563  60.6591722  97.5587310  76.9923200  60.5585852  98.2289685
  78.4910197  60.5030936  98.0223307  69.4161422  66.8963659  90.1799825
  70.0014859  66.1507347  90.3127729  69.2186261  67.2067615  91.0636489
  72.2700078  69.9314906  85.1962268  71.6010453  70.4161034  84.7126308
  72.1312947  70.1784127  86.1105646  64.0079077  59.4669259  88.9004268
  64.0463177  58.9332850  89.6941386  63.5019370  58.9404464  88.2815246
  76.4105346  71.9658650  91.7944926  76.9623654  72.1290271  92.5594011
  76.7511540  72.5563087  91.1224951  71.3869840  54.3133799  92.3966811
  71.4511166  55.1748630  91.9844208  71.3236960  53.7007801  91.6639169
  70.8622112  56.3856932  96.0439845  71.4894151  56.0034009  96.6577369
  70.0050031  56.1671134  96.4095537  81.2616221  66.7919907  97.6493580
  81.8056125  67.4049865  97.1548535  80.6803065  67.3499486  98.1660593
  79.5473734  69.9140625  88.7808608  79.4224873  69.1130365  88.2719554
  80.2052825  70.4086819  88.2922578  71.1681902  56.2689358  87.9585748
  70.4468488  56.8825325  87.8193222  71.9575158  56.8047123  87.8802394
  81.6108642  67.7149645  90.4088158  80.6638977  67.5954996  90.3366485
  81.9591415  66.8272143  90.4914420  73.9708215  53.6043784  94.2326400
  74.4942617  53.8506081  94.9952709  73.7520549  54.4363819  93.8129537
  78.6155075  67.5102361  86.6092510  78.4680038  66.5819069  86.7900080
  79.4408569  67.5322452  86.1249586  82.2189197  68.3330920  87.6957383
  83.1435745  68.1273782  87.5581834  82.0504500  68.0847321  88.6046725
  75.1760760  54.5457479  91.9176071  74.8357581  53.7465292  92.3196750
  74.4699767  54.8459190  91.3452904  75.8277232  51.6306792  90.3703394
  76.6503302  51.1567270  90.2482284  76.0715296  52.4097275  90.8702080
  78.6116590  55.3640199  81.6024628  78.8280204  56.2464837  81.3013456
  78.1310657  54.9726413  80.8730270  73.3515811  58.3225912  88.1795372
  73.2060392  58.6366215  89.0719654  72.8741015  58.9410813  87.6266271
  75.2112194  55.3128460  88.2276262  75.1973763  54.4169554  87.8908560
  75.9284622  55.3199124  88.8614548  77.0638325  55.7465801  90.2729389
  76.8056102  56.6682871  90.2713720  76.5323365  55.3496235  90.9629853
  82.0084513  68.8516588  83.0519475  82.1821391  68.2863010  82.2993327
  82.5013405  69.6517483  82.8698965  67.8261473  60.8631257  91.1183033
  67.2814941  61.6391065  91.2503308  68.7040823  61.2102061  90.9602155
  74.6149090  54.1942841  83.4963832  74.7365001  53.2659487  83.6954719
  74.3251132  54.2081527  82.5842147  77.4840280  51.8797751  86.6330552
  77.5061977  51.9437084  85.6782531  77.9008339  51.0402260  86.8271058
  87.8623904  61.6153011  84.6709774  88.3055051  60.8660336  84.2728898
  86.9850415  61.6063147  84.2883506  82.9959686  68.1683352  80.1516373
  83.6910590  68.7890045  80.3703688  83.3382836  67.3178703  80.4268751
  68.6127495  59.9901153  94.0113190  67.8709231  60.1383788  94.5977821
  68.2920239  60.2509419  93.1479940  84.8951109  65.6183058  81.6803704
  85.4202433  65.9570330  80.9553024  84.8073461  64.6830073  81.4966838
  76.5571158  69.5317131  93.8093580  76.8658284  69.2866278  94.6816280
  77.3546640  69.7363770  93.3212451  76.5791770  71.6855041  86.0398957
  76.1396760  71.1931420  86.7331814  77.3299887  71.1428009  85.7991032
  69.0584109  67.8766582  86.0423585  69.8842129  67.5770354  85.6622228
  68.7078161  67.1074204  86.4913374  74.0265642  67.2293050  88.1121259
  73.4045651  66.5663755  87.8123486  74.6970509  67.2554182  87.4294906
  67.2592714  65.7952908  87.0012519  66.4224622  65.3675083  86.8196520
  67.2316359  65.9885352  87.9383310  74.0990169  55.7074838  97.7053765
  74.1478325  56.5836961  97.3231534  74.6412684  55.1652231  97.1325408
  84.5845015  66.2515961  96.9854902  83.7940559  66.2340100  96.4459401
  84.3478370  66.7904255  97.7403938  84.7042890  63.1008428  94.2987630
  84.7540895  62.9358435  95.2403153  84.5956813  62.2335687  93.9085511
  81.9946652  59.0839356  95.6146937  82.8956515  58.9445820  95.3230935
  82.0694627  59.2493810  96.5545114  76.3289458  56.4606210  94.4600123
  75.4592767  56.7539776  94.1882712  76.5648938  57.0446655  95.1807387
  86.2061087  65.5205369  94.5429652  85.9145895  65.8835350  95.3793113
  85.5933218  64.8072377  94.3642984  87.4056769  63.0858249  87.0632222
  88.2403661  63.5248053  87.2269782  87.5415898  62.6096902  86.2440468
  84.4548275  60.6437984  93.0109710  84.9302397  60.8365630  92.2028561
  83.5313840  60.6997170  92.7653093  79.0328492  52.6785827  91.9765544
  79.5510435  53.4146854  91.6512032  78.6783624  52.9849821  92.8112303
  79.2841086  49.0986110  87.4966440  79.5642840  48.4309299  88.1226867
  80.0691693  49.2915205  86.9841104  83.1549944  57.5203744  91.2438015
  84.1067367  57.6201842  91.2650239  82.9853395  56.7282012  91.7536100
  81.1764324  54.6059327  91.4297416  80.5814256  54.8864340  90.7343905
  80.8914020  55.0953228  92.2014157  80.3071814  68.5582254  80.1900049
  81.2402487  68.4927816  80.3932924  80.2195027  69.3938521  79.7314581
  82.9359831  67.8748124  77.1503996  82.8573462  67.5407988  78.0439754
  83.7569497  68.3669892  77.1495469  85.6338022  60.7409864  90.3580315
  85.6014342  59.8025864  90.5439999  86.2438646  60.8193900  89.6246140
  77.4721353  59.6105917  76.4007519  78.4180457  59.4812125  76.4695937
  77.0935598  58.8720578  76.8776947  85.7832510  57.5320907  90.4038598
  85.2671559  56.7479364  90.2168527  86.6672459  57.2039624  90.5685118
  83.4443237  51.2761923  86.3634411  83.2468058  50.9677011  87.2477743
  84.0542943  52.0023561  86.4932341  91.4514572  61.8025870  89.4986352
  92.1817960  61.5411159  90.0594055  90.8421517  61.0654592  89.5388420
  89.5329869  59.9433733  90.0960803  88.8063032  59.8089698  89.4877295
  89.1177156  60.2510562  90.9017521  77.3560045  63.6623663  97.8608176
  78.2763055  63.8402262  98.0548222  77.3209628  62.7179708  97.7087875
  66.5742210  58.8562256  86.7861451  66.2544995  58.0027564  86.4935825
  66.0275638  59.0710834  87.5419418  70.3522118  61.5724697  90.5030957
  70.5708128  62.5041805  90.5218991  70.7647892  61.2132672  91.2885761
  77.2726336  52.0792783  82.4906645  76.4627064  51.7339868  82.8661892
  77.9610753  51.7700326  83.0794257  79.2016884  51.1570829  84.1130942
  79.7547923  51.5766283  84.7720965  79.4386970  50.2306578  84.1553898
  75.2249983  57.1457903  99.8933706  75.1246710  58.0952260  99.8245797
  75.0071525  56.8176142  99.0209776  74.4263055  54.3942828  76.4774383
  75.2882219  54.7197726  76.7370201  74.6113399  53.6074324  75.9647449
  66.4430470  62.4765168  88.7554572  65.7493942  62.0619121  88.2424527
  67.1903461  62.5185704  88.1587991  82.5795691  53.2671355  83.6209606
  81.9994360  53.9256159  83.2387659  82.3131624  52.4448699  83.2097024
  81.0299257  52.6676412  85.8230927  81.5299036  52.7792947  85.0145246
  81.6734865  52.3637465  86.4631735  75.0881253  60.5755042  98.7098768
  74.6048335  61.3755402  98.9162657  75.1742192  60.5862987  97.7566212
  68.3567213  62.4083422  86.6320587  68.3337901  62.5071109  85.6802470
  68.6667849  63.2548572  86.9537753  71.0154591  64.4659577  90.7467201
  71.9697844  64.4343519  90.6797133  70.8167114  64.0050200  91.5617427
  71.6053973  63.0360693  93.3137999  72.4246862  63.5304771  93.3372836
  71.8790781  62.1192661  93.2855567  81.3620569  55.4271445  82.6765955
  80.4746424  55.7121096  82.4586149  81.7774558  55.2665208  81.8293232
  84.7135105  55.4517966  86.3920294  85.4895495  55.9414418  86.6644911
  83.9883239  55.8776020  86.8492163  87.1507664  56.1645585  87.4494235
  87.7452155  55.9241321  86.7387543  87.2234247  55.4452716  88.0767771
  69.3704819  70.0079196  87.7637399  69.2359287  69.2479597  87.1975397
  68.9536882  70.7320096  87.2966188  80.5063782  65.1916120  76.7713975
  81.2099633  65.3966122  77.3871630  79.7826431  65.7592882  77.0363058
  81.3361593  60.9425981  82.8916245  81.2796794  61.3994532  82.0523877
  81.8889935  60.1816665  82.7139088  85.1466399  56.7315713  83.7166364
  84.8903333  56.3312348  84.5474572  84.5219267  57.4459507  83.5916503
  89.4578737  59.4711786  86.2237656  88.8978295  59.5404975  86.9969218
  88.8522240  59.2952771  85.5037152  72.5273945  70.9048513  87.9755842
  72.4106329  71.8493946  87.8734532  71.7066392  70.6022075  88.3641641
  82.4150480  65.6298649  78.8212435  83.2496084  65.1979847  78.6389909
  82.2534823  65.4580663  79.7489329  82.0696372  62.1330762  80.1868774
  82.0145176  61.9675034  79.2457218  81.4442427  62.8406795  80.3430964
  66.8588887  57.3698827  94.0130196  67.5047751  56.8597780  94.5017421
  66.6506038  58.1067508  94.5873621  79.3842279  64.4379674  99.5122337
  80.2533439  64.6120326  99.1508972  78.9049031  65.2574091  99.3898066
  75.3792498  51.6338871  79.7654092  75.3671167  52.5780711  79.9222363
  76.2715919  51.4509017  79.4713554  73.5528459  71.5576775  91.1911770
  74.4555706  71.5900385  91.5078265  73.3265830  70.6277226  91.2058106
  75.3082061  70.3107762  87.8521849  74.3577693  70.3109623  87.7386221
  75.6114548  69.5640496  87.3357884  79.1944617  48.2281648  84.0200029
  78.4277013  47.6740134  84.1656712  79.6055322  48.3003517  84.8814181
  71.1986378  54.5166444  98.1105210  72.0617840  54.1603248  98.3208535
  70.6251789  54.1780338  98.7980615  91.0434755  76.1468300  88.9167611
  91.6813165  76.0275047  88.2130952  90.9255598  77.0949144  88.9755564
  87.8524461  76.0995728  88.8529136  87.5142973  75.9836793  87.9649671
  88.7214229  75.6986893  88.8330142  83.7111277  77.9531204  84.8426027
  83.1476142  77.8621141  84.0742315  83.5963672  77.1331109  85.3228520
  88.3344244  77.2530580  94.8115342  88.3232885  76.8583378  93.9395845
  88.4964884  76.5196652  95.4049113  81.2575709  79.4482396  87.6810248
  82.0497001  79.1073221  87.2656547  81.4972359  79.5577371  88.6012401
  89.2910836  81.6202172  80.1540492  88.6398815  82.2056253  79.7674506
  90.0855198  82.1508367  80.2135529  83.2166463  78.7091309  80.5527626
  83.9897339  78.1620296  80.4140502  83.5691862  79.5735559  80.7642088
  85.0551505  80.0367692  93.7594526  84.7641371  80.9413322  93.6441192
  85.6908490  80.0784219  94.4738595  85.9807712  77.4144540  90.3495885
  86.5771284  77.1900562  89.6352848  86.0382684  76.6729286  90.9521333
  85.5532741  74.8683975  78.1846076  85.8058261  74.3465497  77.4229539
  84.6157300  74.7050121  78.2872760  90.5976023  73.8719754  85.9920819
  91.3839113  73.4539177  85.6411236  90.8614728  74.7765846  86.1602468
  90.7686101  79.3092604  80.6909476  90.1331934  79.3827231  81.4030381
  90.4383507  79.8986203  80.0128556  95.9984451  73.8094987  86.8953798
  96.7309623  73.2394204  87.1291627  95.2423806  73.4216587  87.3360304
  85.2729029  76.7712081  80.3870451  85.1565287  76.0956985  81.0551536
  85.3831289  76.2844455  79.5702604  87.6160570  76.2322228  84.0917140
  87.2518778  75.7052849  84.8030062  88.4727686  75.8420698  83.9183626
  93.5209871  67.5216561  91.3548407  93.1893196  68.3911972  91.1309622
  92.9255484  67.2052845  92.0342437  87.2566057  71.2612128  79.0878489
  87.4240460  72.1292365  79.4548960  87.0663226  71.4239410  78.1639778
  90.0141390  79.7229107  90.7544319  89.7142114  80.6254146  90.6460127
  89.6692450  79.4561290  91.6065472  83.4653872  76.1742904  86.7881024
  82.5404368  76.0419118  86.9958716  83.7138285  76.9537123  87.2850966
  93.4138534  72.2411647  88.4341757  92.5055412  72.1727056  88.1400518
  93.3626130  72.7183592  89.2623582  87.2355278  73.7169786  80.0725156
  87.1154903  74.1626836  80.9110636  86.5407867  74.0655103  79.5138694
  80.8262683  75.8176177  87.6224813  80.9555064  76.0710656  88.5364225
  80.1460134  76.4103885  87.3029468  84.9962170  86.4873427  83.7215287
  84.9186200  87.4381253  83.8003768  84.3923814  86.1419300  84.3790213
  87.4879400  73.6601293  96.3776654  86.7112734  74.2195213  96.3679519
  88.1269963  74.1458076  96.8991524  95.2800181  70.4428086  90.2119631
  94.6374561  70.7360619  89.5659425  94.7755109  70.3281006  91.0172827
  92.9340344  74.1891259  80.9005490  93.8458200  74.4218646  80.7253187
  92.4249991  74.7728303  80.3380568  85.7425772  76.4686746  95.9394621
  86.4840457  77.0071790  95.6629445  85.0362758  77.0953035  96.0966173
  91.2181112  78.6115887  94.5366782  91.6264468  78.1698297  93.7921415
  90.4958373  78.0368514  94.7900975  87.5712182  73.5488493  91.9100339
  88.4173377  73.9727907  92.0534988  87.5110820  72.8922118  92.6038902
  91.5409927  79.1717077  88.2919071  90.9118789  79.3362791  87.5895139
  91.1535589  79.5858687  89.0630035  95.4199159  80.1071515  85.6463435
  94.7350197  80.4870417  85.0960468  95.5043008  80.7166842  86.3795383
  90.7211627  71.2092862  93.5681513  90.4772559  71.9634922  93.0315789
  90.9971558  71.5878209  94.4028760  92.6750090  77.7531474  92.2458779
  92.8866985  78.3963234  91.5693160  92.6279838  76.9193791  91.7780709
  90.2776319  70.3649295  89.1495351  89.4160798  70.6630548  89.4412088
  90.3038754  70.5819694  88.2176383  87.0937889  78.9091485  85.5569156
  87.5576234  79.1879188  84.7673779  86.8294687  78.0074930  85.3742247
  83.9861970  78.4562967  88.4948920  84.5563327  78.8850235  87.8566404
  84.5770081  78.1745552  89.1933105  86.0306775  75.0314638  82.3658722
  86.7330818  75.4835681  82.8332648  85.6987403  74.3898457  82.9938615
  84.4787136  73.6226394  96.7409931  83.8485797  74.3042675  96.9745328
  84.3723224  73.5109476  95.7963069  79.7732109  73.2898190  87.6675855
  78.9831163  73.5455719  87.1915966  80.2643356  74.1046528  87.7727896
  93.7895918  80.6303430  90.4181136  94.6113362  80.2283617  90.1363818
  93.7858321  80.5271664  91.3697252  81.7246854  73.6542770  84.6259332
  80.9278017  73.7661464  85.1442827  81.4972446  73.9929422  83.7600222
  87.5552522  80.1787473  92.5741846  87.6196954  80.6407880  93.4100018
  86.8463445  79.5484838  92.7024156  78.0569812  73.5428681  90.0990846
  78.3077850  74.4275691  90.3648422  78.5929360  73.3633282  89.3265938
 101.8801911  76.9742178  86.7666107 101.1265620  76.4049576  86.6110112
 102.0149452  76.9404843  87.7136742  87.2700539  81.8455580  82.4420827
  87.1346214  82.6907116  82.8705675  87.8110352  82.0474858  81.6786761
  83.7567879  67.9247160  99.1035182  83.3634824  67.3713359  99.7782826
  84.5734019  68.2357739  99.4941699  80.7229937  79.3631018  83.0148752
  81.2354457  80.1574269  83.1654317  81.3752649  78.6657309  82.9482353
  82.5324821  82.4796775  85.0971505  82.7091450  83.4014739  84.9092489
  83.3281655  82.1655194  85.5265885  86.6735840  69.3405039  96.6955439
  87.4145553  69.9412192  96.6159901  86.9053763  68.5982677  96.1373481
  81.8177178  74.5261407  94.9733668  81.7030693  73.6246664  95.2740767
  80.9621696  74.7725103  94.6218485  88.8969016  82.4679147  96.5721169
  88.4532870  81.6815525  96.2542073  89.5586229  82.6558297  95.9065060
  83.6556137  83.9974948  91.0981847  84.2063562  83.8692012  90.3258841
  82.8167613  84.2969838  90.7476740  90.9950254  82.7481947  94.6002570
  90.9768729  83.5690828  94.1082839  91.9170174  82.6236022  94.8252711
  87.4523308  80.2626076  95.4426078  87.9851645  79.5014364  95.2125386
  86.9237389  79.9699728  96.1850233  90.6193003  65.3686142  90.9719720
  90.2757272  66.2587784  90.8958831  90.9871965  65.1787800  90.1089305
  78.6878853  77.6919673  83.7908322  79.5254075  78.1016681  83.5742030
  78.8657121  76.7519115  83.7608516  88.1690397  70.2044454  84.5377394
  87.3131993  69.8151305  84.3583032  88.5817348  70.2836415  83.6777179
  89.6989543  67.7390797  88.9368953  89.1954339  67.7020933  88.1236759
  89.9920150  68.6483540  88.9965610  85.9432429  67.8229527  87.9435135
  86.8085426  67.6272336  87.5841025  86.0109938  67.5939879  88.8704492
  95.5577560  78.1127108  81.4145329  94.7807002  77.7738268  80.9700491
  96.2369041  78.1179731  80.7400294  90.3729589  73.2321845  81.3051936
  90.0679724  73.5467995  82.1562080  91.3260031  73.3103265  81.3479269
  88.8176021  79.3912069  82.9544890  88.2897382  78.6564828  82.6418128
  88.3163523  80.1686745  82.7084859  93.7968867  77.5861089  88.0711937
  93.1392541  78.2760351  88.1592065  94.6009266  77.9757521  88.4145923
  83.5494748  70.0531735  85.3151502  84.1238500  69.8306917  84.5824695
  84.1365731  70.1220430  86.0680103  92.6074325  75.9405462  86.1215879
  93.1206207  76.5735454  86.6237588  93.2575549  75.3406657  85.7559239
  83.8764335  72.0836196  79.3347387  83.0401647  72.4210883  79.6556662
  83.7369105  71.9485176  78.3974524  85.8517416  66.9272984  84.0426571
  85.1981828  66.6122001  83.4183186  85.8097890  66.3048724  84.7686394
  86.9628621  77.2092279  75.9579864  86.0555682  76.9781533  76.1571012
  87.4599653  76.4129898  76.1453845  89.8696700  85.9189786  78.8776550
  89.1958398  86.2221483  79.4861508  90.2562522  86.7218867  78.5282007
  89.0855156  73.4154918  88.3674219  88.1677718  73.6369865  88.2095907
  89.5015300  73.4901228  87.5085926  89.8690204  74.8146333  83.4976899
  90.6162023  75.3267730  83.1884021  90.1381793  74.4930386  84.3581293
  88.1416854  77.3104874  80.4803854  87.2328073  77.0263907  80.5776323
  88.1711938  77.7303952  79.6207160  93.3736122  80.9211463  84.2495021
  92.9198449  80.0802373  84.3060212  92.7430088  81.5572862  84.5869801
  91.8169061  82.7587960  85.1844839  92.1092035  83.3193017  84.4657205
  92.3267681  83.0516521  85.9397998  92.4180668  64.6279701  86.0737458
  92.7239545  63.7677065  85.7863373  93.1433273  65.2197322  85.8736452
  78.7105024  75.0310388  84.4619056  78.5129424  74.4379749  83.7370122
  78.1551688  74.7262598  85.1794995  86.6901748  74.9233495  86.5813649
  86.7450358  73.9707331  86.5056126  85.8792950  75.0792934  87.0654947
  87.8392942  78.8513618  77.8191932  87.4012372  78.1349477  77.3597570
  88.5803383  79.0789732  77.2577024  84.6294108  73.5410554  84.3404028
  83.8161974  73.8404725  84.7469220  85.1253102  73.1466243  85.0578510
  86.7802686  83.5368311  86.2738293  86.7378865  83.7629158  85.3446825
  87.6965385  83.3031686  86.4224094  90.2268320  74.0052379  93.1718922
  90.5817707  74.2323852  94.0313387  90.8740451  74.3370756  92.5496177
  95.9566057  77.1270815  83.8768251  95.8183955  77.3172411  82.9489440
  95.6002276  77.8890197  84.3336302  84.1208183  71.1128910  89.9565263
  84.7607562  70.9717669  89.2588226  83.2885713  70.8263423  89.5803865
  95.9835436  79.1947342  88.8879522  96.4171943  79.1022631  89.7362576
  96.6967017  79.1704842  88.2499538  84.8968487  80.4131340  86.0700255
  85.6909085  79.9181660  85.8682830  84.1860179  79.8849203  85.7067961
  89.7163331  82.7949436  90.4212623  89.7700353  83.3640372  91.1890339
  88.8478113  82.9651321  90.0566660  81.2051250  74.5574422  82.1460008
  80.2748838  74.4958877  82.3629970  81.3008722  74.0350375  81.3496649
  81.1236799  71.0829235  84.7338250  81.3843617  71.9974568  84.6247410
  81.9453972  70.6153677  84.8834862  82.5961725  72.4966992  91.9037074
  83.2684778  72.2884354  91.2549723  81.7691511  72.2989078  91.4642306
  96.8450986  79.2371042  91.4212408  97.0386876  80.1416853  91.6671683
  96.7451604  78.7778461  92.2550993  88.4987297  69.1228933  93.9202735
  87.8515212  69.8218883  93.8267211  89.2688312  69.5565077  94.2878983
  91.9066095  79.3877785  96.9953288  91.7551601  79.1588337  96.0783372
  91.8970774  80.3448386  97.0084633  88.6751431  76.9609698  91.9799555
  89.6043491  77.1120857  91.8068522  88.2542461  77.0493719  91.1248201
  87.4739763  80.9860362  89.7498092  87.3350848  80.6179147  90.6224030
  86.6854359  81.5008002  89.5782050  88.0687915  86.0869459  81.0923629
  88.2439670  85.6157502  81.9069252  87.3820703  86.7135225  81.3204890
  89.0244978  80.3641965  87.1386930  88.6894810  80.3242735  88.0344580
  88.5248924  79.6986681  86.6657340  82.9989222  75.7709595  92.6639511
  82.8609020  75.0389834  93.2651050  83.9094145  75.6818495  92.3823699
  91.9604170  77.7097999  77.4123990  91.3433340  76.9844827  77.3157042
  91.4920658  78.4707360  77.0691064  85.6271523  75.4829554  92.1523191
  86.3371141  74.8422746  92.1109809  85.5840831  75.7342449  93.0749372
  93.6158301  82.4196908  95.0729770  93.5570847  81.7356128  94.4060353
  94.0177820  83.1615898  94.6210396  84.3400456  72.4694772  93.9718830
  83.8037814  72.0185511  94.6240427  83.7517165  72.6040681  93.2289295
  82.6349000  89.2358821  87.8663489  82.8745598  89.8677346  88.5442508
  81.7918196  88.8846861  88.1528848  83.7502715  71.9283424  76.5345294
  82.8732182  71.8072224  76.1707541  84.2260469  71.1369502  76.2824183
  93.6175708  80.3836492  93.3043750  92.7302487  80.0462413  93.4270149
  94.1874260  79.6519523  93.5412515  75.2704856  76.7160583  86.6286801
  75.9575895  76.4022313  86.0407817  75.1152984  77.6201948  86.3554053
  80.0739578  71.6050780  91.0571825  79.9897766  70.9976449  90.3222235
  79.2522284  72.0959798  91.0581321  87.1476862  85.0437944  90.2704993
  87.0747033  85.8492915  90.7824298  86.7054255  85.2429910  89.4453014
  86.9366641  84.2809714  83.7807815  86.1534163  84.8231394  83.8746039
  87.6359387  84.7983694  84.1802056  98.0993049  75.7944709  88.0660311
  98.0882925  76.6769424  87.6954245  97.2310428  75.4416260  87.8714849
  89.6075545  84.9424778  92.4263152  90.3203518  85.5772243  92.3539053
  89.1165574  85.0388644  91.6103154  91.3293072  78.8476031  83.9980443
  90.3949351  78.9677493  83.8285148  91.5069741  77.9448497  83.7340453
  86.8298260  72.2321726  86.1513705  86.4596048  71.6792767  86.8394610
  87.3257353  71.6279860  85.5988705  94.7165624  74.6893350  84.5330477
  95.1826076  75.5221341  84.4590780  95.1673124  74.2238331  85.2375736
  84.6587459  82.6919221  93.2468722  85.3596918  83.3255704  93.3998117
  84.1882574  83.0333953  92.4864362  92.6882286  67.0573937  88.5721379
  91.7745366  67.2878164  88.7403586  93.1175388  67.1412381  89.4235411
  92.4588745  75.2463829  91.0721273  91.8060195  75.4939736  90.4173726
  92.8369125  74.4327967  90.7383750  89.4195919  85.2823522  85.1749443
  89.6018313  84.4645178  85.6377195  90.2428905  85.4991214  84.7374333
  89.7538084  84.2091707  82.4364492  90.2825851  83.6984162  81.8234654
  90.0166304  83.8934237  83.3010025  88.5076318  75.9883640  97.5587310
  87.8316955  75.8877769  98.2289685  89.3303952  75.8322854  98.0223307
  80.2555177  82.2255576  90.1799825  80.8408614  81.4799264  90.3127729
  80.0580015  82.5359533  91.0636489  74.8472832  74.7961177  88.9004268
  74.8856931  74.2624767  89.6941386  74.3413125  74.2696382  88.2815246
  87.2499101  87.2950567  91.7944926  87.8017409  87.4582189  92.5594011
  87.5905294  87.8855005  91.1224951  82.2263594  69.6425717  92.3966811
  82.2904920  70.5040548  91.9844208  82.1630714  69.0299719  91.6639169
  81.7015867  71.7148850  96.0439845  82.3287905  71.3325927  96.6577369
  80.8443785  71.4963052  96.4095537  92.1009975  82.1211825  97.6493580
  92.6449879  82.7341783  97.1548535  91.5196820  82.6791403  98.1660593
  78.4781409  73.5225279  81.9758200  78.7734850  72.6135957  81.9225253
  77.5769445  73.5013018  81.6539202  90.3867488  85.2432543  88.7808608
  90.2618628  84.4422283  88.2719554  91.0446579  85.7378736  88.2922578
  82.0075656  71.5981275  87.9585748  81.2862242  72.2117243  87.8193222
  82.7968912  72.1339040  87.8802394  92.4502396  83.0441563  90.4088158
  91.5032732  82.9246914  90.3366485  92.7985170  82.1564061  90.4914420
  84.8101970  68.9335702  94.2326400  85.3336372  69.1797998  94.9952709
  84.5914303  69.7655737  93.8129537  80.2069251  71.2039376  82.0997525
  79.8781957  70.3236755  81.9172631  80.5608622  71.1487045  82.9873914
  89.4548830  82.8394279  86.6092510  89.3073792  81.9110987  86.7900080
  90.2802323  82.8614370  86.1249586  83.3211074  71.4912346  82.4673003
  83.6607147  72.0198267  81.7451611  83.7683195  71.8292752  83.2431569
  93.0582952  83.6622838  87.6957383  93.9829499  83.4565699  87.5581834
  92.8898255  83.4139239  88.6046725  86.0154515  69.8749397  91.9176071
  85.6751335  69.0757210  92.3196750  85.3093521  70.1751108  91.3452904
  86.6670987  66.9598709  90.3703394  87.4897056  66.4859188  90.2482284
  86.9109050  67.7389193  90.8702080  85.3079221  69.9886968  80.6666295
  86.0287584  70.3668221  80.1630012  84.6844525  70.7075845  80.7701273
  89.4510344  70.6932117  81.6024628  89.6673958  71.5756755  81.3013456
  88.9704411  70.3018330  80.8730270  84.1909565  73.6517830  88.1795372
  84.0454146  73.9658133  89.0719654  83.7134769  74.2702730  87.6266271
  86.0505948  70.6420378  88.2276262  86.0367517  69.7461471  87.8908560
  86.7678376  70.6491042  88.8614548  87.9032079  71.0757718  90.2729389
  87.6449857  71.9974789  90.2713720  87.3717119  70.6788153  90.9629853
  92.8478268  84.1808505  83.0519475  93.0215145  83.6154928  82.2993327
  93.3407159  84.9809400  82.8698965  78.6655228  76.1923174  91.1183033
  78.1208696  76.9682982  91.2503308  79.5434577  76.5393979  90.9602155
  85.4542844  69.5234758  83.4963832  85.5758755  68.5951404  83.6954719
  85.1644887  69.5373444  82.5842147  88.3234035  67.2089669  86.6330552
  88.3455731  67.2729002  85.6782531  88.7402094  66.3694177  86.8271058
  98.7017659  76.9444928  84.6709774  99.1448805  76.1952253  84.2728898
  97.8244169  76.9355065  84.2883506  93.8353440  83.4975270  80.1516373
  94.5304345  84.1181962  80.3703688  94.1776590  82.6470621  80.4268751
  79.4521249  75.3193071  94.0113190  78.7102985  75.4675706  94.5977821
  79.1313994  75.5801336  93.1479940  95.7344863  80.9474975  81.6803704
  96.2596187  81.2862248  80.9553024  95.6467216  80.0121991  81.4966838
  87.3964912  84.8609049  93.8093580  87.7052039  84.6158196  94.6816280
  88.1940394  85.0655687  93.3212451  87.4185524  87.0146959  86.0398957
  86.9790514  86.5223337  86.7331814  88.1693641  86.4719926  85.7991032
  79.8977863  83.2058499  86.0423585  80.7235883  82.9062271  85.6622228
  79.5471915  82.4366122  86.4913374  84.8659396  82.5584968  88.1121259
  84.2439406  81.8955673  87.8123486  85.5364263  82.5846100  87.4294906
  78.0986468  81.1244826  87.0012519  77.2618376  80.6967000  86.8196520
  78.0710114  81.3177269  87.9383310  84.9383924  71.0366756  97.7053765
  84.9872079  71.9128878  97.3231534  85.4806438  70.4944149  97.1325408
  95.4238769  81.5807879  96.9854902  94.6334313  81.5632018  96.4459401
  95.1872124  82.1196173  97.7403938  95.5436645  78.4300345  94.2987630
  95.5934649  78.2650353  95.2403153  95.4350568  77.5627604  93.9085511
  84.4272903  81.1088891  81.5879719  84.5761024  81.7924355  80.9346392
  85.2339347  81.0893981  82.1029175  92.8340407  74.4131273  95.6146937
  93.7350270  74.2737738  95.3230935  92.9088381  74.5785728  96.5545114
  87.1683212  71.7898128  94.4600123  86.2986522  72.0831694  94.1882712
  87.4042693  72.3738573  95.1807387  97.0454841  80.8497287  94.5429652
  96.7539650  81.2127267  95.3793113  96.4326973  80.1364295  94.3642984
  98.2450524  78.4150167  87.0632222  99.0797415  78.8539971  87.2269782
  98.3809652  77.9388820  86.2440468  95.2942030  75.9729901  93.0109710
  95.7696151  76.1657548  92.2028561  94.3707595  76.0289087  92.7653093
  82.1825536  77.1354069  82.5940788  81.9371578  76.2316399  82.7920998
  82.3521451  77.1371219  81.6520266  89.8722246  68.0077745  91.9765544
  90.3904190  68.7438772  91.6512032  89.5177379  68.3141738  92.8112303
  81.4521184  72.8682426  80.0926949  80.7590429  72.9426781  79.4366985
  81.2072936  72.1042770  80.6148466  90.1234840  64.4278028  87.4966440
  90.4036594  63.7601217  88.1226867  90.9085447  64.6207123  86.9841104
  87.9268309  83.6037021  79.0591466  87.3542276  84.2227209  78.6061938
  88.5001102  84.1536383  79.5931388  93.9943699  72.8495662  91.2438015
  94.9461121  72.9493759  91.2650239  93.8247149  72.0573930  91.7536100
  92.0158078  69.9351245  91.4297416  91.4208010  70.2156257  90.7343905
  91.7307775  70.4245146  92.2014157  93.7753585  83.2040042  77.1503996
  93.6967217  82.8699906  78.0439754  94.5963252  83.6961810  77.1495469
  96.4731776  76.0701781  90.3580315  96.4408096  75.1317782  90.5439999
  97.0832400  76.1485818  89.6246140  88.3115107  74.9397834  76.4007519
  89.2574212  74.8104042  76.4695937  87.9329352  74.2012496  76.8776947
  96.6226265  72.8612825  90.4038598  96.1065314  72.0771281  90.2168527
  97.5066213  72.5331541  90.5685118 102.2908326  77.1317788  89.4986352
 103.0211715  76.8703076  90.0594055 101.6815272  76.3946510  89.5388420
 100.3723623  75.2725651  90.0960803  99.6456787  75.1381616  89.4877295
  99.9570910  75.5802479  90.9017521  88.1953800  78.9915580  97.8608176
  89.1156809  79.1694179  98.0548222  88.1603383  78.0471626  97.7087875
  86.4958024  72.8647811  76.3362404  85.5889480  72.5680923  76.4125118
  86.7734005  72.5677629  75.4696690  77.4135965  74.1854174  86.7861451
  77.0938749  73.3319482  86.4935825  76.8669393  74.4002752  87.5419418
  81.1915872  76.9016615  90.5030957  81.4101882  77.8333723  90.5218991
  81.6041646  76.5424589  91.2885761  88.1120090  67.4084700  82.4906645
  87.3020818  67.0631785  82.8661892  88.8004507  67.0992244  83.0794257
  90.0410638  66.4862747  84.1130942  90.5941677  66.9058201  84.7720965
  90.2780725  65.5598495  84.1553898  86.0643738  72.4749821  99.8933706
  85.9640465  73.4244178  99.8245797  85.8465280  72.1468060  99.0209776
  85.2656809  69.7234746  76.4774383  86.1275973  70.0489644  76.7370201
  85.4507153  68.9366242  75.9647449  77.2824225  77.8057085  88.7554572
  76.5887696  77.3911038  88.2424527  78.0297216  77.8477622  88.1587991
  91.8693012  67.9968330  85.8230927  92.3692790  68.1084864  85.0145246
  92.5128620  67.6929383  86.4631735  85.9275008  75.9046960  98.7098768
  85.4442089  76.7047320  98.9162657  86.0135947  75.9154904  97.7566212
  79.1960967  77.7375339  86.6320587  79.1731655  77.8363027  85.6802470
  79.5061604  78.5840490  86.9537753  81.8548345  79.7951494  90.7467201
  82.8091599  79.7635437  90.6797133  81.6560869  79.3342118  91.5617427
  82.4447727  78.3652610  93.3137999  83.2640616  78.8596689  93.3372836
  82.7184535  77.4484578  93.2855567  92.2014324  70.7563363  82.6765955
  91.3140179  71.0413013  82.4586149  92.6168313  70.5957126  81.8293232
  95.5528860  70.7809884  86.3920294  96.3289250  71.2706336  86.6644911
  94.8276994  71.2067938  86.8492163  97.9901418  71.4937503  87.4494235
  98.5845909  71.2533239  86.7387543  98.0628002  70.7744633  88.0767771
  80.2098574  85.3371114  87.7637399  80.0753042  84.5771515  87.1975397
  79.7930636  86.0612014  87.2966188  95.9860153  72.0607630  83.7166364
  95.7297087  71.6604266  84.5474572  95.3613021  72.7751424  83.5916503
 100.2972491  74.8003704  86.2237656  99.7372049  74.8696893  86.9969218
  99.6915994  74.6244688  85.5037152  83.3667700  86.2340431  87.9755842
  83.2500084  87.1785863  87.8734532  82.5460146  85.9313992  88.3641641
  93.2544234  80.9590567  78.8212435  94.0889838  80.5271765  78.6389909
  93.0928577  80.7872580  79.7489329  92.9090127  77.4622680  80.1868774
  92.8538930  77.2966951  79.2457218  92.2836182  78.1698713  80.3430964
  77.6982642  72.6990744  94.0130196  78.3441505  72.1889698  94.5017421
  77.4899793  73.4359426  94.5873621  90.2236034  79.7671592  99.5122337
  91.0927193  79.9412244  99.1508972  89.7442785  80.5866008  99.3898066
  86.2186252  66.9630789  79.7654092  86.2064922  67.9072629  79.9222363
  87.1109674  66.7800934  79.4713554  84.3922214  86.8868693  91.1911770
  85.2949461  86.9192303  91.5078265  84.1659584  85.9569144  91.2058106
  86.1475816  85.6399679  87.8521849  85.1971447  85.6401541  87.7386221
  86.4508302  84.8932414  87.3357884  90.0338371  63.5573565  84.0200029
  89.2670767  63.0032052  84.1656712  90.4449076  63.6295434  84.8814181
  82.0380133  69.8458361  98.1105210  82.9011594  69.4895166  98.3208535
  81.4645543  69.5072256  98.7980615 101.8828509  91.4760218  88.9167611
 102.5206919  91.3566965  88.2130952 101.7649352  92.4241062  88.9755564
  98.6918216  91.4287646  88.8529136  98.3536727  91.3128710  87.9649671
  99.5607984  91.0278811  88.8330142  94.5505031  93.2823122  84.8426027
  93.9869897  93.1913059  84.0742315  94.4357426  92.4623027  85.3228520
  99.1737999  92.5822497  94.8115342  99.1626640  92.1875296  93.9395845
  99.3358638  91.8488570  95.4049113  92.0969463  94.7774314  87.6810248
  92.8890755  94.4365138  87.2656547  92.3366114  94.8869289  88.6012401
 100.1304590  96.9494090  80.1540492  99.4792570  97.5348170  79.7674506
 100.9248953  97.4800285  80.2135529  94.0560217  94.0383227  80.5527626
  94.8291093  93.4912214  80.4140502  94.4085616  94.9027476  80.7642088
  95.8945260  95.3659609  93.7594526  95.6035126  96.2705240  93.6441192
  96.5302244  95.4076137  94.4738595  96.8201467  92.7436458  90.3495885
  97.4165039  92.5192480  89.6352848  96.8776438  92.0021203  90.9521333
  96.3926495  90.1975893  78.1846076  96.6452016  89.6757414  77.4229539
  95.4551054  90.0342039  78.2872760 101.4369778  89.2011671  85.9920819
 102.2232867  88.7831095  85.6411236 101.7008482  90.1057764  86.1602468
 101.6079855  94.6384522  80.6909476 100.9725688  94.7119148  81.4030381
 101.2777262  95.2278121  80.0128556 106.8378205  89.1386905  86.8953798
 107.5703377  88.5686121  87.1291627 106.0817561  88.7508505  87.3360304
  96.1122784  92.1003999  80.3870451  95.9959042  91.4248902  81.0551536
  96.2225044  91.6136373  79.5702604  98.4554325  91.5614146  84.0917140
  98.0912532  91.0344767  84.8030062  99.3121441  91.1712615  83.9183626
 104.3603625  82.8508479  91.3548407 104.0286950  83.7203890  91.1309622
 103.7649239  82.5344763  92.0342437  98.0959812  86.5904046  79.0878489
  98.2634214  87.4584282  79.4548960  97.9056981  86.7531328  78.1639778
 100.8535145  95.0521025  90.7544319 100.5535868  95.9546064  90.6460127
 100.5086204  94.7853208  91.6065472  94.3047626  91.5034822  86.7881024
  93.3798123  91.3711036  86.9958716  94.5532040  92.2829041  87.2850966
 104.2532289  87.5703565  88.4341757 103.3449166  87.5018973  88.1400518
 104.2019885  88.0475510  89.2623582  98.0749033  89.0461703  80.0725156
  97.9548658  89.4918754  80.9110636  97.3801621  89.3947021  79.5138694
  91.6656437  91.1468095  87.6224813  91.7948819  91.4002574  88.5364225
  90.9853889  91.7395803  87.3029468  95.8355925 101.8165345  83.7215287
  95.7579954 102.7673170  83.8003768  95.2317568 101.4711218  84.3790213
  98.3273155  88.9893211  96.3776654  97.5506489  89.5487131  96.3679519
  98.9663718  89.4749994  96.8991524 106.1193935  85.7720003  90.2119631
 105.4768315  86.0652537  89.5659425 105.6148864  85.6572924  91.0172827
 103.7734099  89.5183177  80.9005490 104.6851955  89.7510563  80.7253187
 103.2643746  90.1020221  80.3380568  96.5819527  91.7978664  95.9394621
  97.3234211  92.3363708  95.6629445  95.8756512  92.4244953  96.0966173
 102.0574866  93.9407804  94.5366782 102.4658223  93.4990215  93.7921415
 101.3352128  93.3660432  94.7900975  98.4105937  88.8780411  91.9100339
  99.2567132  89.3019825  92.0534988  98.3504574  88.2214035  92.6038902
 102.3803681  94.5008995  88.2919071 101.7512544  94.6654709  87.5895139
 101.9929343  94.9150605  89.0630035 106.2592913  95.4363433  85.6463435
 105.5743951  95.8162334  85.0960468 106.3436762  96.0458759  86.3795383
 101.5605382  86.5384779  93.5681513 101.3166314  87.2926840  93.0315789
 101.8365312  86.9170127  94.4028760 103.5143845  93.0823392  92.2458779
 103.7260740  93.7255152  91.5693160 103.4673593  92.2485708  91.7780709
 101.1170074  85.6941213  89.1495351 100.2554553  85.9922466  89.4412088
 101.1432508  85.9111611  88.2176383  97.9331643  94.2383403  85.5569156
  98.3969989  94.5171106  84.7673779  97.6688441  93.3366848  85.3742247
  94.8255724  93.7854885  88.4948920  95.3957081  94.2142153  87.8566404
  95.4163836  93.5037469  89.1933105  96.8700529  90.3606555  82.3658722
  97.5724572  90.8127599  82.8332648  96.5381158  89.7190374  82.9938615
  95.3180891  88.9518312  96.7409931  94.6879551  89.6334593  96.9745328
  95.2116978  88.8401394  95.7963069  90.6125863  88.6190108  87.6675855
  89.8224917  88.8747637  87.1915966  91.1037110  89.4338446  87.7727896
 104.6289673  95.9595347  90.4181136 105.4507116  95.5575535  90.1363818
 104.6252075  95.8563581  91.3697252  92.5640608  88.9834687  84.6259332
  91.7671772  89.0953382  85.1442827  92.3366201  89.3221340  83.7600222
  98.3946276  95.5079391  92.5741846  98.4590709  95.9699798  93.4100018
  97.6857200  94.8776755  92.7024156  88.8963566  88.8720599  90.0990846
  89.1471604  89.7567608  90.3648422  89.4323114  88.6925200  89.3265938
 112.7195666  92.3034096  86.7666107 111.9659374  91.7341494  86.6110112
 112.8543207  92.2696760  87.7136742  98.1094294  97.1747498  82.4420827
  97.9739968  98.0199034  82.8705675  98.6504106  97.3766776  81.6786761
  94.5961633  83.2539078  99.1035182  94.2028579  82.7005276  99.7782826
  95.4127774  83.5649656  99.4941699  91.5623691  94.6922936  83.0148752
  92.0748212  95.4866186  83.1654317  92.2146404  93.9949227  82.9482353
  93.3718576  97.8088692  85.0971505  93.5485204  98.7306657  84.9092489
  94.1675409  97.4947112  85.5265885  97.5129594  84.6696957  96.6955439
  98.2539308  85.2704110  96.6159901  97.7447517  83.9274595  96.1373481
  92.6570932  89.8553324  94.9733668  92.5424447  88.9538582  95.2740767
  91.8015450  90.1017021  94.6218485  99.7362770  97.7971065  96.5721169
  99.2926624  97.0107443  96.2542073 100.3979984  97.9850215  95.9065060
  94.4949891  99.3266866  91.0981847  95.0457316  99.1983930  90.3258841
  93.6561367  99.6261755  90.7476740 101.8344008  98.0773865  94.6002570
 101.8162483  98.8982746  94.1082839 102.7563928  97.9527940  94.8252711
  98.2917062  95.5917994  95.4426078  98.8245399  94.8306282  95.2125386
  97.7631143  95.2991646  96.1850233 101.4586757  80.6978060  90.9719720
 101.1151027  81.5879702  90.8958831 101.8265720  80.5079718  90.1089305
  89.5272608  93.0211590  83.7908322  90.3647830  93.4308599  83.5742030
  89.7050876  92.0811033  83.7608516 101.4237040  90.6886671  79.4792155
 100.9083663  91.4591276  79.7180543 101.1514348  90.0151807  80.1025217
  99.0084151  85.5336372  84.5377394  98.1525747  85.1443222  84.3583032
  99.4211103  85.6128333  83.6777179 100.5383298  83.0682715  88.9368953
 100.0348093  83.0312850  88.1236759 100.8313905  83.9775458  88.9965610
  96.7826184  83.1521445  87.9435135  97.6479180  82.9564254  87.5841025
  96.8503692  82.9231797  88.8704492 106.3971314  93.4419026  81.4145329
 105.6200757  93.1030185  80.9700491 107.0762795  93.4471649  80.7400294
 101.2123343  88.5613763  81.3051936 100.9073479  88.8759912  82.1562080
 102.1653785  88.6395183  81.3479269  99.6569775  94.7203986  82.9544890
  99.1291137  93.9856746  82.6418128  99.1557278  95.4978663  82.7084859
 104.6362621  92.9153007  88.0711937 103.9786295  93.6052268  88.1592065
 105.4403020  93.3049439  88.4145923  94.3888503  85.3823653  85.3151502
  94.9632255  85.1598834  84.5824695  94.9759485  85.4512347  86.0680103
 103.4468080  91.2697380  86.1215879 103.9599962  91.9027371  86.6237588
 104.0969304  90.6698575  85.7559239  94.7158090  87.4128114  79.3347387
  93.8795402  87.7502800  79.6556662  94.5762859  87.2777094  78.3974524
  96.6911170  82.2564902  84.0426571  96.0375583  81.9413919  83.4183186
  96.6491644  81.6340642  84.7686394  97.8022375  92.5384197  75.9579864
  96.8949437  92.3073450  76.1571012  98.2993407  91.7421816  76.1453845
 100.7090454 101.2481704  78.8776550 100.0352153 101.5513401  79.4861508
 101.0956276 102.0510784  78.5282007  99.9248911  88.7446835  88.3674219
  99.0071472  88.9661782  88.2095907 100.3409054  88.8193146  87.5085926
 100.7083958  90.1438251  83.4976899 101.4555777  90.6559648  83.1884021
 100.9775548  89.8222304  84.3581293  98.9810609  92.6396792  80.4803854
  98.0721828  92.3555824  80.5776323  99.0105692  93.0595870  79.6207160
 104.2129876  96.2503381  84.2495021 103.7592203  95.4094291  84.3060212
 103.5823843  96.8864779  84.5869801 103.1562796  87.1795367  85.4795689
 102.4185552  86.6672753  85.8105931 103.4089569  86.7395749  84.6678965
 102.6562815  98.0879878  85.1844839 102.9485790  98.6484935  84.4657205
 103.1661436  98.3808439  85.9397998 103.2574423  79.9571619  86.0737458
 103.5633300  79.0968983  85.7863373 103.9827028  80.5489239  85.8736452
  89.5498779  90.3602306  84.4619056  89.3523179  89.7671666  83.7370122
  88.9945443  90.0554516  85.1794995  97.5295503  90.2525412  86.5813649
  97.5844112  89.2999249  86.5056126  96.7186705  90.4084851  87.0654947
  98.6786696  94.1805535  77.8191932  98.2406126  93.4641394  77.3597570
  99.4197137  94.4081650  77.2577024  95.4687863  88.8702472  84.3404028
  94.6555728  89.1696642  84.7469220  95.9646857  88.4758161  85.0578510
  97.6196440  98.8660229  86.2738293  97.5772619  99.0921075  85.3446825
  98.5359139  98.6323603  86.4224094 101.0662074  89.3344296  93.1718922
 101.4211462  89.5615770  94.0313387 101.7134205  89.6662673  92.5496177
 106.7959811  92.4562732  83.8768251 106.6577710  92.6464328  82.9489440
 106.4396030  93.2182115  84.3336302  94.9601937  86.4420827  89.9565263
  95.6001317  86.3009587  89.2588226  94.1279468  86.1555341  89.5803865
 106.8229191  94.5239259  88.8879522 107.2565697  94.4314548  89.7362576
 107.5360771  94.4996760  88.2499538  95.7362241  95.7423258  86.0700255
  96.5302840  95.2473578  85.8682830  95.0253934  95.2141121  85.7067961
 100.5557086  98.1241353  90.4212623 100.6094108  98.6932290  91.1890339
  99.6871867  98.2943238  90.0566660  92.0445005  89.8866340  82.1460008
  91.1142593  89.8250795  82.3629970  92.1402477  89.3642292  81.3496649
  91.9630554  86.4121152  84.7338250  92.2237371  87.3266486  84.6247410
  92.7847726  85.9445595  84.8834862  93.4355479  87.8258910  91.9037074
  94.1078533  87.6176272  91.2549723  92.6085266  87.6280996  91.4642306
 107.6844740  94.5662960  91.4212408 107.8780630  95.4708770  91.6671683
 107.5845359  94.1070379  92.2550993  99.3381051  84.4520851  93.9202735
  98.6908966  85.1510800  93.8267211 100.1082066  84.8856994  94.2878983
 102.7459849  94.7169703  96.9953288 102.5945355  94.4880254  96.0783372
 102.7364529  95.6740304  97.0084633  99.5145185  92.2901615  91.9799555
 100.4437245  92.4412775  91.8068522  99.0936215  92.3785636  91.1248201
  98.3133517  96.3152280  89.7498092  98.1744603  95.9471064  90.6224030
  97.5248113  96.8299919  89.5782050  98.9081669 101.4161376  81.0923629
  99.0833425 100.9449420  81.9069252  98.2214457 102.0427143  81.3204890
  99.8638732  95.6933883  87.1386930  99.5288565  95.6534653  88.0344580
  99.3642678  95.0278598  86.6657340  93.8382976  91.1001513  92.6639511
  93.7002774  90.3681751  93.2651050  94.7487900  91.0110413  92.3823699
 102.7997924  93.0389917  77.4123990 102.1827095  92.3136745  77.3157042
 102.3314412  93.7999277  77.0691064  96.4665277  90.8121472  92.1523191
  97.1764896  90.1714664  92.1109809  96.4234585  91.0634367  93.0749372
 104.4552056  97.7488825  95.0729770 104.3964602  97.0648045  94.4060353
 104.8571574  98.4907815  94.6210396  95.1794211  87.7986690  93.9718830
  94.6431568  87.3477428  94.6240427  94.5910919  87.9332599  93.2289295
  93.4742754 104.5650739  87.8663489  93.7139353 105.1969263  88.5442508
  92.6311951 104.2138779  88.1528848  94.5896470  87.2575341  76.5345294
  93.7125936  87.1364142  76.1707541  95.0654223  86.4661420  76.2824183
 104.4569463  95.7128409  93.3043750 103.5696242  95.3754331  93.4270149
 105.0268014  94.9811440  93.5412515  86.1098610  92.0452501  86.6286801
  86.7969650  91.7314231  86.0407817  85.9546739  92.9493866  86.3554053
  90.9133332  86.9342698  91.0571825  90.8291521  86.3268367  90.3222235
  90.0916039  87.4251716  91.0581321  97.9870616 100.3729862  90.2704993
  97.9140788 101.1784833  90.7824298  97.5448009 100.5721827  89.4453014
  97.7760396  99.6101632  83.7807815  96.9927918 100.1523312  83.8746039
  98.4753141 100.1275611  84.1802056 101.0857046  85.4196261  86.4242020
 101.5825746  84.6666223  86.1043090 100.3144028  85.4560578  85.8585229
 108.9386803  91.1236627  88.0660311 108.9276680  92.0061342  87.6954245
 108.0704183  90.7708177  87.8714849 100.4469300 100.2716696  92.4263152
 101.1597272 100.9064160  92.3539053  99.9559329 100.3680562  91.6103154
 102.1686827  94.1767948  83.9980443 101.2343106  94.2969411  83.8285148
 102.3463495  93.2740415  83.7340453  97.6692015  87.5613644  86.1513705
  97.2989802  87.0084684  86.8394610  98.1651107  86.9571778  85.5988705
 105.5559378  90.0185268  84.5330477 106.0219830  90.8513259  84.4590780
 106.0066879  89.5530249  85.2375736  95.4981213  98.0211139  93.2468722
  96.1990673  98.6547622  93.3998117  95.0276328  98.3625871  92.4864362
 103.6235609  96.3629089  81.5316630 103.8995453  96.2485683  82.4410504
 102.7540108  95.9646574  81.4928803 103.5276041  82.3865855  88.5721379
 102.6139121  82.6170081  88.7403586 103.9569142  82.4704299  89.4235411
 103.2982499  90.5755746  91.0721273 102.6453950  90.8231654  90.4173726
 103.6762879  89.7619885  90.7383750 100.2589673 100.6115440  85.1749443
 100.4412068  99.7937096  85.6377195 101.0822659 100.8283132  84.7374333
 100.5931839  99.5383625  82.4364492 101.1219605  99.0276079  81.8234654
 100.8560058  99.2226155  83.3010025  99.3470072  91.3175558  97.5587310
  98.6710709  91.2169687  98.2289685 100.1697706  91.1614771  98.0223307
  91.0948931  97.5547494  90.1799825  91.6802368  96.8091182  90.3127729
  90.8973770  97.8651451  91.0636489  93.9487587 100.5898741  85.1962268
  93.2797962 101.0744869  84.7126308  93.8100456 100.8367962  86.1105646
  85.6866586  90.1253094  88.9004268  85.7250686  89.5916685  89.6941386
  85.1806879  89.5988300  88.2815246  98.0892855 102.6242485  91.7944926
  98.6411163 102.7874107  92.5594011  98.4299049 103.2146923  91.1224951
  93.0657348  84.9717635  92.3966811  93.1298675  85.8332466  91.9844208
  93.0024469  84.3591636  91.6639169  92.5409621  87.0440767  96.0439845
  93.1681660  86.6617845  96.6577369  91.6837540  86.8254969  96.4095537
  89.3175164  88.8517196  81.9758200  89.6128605  87.9427875  81.9225253
  88.4163200  88.8304936  81.6539202 101.2261243 100.5724461  88.7808608
 101.1012382  99.7714200  88.2719554 101.8840334 101.0670654  88.2922578
  92.8469411  86.9273193  87.9585748  92.1255997  87.5409161  87.8193222
  93.6362667  87.4630958  87.8802394 103.2896151  98.3733481  90.4088158
 102.3426486  98.2538832  90.3366485 103.6378924  97.4855979  90.4914420
  95.6495724  84.2627620  94.2326400  96.1730126  84.5089916  94.9952709
  95.4308058  85.0947654  93.8129537  91.0463005  86.5331294  82.0997525
  90.7175712  85.6528673  81.9172631  91.4002376  86.4778963  82.9873914
 100.2942584  98.1686197  86.6092510 100.1467547  97.2402904  86.7900080
 101.1196078  98.1906288  86.1249586  94.1604829  86.8204264  82.4673003
  94.5000901  87.3490185  81.7451611  94.6076949  87.1584670  83.2431569
 103.8976706  98.9914756  87.6957383 104.8223254  98.7857617  87.5581834
 103.7292009  98.7431157  88.6046725  96.8548269  85.2041315  91.9176071
  96.5145090  84.4049128  92.3196750  96.1487276  85.5043025  91.3452904
  97.5064741  82.2890627  90.3703394  98.3290810  81.8151105  90.2482284
  97.7502805  83.0681111  90.8702080  96.1472976  85.3178886  80.6666295
  96.8681338  85.6960138  80.1630012  95.5238280  86.0367762  80.7701273
 100.2904099  86.0224034  81.6024628 100.5067713  86.9048672  81.3013456
  99.8098166  85.6310248  80.8730270  95.0303320  88.9809748  88.1795372
  94.8847901  89.2950051  89.0719654  94.5528524  89.5994648  87.6266271
  96.8899703  85.9712296  88.2276262  96.8761272  85.0753389  87.8908560
  97.6072131  85.9782959  88.8614548  98.7425834  86.4049636  90.2729389
  98.4843611  87.3266707  90.2713720  98.2110874  86.0080070  90.9629853
 103.6872022  99.5100423  83.0519475 103.8608900  98.9446845  82.2993327
 104.1800914 100.3101318  82.8698965  89.5048982  91.5215092  91.1183033
  88.9602450  92.2974900  91.2503308  90.3828332  91.8685897  90.9602155
  96.2936599  84.8526676  83.4963832  96.4152510  83.9243322  83.6954719
  96.0038641  84.8665362  82.5842147  99.1627789  82.5381586  86.6330552
  99.1849486  82.6020919  85.6782531  99.5795848  81.6986095  86.8271058
 109.5411413  92.2736846  84.6709774 109.9842559  91.5244171  84.2728898
 108.6637924  92.2646982  84.2883506 104.6747195  98.8267187  80.1516373
 105.3698099  99.4473880  80.3703688 105.0170345  97.9762539  80.4268751
  90.2915004  90.6484988  94.0113190  89.5496740  90.7967624  94.5977821
  89.9707748  90.9093254  93.1479940 106.5738618  96.2766893  81.6803704
 107.0989942  96.6154166  80.9553024 106.4860970  95.3413908  81.4966838
  98.2358667 100.1900967  93.8093580  98.5445793  99.9450113  94.6816280
  99.0334149 100.3947605  93.3212451  98.2579279 102.3438876  86.0398957
  97.8184269 101.8515255  86.7331814  99.0087396 101.8011844  85.7991032
  90.7371618  98.5350417  86.0423585  91.5629638  98.2354189  85.6622228
  90.3865670  97.7658040  86.4913374  95.7053151  97.8876885  88.1121259
  95.0833160  97.2247590  87.8123486  96.3758018  97.9138017  87.4294906
  88.9380223  96.4536744  87.0012519  88.1012131  96.0258918  86.8196520
  88.9103868  96.6469187  87.9383310  95.7777678  86.3658673  97.7053765
  95.8265834  87.2420796  97.3231534  96.3200192  85.8236066  97.1325408
 106.3830399  93.7592263  94.2987630 106.4328404  93.5942270  95.2403153
 106.2744322  92.8919522  93.9085511  95.2666658  96.4380809  81.5879719
  95.4154778  97.1216273  80.9346392  96.0733101  96.4185899  82.1029175
 103.6734161  89.7423191  95.6146937 104.5744024  89.6029656  95.3230935
 103.7482136  89.9077646  96.5545114  98.0076967  87.1190046  94.4600123
  97.1380276  87.4123612  94.1882712  98.2436447  87.7030491  95.1807387
 107.8848596  96.1789204  94.5429652 107.5933404  96.5419185  95.3793113
 107.2720727  95.4656213  94.3642984 109.0844278  93.7442084  87.0632222
 109.9191170  94.1831888  87.2269782 109.2203407  93.2680737  86.2440468
 106.1335784  91.3021819  93.0109710 106.6089906  91.4949465  92.2028561
 105.2101349  91.3581005  92.7653093  93.0219291  92.4645986  82.5940788
  92.7765333  91.5608316  82.7920998  93.1915205  92.4663137  81.6520266
 100.7116001  83.3369663  91.9765544 101.2297944  84.0730690  91.6512032
 100.3571133  83.6433656  92.8112303  92.2914938  88.1974344  80.0926949
  91.5984183  88.2718699  79.4366985  92.0466690  87.4334688  80.6148466
 100.9628595  79.7569945  87.4966440 101.2430348  79.0893134  88.1226867
 101.7479202  79.9499041  86.9841104  98.7662063  98.9328939  79.0591466
  98.1936030  99.5519126  78.6061938  99.3394857  99.4828301  79.5931388
 104.8337453  88.1787579  91.2438015 105.7854876  88.2785677  91.2650239
 104.6640903  87.3865848  91.7536100 102.8551833  85.2643162  91.4297416
 102.2601765  85.5448175  90.7343905 102.5701529  85.7537063  92.2014157
 101.9859323  99.2166089  80.1900049 102.9189996  99.1511651  80.3932924
 101.8982536 100.0522356  79.7314581 104.6147340  98.5331960  77.1503996
 104.5360971  98.1991823  78.0439754 105.4357006  99.0253727  77.1495469
 107.3125531  91.3993699  90.3580315 107.2801851  90.4609700  90.5439999
 107.9226155  91.4777736  89.6246140  99.1508862  90.2689752  76.4007519
 100.0967966  90.1395960  76.4695937  98.7723107  89.5304414  76.8776947
 107.4620019  88.1904742  90.4038598 106.9459068  87.4063199  90.2168527
 108.3459968  87.8623459  90.5685118 105.1230746  81.9345758  86.3634411
 104.9255567  81.6260846  87.2477743 105.7330452  82.6607397  86.4932341
 113.1302081  92.4609706  89.4986352 113.8605469  92.1994994  90.0594055
 112.5209026  91.7238428  89.5388420 111.2117378  90.6017568  90.0960803
 110.4850541  90.4673533  89.4877295 110.7964665  90.9094397  90.9017521
  99.0347554  94.3207498  97.8608176  99.9550564  94.4986097  98.0548222
  98.9997137  93.3763543  97.7087875  97.3351779  88.1939728  76.3362404
  96.4283234  87.8972841  76.4125118  97.6127760  87.8969546  75.4696690
  88.2529719  89.5146092  86.7861451  87.9332504  88.6611400  86.4935825
  87.7063147  89.7294670  87.5419418  92.0309627  92.2308533  90.5030957
  92.2495637  93.1625640  90.5218991  92.4435401  91.8716507  91.2885761
  98.9513845  82.7376618  82.4906645  98.1414573  82.3923703  82.8661892
  99.6398262  82.4284162  83.0794257 100.8804393  81.8154665  84.1130942
 101.4335431  82.2350118  84.7720965 101.1174479  80.8890413  84.1553898
  96.9037492  87.8041738  99.8933706  96.8034219  88.7536095  99.8245797
  96.6859034  87.4759977  99.0209776  96.1050564  85.0526663  76.4774383
  96.9669728  85.3781562  76.7370201  96.2900908  84.2658159  75.9647449
  88.1217979  93.1349003  88.7554572  87.4281451  92.7202956  88.2424527
  88.8690970  93.1769540  88.1587991 104.2583200  83.9255190  83.6209606
 103.6781869  84.5839994  83.2387659 103.9919133  83.1032535  83.2097024
 102.7086766  83.3260248  85.8230927 103.2086545  83.4376782  85.0145246
 103.3522374  83.0221300  86.4631735  96.7668762  91.2338877  98.7098768
  96.2835844  92.0339237  98.9162657  96.8529701  91.2446822  97.7566212
  90.0354722  93.0667257  86.6320587  90.0125410  93.1654944  85.6802470
  90.3455358  93.9132408  86.9537753  92.6942100  95.1243412  90.7467201
  93.6485353  95.0927354  90.6797133  92.4954623  94.6634036  91.5617427
  93.2841482  93.6944528  93.3137999  94.1034371  94.1888607  93.3372836
  93.5578290  92.7776496  93.2855567 103.0408078  86.0855280  82.6765955
 102.1533933  86.3704931  82.4586149 103.4562067  85.9249044  81.8293232
 106.3922614  86.1101801  86.3920294 107.1683004  86.5998254  86.6644911
 105.6670748  86.5359855  86.8492163 108.8295173  86.8229421  87.4494235
 109.4239664  86.5825156  86.7387543 108.9021756  86.1036551  88.0767771
  91.0492328 100.6663031  87.7637399  90.9146796  99.9063432  87.1975397
  90.6324391 101.3903931  87.2966188 102.1851291  95.8499955  76.7713975
 102.8887142  96.0549957  77.3871630 101.4613940  96.4176717  77.0363058
 103.0149102  91.6009816  82.8916245 102.9584303  92.0578368  82.0523877
 103.5677444  90.8400501  82.7139088 106.8253908  87.3899548  83.7166364
 106.5690842  86.9896184  84.5474572 106.2006776  88.1043342  83.5916503
 111.1366246  90.1295621  86.2237656 110.5765803  90.1988811  86.9969218
 110.5309749  89.9536606  85.5037152  94.2061454 101.5632348  87.9755842
  94.0893838 102.5077781  87.8734532  93.3853901 101.2605910  88.3641641
 104.0937989  96.2882484  78.8212435 104.9283593  95.8563683  78.6389909
 103.9322332  96.1164498  79.7489329 103.7483881  92.7914597  80.1868774
 103.6932685  92.6258869  79.2457218 103.1229936  93.4990630  80.3430964
  88.5376396  88.0282662  94.0130196  89.1835260  87.5181616  94.5017421
  88.3293547  88.7651344  94.5873621  97.0580007  82.2922706  79.7654092
  97.0458676  83.2364546  79.9222363  97.9503428  82.1092852  79.4713554
  95.2315968 102.2160610  91.1911770  96.1343215 102.2484221  91.5078265
  95.0053339 101.2861061  91.2058106  96.9869570 100.9691597  87.8521849
  96.0365201 100.9693459  87.7386221  97.2902057 100.2224331  87.3357884
 100.8732126  78.8865483  84.0200029 100.1064522  78.3323970  84.1656712
 101.2842831  78.9587352  84.8814181  92.8773887  85.1750279  98.1105210
  93.7405349  84.8187084  98.3208535  92.3039298  84.8364174  98.7980615
 105.3898786 108.6115040  84.8426027 104.8263651 108.5204977  84.0742315
 105.2751181 107.7914944  85.3228520 102.9363218 110.1066231  87.6810248
 103.7284510 109.7657056  87.2656547 103.1759868 110.2161206  88.6012401
 104.8953972 109.3675145  80.5527626 105.6684848 108.8204132  80.4140502
 105.2479371 110.2319394  80.7642088 107.2320250 105.5267811  78.1846076
 107.4845770 105.0049332  77.4229539 106.2944809 105.3633956  78.2872760
 112.2763532 104.5303589  85.9920819 113.0626622 104.1123012  85.6411236
 112.5402237 105.4349681  86.1602468 106.9516538 107.4295917  80.3870451
 106.8352796 106.7540820  81.0551536 107.0618798 106.9428291  79.5702604
 109.2948079 106.8906064  84.0917140 108.9306287 106.3636685  84.8030062
 110.1515195 106.5004533  83.9183626 108.9353566 101.9195964  79.0878489
 109.1027969 102.7876200  79.4548960 108.7450735 102.0823245  78.1639778
 105.1441381 106.8326739  86.7881024 104.2191877 106.7002953  86.9958716
 105.3925794 107.6120959  87.2850966 108.9142787 104.3753621  80.0725156
 108.7942412 104.8210672  80.9110636 108.2195376 104.7238939  79.5138694
 102.5050192 106.4760013  87.6224813 102.6342573 106.7294492  88.5364225
 101.8247643 107.0687721  87.3029468 114.6127853 104.8475094  80.9005490
 115.5245709 105.0802481  80.7253187 114.1037500 105.4312138  80.3380568
 111.9563828 101.0233130  89.1495351 111.0948307 101.3214384  89.4412088
 111.9826263 101.2403529  88.2176383 108.7725397 109.5675321  85.5569156
 109.2363743 109.8463024  84.7673779 108.5082196 108.6658765  85.3742247
 107.7094284 105.6898473  82.3658722 108.4118327 106.1419517  82.8332648
 107.3774912 105.0482292  82.9938615 101.4519618 103.9482026  87.6675855
 100.6618671 104.2039554  87.1915966 101.9430865 104.7630364  87.7727896
 103.4034363 104.3126605  84.6259332 102.6065526 104.4245299  85.1442827
 103.1759955 104.6513257  83.7600222  99.7357320 104.2012516  90.0990846
  99.9865359 105.0859526  90.3648422 100.2716869 104.0217118  89.3265938
 102.4017446 110.0214854  83.0148752 102.9141966 110.8158104  83.1654317
 103.0540158 109.3241144  82.9482353 104.2112330 113.1380610  85.0971505
 104.3878959 114.0598575  84.9092489 105.0069164 112.8239029  85.5265885
 112.2980512  96.0269978  90.9719720 111.9544781  96.9171619  90.8958831
 112.6659474  95.8371635  90.1089305 100.3666362 108.3503508  83.7908322
 101.2041584 108.7600516  83.5742030 100.5444630 107.4102950  83.7608516
 112.2630794 106.0178589  79.4792155 111.7477418 106.7883193  79.7180543
 111.9908103 105.3443725  80.1025217 109.8477905 100.8628290  84.5377394
 108.9919502 100.4735140  84.3583032 110.2604857 100.9420250  83.6777179
 111.3777052  98.3974633  88.9368953 110.8741848  98.3604768  88.1236759
 111.6707659  99.3067375  88.9965610 107.6219938  98.4813362  87.9435135
 108.4872935  98.2856171  87.5841025 107.6897447  98.2523714  88.8704492
 112.0517098 103.8905681  81.3051936 111.7467233 104.2051830  82.1562080
 113.0047540 103.9687101  81.3479269 110.4963529 110.0495904  82.9544890
 109.9684891 109.3148664  82.6418128 109.9951032 110.8270580  82.7084859
 105.2282257 100.7115570  85.3151502 105.8026009 100.4890752  84.5824695
 105.8153240 100.7804265  86.0680103 105.5551844 102.7420031  79.3347387
 104.7189156 103.0794718  79.6556662 105.4156614 102.6069011  78.3974524
 107.5304925  97.5856819  84.0426571 106.8769337  97.2705837  83.4183186
 107.4885399  96.9632560  84.7686394 108.6416130 107.8676114  75.9579864
 107.7343191 107.6365368  76.1571012 109.1387162 107.0713734  76.1453845
 110.7642665 104.0738753  88.3674219 109.8465227 104.2953700  88.2095907
 111.1802809 104.1485063  87.5085926 111.5477713 105.4730169  83.4976899
 112.2949532 105.9851566  83.1884021 111.8169302 105.1514221  84.3581293
 109.8204363 107.9688709  80.4803854 108.9115582 107.6847742  80.5776323
 109.8499447 108.3887788  79.6207160 113.9956550 102.5087285  85.4795689
 113.2579307 101.9964671  85.8105931 114.2483324 102.0687666  84.6678965
 114.0968177  95.2863537  86.0737458 114.4027054  94.4260900  85.7863373
 114.8220782  95.8781157  85.8736452 100.3892533 105.6894223  84.4619056
 100.1916933 105.0963584  83.7370122  99.8339197 105.3846434  85.1794995
 108.3689257 105.5817330  86.5813649 108.4237867 104.6291166  86.5056126
 107.5580459 105.7376769  87.0654947 109.5180451 109.5097453  77.8191932
 109.0799881 108.7933312  77.3597570 110.2590892 109.7373568  77.2577024
 106.3081617 104.1994390  84.3404028 105.4949483 104.4988560  84.7469220
 106.8040611 103.8050078  85.0578510 105.7995692 101.7712745  89.9565263
 106.4395071 101.6301504  89.2588226 104.9673222 101.4847259  89.5803865
 106.5755996 111.0715176  86.0700255 107.3696594 110.5765496  85.8682830
 105.8647688 110.5433039  85.7067961 102.8838759 105.2158257  82.1460008
 101.9536347 105.1542713  82.3629970 102.9796231 104.6934210  81.3496649
 102.8024308 101.7413070  84.7338250 103.0631126 102.6558403  84.6247410
 103.6241481 101.2737513  84.8834862 104.2749234 103.1550827  91.9037074
 104.9472287 102.9468189  91.2549723 103.4479020 102.9572913  91.4642306
 113.6391679 108.3681835  77.4123990 113.0220849 107.6428663  77.3157042
 113.1708167 109.1291195  77.0691064 105.4290224 102.5867259  76.5345294
 104.5519691 102.4656060  76.1707541 105.9047977 101.7953337  76.2824183
  96.9492365 107.3744419  86.6286801  97.6363404 107.0606149  86.0407817
  96.7940493 108.2785783  86.3554053 101.7527087 102.2634615  91.0571825
 101.6685275 101.6560285  90.3222235 100.9309793 102.7543633  91.0581321
 111.9250801 100.7488179  86.4242020 112.4219500  99.9958141  86.1043090
 111.1537782 100.7852495  85.8585229 113.0080581 109.5059866  83.9980443
 112.0736860 109.6261328  83.8285148 113.1857250 108.6032333  83.7340453
 108.5085769 102.8905562  86.1513705 108.1383557 102.3376602  86.8394610
 109.0044862 102.2863695  85.5988705 116.3953133 105.3477185  84.5330477
 116.8613585 106.1805177  84.4590780 116.8460633 104.8822167  85.2375736
 114.3669795  97.7157772  88.5721379 113.4532875  97.9461999  88.7403586
 114.7962897  97.7996216  89.4235411  96.5260341 105.4545012  88.9004268
  96.5644440 104.9208603  89.6941386  96.0200634 104.9280217  88.2815246
 103.9051103 100.3009552  92.3966811 103.9692429 101.1624383  91.9844208
 103.8418223  99.6883554  91.6639169 100.1568918 104.1809114  81.9758200
 100.4522359 103.2719793  81.9225253  99.2556954 104.1596854  81.6539202
 103.6863165 102.2565111  87.9585748 102.9649751 102.8701078  87.8193222
 104.4756421 102.7922876  87.8802394 101.8856760 101.8623212  82.0997525
 101.5569466 100.9820591  81.9172631 102.2396131 101.8070880  82.9873914
 104.9998583 102.1496182  82.4673003 105.3394656 102.6782103  81.7451611
 105.4470703 102.4876588  83.2431569 107.6942024 100.5333232  91.9176071
 107.3538844  99.7341045  92.3196750 106.9881030 100.8334943  91.3452904
 108.3458496  97.6182545  90.3703394 109.1684565  97.1443023  90.2482284
 108.5896559  98.3973028  90.8702080 106.9866730 100.6470803  80.6666295
 107.7075093 101.0252056  80.1630012 106.3632034 101.3659680  80.7701273
 111.1297853 101.3515952  81.6024628 111.3461467 102.2340590  81.3013456
 110.6491920 100.9602166  80.8730270 105.8697074 104.3101665  88.1795372
 105.7241655 104.6241968  89.0719654 105.3922278 104.9286566  87.6266271
 107.7293457 101.3004213  88.2276262 107.7155026 100.4045307  87.8908560
 108.4465885 101.3074877  88.8614548 109.5819588 101.7341554  90.2729389
 109.3237366 102.6558624  90.2713720 109.0504628 101.3371988  90.9629853
 100.3442737 106.8507010  91.1183033  99.7996205 107.6266818  91.2503308
 101.2222086 107.1977814  90.9602155 107.1330353 100.1818594  83.4963832
 107.2546264  99.2535240  83.6954719 106.8432396 100.1957280  82.5842147
 110.0021544  97.8673504  86.6330552 110.0243240  97.9312837  85.6782531
 110.4189603  97.0278013  86.8271058 101.5765372 113.8642335  86.0423585
 102.4023392 113.5646107  85.6622228 101.2259424 113.0949957  86.4913374
  99.7773977 111.7828661  87.0012519  98.9405885 111.3550836  86.8196520
  99.7497623 111.9761105  87.9383310 106.1060412 111.7672726  81.5879719
 106.2548533 112.4508191  80.9346392 106.9126856 111.7477816  82.1029175
 103.8613045 107.7937904  82.5940788 103.6159087 106.8900234  82.7920998
 104.0308960 107.7955054  81.6520266 103.1308693 103.5266262  80.0926949
 102.4377938 103.6010617  79.4366985 102.8860445 102.7626605  80.6148466
 111.8022349  95.0861863  87.4966440 112.0824103  94.4185052  88.1226867
 112.5872956  95.2790958  86.9841104 109.9902616 105.5981670  76.4007519
 110.9361721 105.4687878  76.4695937 109.6116861 104.8596331  76.8776947
 115.9624501  97.2637676  86.3634411 115.7649322  96.9552764  87.2477743
 116.5724206  97.9899314  86.4932341 108.1745533 103.5231646  76.3362404
 107.2676989 103.2264759  76.4125118 108.4521514 103.2261464  75.4696690
  99.0923474 104.8438009  86.7861451  98.7726258 103.9903318  86.4935825
  98.5456902 105.0586587  87.5419418 109.7907599  98.0668536  82.4906645
 108.9808327  97.7215621  82.8661892 110.4792016  97.7576079  83.0794257
 111.7198147  97.1446582  84.1130942 112.2729186  97.5642036  84.7720965
 111.9568234  96.2182331  84.1553898 106.9444318 100.3818581  76.4774383
 107.8063482 100.7073479  76.7370201 107.1294662  99.5950077  75.9647449
  98.9611734 108.4640921  88.7554572  98.2675205 108.0494874  88.2424527
  99.7084725 108.5061457  88.1587991 115.0976954  99.2547108  83.6209606
 114.5175624  99.9131912  83.2387659 114.8312887  98.4324452  83.2097024
 113.5480521  98.6552165  85.8230927 114.0480299  98.7668700  85.0145246
 114.1916129  98.3513218  86.4631735 100.8748476 108.3959175  86.6320587
 100.8519164 108.4946862  85.6802470 101.1849113 109.2424325  86.9537753
 113.8801832 101.4147198  82.6765955 112.9927688 101.6996849  82.4586149
 114.2955822 101.2540961  81.8293232 117.2316369 101.4393719  86.3920294
 118.0076759 101.9290171  86.6644911 116.5064503 101.8651773  86.8492163
 113.8542856 106.9301734  82.8916245 113.7978058 107.3870285  82.0523877
 114.4071199 106.1692419  82.7139088 117.6647662 102.7191466  83.7166364
 117.4084596 102.3188101  84.5474572 117.0400530 103.4335260  83.5916503
 114.5877636 108.1206515  80.1868774 114.5326439 107.9550787  79.2457218
 113.9623691 108.8282548  80.3430964  99.3770151 103.3574580  94.0130196
 100.0229014 102.8473534  94.5017421  99.1687302 104.0943261  94.5873621
 107.8973761  97.6214624  79.7654092 107.8852431  98.5656464  79.9222363
 108.7897183  97.4384770  79.4713554 111.7125880  94.2157401  84.0200029
 110.9458276  93.6615888  84.1656712 112.1236585  94.2879270  84.8814181
  44.4949445  -8.2109820  75.5774443  44.1567956  -8.3268755  74.6894978
  45.3639213  -8.6118655  75.5575449  40.3536260  -6.3574344  71.5671334
  39.7901125  -6.4484407  70.7987621  40.2388655  -7.1774439  72.0473826
  44.9769228  -7.0574968  81.5360648  44.9657868  -7.4522170  80.6641152
  45.1389867  -7.7908896  82.1294420  37.9000692  -4.8623152  74.4055554
  38.6921984  -5.2032327  73.9901853  38.1397342  -4.7528177  75.3257707
  45.9335819  -2.6903376  66.8785799  45.2823799  -2.1049296  66.4919812
  46.7280182  -2.1597181  66.9380836  39.8591446  -5.6014239  67.2772933
  40.6322322  -6.1485252  67.1385809  40.2116845  -4.7369989  67.4887394
  41.6976489  -4.2737857  80.4839832  41.4066355  -3.3692226  80.3686499
  42.3333473  -4.2321329  81.1983902  42.6232696  -6.8961008  77.0741192
  43.2196268  -7.1204986  76.3598155  42.6807667  -7.6376263  77.6766640
  47.4111084  -5.0012944  67.4154783  46.7756917  -4.9278317  68.1275688
  47.0808491  -4.4119345  66.7373862  41.9154013  -7.5393467  67.1115758
  41.7990271  -8.2148563  67.7796842  42.0256273  -8.0261093  66.2947911
  44.2585554  -8.0783320  70.8162447  43.8943761  -8.6052699  71.5275369
  45.1152670  -8.4684851  70.6428932  46.6566374  -4.5876441  77.4789626
  46.3567097  -3.6851402  77.3705433  46.3117433  -4.8544258  78.3310779
  40.1078855  -8.1362644  73.5126330  39.1829352  -8.2686430  73.7204022
  40.3563268  -7.3568425  74.0096273  41.6387154   2.1767879  70.4460594
  41.5611183   3.1275704  70.5249074  41.0348797   1.8313752  71.1035520
  42.3850756  -7.8418802  82.6639928  43.1265440  -7.3033758  82.3874751
  41.6787741  -7.2152513  82.8211479  47.8606095  -5.6989661  81.2612089
  48.2689451  -6.1407251  80.5166721  47.1383357  -6.2737034  81.5146282
  48.1834910  -5.1388471  75.0164378  47.5543772  -4.9742757  74.3140446
  47.7960572  -4.7246861  75.7875342  52.0624142  -4.2034033  72.3708742
  51.3775180  -3.8235132  71.8205775  52.1467991  -3.5938706  73.1040689
  49.3175073  -6.5574074  78.9704085  49.5291969  -5.9142314  78.2938466
  49.2704822  -7.3911757  78.5026015  43.7362872  -5.4014063  72.2814463
  44.2001217  -5.1226360  71.4919086  43.4719670  -6.3030618  72.0987554
  40.6286953  -5.8542581  75.2194226  41.1988310  -5.4255313  74.5811711
  41.2195065  -6.1359996  75.9178412  50.4320901  -3.6802118  77.1426443
  51.2538345  -4.0821931  76.8609124  50.4283304  -3.7833884  78.0942558
  44.1977505  -4.1318075  79.2987153  44.2621937  -3.6697668  80.1345325
  43.4888429  -4.7620710  79.4269463  43.9125522  -2.4649968  69.1666133
  43.7771197  -1.6198432  69.5950981  44.4535335  -2.2630690  68.4032067
  37.3654920  -4.9474530  69.7394058  37.8779440  -4.1531279  69.8899623
  38.0177633  -5.6448239  69.6727660  39.1749805  -1.8308773  71.8216812
  39.3516433  -0.9090809  71.6337796  39.9706638  -2.1450354  72.2511191
  45.5393999  -1.8426401  83.2966475  45.0957853  -2.6290023  82.9787380
  46.2011212  -1.6547251  82.6310366  40.2981120  -0.3130600  77.8227154
  40.8488545  -0.4413536  77.0504148  39.4592596  -0.0135711  77.4722047
  47.6375237  -1.5623601  81.3247877  47.6193712  -0.7414720  80.8328146
  48.5595157  -1.6869526  81.5498018  44.0948291  -4.0479472  82.1671385
  44.6276628  -4.8091184  81.9370693  43.5662372  -4.3405820  82.9095540
  45.4601004  -4.9193479  69.6790197  44.9322365  -5.6540720  69.3663435
  44.9588507  -4.1418803  69.4330165  50.4393850  -6.7244459  74.7957243
  49.7817524  -6.0345197  74.8837372  51.2434249  -6.3348027  75.1391230
  43.6053604  -7.1013269  62.6825170  42.6980666  -7.3324016  62.8816319
  44.1024636  -7.8975650  62.8699152  46.5121683   1.6084238  65.6021856
  45.8383382   1.9115935  66.2106814  46.8987505   2.4113318  65.2527313
  44.7841837  -7.0000674  67.2049160  43.8753057  -7.2841641  67.3021630
  44.8136921  -6.5801596  66.3452467  50.0161105  -3.3894085  70.9740328
  49.5623432  -4.2303175  71.0305518  49.3855072  -2.7532686  71.3115108
  48.4594044  -1.5517588  71.9090146  48.7517018  -0.9912531  71.1902512
  48.9692665  -1.2589027  72.6643305  44.4817925  -5.4591931  64.5437239
  44.0437355  -6.1756072  64.0842876  45.2228366  -5.2315816  63.9822330
  43.4227669  -0.7737237  72.9983599  43.3803848  -0.5476391  72.0692131
  44.3390368  -1.0073862  73.1469400  52.6260420  -5.1158206  75.6124829
  53.0596926  -5.2082917  76.4607883  53.3392000  -5.1400706  74.9744845
  41.5393470  -3.8974208  72.7945562  42.3334069  -4.3923888  72.5928137
  40.8285162  -4.4256345  72.4313267  46.3588315  -1.5156112  77.1457929
  46.4125337  -0.9465176  77.9135645  45.4903096  -1.3454227  76.7811967
  53.4875969  -5.0734506  78.1457714  53.6811859  -4.1688695  78.3916989
  53.3876587  -5.5327087  78.9796299  48.5491078  -4.9227763  83.7198595
  48.3976584  -5.1517211  82.8028679  48.5395757  -3.9657162  83.7329940
  45.3176414  -7.3495850  78.7044861  46.2468474  -7.1984691  78.5313829
  44.8967444  -7.2611830  77.8493508  44.1164746  -3.3245186  76.4743399
  43.9775832  -3.6926402  77.3469337  43.3279342  -2.8097546  76.3027357
  44.7112898   1.7763911  67.8168935  44.8864654   1.3051954  68.6314558
  44.0245686   2.4029677  68.0450196  45.6669961  -3.9463583  73.8632237
  45.3319794  -3.9862813  74.7589887  45.1673907  -4.6118867  73.3902647
  39.6414205  -8.5395953  79.3884818  39.5034003  -9.2715714  79.9896357
  40.5519129  -8.6287053  79.1069006  48.6029153  -6.6007549  64.1369296
  47.9858323  -7.3260721  64.0402349  48.1345641  -5.8398189  63.7936371
  42.2696506  -8.8275994  78.8768498  42.9796124  -9.4682802  78.8355116
  42.2265814  -8.5763099  79.7994678  50.2583284  -1.8908641  81.7975077
  50.1995831  -2.5749420  81.1305660  50.6602803  -1.1489651  81.3455703
  39.2773983   4.9253273  74.5908796  39.5170582   5.5571797  75.2687814
  38.4343180   4.5741313  74.8774155  50.2600692  -3.9269057  80.0289056
  49.3727471  -4.2643135  80.1515455  50.8299243  -4.6586025  80.2657822
  43.7901845   0.7332396  76.9950300  43.7172017   1.5387367  77.5069604
  43.3479238   0.9324362  76.1698321  43.5791625  -0.0295834  70.5053121
  42.7959147   0.5125846  70.5991346  44.2784370   0.4878145  70.9047362
  46.2500529   0.6319230  79.1508458  46.9628501   1.2666695  79.0784360
  45.7590557   0.7283096  78.3348460  47.9718056  -5.4629518  70.7225750
  47.0374334  -5.3428055  70.5530454  48.1494724  -6.3657051  70.4585760
  41.3012442  -1.6186327  79.9714029  42.0021902  -0.9849844  80.1243423
  40.8307557  -1.2771595  79.2109668  49.4266838  -3.2768377  68.2561936
  49.7026682  -3.3911782  69.1655810  48.5571337  -3.6750892  68.2174109
  46.0620902   0.9717974  71.8994750  46.2443297   0.1539630  72.3622502
  46.8853888   1.1885666  71.4619640  46.3963068  -0.1013841  69.1609798
  46.9250834  -0.6121386  68.5479960  46.6591287  -0.4171311  70.0255331
  45.1501301  -8.3221908  84.2832617  44.4741938  -8.4227779  84.9534992
  45.9728935  -8.4782694  84.7468614  36.8980160  -2.0849972  76.9045132
  37.4833597  -2.8306284  77.0373036  36.7004999  -1.7746015  77.7881796
  39.7518815   0.9501276  71.9207574  39.0829191   1.4347403  71.4371614
  39.6131685   1.1970496  72.8350953  43.8924084   2.9845019  78.5190233
  44.4442392   3.1476641  79.2839318  44.2330278   3.5749457  77.8470257
  48.7434958  -2.1893723  84.3738887  49.2874862  -1.5763765  83.8793842
  48.1621803  -1.6314145  84.8905900  47.0292471   0.9326995  75.5053915
  46.9043611   0.1316735  74.9964860  47.6871562   1.4273188  75.0167885
  49.0927380  -1.2663985  77.1333465  48.1457715  -1.3858634  77.0611792
  49.4410153  -2.1541487  77.2159726  46.0973813  -1.4711269  73.3337817
  45.9498775  -2.3994562  73.5145387  46.9227307  -1.4491178  72.8494892
  49.7007935  -0.6482710  74.4202690  50.6254482  -0.8539849  74.2827141
  49.5323238  -0.8966309  75.3292031  49.4903251  -0.1297043  69.7764781
  49.6640129  -0.6950620  69.0238634  49.9832142   0.6703852  69.5944271
  50.4778424  -0.8130278  66.8761680  51.1729328  -0.1923586  67.0948994
  50.8201574  -1.6634927  67.1514057  52.3769847  -3.3630573  68.4049010
  52.9021171  -3.0243300  67.6798330  52.2892199  -4.2983558  68.2212145
  44.0389895   0.5503501  80.5338887  44.3477022   0.3052648  81.4061587
  44.8365377   0.7550139  80.0457757  44.0610507   2.7041410  72.7644263
  43.6215498   2.2117789  73.4577120  44.8118624   2.1614378  72.5236339
  36.5402846  -1.1047049  72.7668892  37.3660866  -1.4043277  72.3867535
  36.1896898  -1.8739426  73.2158680  41.5084380  -1.7520580  74.8366565
  40.8864389  -2.4149875  74.5368793  42.1789246  -1.7259449  74.1540213
  34.7411451  -3.1860722  73.7257825  33.9043360  -3.6138548  73.5441826
  34.7135097  -2.9928279  74.6628616  52.0663753  -2.7297669  83.7100208
  51.2759296  -2.7473530  83.1704708  51.8297107  -2.1909376  84.4649245
  41.0697886  -3.2016657  68.3125026  41.2186007  -2.5181193  67.6591698
  41.8764330  -3.2211567  68.8274481  53.6879825  -3.4608261  81.2674958
  53.3964633  -3.0978281  82.1038419  53.0751956  -4.1741253  81.0888290
  38.8250519  -7.1751479  69.3186095  38.5796561  -8.0789149  69.5166305
  38.9946434  -7.1734329  68.3765573  44.5693292  -0.7068527  65.7836773
  43.9967259  -0.0878340  65.3307245  45.1426086  -0.1569165  66.3176695
  47.7890552  -0.4231377  66.9145355  48.7221225  -0.4885815  67.1178231
  47.7013765   0.4124890  66.4559888  50.4178568  -1.1065506  63.8749303
  50.3392200  -1.4405643  64.7685061  51.2388235  -0.6143738  63.8740775
  44.8378783  -5.3189968  84.5853483  45.7581793  -5.1411369  84.7793529
  44.8028366  -6.2633922  84.4333182  37.8340856  -7.4088933  77.2276264
  38.0526865  -6.4771825  77.2464298  38.2466629  -7.7680959  78.0131068
  42.5699991  -8.4058589  85.4344074  42.0867073  -7.6058228  85.6407963
  42.6560930  -8.3950644  84.4811518  35.8385951  -6.5730209  73.3565894
  35.8156639  -6.4742522  72.4047777  36.1486587  -5.7265058  73.6783060
  38.4973328  -4.5154054  77.4712508  39.4516582  -4.5470112  77.4042440
  38.2985852  -4.9763430  78.2862734  39.0872711  -5.9452938  80.0383306
  39.9065600  -5.4508859  80.0618143  39.3609518  -6.8620970  80.0100873
  36.8523557   1.0265566  74.4882706  36.7178025   0.2665967  73.9220704
  36.4355620   1.7506466  74.0211495  47.9882520  -3.7897511  63.4959281
  48.6918370  -3.5847508  64.1116937  47.2645169  -3.2220749  63.7608365
  40.0092683   1.9234883  74.7001149  39.8925067   2.8680315  74.5979839
  39.1885129   1.6208444  75.0886948  49.8969218  -3.3514982  65.5457741
  50.7314822  -3.7833783  65.3635216  49.7353561  -3.5232968  66.4734636
  49.5515110  -6.8482868  66.9114081  49.4963914  -7.0138597  65.9702525
  48.9261165  -6.1406835  67.0676270  46.8661017  -4.5433956  86.2367643
  47.7352177  -4.3693304  85.8754278  46.3867769  -3.7239540  86.1143373
  41.0347197   2.5763145  77.9157077  41.9374444   2.6086755  78.2323572
  40.8084567   1.6463596  77.9303413  42.7900799   1.3294131  74.5767156
  41.8396430   1.3295993  74.4631528  43.0933285   0.5826866  74.0603190
  58.5253493   7.1654670  75.6412918  59.1631903   7.0461417  74.9376258
  58.4074336   8.1135513  75.7000870  55.3343199   7.1182098  75.5774443
  54.9961711   7.0023162  74.6894978  56.2032967   6.7173263  75.5575449
  51.1930015   8.9717574  71.5671334  50.6294880   8.8807511  70.7987621
  51.0782410   8.1517478  72.0473826  55.8162982   8.2716949  81.5360648
  55.8051623   7.8769748  80.6641152  55.9783622   7.5383022  82.1294420
  48.7394447  10.4668766  74.4055554  49.5315739  10.1259590  73.9901853
  48.9791097  10.5763741  75.3257707  56.7729573  12.6388542  66.8785799
  56.1217553  13.2242622  66.4919812  57.5673936  13.1694737  66.9380836
  50.6985201   9.7277679  67.2772933  51.4716077   9.1806666  67.1385809
  51.0510599  10.5921928  67.4887394  52.5370243  11.0554061  80.4839832
  52.2460109  11.9599692  80.3686499  53.1727228  11.0970589  81.1983902
  53.4626450   8.4330910  77.0741192  54.0590022   8.2086932  76.3598155
  53.5201422   7.6915655  77.6766640  53.0351478   5.8870345  64.9091383
  53.2876999   5.3651866  64.1474846  52.0976038   5.7236490  65.0118066
  58.0794761   4.8906123  72.7166126  58.8657850   4.4725547  72.3656543
  58.3433466   5.7952216  72.8847774  58.2504839  10.3278974  67.4154783
  57.6150672  10.4013600  68.1275688  57.9202245  10.9172572  66.7373862
  63.4803188   4.8281357  73.6199105  64.2128360   4.2580573  73.8536934
  62.7242544   4.4402957  74.0605610  52.7547767   7.7898451  67.1115758
  52.6384025   7.1143354  67.7796842  52.8650027   7.3030825  66.2947911
  55.0979308   7.2508598  70.8162447  54.7337515   6.7239219  71.5275369
  55.9546424   6.8607067  70.6428932  61.0028609  -1.4597069  78.0793713
  60.6711934  -0.5901658  77.8554928  60.4074222  -1.7760785  78.7587744
  54.7384795   2.2798498  65.8123796  54.9059197   3.1478734  66.1794267
  54.5481964   2.4425779  64.8885085  57.4960128  10.7415477  77.4789626
  57.1960851  11.6440515  77.3705433  57.1511188  10.4747660  78.3310779
  50.9472610   7.1929273  73.5126330  50.0223106   7.0605488  73.7204022
  51.1957023   7.9723493  74.0096273  60.8957272   3.2598017  75.1587063
  59.9874149   3.1913425  74.8645824  60.8444868   3.7369962  75.9868889
  54.7174016   4.7356155  66.7970462  54.5973641   5.1813206  67.6355943
  54.0226604   5.0841473  66.2384001  48.3081421   6.8362547  74.3470119
  48.4373802   7.0897026  75.2609531  47.6278872   7.4290255  74.0274775
  52.4780908  17.5059797  70.4460594  52.4004938  18.4567622  70.5249074
  51.8742552  17.1605669  71.1035520  54.9698138   4.6787662  83.1021961
  54.1931472   5.2381583  83.0924825  55.6088701   5.1644445  83.6236831
  62.7618918   1.4614455  76.9364937  62.1193299   1.7546988  76.2904732
  62.2573847   1.3467376  77.7418134  60.4159082   5.2077628  67.6250796
  61.3276938   5.4405015  67.4498494  59.9068729   5.7914673  67.0625875
  53.2244510   7.4873116  82.6639928  53.9659195   8.0258160  82.3874751
  52.5181496   8.1139405  82.8211479  58.6999850   9.6302256  81.2612089
  59.1083206   9.1884667  80.5166721  57.9777111   9.0554884  81.5146282
  55.0530920   4.5674863  78.6345646  55.8992115   4.9914277  78.7780295
  54.9929557   3.9108487  79.3284209  59.0228664  10.1903447  75.0164378
  58.3937527  10.3549161  74.3140446  58.6354327  10.6045056  75.7875342
  62.9017896  11.1257885  72.3708742  62.2168934  11.5056786  71.8205775
  62.9861746  11.7353211  73.1040689  58.2030365   2.2279231  80.2926820
  57.9591297   2.9821292  79.7561095  58.4790296   2.6064579  81.1274067
  60.1568828   8.7717844  78.9704085  60.3685723   9.4149604  78.2938466
  60.1098576   7.9380160  78.5026015  57.7595057   1.3835664  75.8740657
  56.8979536   1.6816918  76.1657395  57.7857492   1.6006063  74.9421690
  54.5756626   9.9277855  72.2814463  55.0394972  10.2065558  71.4919086
  54.3113424   9.0261300  72.0987554  51.4680707   9.4749337  75.2194226
  52.0382064   9.9036605  74.5811711  52.0588819   9.1931921  75.9178412
  53.5125512   6.0501007  69.0904028  54.2149556   6.5022051  69.5577955
  53.1806141   5.4084826  69.7183921  51.9605874   4.6412764  83.4655238
  51.3304534   5.3229045  83.6990634  51.8541962   4.5295846  82.5208376
  47.2550846   4.3084560  74.3921162  46.4649900   4.5642089  73.9161272
  47.7462094   5.1232898  74.4973202  61.2714656  11.6489799  77.1426443
  62.0932100  11.2469986  76.8609124  61.2677059  11.5458033  78.0942558
  49.2065592   4.6729139  71.3504638  48.4096755   4.7847833  71.8688134
  48.9791184   5.0115791  70.4845529  55.0371259  11.1973842  79.2987153
  55.1015692  11.6594250  80.1345325  54.3282183  10.5671207  79.4269463
  45.5388549   4.5615050  76.8236153  45.7896588   5.4462060  77.0893728
  46.0748098   4.3819652  76.0511244  69.3620649   7.9928548  73.4911414
  68.6084357   7.4235946  73.3355418  69.4968190   7.9591212  74.4382049
  54.7519277  12.8641950  69.1666133  54.6164952  13.7093486  69.5950981
  55.2929089  13.0661228  68.4032067  51.2386617  -1.0566470  85.8280489
  50.8453562  -1.6100272  86.5028133  52.0552757  -0.7455892  86.2187006
  48.2048674  10.3817388  69.7394058  48.7173195  11.1760638  69.8899623
  48.8571387   9.6843678  69.6727660  50.0143559  13.4983144  71.8216812
  50.1910187  14.4201109  71.6337796  50.8100393  13.1841563  72.2511191
  54.1554578   0.3591409  83.4200745  54.8964291   0.9598562  83.3405208
  54.3872500  -0.3830953  82.8618788  49.2995916   5.5447776  81.6978975
  49.1849431   4.6433033  81.9986074  48.4440433   5.7911473  81.3463791
  56.3787753  13.4865516  83.2966475  55.9351608  12.7001895  82.9787380
  57.0404967  13.6744667  82.6310366  51.1374875  15.0161318  77.8227154
  51.6882300  14.8878381  77.0504148  50.2986350  15.3156207  77.4722047
  58.4768991  13.7668316  81.3247877  58.4587467  14.5877197  80.8328146
  59.3988911  13.6422392  81.5498018  54.9342046  11.2812446  82.1671385
  55.4670382  10.5200734  81.9370693  54.4056127  10.9886098  82.9095540
  58.1011741  -3.6127488  77.6965027  57.7576010  -2.7225846  77.6204137
  58.4690703  -3.8025831  76.8334612  46.1697591   8.7106042  70.5153629
  47.0072813   9.1203051  70.2987337  46.3475859   7.7705484  70.4853823
  58.0662023   6.3781123  66.2037462  57.5508647   7.1485728  66.4425849
  57.7939332   5.7046259  66.8270523  55.6509134   1.2230824  71.2622700
  54.7950731   0.8337674  71.0828339  56.0636086   1.3022785  70.4022486
  57.1808281  -1.2422833  75.6614260  56.6773077  -1.2792698  74.8482065
  57.4738888  -0.3330090  75.7210917  53.4251167  -1.1584103  74.6680442
  54.2904164  -1.3541295  74.3086331  53.4928676  -1.3873752  75.5949799
  63.0396297   9.1313478  68.1390635  62.2625740   8.7924637  67.6945798
  63.7187778   9.1366101  67.4645600  57.8548326   4.2508215  68.0297243
  57.5498462   4.5654364  68.8807386  58.8078769   4.3289635  68.0724576
  56.2994758  10.4098438  69.6790197  55.7716120   9.6751198  69.3663435
  55.7982261  11.1873115  69.4330165  61.2787604   8.6047459  74.7957243
  60.6211279   9.2946720  74.8837372  62.0828004   8.9943891  75.1391230
  51.0313486   1.0718105  72.0396809  51.6057238   0.8493286  71.3070002
  51.6184468   1.1406799  72.7925410  60.0893063   6.9591832  72.8461185
  60.6024945   7.5921823  73.3482895  60.7394287   6.3593027  72.4804545
  51.3583073   3.1022566  66.0592694  50.5220385   3.4397252  66.3801969
  51.2187843   2.9671545  65.1219831  53.3336154  -2.0540646  70.7671878
  52.6800566  -2.3691629  70.1428493  53.2916628  -2.6764906  71.4931701
  54.4447358   8.2278649  62.6825170  53.5374420   7.9967902  62.8816319
  54.9418390   7.4316268  62.8699152  57.3515437  16.9376156  65.6021856
  56.6777136  17.2407853  66.2106814  57.7381259  17.7405236  65.2527313
  56.5673894   4.4341287  75.0919526  55.6496455   4.6556234  74.9341214
  56.9834038   4.5087598  74.2331233  57.3508942   5.8332703  70.2222206
  58.0980761   6.3454100  69.9129328  57.6200531   5.5116755  71.0826600
  55.6235592   8.3291243  67.2049160  54.7146811   8.0450276  67.3021630
  55.6530676   8.7490322  66.3452467  60.8554859  11.9397833  70.9740328
  60.4017186  11.0988743  71.0305518  60.2248826  12.5759231  71.3115108
  59.7987779   2.8689819  72.2040995  59.0610536   2.3567205  72.5351238
  60.0514552   2.4290201  71.3924272  59.2987799  13.7774330  71.9090146
  59.5910773  14.3379387  71.1902512  59.8086419  14.0702891  72.6643305
  46.1923762   6.0496758  71.1864362  45.9948162   5.4566118  70.4615429
  45.6370426   5.7448968  71.9040301  54.1720486   5.9419864  73.3058956
  54.2269096   4.9893700  73.2301432  53.3611688   6.0979303  73.7900254
  55.3211680   9.8699987  64.5437239  54.8831110   9.1535846  64.0842876
  56.0622121  10.0976102  63.9822330  52.1112846   4.5596924  71.0649334
  51.2980711   4.8591094  71.4714527  52.6071840   4.1652613  71.7823817
  54.2621424  14.5554681  72.9983599  54.2197603  14.7815527  72.0692131
  55.1784123  14.3218055  73.1469400  57.7087058   5.0238748  79.8964228
  58.0636445   5.2510221  80.7558694  58.3559189   5.3557125  79.2741484
  63.4384794   8.1457184  70.6013557  63.3002693   8.3358780  69.6734747
  63.0821013   8.9076567  71.0581609  51.6026921   2.1315279  76.6810569
  52.2426300   1.9904038  75.9833533  50.7704451   1.8449793  76.3049171
  63.4654174  10.2133711  75.6124829  63.8990681  10.1209000  76.4607883
  64.1785755  10.1891212  74.9744845  52.3787225  11.4317710  72.7945562
  53.1727823  10.9368030  72.5928137  51.6678917  10.9035573  72.4313267
  57.1982069  13.8135805  77.1457929  57.2519091  14.3826742  77.9135645
  56.3296850  13.9837690  76.7811967  48.6869988   5.5760792  68.8705315
  47.7567576   5.5145247  69.0875277  48.7827460   5.0536744  68.0741956
  48.6055537   2.1015604  71.4583556  48.8662354   3.0160938  71.3492717
  49.4272709   1.6340047  71.6080169  50.0780462   3.5153362  78.6282381
  50.7503516   3.3070724  77.9795030  49.2510249   3.3175448  78.1887613
  64.3269724  10.2557412  78.1457714  64.5205614  11.1603222  78.3916989
  64.2270342   9.7964831  78.9796299  55.9806034   0.1415302  80.6448042
  55.3333949   0.8405252  80.5512518  56.7507050   0.5751446  81.0124290
  59.3884832  10.4064155  83.7198595  59.2370339  10.1774706  82.8028679
  59.3789512  11.3634756  83.7329940  56.1570169   7.9796067  78.7044861
  57.0862229   8.1307227  78.5313829  55.7361199   8.0680088  77.8493508
  54.9558501  12.0046732  76.4743399  54.8169586  11.6365516  77.3469337
  54.1673097  12.5194371  76.3027357  55.5506652  17.1055828  67.8168935
  55.7258408  16.6343871  68.6314558  54.8639441  17.7321594  68.0450196
  56.5063716  11.3828334  73.8632237  56.1713548  11.3429104  74.7589887
  56.0067661  10.7173050  73.3902647  50.4807960   6.7895964  79.3884818
  50.3427758   6.0576203  79.9896357  51.3912883   6.7004865  79.1069006
  59.4422907   8.7284369  64.1369296  58.8252078   8.0031197  64.0402349
  58.9739396   9.4893729  63.7936371  53.1090260   6.5015924  78.8768498
  53.8189879   5.8609116  78.8355116  53.0659568   6.7528819  79.7994678
  61.0977039  13.4383277  81.7975077  61.0389585  12.7542497  81.1305660
  61.4996557  14.1802267  81.3455703  51.8219194   3.4881142  80.6964137
  51.2856551   3.0371880  81.3485733  51.2335903   3.6227051  79.9534601
  50.1167738  20.2545191  74.5908796  50.3564336  20.8863715  75.2687814
  49.2736934  19.9033231  74.8774155  51.2321453   2.9469793  63.2590601
  50.3550920   2.8258594  62.8952847  51.7079206   2.1555871  63.0069489
  61.0994446  11.4022861  80.0289056  60.2121225  11.0648783  80.1515455
  61.6692997  10.6705892  80.2657822  42.7523593   7.7346953  73.3532108
  43.4394633   7.4208683  72.7653123  42.5971722   8.6388317  73.0799359
  47.5558316   2.6237149  77.7817132  47.4716504   2.0162819  77.0467541
  46.7341022   3.1146168  77.7826628  54.6295600  16.0624313  76.9950300
  54.5565771  16.8679285  77.5069604  54.1872993  16.2616279  76.1698321
  54.4185379  15.2996083  70.5053121  53.6352901  15.8417764  70.5991346
  55.1178124  15.8170063  70.9047362  57.7282029   1.1090713  73.1487327
  58.2250729   0.3560675  72.8288397  56.9569011   1.1455030  72.5830536
  65.5811787   6.8131078  74.7905618  65.5701663   7.6955794  74.4199551
  64.7129166   6.4602629  74.5960155  57.0894283  15.9611147  79.1508458
  57.8022255  16.5958612  79.0784360  56.5984312  16.0575013  78.3348460
  58.8111810   9.8662400  70.7225750  57.8768089   9.9863863  70.5530454
  58.9888479   8.9634867  70.4585760  54.3116998   3.2508096  72.8759011
  53.9414786   2.6979136  73.5639917  54.8076091   2.6466229  72.3234011
  62.1984361   5.7079719  71.2575784  62.6644814   6.5407711  71.1836087
  62.6491862   5.2424701  71.9621043  52.1406197  13.7105591  79.9714029
  52.8415656  14.3442074  80.1243423  51.6701312  14.0520322  79.2109668
  60.2660593  12.0523541  68.2561936  60.5420436  11.9380135  69.1655810
  59.3965091  11.6541026  68.2174109  60.1701024  -1.9239694  75.2966685
  59.2564104  -1.6935467  75.4648892  60.5994126  -1.8401250  76.1480718
  59.9407483   6.2650198  77.7966579  59.2878933   6.5126106  77.1419032
  60.3187863   5.4514337  77.4629057  56.9014657  16.3009892  71.8994750
  57.0837051  15.4831547  72.3622502  57.7247643  16.5177584  71.4619640
  57.2356822  15.2278077  69.1609798  57.7644588  14.7170531  68.5479960
  57.4985042  14.9120607  70.0255331  55.9895056   7.0070009  84.2832617
  55.3135693   6.9064139  84.9534992  56.8122690   6.8509223  84.7468614
  47.7373915  13.2441946  76.9045132  48.3227352  12.4985634  77.0373036
  47.5398753  13.5545903  77.7881796  50.5912570  16.2793193  71.9207574
  49.9222945  16.7639321  71.4371614  50.4525440  16.5262414  72.8350953
  42.3291569   5.8147546  75.6249575  42.3675669   5.2811137  76.4186693
  41.8231862   5.2882752  75.0060552  54.7317839  18.3136937  78.5190233
  55.2836147  18.4768558  79.2839318  55.0724032  18.9041375  77.8470257
  49.7082332   0.6612087  79.1212117  49.7723658   1.5226918  78.7089515
  49.6449452   0.0486088  78.3884476  49.1834604   2.7335219  82.7685152
  49.8106643   2.3512297  83.3822676  48.3262523   2.5149421  83.1340844
  59.5828713  13.1398194  84.3738887  60.1268617  13.7528153  83.8793842
  59.0015558  13.6977773  84.8905900  45.9600147   4.5411648  68.7003506
  46.2553588   3.6322327  68.6470560  45.0588183   4.5199388  68.3784509
  57.8686226  16.2618912  75.5053915  57.7437365  15.4608652  74.9964860
  58.5265317  16.7565106  75.0167885  49.4894394   2.6167645  74.6831055
  48.7680980   3.2303613  74.5438528  50.2787650   3.1525410  74.6047701
  59.9321134  14.0627933  77.1333465  58.9851470  13.9433284  77.0611792
  60.2803907  13.1750431  77.2159726  52.2920708  -0.0477929  80.9571707
  52.8155109   0.1984368  81.7198016  52.0733041   0.7842106  80.5374844
  47.6887989   2.2225746  68.8242831  47.3600695   1.3423125  68.6417937
  48.0427359   2.1673415  69.7119221  56.9367568  13.8580649  73.3337817
  56.7892530  12.9297356  73.5145387  57.7621061  13.8800739  72.8494892
  50.8029812   2.5098716  69.1918309  51.1425884   3.0384637  68.4696918
  51.2501932   2.8479122  69.9676876  60.5401689  14.6809207  74.4202690
  61.4648237  14.4752069  74.2827141  60.3716993  14.4325609  75.3292031
  53.4973253   0.8935767  78.6421377  53.1570073   0.0943580  79.0442057
  52.7912259   1.1937477  78.0698210  54.1489724  -2.0214921  77.0948700
  54.9715794  -2.4954443  76.9727591  54.3927788  -1.2424437  77.5947387
  52.7897959   1.0073337  67.3911602  53.5106321   1.3854590  66.8875319
  52.1663263   1.7262214  67.4946580  56.9329082   1.7118486  68.3269934
  57.1492696   2.5943124  68.0258762  56.4523149   1.3204700  67.5975576
  51.6728303   4.6704200  74.9040679  51.5272884   4.9844503  75.7964960
  51.1953507   5.2889100  74.3511578  53.5324686   1.6606748  74.9521568
  53.5186255   0.7647841  74.6153866  54.2497114   1.6677411  75.5859854
  55.3850817   2.0944088  76.9974696  55.1268595   3.0161158  76.9959026
  54.8535857   1.6974522  77.6875160  60.3297006  15.1994875  69.7764781
  60.5033883  14.6341297  69.0238634  60.8225897  15.9995770  69.5944271
  46.1473965   7.2109544  77.8428340  45.6027433   7.9869352  77.9748614
  47.0253315   7.5580348  77.6847461  52.9361582   0.5421128  70.2209139
  53.0577493  -0.3862226  70.4200026  52.6463624   0.5559814  69.3087454
  55.8052772  -1.7723962  73.3575858  55.8274469  -1.7084629  72.4027838
  56.2220831  -2.6119453  73.5516365  66.1836397   7.9631298  71.3955081
  66.6267543   7.2138623  70.9974204  65.3062907   7.9541434  71.0128813
  61.3172178  14.5161639  66.8761680  62.0123083  15.1368332  67.0948994
  61.6595328  13.6656991  67.1514057  46.9339987   6.3379440  80.7358497
  46.1921723   6.4862076  81.3223127  46.6132732   6.5987706  79.8725246
  63.2163601  11.9661345  68.4049010  63.7414925  12.3048618  67.6798330
  63.1285954  11.0308360  68.2212145  54.8783650  15.8795418  80.5338887
  55.1870776  15.6344565  81.4061587  55.6759132  16.0842057  80.0457757
  54.9004262  18.0333328  72.7644263  54.4609252  17.5409707  73.4577120
  55.6512379  17.4906296  72.5236339  47.3796601  14.2244869  72.7668892
  48.2054621  13.9248641  72.3867535  47.0290653  13.4552491  73.2158680
  52.3478134  13.5771337  74.8366565  51.7258143  12.9142042  74.5368793
  53.0183001  13.6032469  74.1540213  45.5805206  12.1431195  73.7257825
  44.7437114  11.7153370  73.5441826  45.5528851  12.3363639  74.6628616
  52.4202662   2.0553125  84.4299071  52.4690817   2.9315248  84.0476841
  52.9625176   1.5130518  83.8570714  62.9057507  12.5994248  83.7100208
  62.1153051  12.5818387  83.1704708  62.6690862  13.1382542  84.4649245
  63.0255382   9.4486715  81.0232937  63.0753387   9.2836722  81.9648460
  62.9169306   8.5813974  80.6330818  51.9091641  12.1275261  68.3125026
  52.0579761  12.8110725  67.6591698  52.7158084  12.1080351  68.8274481
  60.3159145   5.4317643  82.3392243  61.2169007   5.2924108  82.0476241
  60.3907119   5.5972098  83.2790421  54.6501950   2.8084498  81.1845430
  53.7805259   3.1018064  80.9128018  54.8861430   3.3924943  81.9052693
  64.5273579  11.8683656  81.2674958  64.2358387  12.2313637  82.1038419
  63.9145710  11.1550665  81.0888290  65.7269261   9.4336536  73.7877529
  66.5616153   9.8726340  73.9515089  65.8628390   8.9575189  72.9685774
  62.7760767   6.9916271  79.7355016  63.2514889   7.1843917  78.9273868
  61.8526333   7.0475457  79.4898400  49.6644274   8.1540438  69.3186095
  49.4190316   7.2502768  69.5166305  49.8340189   8.1557589  68.3765573
  57.3540984  -0.9735885  78.7010850  57.8722928  -0.2374859  78.3757339
  56.9996117  -0.6671892  79.5357609  48.9339922   3.8868796  66.8172256
  48.2409166   3.9613151  66.1612292  48.6891673   3.1229139  67.3393773
  55.4087047  14.6223391  65.7836773  54.8361014  15.2413578  65.3307245
  55.9819840  15.1722753  66.3176695  61.4762436   3.8682031  77.9683322
  62.4279859   3.9680129  77.9895546  61.3065887   3.0760300  78.4781406
  59.4976816   0.9537614  78.1542723  58.9026748   1.2342627  77.4589211
  59.2126513   1.4431515  78.9259464  58.6284306  14.9060541  66.9145355
  59.5614979  14.8406103  67.1178231  58.5407519  15.7416808  66.4559888
  61.2572323  14.2226411  63.8749303  61.1785955  13.8886275  64.7685061
  62.0781990  14.7148179  63.8740775  63.9550514   7.0888151  77.0825622
  63.9226834   6.1504152  77.2685305  64.5651138   7.1672187  76.3491446
  55.7933845   5.9584204  63.1252826  56.7392950   5.8290412  63.1941244
  55.4148090   5.2198866  63.6022254  64.1045003   3.8799194  77.1283905
  63.5884051   3.0957651  76.9413834  64.9884951   3.5517911  77.2930424
  61.7655730  -2.3759790  73.0879717  61.5680551  -2.6844702  73.9723049
  62.3755435  -1.6498151  73.2177647  69.7727064   8.1504158  76.2231658
  70.5030452   7.8889446  76.7839362  69.1634009   7.4132880  76.2633726
  67.8542361   6.2912020  76.8206110  67.1275525   6.1567985  76.2122601
  67.4389648   6.5988849  77.6262828  55.6772538  10.0101950  84.5853483
  56.5975547  10.1880549  84.7793529  55.6422121   9.0657995  84.4333182
  53.9776762   3.8834180  63.0607711  53.0708218   3.5867293  63.1370424
  54.2552743   3.5863998  62.1941997  44.8954703   5.2040544  73.5106757
  44.5757487   4.3505852  73.2181131  44.3488131   5.4189122  74.2664725
  48.6734610   7.9202985  77.2276264  48.8920620   8.8520092  77.2464298
  49.0860384   7.5610959  78.0131068  55.5938828  -1.5728930  69.2151952
  54.7839556  -1.9181845  69.5907198  56.2823245  -1.8821386  69.8039564
  57.5229376  -2.4950883  70.8376249  58.0760415  -2.0755430  71.4966272
  57.7599463  -3.4215135  70.8799205  53.5462475   3.4936190  86.6179013
  53.4459202   4.4430547  86.5491104  53.3284017   3.1654429  85.7455083
  52.7475547   0.7421115  63.2019690  53.6094711   1.0676014  63.4615507
  52.9325891  -0.0447389  62.6892756  44.7642963   8.8243455  75.4799879
  44.0706434   8.4097408  74.9669833  45.5115954   8.8663992  74.8833298
  60.9008183  -0.3850358  70.3454913  60.3206852   0.2734446  69.9632965
  60.6344116  -1.2073014  69.9342331  59.3511750  -0.9845300  72.5476233
  59.8511528  -0.8728766  71.7390552  59.9947358  -1.2884248  73.1877042
  53.4093745   6.9233329  85.4344074  52.9260827   7.7233689  85.6407963
  53.4954685   6.9341274  84.4811518  46.6779705   8.7561709  73.3565894
  46.6550393   8.8549396  72.4047777  46.9880342   9.6026860  73.6783060
  49.3367083  10.8137864  77.4712508  50.2910337  10.7821806  77.4042440
  49.1379607  10.3528488  78.2862734  49.9266465   9.3838980  80.0383306
  50.7459354   9.8783059  80.0618143  50.2003273   8.4670948  80.0100873
  59.6833061   1.7749732  69.4011261  58.7958916   2.0599383  69.1831456
  60.0987050   1.6143496  68.5538538  63.0347597   1.7996253  73.1165601
  63.8107988   2.2892706  73.3890217  62.3095732   2.2254307  73.5737470
  65.4720156   2.5123872  74.1739541  66.0664647   2.2719608  73.4632849
  65.5446740   1.7931003  74.8013077  47.6917312  16.3557483  74.4882706
  47.5571780  15.5957884  73.9220704  47.2749374  17.0798383  74.0211495
  58.8276275  11.5394407  63.4959281  59.5312125  11.7444409  64.1116937
  58.1038924  12.1071169  63.7608365  59.6574085   7.2904268  69.6161551
  59.6009286   7.7472820  68.7769184  60.2102427   6.5294953  69.4384394
  63.4678891   3.0794000  70.4411671  63.2115825   2.6790636  71.2719879
  62.8431759   3.7937794  70.3161810  67.7791229   5.8190073  72.9482962
  67.2190787   5.8883263  73.7214524  67.1734732   5.6431058  72.2282459
  50.8486438  17.2526800  74.7001149  50.7318822  18.1972233  74.5979839
  50.0278884  16.9500362  75.0886948  60.7362972  11.9776936  65.5457741
  61.5708576  11.5458135  65.3635216  60.5747315  11.8058950  66.4734636
  60.3908864   8.4809049  66.9114081  60.3357668   8.3153321  65.9702525
  59.7654920   9.1885082  67.0676270  45.1801379   3.7177114  80.7375503
  45.8260243   3.2076068  81.2262728  44.9718530   4.4545795  81.3118928
  57.7054772  10.7857961  86.2367643  58.5745931  10.9598614  85.8754278
  57.2261523  11.6052378  86.1143373  53.7004990  -2.0182842  66.4899399
  53.6883660  -1.0741002  66.6467670  54.5928412  -2.2012696  66.1958860
  51.8740952  17.9055062  77.9157077  52.7768198  17.9378673  78.2323572
  51.6478322  16.9755513  77.9303413  53.6294554  16.6586049  74.5767156
  52.6790185  16.6587910  74.4631528  53.9327040  15.9118783  74.0603190
  49.5198870   0.8644731  84.8350517  50.3830332   0.5081536  85.0453842
  48.9464281   0.5258626  85.5225921  69.3647247  22.4946587  75.6412918
  70.0025657  22.3753335  74.9376258  69.2468090  23.4427431  75.7000870
  66.1736954  22.4474015  75.5774443  65.8355465  22.3315080  74.6894978
  67.0426722  22.0465180  75.5575449  62.0323769  24.3009492  71.5671334
  61.4688634  24.2099429  70.7987621  61.9176164  23.4809396  72.0473826
  66.6556737  23.6008867  81.5360648  66.6445377  23.2061665  80.6641152
  66.8177376  22.8674940  82.1294420  59.5788201  25.7960683  74.4055554
  60.3709493  25.4551508  73.9901853  59.8184851  25.9055658  75.3257707
  67.6123328  27.9680459  66.8785799  66.9611308  28.5534540  66.4919812
  68.4067691  28.4986654  66.9380836  61.5378955  25.0569597  67.2772933
  62.3109831  24.5098584  67.1385809  61.8904354  25.9213846  67.4887394
  63.3763998  26.3845979  80.4839832  63.0853864  27.2891610  80.3686499
  64.0120982  26.4262506  81.1983902  64.3020205  23.7622827  77.0741192
  64.8983777  23.5378850  76.3598155  64.3595176  23.0207573  77.6766640
  63.8745233  21.2162263  64.9091383  64.1270754  20.6943784  64.1474846
  62.9369792  21.0528408  65.0118066  68.9188516  20.2198041  72.7166126
  69.7051605  19.8017464  72.3656543  69.1827220  21.1244133  72.8847774
  69.0898593  25.6570891  67.4154783  68.4544426  25.7305518  68.1275688
  68.7596000  26.2464490  66.7373862  74.3196943  20.1573274  73.6199105
  75.0522115  19.5872491  73.8536934  73.5636299  19.7694875  74.0605610
  63.5941522  23.1190369  67.1115758  63.4777780  22.4435272  67.7796842
  63.7043782  22.6322743  66.2947911  65.9373063  22.5800516  70.8162447
  65.5731270  22.0531137  71.5275369  66.7940179  22.1898985  70.6428932
  71.8422363  13.8694848  78.0793713  71.5105688  14.7390259  77.8554928
  71.2467977  13.5531132  78.7587744  65.5778550  17.6090415  65.8123796
  65.7452952  18.4770652  66.1794267  65.3875719  17.7717697  64.8885085
  68.3353883  26.0707394  77.4789626  68.0354606  26.9732433  77.3705433
  67.9904942  25.8039578  78.3310779  61.7866364  22.5221191  73.5126330
  60.8616861  22.3897405  73.7204022  62.0350777  23.3015410  74.0096273
  71.7351027  18.5889935  75.1587063  70.8267904  18.5205343  74.8645824
  71.6838622  19.0661879  75.9868889  65.5567770  20.0648073  66.7970462
  65.4367396  20.5105124  67.6355943  64.8620359  20.4133391  66.2384001
  59.1475175  22.1654465  74.3470119  59.2767556  22.4188944  75.2609531
  58.4672627  22.7582173  74.0274775  63.3174663  32.8351715  70.4460594
  63.2398692  33.7859540  70.5249074  62.7136306  32.4897587  71.1035520
  65.8091892  20.0079580  83.1021961  65.0325226  20.5673500  83.0924825
  66.4482455  20.4936363  83.6236831  73.6012673  16.7906373  76.9364937
  72.9587053  17.0838906  76.2904732  73.0967601  16.6759293  77.7418134
  71.2552837  20.5369546  67.6250796  72.1670693  20.7696933  67.4498494
  70.7462484  21.1206590  67.0625875  64.0638265  22.8165033  82.6639928
  64.8052949  23.3550077  82.3874751  63.3575250  23.4431322  82.8211479
  69.5393604  24.9594174  81.2612089  69.9476960  24.5176584  80.5166721
  68.8170866  24.3846801  81.5146282  65.8924674  19.8966781  78.6345646
  66.7385870  20.3206194  78.7780295  65.8323312  19.2400405  79.3284209
  69.8622419  25.5195365  75.0164378  69.2331281  25.6841079  74.3140446
  69.4748081  25.9336974  75.7875342  73.7411651  26.4549802  72.3708742
  73.0562689  26.8348704  71.8205775  73.8255500  27.0645129  73.1040689
  69.0424120  17.5571149  80.2926820  68.7985052  18.3113210  79.7561095
  69.3184050  17.9356497  81.1274067  70.9962582  24.1009761  78.9704085
  71.2079478  24.7441521  78.2938466  70.9492331  23.2672078  78.5026015
  68.5988811  16.7127582  75.8740657  67.7373290  17.0108836  76.1657395
  68.6251246  16.9297981  74.9421690  65.4150381  25.2569773  72.2814463
  65.8788726  25.5357476  71.4919086  65.1507179  24.3553217  72.0987554
  62.3074462  24.8041254  75.2194226  62.8775819  25.2328523  74.5811711
  62.8982574  24.5223839  75.9178412  64.3519267  21.3792925  69.0904028
  65.0543310  21.8313969  69.5577955  64.0199895  20.7376744  69.7183921
  62.7999628  19.9704682  83.4655238  62.1698289  20.6520962  83.6990634
  62.6935716  19.8587763  82.5208376  58.0944601  19.6376478  74.3921162
  57.3043655  19.8934006  73.9161272  58.5855848  20.4524816  74.4973202
  72.1108410  26.9781717  77.1426443  72.9325854  26.5761904  76.8609124
  72.1070813  26.8749951  78.0942558  60.0459346  20.0021057  71.3504638
  59.2490509  20.1139751  71.8688134  59.8184938  20.3407709  70.4845529
  65.8765014  26.5265760  79.2987153  65.9409446  26.9886167  80.1345325
  65.1675938  25.8963125  79.4269463  56.3782304  19.8906968  76.8236153
  56.6290342  20.7753978  77.0893728  56.9141852  19.7111570  76.0511244
  80.2014403  23.3220465  73.4911414  79.4478112  22.7527863  73.3355418
  80.3361945  23.2883130  74.4382049  65.5913031  28.1933868  69.1666133
  65.4558706  29.0385403  69.5950981  66.1322844  28.3953145  68.4032067
  62.0780371  14.2725447  85.8280489  61.6847317  13.7191646  86.5028133
  62.8946511  14.5836026  86.2187006  59.0442429  25.7109306  69.7394058
  59.5566949  26.5052556  69.8899623  59.6965142  25.0135596  69.6727660
  60.8537314  28.8275062  71.8216812  61.0303942  29.7493027  71.6337796
  61.6494147  28.5133481  72.2511191  64.9948332  15.6883327  83.4200745
  65.7358045  16.2890480  83.3405208  65.2266255  14.9460964  82.8618788
  60.1389670  20.8739694  81.6978975  60.0243185  19.9724951  81.9986074
  59.2834188  21.1203391  81.3463791  67.2181508  28.8157434  83.2966475
  66.7745362  28.0293813  82.9787380  67.8798721  29.0036585  82.6310366
  61.9768629  30.3453236  77.8227154  62.5276054  30.2170299  77.0504148
  61.1380105  30.6448125  77.4722047  69.3162746  29.0960234  81.3247877
  69.2981221  29.9169115  80.8328146  70.2382666  28.9714309  81.5498018
  65.7735800  26.6104364  82.1671385  66.3064137  25.8492652  81.9370693
  65.2449881  26.3178015  82.9095540  68.9405495  11.7164430  77.6965027
  68.5969764  12.6066071  77.6204137  69.3084458  11.5266087  76.8334612
  57.0091346  24.0397960  70.5153629  57.8466568  24.4494968  70.2987337
  57.1869613  23.0997402  70.4853823  68.9055778  21.7073041  66.2037462
  68.3902401  22.4777645  66.4425849  68.6333086  21.0338177  66.8270523
  66.4902889  16.5522741  71.2622700  65.6344485  16.1629592  71.0828339
  66.9029841  16.6314702  70.4022486  68.0202035  14.0869085  75.6614260
  67.5166831  14.0499220  74.8482065  68.3132642  14.9961827  75.7210917
  64.2644921  14.1707814  74.6680442  65.1297918  13.9750623  74.3086331
  64.3322430  13.9418166  75.5949799  73.8790052  24.4605395  68.1390635
  73.1019495  24.1216555  67.6945798  74.5581533  24.4658018  67.4645600
  68.6942081  19.5800133  68.0297243  68.3892217  19.8946282  68.8807386
  69.6472523  19.6581553  68.0724576  67.1388513  25.7390356  69.6790197
  66.6109874  25.0043116  69.3663435  66.6376015  26.5165032  69.4330165
  72.1181359  23.9339377  74.7957243  71.4605033  24.6238638  74.8837372
  72.9221758  24.3235808  75.1391230  61.8707240  16.4010022  72.0396809
  62.4450992  16.1785204  71.3070002  62.4578223  16.4698717  72.7925410
  70.9286818  22.2883749  72.8461185  71.4418699  22.9213741  73.3482895
  71.5788041  21.6884945  72.4804545  62.1976827  18.4314483  66.0592694
  61.3614140  18.7689170  66.3801969  62.0581597  18.2963463  65.1219831
  64.1729908  13.2751271  70.7671878  63.5194320  12.9600288  70.1428493
  64.1310382  12.6527012  71.4931701  65.2841113  23.5570566  62.6825170
  64.3768175  23.3259820  62.8816319  65.7812145  22.7608186  62.8699152
  68.1909192  32.2668073  65.6021856  67.5170891  32.5699770  66.2106814
  68.5775014  33.0697154  65.2527313  67.4067648  19.7633205  75.0919526
  66.4890210  19.9848152  74.9341214  67.8227792  19.8379515  74.2331233
  68.1902696  21.1624620  70.2222206  68.9374515  21.6746018  69.9129328
  68.4594286  20.8408673  71.0826600  66.4629346  23.6583161  67.2049160
  65.5540566  23.3742194  67.3021630  66.4924430  24.0782240  66.3452467
  71.6948614  27.2689751  70.9740328  71.2410941  26.4280661  71.0305518
  71.0642581  27.9051149  71.3115108  70.6381533  18.1981737  72.2040995
  69.9004290  17.6859123  72.5351238  70.8908307  17.7582118  71.3924272
  70.1381553  29.1066247  71.9090146  70.4304527  29.6671304  71.1902512
  70.6480174  29.3994808  72.6643305  70.7393161  10.9757989  72.7982765
  71.0452037  10.1155352  72.5108680  71.4645766  11.5675609  72.5981758
  57.0317517  21.3788675  71.1864362  56.8341917  20.7858036  70.4615429
  56.4764181  21.0740885  71.9040301  65.0114240  21.2711782  73.3058956
  65.0662850  20.3185618  73.2301432  64.2005442  21.4271221  73.7900254
  66.1605434  25.1991905  64.5437239  65.7224864  24.4827764  64.0842876
  66.9015875  25.4268020  63.9822330  62.9506600  19.8888842  71.0649334
  62.1374466  20.1883012  71.4714527  63.4465595  19.4944530  71.7823817
  65.1015178  29.8846598  72.9983599  65.0591357  30.1107445  72.0692131
  66.0177877  29.6509973  73.1469400  68.5480812  20.3530666  79.8964228
  68.9030200  20.5802139  80.7558694  69.1952943  20.6849043  79.2741484
  74.2778549  23.4749102  70.6013557  74.1396448  23.6650698  69.6734747
  73.9214768  24.2368485  71.0581609  62.4420675  17.4607197  76.6810569
  63.0820054  17.3195956  75.9833533  61.6098206  17.1741710  76.3049171
  74.3047929  25.5425629  75.6124829  74.7384435  25.4500918  76.4607883
  75.0179509  25.5183129  74.9744845  63.2180979  26.7609627  72.7945562
  64.0121578  26.2659948  72.5928137  62.5072671  26.2327491  72.4313267
  68.0375823  29.1427723  77.1457929  68.0912846  29.7118659  77.9135645
  67.1690605  29.3129608  76.7811967  59.5263742  20.9052709  68.8705315
  58.5961331  20.8437165  69.0875277  59.6221214  20.3828662  68.0741956
  59.4449292  17.4307522  71.4583556  59.7056109  18.3452855  71.3492717
  60.2666464  16.9631965  71.6080169  60.9174217  18.8445279  78.6282381
  61.5897270  18.6362641  77.9795030  60.0904003  18.6467365  78.1887613
  75.1663478  25.5849330  78.1457714  75.3599368  26.4895140  78.3916989
  75.0664096  25.1256749  78.9796299  66.8199789  15.4707220  80.6448042
  66.1727704  16.1697170  80.5512518  67.5900804  15.9043364  81.0124290
  70.2278587  25.7356072  83.7198595  70.0764093  25.5066624  82.8028679
  70.2183266  26.6926674  83.7329940  66.9963923  23.3087985  78.7044861
  67.9255983  23.4599145  78.5313829  66.5754953  23.3972006  77.8493508
  65.7952255  27.3338649  76.4743399  65.6563341  26.9657434  77.3469337
  65.0066851  27.8486289  76.3027357  66.3900407  32.4347746  67.8168935
  66.5652163  31.9635789  68.6314558  65.7033195  33.0613512  68.0450196
  67.3457470  26.7120252  73.8632237  67.0107303  26.6721022  74.7589887
  66.8461416  26.0464968  73.3902647  61.3201714  22.1187882  79.3884818
  61.1821512  21.3868121  79.9896357  62.2306638  22.0296782  79.1069006
  70.2816662  24.0576286  64.1369296  69.6645832  23.3323115  64.0402349
  69.8133150  24.8185647  63.7936371  63.9484015  21.8307841  78.8768498
  64.6583633  21.1901034  78.8355116  63.9053323  22.0820736  79.7994678
  71.9370793  28.7675195  81.7975077  71.8783340  28.0834415  81.1305660
  72.3390312  29.5094185  81.3455703  62.6612949  18.8173059  80.6964137
  62.1250306  18.3663798  81.3485733  62.0729657  18.9518968  79.9534601
  60.9561492  35.5837109  74.5908796  61.1958090  36.2155633  75.2687814
  60.1130689  35.2325149  74.8774155  62.0715208  18.2761711  63.2590601
  61.1944674  18.1550512  62.8952847  62.5472961  17.4847789  63.0069489
  71.9388201  26.7314779  80.0289056  71.0514979  26.3940701  80.1515455
  72.5086752  25.9997810  80.2657822  53.5917348  23.0638871  73.3532108
  54.2788388  22.7500601  72.7653123  53.4365477  23.9680235  73.0799359
  58.3952070  17.9529067  77.7817132  58.3110259  17.3454737  77.0467541
  57.5734776  18.4438085  77.7826628  65.4689354  31.3916231  76.9950300
  65.3959526  32.1971203  77.5069604  65.0266747  31.5908197  76.1698321
  65.2579134  30.6288001  70.5053121  64.4746656  31.1709681  70.5991346
  65.9571879  31.1461981  70.9047362  68.5675784  16.4382631  73.1487327
  69.0644483  15.6852593  72.8288397  67.7962765  16.4746947  72.5830536
  76.4205541  22.1422996  74.7905618  76.4095418  23.0247712  74.4199551
  75.5522921  21.7894547  74.5960155  67.9288038  31.2903065  79.1508458
  68.6416010  31.9250530  79.0784360  67.4378066  31.3866931  78.3348460
  69.6505565  25.1954318  70.7225750  68.7161843  25.3155780  70.5530454
  69.8282233  24.2926785  70.4585760  65.1510753  18.5800014  72.8759011
  64.7808540  18.0271054  73.5639917  65.6469845  17.9758147  72.3234011
  73.0378116  21.0371637  71.2575784  73.5038568  21.8699629  71.1836087
  73.4885616  20.5716619  71.9621043  62.9799951  29.0397509  79.9714029
  63.6809411  29.6733992  80.1243423  62.5095066  29.3812240  79.2109668
  71.1054347  27.3815458  68.2561936  71.3814191  27.2672053  69.1655810
  70.2358846  26.9832943  68.2174109  71.0094779  13.4052224  75.2966685
  70.0957858  13.6356451  75.4648892  71.4387880  13.4890668  76.1480718
  70.7801237  21.5942116  77.7966579  70.1272687  21.8418024  77.1419032
  71.1581617  20.7806254  77.4629057  67.7408411  31.6301809  71.8994750
  67.9230806  30.8123465  72.3622502  68.5641397  31.8469501  71.4619640
  68.0750577  30.5569994  69.1609798  68.6038343  30.0462449  68.5479960
  68.3378796  30.2412525  70.0255331  66.8288810  22.3361927  84.2832617
  66.1529447  22.2356056  84.9534992  67.6516444  22.1801141  84.7468614
  58.5767669  28.5733864  76.9045132  59.1621106  27.8277552  77.0373036
  58.3792508  28.8837820  77.7881796  61.4306324  31.6085111  71.9207574
  60.7616700  32.0931239  71.4371614  61.2919194  31.8554331  72.8350953
  53.1685324  21.1439464  75.6249575  53.2069423  20.6103055  76.4186693
  52.6625617  20.6174669  75.0060552  65.5711593  33.6428855  78.5190233
  66.1229901  33.8060476  79.2839318  65.9117787  34.2333292  77.8470257
  60.5476086  15.9904004  79.1212117  60.6117413  16.8518835  78.7089515
  60.4843207  15.3778006  78.3884476  60.0228359  18.0627137  82.7685152
  60.6500398  17.6804214  83.3822676  59.1656278  17.8441339  83.1340844
  70.4222467  28.4690112  84.3738887  70.9662371  29.0820070  83.8793842
  69.8409312  29.0269690  84.8905900  56.7993902  19.8703566  68.7003506
  57.0947343  18.9614244  68.6470560  55.8981937  19.8491305  68.3784509
  68.7079980  31.5910830  75.5053915  68.5831120  30.7900570  74.9964860
  69.3659071  32.0857023  75.0167885  60.3288149  17.9459563  74.6831055
  59.6074734  18.5595530  74.5438528  61.1181404  18.4817327  74.6047701
  70.7714889  29.3919850  77.1333465  69.8245224  29.2725201  77.0611792
  71.1197662  28.5042348  77.2159726  63.1314462  15.2813989  80.9571707
  63.6548864  15.5276286  81.7198016  62.9126795  16.1134024  80.5374844
  58.5281743  17.5517664  68.8242831  58.1994449  16.6715043  68.6417937
  58.8821114  17.4965332  69.7119221  67.7761322  29.1872566  73.3337817
  67.6286284  28.2589274  73.5145387  68.6014816  29.2092657  72.8494892
  61.6423566  17.8390633  69.1918309  61.9819639  18.3676555  68.4696918
  62.0895687  18.1771040  69.9676876  71.3795444  30.0101125  74.4202690
  72.3041991  29.8043986  74.2827141  71.2110747  29.7617526  75.3292031
  64.3367007  16.2227684  78.6421377  63.9963827  15.4235497  79.0442057
  63.6306013  16.5229395  78.0698210  64.9883479  13.3076997  77.0948700
  65.8109548  12.8337475  76.9727591  65.2321542  14.0867480  77.5947387
  63.6291713  16.3365255  67.3911602  64.3500076  16.7146508  66.8875319
  63.0057018  17.0554132  67.4946580  67.7722836  17.0410404  68.3269934
  67.9886451  17.9235042  68.0258762  67.2916903  16.6496617  67.5975576
  62.5122058  19.9996117  74.9040679  62.3666638  20.3136420  75.7964960
  62.0347261  20.6181018  74.3511578  64.3718441  16.9898665  74.9521568
  64.3580009  16.0939759  74.6153866  65.0890869  16.9969329  75.5859854
  66.2244571  17.4236005  76.9974696  65.9662349  18.3453076  76.9959026
  65.6929612  17.0266440  77.6875160  71.1690760  30.5286793  69.7764781
  71.3427638  29.9633215  69.0238634  71.6619651  31.3287687  69.5944271
  56.9867720  22.5401462  77.8428340  56.4421188  23.3161270  77.9748614
  57.8647070  22.8872266  77.6847461  63.7755337  15.8713046  70.2209139
  63.8971248  14.9429692  70.4200026  63.4857379  15.8851732  69.3087454
  66.6446527  13.5567956  73.3575858  66.6668224  13.6207289  72.4027838
  67.0614586  12.7172465  73.5516365  77.0230151  23.2923216  71.3955081
  77.4661297  22.5430541  70.9974204  76.1456662  23.2833352  71.0128813
  72.1565933  29.8453557  66.8761680  72.8516837  30.4660250  67.0948994
  72.4989083  28.9948908  67.1514057  57.7733742  21.6671358  80.7358497
  57.0315478  21.8153993  81.3223127  57.4526486  21.9279624  79.8725246
  74.0557356  27.2953263  68.4049010  74.5808680  27.6340535  67.6798330
  73.9679708  26.3600278  68.2212145  65.7177404  31.2087336  80.5338887
  66.0264531  30.9636483  81.4061587  66.5152886  31.4133975  80.0457757
  65.7398016  33.3625246  72.7644263  65.3003007  32.8701624  73.4577120
  66.4906133  32.8198213  72.5236339  58.2190355  29.5536787  72.7668892
  59.0448375  29.2540559  72.3867535  57.8684407  28.7844409  73.2158680
  63.1871889  28.9063255  74.8366565  62.5651898  28.2433960  74.5368793
  63.8576755  28.9324387  74.1540213  56.4198960  27.4723113  73.7257825
  55.5830869  27.0445287  73.5441826  56.3922606  27.6655556  74.6628616
  63.2596416  17.3845043  84.4299071  63.3084572  18.2607166  84.0476841
  63.8018930  16.8422436  83.8570714  73.7451262  27.9286166  83.7100208
  72.9546805  27.9110305  83.1704708  73.5084616  28.4674460  84.4649245
  73.8649137  24.7778633  81.0232937  73.9147142  24.6128640  81.9648460
  73.7563060  23.9105892  80.6330818  62.7485395  27.4567178  68.3125026
  62.8973516  28.1402643  67.6591698  63.5551839  27.4372268  68.8274481
  71.1552899  20.7609561  82.3392243  72.0562762  20.6216025  82.0476241
  71.2300874  20.9264015  83.2790421  65.4895705  18.1376415  81.1845430
  64.6199014  18.4309981  80.9128018  65.7255185  18.7216860  81.9052693
  75.3667334  27.1975574  81.2674958  75.0752142  27.5605555  82.1038419
  74.7539465  26.4842582  81.0888290  76.5663016  24.7628454  73.7877529
  77.4009907  25.2018258  73.9515089  76.7022145  24.2867107  72.9685774
  73.6154522  22.3208189  79.7355016  74.0908643  22.5135835  78.9273868
  72.6920087  22.3767375  79.4898400  60.5038028  23.4832356  69.3186095
  60.2584070  22.5794686  69.5166305  60.6733943  23.4849506  68.3765573
  68.1934738  14.3556032  78.7010850  68.7116682  15.0917059  78.3757339
  67.8389871  14.6620026  79.5357609  59.7733676  19.2160713  66.8172256
  59.0802921  19.2905068  66.1612292  59.5285428  18.4521057  67.3393773
  68.4447333  10.7756315  74.2211747  68.7249086  10.1079504  74.8472173
  69.2297939  10.9685410  73.7086411  66.2480801  29.9515309  65.7836773
  65.6754768  30.5705496  65.3307245  66.8213595  30.5014670  66.3176695
  72.3156191  19.1973949  77.9683322  73.2673614  19.2972046  77.9895546
  72.1459641  18.4052217  78.4781406  70.3370570  16.2829532  78.1542723
  69.7420502  16.5634545  77.4589211  70.0520267  16.7723433  78.9259464
  69.4678061  30.2352459  66.9145355  70.4008734  30.1698020  67.1178231
  69.3801274  31.0708726  66.4559888  72.0966077  29.5518329  63.8749303
  72.0179709  29.2178193  64.7685061  72.9175744  30.0440097  63.8740775
  74.7944269  22.4180068  77.0825622  74.7620589  21.4796069  77.2685305
  75.4044892  22.4964105  76.3491446  66.6327600  21.2876121  63.1252826
  67.5786704  21.1582330  63.1941244  66.2541844  20.5490783  63.6022254
  74.9438757  19.2091112  77.1283905  74.4277806  18.4249569  76.9413834
  75.8278706  18.8809829  77.2930424  72.6049484  12.9532127  73.0879717
  72.4074305  12.6447216  73.9723049  73.2149190  13.6793766  73.2177647
  80.6120818  23.4796075  76.2231658  81.3424207  23.2181363  76.7839362
  80.0027764  22.7424797  76.2633726  78.6936116  21.6203938  76.8206110
  77.9669279  21.4859903  76.2122601  78.2783402  21.9280766  77.6262828
  66.5166292  25.3393868  84.5853483  67.4369302  25.5172467  84.7793529
  66.4815875  24.3949913  84.4333182  64.8170517  19.2126098  63.0607711
  63.9101972  18.9159211  63.1370424  65.0946498  18.9155916  62.1941997
  55.7348457  20.5332461  73.5106757  55.4151241  19.6797769  73.2181131
  55.1881885  20.7481039  74.2664725  59.5128365  23.2494902  77.2276264
  59.7314374  24.1812010  77.2464298  59.9254138  22.8902877  78.0131068
  66.4332582  13.7562988  69.2151952  65.6233311  13.4110072  69.5907198
  67.1216999  13.4470531  69.8039564  68.3623131  12.8341034  70.8376249
  68.9154169  13.2536488  71.4966272  68.5993217  11.9076782  70.8799205
  64.3856230  18.8228108  86.6179013  64.2852957  19.7722465  86.5491104
  64.1677772  18.4946347  85.7455083  63.5869301  16.0713033  63.2019690
  64.4488465  16.3967931  63.4615507  63.7719645  15.2844529  62.6892756
  55.6036717  24.1535373  75.4799879  54.9100188  23.7389326  74.9669833
  56.3509708  24.1955909  74.8833298  71.7401938  14.9441559  70.3454913
  71.1600607  15.6026364  69.9632965  71.4737870  14.1218904  69.9342331
  70.1905504  14.3446617  72.5476233  70.6905282  14.4563152  71.7390552
  70.8341112  14.0407670  73.1877042  64.2487500  22.2525247  85.4344074
  63.7654582  23.0525607  85.6407963  64.3348439  22.2633192  84.4811518
  57.5173460  24.0853626  73.3565894  57.4944148  24.1841314  72.4047777
  57.8274096  24.9318777  73.6783060  60.1760837  26.1429782  77.4712508
  61.1304091  26.1113724  77.4042440  59.9773361  25.6820405  78.2862734
  60.7660220  24.7130898  80.0383306  61.5853109  25.2074976  80.0618143
  61.0397027  23.7962866  80.0100873  70.5226816  17.1041650  69.4011261
  69.6352671  17.3891300  69.1831456  70.9380805  16.9435413  68.5538538
  73.8741352  17.1288171  73.1165601  74.6501742  17.6184623  73.3890217
  73.1489486  17.5546225  73.5737470  76.3113911  17.8415790  74.1739541
  76.9058401  17.6011526  73.4632849  76.3840494  17.1222921  74.8013077
  58.5311066  31.6849401  74.4882706  58.3965534  30.9249802  73.9220704
  58.1143129  32.4090301  74.0211495  69.6670029  26.8686325  63.4959281
  70.3705879  27.0736327  64.1116937  68.9432678  27.4363086  63.7608365
  70.4967840  22.6196186  69.6161551  70.4403041  23.0764737  68.7769184
  71.0496182  21.8586870  69.4384394  74.3072645  18.4085918  70.4411671
  74.0509580  18.0082553  71.2719879  73.6825513  19.1229712  70.3161810
  78.6184983  21.1481991  72.9482962  78.0584541  21.2175180  73.7214524
  78.0128487  20.9722976  72.2282459  61.6880192  32.5818718  74.7001149
  61.5712576  33.5264151  74.5979839  60.8672638  32.2792280  75.0886948
  71.5756727  27.3068854  65.5457741  72.4102331  26.8750052  65.3635216
  71.4141070  27.1350867  66.4734636  71.2302619  23.8100967  66.9114081
  71.1751423  23.6445238  65.9702525  70.6048674  24.5177000  67.0676270
  56.0195134  19.0469031  80.7375503  56.6653997  18.5367985  81.2262728
  55.8112285  19.7837713  81.3118928  68.5448526  26.1149879  86.2367643
  69.4139686  26.2890531  85.8754278  68.0655277  26.9344296  86.1143373
  64.5398744  13.3109076  66.4899399  64.5277414  14.2550916  66.6467670
  65.4322166  13.1279221  66.1958860  62.7134706  33.2346980  77.9157077
  63.6161953  33.2670590  78.2323572  62.4872076  32.3047431  77.9303413
  64.4688308  31.9877966  74.5767156  63.5183939  31.9879828  74.4631528
  64.7720794  31.2410701  74.0603190  68.3550864   9.9051853  70.7445336
  67.5883260   9.3510339  70.8902018  68.7661569   9.9773721  71.6059487
  60.3592625  16.1936649  84.8350517  61.2224086  15.8373453  85.0453842
  59.7858035  15.8550543  85.5225921  80.2041002  37.8238505  75.6412918
  80.8419412  37.7045252  74.9376258  80.0861845  38.7719349  75.7000870
  77.0130708  37.7765933  75.5774443  76.6749220  37.6606998  74.6894978
  77.8820476  37.3757098  75.5575449  72.8717524  39.6301409  71.5671334
  72.3082389  39.5391346  70.7987621  72.7569919  38.8101314  72.0473826
  77.4950491  38.9300785  81.5360648  77.4839132  38.5353583  80.6641152
  77.6571130  38.1966857  82.1294420  70.4181956  41.1252601  74.4055554
  71.2103248  40.7843426  73.9901853  70.6578606  41.2347576  75.3257707
  78.4517082  43.2972377  66.8785799  77.8005062  43.8826457  66.4919812
  79.2461445  43.8278572  66.9380836  72.3772710  40.3861514  67.2772933
  73.1503586  39.8390501  67.1385809  72.7298108  41.2505764  67.4887394
  74.2157752  41.7137896  80.4839832  73.9247618  42.6183527  80.3686499
  74.8514737  41.7554424  81.1983902  75.1413959  39.0914745  77.0741192
  75.7377531  38.8670767  76.3598155  75.1988931  38.3499490  77.6766640
  74.7138987  36.5454180  64.9091383  74.9664508  36.0235702  64.1474846
  73.7763547  36.3820326  65.0118066  79.7582270  35.5489959  72.7166126
  80.5445359  35.1309382  72.3656543  80.0220975  36.4536051  72.8847774
  79.9292348  40.9862809  67.4154783  79.2938181  41.0597436  68.1275688
  79.5989754  41.5756408  66.7373862  85.1590697  35.4865192  73.6199105
  85.8915869  34.9164409  73.8536934  84.4030053  35.0986792  74.0605610
  74.4335276  38.4482286  67.1115758  74.3171534  37.7727190  67.7796842
  74.5437536  37.9614660  66.2947911  76.7766817  37.9092433  70.8162447
  76.4125024  37.3823054  71.5275369  77.6333933  37.5190902  70.6428932
  82.6816118  29.1986766  78.0793713  82.3499442  30.0682177  77.8554928
  82.0861731  28.8823050  78.7587744  76.4172304  32.9382333  65.8123796
  76.5846706  33.8062570  66.1794267  76.2269473  33.1009615  64.8885085
  79.1747637  41.3999312  77.4789626  78.8748360  42.3024351  77.3705433
  78.8298697  41.1331495  78.3310779  72.6260119  37.8513109  73.5126330
  71.7010615  37.7189323  73.7204022  72.8744532  38.6307328  74.0096273
  82.5744781  33.9181852  75.1587063  81.6661658  33.8497261  74.8645824
  82.5232377  34.3953797  75.9868889  76.3961525  35.3939991  66.7970462
  76.2761150  35.8397041  67.6355943  75.7014113  35.7425308  66.2384001
  69.9868930  37.4946382  74.3470119  70.1161311  37.7480861  75.2609531
  69.3066381  38.0874090  74.0274775  76.6485647  35.3371498  83.1021961
  75.8718981  35.8965418  83.0924825  77.2876210  35.8228281  83.6236831
  84.4406427  32.1198291  76.9364937  83.7980808  32.4130824  76.2904732
  83.9361356  32.0051211  77.7418134  82.0946591  35.8661464  67.6250796
  83.0064447  36.0988851  67.4498494  81.5856238  36.4498508  67.0625875
  74.9032019  38.1456951  82.6639928  75.6446703  38.6841995  82.3874751
  74.1969005  38.7723240  82.8211479  80.3787359  40.2886092  81.2612089
  80.7870715  39.8468502  80.5166721  79.6564620  39.7138719  81.5146282
  76.7318429  35.2258698  78.6345646  77.5779624  35.6498112  78.7780295
  76.6717066  34.5692323  79.3284209  80.7016173  40.8487282  75.0164378
  80.0725036  41.0132996  74.3140446  80.3141835  41.2628892  75.7875342
  79.8817874  32.8863067  80.2926820  79.6378806  33.6405127  79.7561095
  80.1577805  33.2648414  81.1274067  81.8356337  39.4301679  78.9704085
  82.0473232  40.0733439  78.2938466  81.7886085  38.5963996  78.5026015
  79.4382566  32.0419500  75.8740657  78.5767045  32.3400753  76.1657395
  79.4645001  32.2589899  74.9421690  76.2544135  40.5861690  72.2814463
  76.7182481  40.8649393  71.4919086  75.9900933  39.6845135  72.0987554
  73.1468216  40.1333172  75.2194226  73.7169573  40.5620440  74.5811711
  73.7376328  39.8515757  75.9178412  75.1913021  36.7084843  69.0904028
  75.8937065  37.1605886  69.5577955  74.8593650  36.0668662  69.7183921
  73.6393383  35.2996599  83.4655238  73.0092043  35.9812880  83.6990634
  73.5329471  35.1879681  82.5208376  68.9338355  34.9668395  74.3921162
  68.1437409  35.2225924  73.9161272  69.4249603  35.7816733  74.4973202
  82.9502165  42.3073635  77.1426443  83.7719609  41.9053822  76.8609124
  82.9464568  42.2041869  78.0942558  70.8853101  35.3312975  71.3504638
  70.0884264  35.4431669  71.8688134  70.6578693  35.6699627  70.4845529
  76.7158768  41.8557678  79.2987153  76.7803201  42.3178085  80.1345325
  76.0069692  41.2255043  79.4269463  67.2176058  35.2198886  76.8236153
  67.4684097  36.1045896  77.0893728  67.7535607  35.0403487  76.0511244
  76.4306786  43.5225785  69.1666133  76.2952461  44.3677321  69.5950981
  76.9716598  43.7245063  68.4032067  72.9174126  29.6017365  85.8280489
  72.5241071  29.0483564  86.5028133  73.7340266  29.9127944  86.2187006
  69.8836183  41.0401223  69.7394058  70.3960704  41.8344474  69.8899623
  70.5358896  40.3427514  69.6727660  71.6931068  44.1566980  71.8216812
  71.8697696  45.0784944  71.6337796  72.4887902  43.8425399  72.2511191
  75.8342087  31.0175244  83.4200745  76.5751800  31.6182397  83.3405208
  76.0660009  30.2752882  82.8618788  70.9783425  36.2031612  81.6978975
  70.8636940  35.3016869  81.9986074  70.1227942  36.4495308  81.3463791
  78.0575262  44.1449352  83.2966475  77.6139117  43.3585730  82.9787380
  78.7192476  44.3328502  82.6310366  72.8162384  45.6745153  77.8227154
  73.3669809  45.5462217  77.0504148  71.9773859  45.9740042  77.4722047
  80.1556500  44.4252152  81.3247877  80.1374976  45.2461033  80.8328146
  81.0776420  44.3006227  81.5498018  76.6129555  41.9396281  82.1671385
  77.1457891  41.1784569  81.9370693  76.0843636  41.6469933  82.9095540
  79.7799250  27.0456347  77.6965027  79.4363519  27.9357989  77.6204137
  80.1478212  26.8558005  76.8334612  67.8485100  39.3689878  70.5153629
  68.6860322  39.7786886  70.2987337  68.0263368  38.4289320  70.4853823
  79.7449532  37.0364958  66.2037462  79.2296156  37.8069563  66.4425849
  79.4726841  36.3630094  66.8270523  77.3296643  31.8814659  71.2622700
  76.4738240  31.4921509  71.0828339  77.7423595  31.9606620  70.4022486
  78.8595790  29.4161002  75.6614260  78.3560586  29.3791138  74.8482065
  79.1526397  30.3253745  75.7210917  75.1038676  29.4999732  74.6680442
  75.9691673  29.3042541  74.3086331  75.1716185  29.2710084  75.5949799
  84.7183806  39.7897313  68.1390635  83.9413249  39.4508472  67.6945798
  85.3975287  39.7949936  67.4645600  79.5335835  34.9092050  68.0297243
  79.2285971  35.2238200  68.8807386  80.4866278  34.9873470  68.0724576
  77.9782267  41.0682274  69.6790197  77.4503629  40.3335033  69.3663435
  77.4769770  41.8456950  69.4330165  72.7100995  31.7301940  72.0396809
  73.2844747  31.5077121  71.3070002  73.2971977  31.7990635  72.7925410
  81.7680572  37.6175667  72.8461185  82.2812454  38.2505659  73.3482895
  82.4181796  37.0176862  72.4804545  73.0370582  33.7606401  66.0592694
  72.2007894  34.0981088  66.3801969  72.8975352  33.6255381  65.1219831
  75.0123663  28.6043189  70.7671878  74.3588075  28.2892206  70.1428493
  74.9704137  27.9818929  71.4931701  76.1234867  38.8862484  62.6825170
  75.2161929  38.6551737  62.8816319  76.6205899  38.0900103  62.8699152
  79.0302946  47.5959991  65.6021856  78.3564645  47.8991688  66.2106814
  79.4168768  48.3989072  65.2527313  78.2461403  35.0925122  75.0919526
  77.3283964  35.3140069  74.9341214  78.6621547  35.1671433  74.2331233
  79.0296451  36.4916538  70.2222206  79.7768270  37.0037935  69.9129328
  79.2988040  36.1700591  71.0826600  77.3023101  38.9875079  67.2049160
  76.3934320  38.7034112  67.3021630  77.3318185  39.4074157  66.3452467
  82.5342368  42.5981668  70.9740328  82.0804695  41.7572578  71.0305518
  81.9036335  43.2343067  71.3115108  81.4775288  33.5273654  72.2040995
  80.7398045  33.0151041  72.5351238  81.7302061  33.0874036  71.3924272
  80.9775308  44.4358165  71.9090146  81.2698282  44.9963222  71.1902512
  81.4873928  44.7286726  72.6643305  81.5786915  26.3049906  72.7982765
  81.8845792  25.4447270  72.5108680  82.3039520  26.8967527  72.5981758
  67.8711271  36.7080593  71.1864362  67.6735671  36.1149954  70.4615429
  67.3157935  36.4032803  71.9040301  75.8507995  36.6003699  73.3058956
  75.9056605  35.6477536  73.2301432  75.0399197  36.7563139  73.7900254
  76.9999189  40.5283823  64.5437239  76.5618619  39.8119681  64.0842876
  77.7409630  40.7559937  63.9822330  73.7900355  35.2180759  71.0649334
  72.9768220  35.5174930  71.4714527  74.2859349  34.8236448  71.7823817
  75.9408933  45.2138516  72.9983599  75.8985112  45.4399362  72.0692131
  76.8571632  44.9801891  73.1469400  79.3874567  35.6822584  79.8964228
  79.7423954  35.9094057  80.7558694  80.0346698  36.0140960  79.2741484
  85.1172303  38.8041020  70.6013557  84.9790202  38.9942616  69.6734747
  84.7608522  39.5660402  71.0581609  73.2814430  32.7899115  76.6810569
  73.9213809  32.6487874  75.9833533  72.4491960  32.5033628  76.3049171
  85.1441683  40.8717547  75.6124829  85.5778190  40.7792836  76.4607883
  85.8573264  40.8475047  74.9744845  74.0574734  42.0901545  72.7945562
  74.8515332  41.5951865  72.5928137  73.3466426  41.5619408  72.4313267
  78.8769578  44.4719641  77.1457929  78.9306600  45.0410577  77.9135645
  78.0084359  44.6421526  76.7811967  70.3657497  36.2344627  68.8705315
  69.4355085  36.1729082  69.0875277  70.4614969  35.7120580  68.0741956
  70.2843046  32.7599440  71.4583556  70.5449863  33.6744773  71.3492717
  71.1060218  32.2923882  71.6080169  71.7567971  34.1737197  78.6282381
  72.4291025  33.9654559  77.9795030  70.9297758  33.9759283  78.1887613
  86.0057233  40.9141247  78.1457714  86.1993123  41.8187058  78.3916989
  85.9057851  40.4548666  78.9796299  77.6593543  30.7999138  80.6448042
  77.0121458  31.4989087  80.5512518  78.4294559  31.2335282  81.0124290
  81.0672341  41.0647990  83.7198595  80.9157848  40.8358542  82.8028679
  81.0577021  42.0218591  83.7329940  77.8357678  38.6379903  78.7044861
  78.7649738  38.7891062  78.5313829  77.4148708  38.7263923  77.8493508
  76.6346010  42.6630567  76.4743399  76.4957095  42.2949352  77.3469337
  75.8460606  43.1778207  76.3027357  77.2294161  47.7639664  67.8168935
  77.4045917  47.2927707  68.6314558  76.5426950  48.3905430  68.0450196
  78.1851225  42.0412170  73.8632237  77.8501057  42.0012940  74.7589887
  77.6855170  41.3756886  73.3902647  72.1595469  37.4479800  79.3884818
  72.0215267  36.7160039  79.9896357  73.0700392  37.3588700  79.1069006
  81.1210416  39.3868204  64.1369296  80.5039587  38.6615032  64.0402349
  80.6526905  40.1477564  63.7936371  74.7877769  37.1599759  78.8768498
  75.4977388  36.5192951  78.8355116  74.7447077  37.4112654  79.7994678
  82.7764548  44.0967113  81.7975077  82.7177094  43.4126333  81.1305660
  83.1784066  44.8386103  81.3455703  73.5006703  34.1464977  80.6964137
  72.9644060  33.6955716  81.3485733  72.9123412  34.2810886  79.9534601
  71.7955247  50.9129026  74.5908796  72.0351845  51.5447551  75.2687814
  70.9524443  50.5617066  74.8774155  72.9108962  33.6053628  63.2590601
  72.0338429  33.4842429  62.8952847  73.3866715  32.8139707  63.0069489
  82.7781955  42.0606696  80.0289056  81.8908734  41.7232618  80.1515455
  83.3480506  41.3289728  80.2657822  64.4311102  38.3930788  73.3532108
  65.1182142  38.0792518  72.7653123  64.2759231  39.2972153  73.0799359
  69.2345824  33.2820985  77.7817132  69.1504013  32.6746654  77.0467541
  68.4128531  33.7730003  77.7826628  76.3083109  46.7208149  76.9950300
  76.2353280  47.5263120  77.5069604  75.8660502  46.9200115  76.1698321
  76.0972888  45.9579919  70.5053121  75.3140410  46.5001599  70.5991346
  76.7965633  46.4753898  70.9047362  79.4069538  31.7674548  73.1487327
  79.9038238  31.0144511  72.8288397  78.6356520  31.8038865  72.5830536
  87.2599296  37.4714914  74.7905618  87.2489172  38.3539629  74.4199551
  86.3916675  37.1186465  74.5960155  78.7681792  46.6194983  79.1508458
  79.4809764  47.2542448  79.0784360  78.2771821  46.7158849  78.3348460
  80.4899319  40.5246236  70.7225750  79.5555598  40.6447698  70.5530454
  80.6675988  39.6218702  70.4585760  75.9904507  33.9091931  72.8759011
  75.6202295  33.3562972  73.5639917  76.4863600  33.3050065  72.3234011
  83.8771870  36.3663555  71.2575784  84.3432323  37.1991546  71.1836087
  84.3279371  35.9008536  71.9621043  73.8193706  44.3689426  79.9714029
  74.5203165  45.0025909  80.1243423  73.3488821  44.7104158  79.2109668
  81.9448102  42.7107376  68.2561936  82.2207945  42.5963971  69.1655810
  81.0752600  42.3124861  68.2174109  81.8488533  28.7344142  75.2966685
  80.9351613  28.9648369  75.4648892  82.2781635  28.8182586  76.1480718
  81.6194992  36.9234034  77.7966579  80.9666442  37.1709941  77.1419032
  81.9975372  36.1098172  77.4629057  78.5802166  46.9593727  71.8994750
  78.7624560  46.1415383  72.3622502  79.4035152  47.1761419  71.4619640
  78.9144331  45.8861912  69.1609798  79.4432097  45.3754367  68.5479960
  79.1772551  45.5704442  70.0255331  77.6682565  37.6653845  84.2832617
  76.9923202  37.5647974  84.9534992  78.4910199  37.5093059  84.7468614
  69.4161424  43.9025781  76.9045132  70.0014861  43.1569469  77.0373036
  69.2186262  44.2129738  77.7881796  72.2700079  46.9377029  71.9207574
  71.6010454  47.4223156  71.4371614  72.1312949  47.1846249  72.8350953
  64.0079078  36.4731382  75.6249575  64.0463178  35.9394972  76.4186693
  63.5019371  35.9466587  75.0060552  76.4105348  48.9720772  78.5190233
  76.9623656  49.1352394  79.2839318  76.7511541  49.5625210  77.8470257
  71.3869841  31.3195922  79.1212117  71.4511167  32.1810753  78.7089515
  71.3236961  30.7069924  78.3884476  70.8622113  33.3919055  82.7685152
  71.4894152  33.0096132  83.3822676  70.0050032  33.1733257  83.1340844
  81.2616222  43.7982030  84.3738887  81.8056126  44.4111988  83.8793842
  80.6803067  44.3561608  84.8905900  67.6387656  35.1995484  68.7003506
  67.9341097  34.2906162  68.6470560  66.7375692  35.1783223  68.3784509
  79.5473735  46.9202748  75.5053915  79.4224874  46.1192488  74.9964860
  80.2052826  47.4148941  75.0167885  71.1681903  33.2751480  74.6831055
  70.4468489  33.8887448  74.5438528  71.9575159  33.8109245  74.6047701
  81.6108643  44.7211768  77.1333465  80.6638979  44.6017119  77.0611792
  81.9591416  43.8334266  77.2159726  73.9708217  30.6105907  80.9571707
  74.4942618  30.8568203  81.7198016  73.7520550  31.4425942  80.5374844
  69.3675498  32.8809581  68.8242831  69.0388204  32.0006960  68.6417937
  69.7214868  32.8257250  69.7119221  78.6155077  44.5164484  73.3337817
  78.4680039  43.5881191  73.5145387  79.4408570  44.5384575  72.8494892
  72.4817321  33.1682551  69.1918309  72.8213393  33.6968472  68.4696918
  72.9289441  33.5062957  69.9676876  82.2189198  45.3393043  74.4202690
  83.1435746  45.1335904  74.2827141  82.0504502  45.0909444  75.3292031
  75.1760762  31.5519602  78.6421377  74.8357582  30.7527415  79.0442057
  74.4699768  31.8521313  78.0698210  75.8277233  28.6368914  77.0948700
  76.6503303  28.1629393  76.9727591  76.0715297  29.4159398  77.5947387
  74.4685468  31.6657173  67.3911602  75.1893830  32.0438426  66.8875319
  73.8450772  32.3846050  67.4946580  78.6116591  32.3702322  68.3269934
  78.8280205  33.2526960  68.0258762  78.1310658  31.9788535  67.5975576
  73.3515812  35.3288035  74.9040679  73.2060393  35.6428338  75.7964960
  72.8741016  35.9472935  74.3511578  75.2112195  32.3190583  74.9521568
  75.1973764  31.4231676  74.6153866  75.9284623  32.3261247  75.5859854
  77.0638326  32.7527923  76.9974696  76.8056104  33.6744994  76.9959026
  76.5323366  32.3558358  77.6875160  82.0084515  45.8578710  69.7764781
  82.1821392  45.2925133  69.0238634  82.5013406  46.6579605  69.5944271
  67.8261474  37.8693379  77.8428340  67.2814942  38.6453187  77.9748614
  68.7040824  38.2164184  77.6847461  74.6149091  31.2004963  70.2209139
  74.7365002  30.2721609  70.4200026  74.3251133  31.2143649  69.3087454
  77.4840281  28.8859874  73.3575858  77.5061978  28.9499207  72.4027838
  77.9008340  28.0464382  73.5516365  87.8623906  38.6215133  71.3955081
  88.3055052  37.8722458  70.9974204  86.9850416  38.6125270  71.0128813
  82.9959687  45.1745475  66.8761680  83.6910592  45.7952167  67.0948994
  83.3382837  44.3240826  67.1514057  68.6127496  36.9963276  80.7358497
  67.8709232  37.1445911  81.3223127  68.2920241  37.2571541  79.8725246
  84.8951110  42.6245180  68.4049010  85.4202434  42.9632453  67.6798330
  84.8073463  41.6892196  68.2212145  76.5571159  46.5379254  80.5338887
  76.8658285  46.2928401  81.4061587  77.3546641  46.7425892  80.0457757
  76.5791771  48.6917163  72.7644263  76.1396761  48.1993542  73.4577120
  77.3299888  48.1490131  72.5236339  69.0584110  44.8828704  72.7668892
  69.8842130  44.5832476  72.3867535  68.7078162  44.1136327  73.2158680
  74.0265643  44.2355173  74.8366565  73.4045652  43.5725878  74.5368793
  74.6970510  44.2616304  74.1540213  67.2592715  42.8015031  73.7257825
  66.4224623  42.3737205  73.5441826  67.2316360  42.9947474  74.6628616
  74.0990171  32.7136961  84.4299071  74.1478326  33.5899083  84.0476841
  74.6412685  32.1714354  83.8570714  84.5845016  43.2578084  83.7100208
  83.7940560  43.2402223  83.1704708  84.3478371  43.7966378  84.4649245
  84.7042891  40.1070550  81.0232937  84.7540896  39.9420558  81.9648460
  84.5956815  39.2397809  80.6330818  73.5879150  42.7859096  68.3125026
  73.7367270  43.4694560  67.6591698  74.3945593  42.7664186  68.8274481
  81.9946654  36.0901478  82.3392243  82.8956516  35.9507943  82.0476241
  82.0694628  36.2555933  83.2790421  76.3289459  33.4668333  81.1845430
  75.4592768  33.7601899  80.9128018  76.5648939  34.0508778  81.9052693
  86.2061088  42.5267492  81.2674958  85.9145896  42.8897472  82.1038419
  85.5933219  41.8134500  81.0888290  84.4548276  37.6500106  79.7355016
  84.9302398  37.8427753  78.9273868  83.5313842  37.7059292  79.4898400
  71.3431783  38.8124274  69.3186095  71.0977825  37.9086604  69.5166305
  71.5127697  38.8141424  68.3765573  79.0328493  29.6847950  78.7010850
  79.5510437  30.4208977  78.3757339  78.6783626  29.9911943  79.5357609
  70.6127430  34.5452631  66.8172256  69.9196675  34.6196986  66.1612292
  70.3679182  33.7812975  67.3393773  79.2841087  26.1048232  74.2211747
  79.5642841  25.4371422  74.8472173  80.0691694  26.2977328  73.7086411
  77.0874556  45.2807226  65.7836773  76.5148523  45.8997413  65.3307245
  77.6607349  45.8306588  66.3176695  83.1549945  34.5265866  77.9683322
  84.1067368  34.6263964  77.9895546  82.9853396  33.7344135  78.4781406
  81.1764325  31.6121450  78.1542723  80.5814257  31.8926462  77.4589211
  80.8914022  32.1015351  78.9259464  80.3071815  45.5644376  66.9145355
  81.2402488  45.4989938  67.1178231  80.2195028  46.4000643  66.4559888
  82.9359832  44.8810247  63.8749303  82.8573463  44.5470110  64.7685061
  83.7569499  45.3732015  63.8740775  77.4721354  36.6168039  63.1252826
  78.4180459  36.4874247  63.1941244  77.0935599  35.8782701  63.6022254
  85.7832512  34.5383030  77.1283905  85.2671560  33.7541486  76.9413834
  86.6672460  34.2101746  77.2930424  83.4443239  28.2824045  73.0879717
  83.2468060  27.9739133  73.9723049  84.0542944  29.0085684  73.2177647
  89.5329870  36.9495856  76.8206110  88.8063034  36.8151820  76.2122601
  89.1177157  37.2572684  77.6262828  77.3560047  40.6685785  84.5853483
  78.2763056  40.8464384  84.7793529  77.3209630  39.7241831  84.4333182
  75.6564271  34.5418015  63.0607711  74.7495727  34.2451128  63.1370424
  75.9340252  34.2447834  62.1941997  66.5742212  35.8624379  73.5106757
  66.2544996  35.0089687  73.2181131  66.0275640  36.0772957  74.2664725
  70.3522119  38.5786820  77.2276264  70.5708129  39.5103928  77.2464298
  70.7647893  38.2194794  78.0131068  77.2726337  29.0854905  69.2151952
  76.4627065  28.7401990  69.5907198  77.9610754  28.7762449  69.8039564
  79.2016885  28.1632952  70.8376249  79.7547924  28.5828405  71.4966272
  79.4386972  27.2368700  70.8799205  75.2249984  34.1520026  86.6179013
  75.1246711  35.1014383  86.5491104  75.0071526  33.8238265  85.7455083
  74.4263056  31.4004951  63.2019690  75.2882220  31.7259849  63.4615507
  74.6113400  30.6136447  62.6892756  66.4430472  39.4827290  75.4799879
  65.7493943  39.0681243  74.9669833  67.1903463  39.5247827  74.8833298
  82.5795692  30.2733477  70.3454913  81.9994361  30.9318281  69.9632965
  82.3131625  29.4510822  69.9342331  81.0299259  29.6738535  72.5476233
  81.5299037  29.7855069  71.7390552  81.6734867  29.3699588  73.1877042
  75.0881254  37.5817164  85.4344074  74.6048336  38.3817525  85.6407963
  75.1742193  37.5925109  84.4811518  68.3567214  39.4145544  73.3565894
  68.3337902  39.5133231  72.4047777  68.6667851  40.2610695  73.6783060
  71.0154592  41.4721699  77.4712508  71.9697845  41.4405642  77.4042440
  70.8167116  41.0112323  78.2862734  71.6053974  40.0422815  80.0383306
  72.4246863  40.5366894  80.0618143  71.8790782  39.1254783  80.0100873
  81.3620570  32.4333568  69.4011261  80.4746425  32.7183218  69.1831456
  81.7774559  32.2727331  68.5538538  84.7135106  32.4580089  73.1165601
  85.4895497  32.9476541  73.3890217  83.9883241  32.8838143  73.5737470
  87.1507665  33.1707708  74.1739541  87.7452156  32.9303444  73.4632849
  87.2234249  32.4514838  74.8013077  69.3704821  47.0141319  74.4882706
  69.2359289  46.2541720  73.9220704  68.9536883  47.7382219  74.0211495
  80.5063784  42.1978242  63.4959281  81.2099634  42.4028245  64.1116937
  79.7826433  42.7655004  63.7608365  81.3361594  37.9488103  69.6161551
  81.2796795  38.4056655  68.7769184  81.8889936  37.1878788  69.4384394
  85.1466400  33.7377835  70.4411671  84.8903334  33.3374471  71.2719879
  84.5219268  34.4521629  70.3161810  89.4578738  36.4773909  72.9482962
  88.8978296  36.5467098  73.7214524  88.8522241  36.3014893  72.2282459
  72.5273947  47.9110636  74.7001149  72.4106331  48.8556068  74.5979839
  71.7066393  47.6084197  75.0886948  82.4150481  42.6360771  65.5457741
  83.2496085  42.2041970  65.3635216  82.2534824  42.4642785  66.4734636
  82.0696373  39.1392885  66.9114081  82.0145177  38.9737156  65.9702525
  81.4442429  39.8468918  67.0676270  66.8588888  34.3760949  80.7375503
  67.5047752  33.8659903  81.2262728  66.6506039  35.1129631  81.3118928
  79.3842281  41.4441797  86.2367643  80.2533440  41.6182449  85.8754278
  78.9049032  42.2636213  86.1143373  75.3792499  28.6400994  66.4899399
  75.3671169  29.5842834  66.6467670  76.2715921  28.4571139  66.1958860
  73.5528461  48.5638898  77.9157077  74.4555707  48.5962508  78.2323572
  73.3265831  47.6339349  77.9303413  75.3082063  47.3169884  74.5767156
  74.3577694  47.3171746  74.4631528  75.6114549  46.5702619  74.0603190
  79.1944618  25.2343770  70.7445336  78.4277014  24.6802257  70.8902018
  79.6055323  25.3065639  71.6059487  71.1986379  31.5228566  84.8350517
  72.0617841  31.1665371  85.0453842  70.6251790  31.1842461  85.5225921
  91.0434756  53.1530423  75.6412918  91.6813166  53.0337170  74.9376258
  90.9255599  54.1011266  75.7000870  87.8524463  53.1057851  75.5774443
  87.5142974  52.9898915  74.6894978  88.7214231  52.7049016  75.5575449
  83.7111278  54.9593327  71.5671334  83.1476143  54.8683264  70.7987621
  83.5963673  54.1393232  72.0473826  88.3344246  54.2592702  81.5360648
  88.3232886  53.8645501  80.6641152  88.4964885  53.5258775  82.1294420
  81.2575710  56.4544519  74.4055554  82.0497002  56.1135343  73.9901853
  81.4972360  56.5639494  75.3257707  89.2910837  58.6264295  66.8785799
  88.6398817  59.2118375  66.4919812  90.0855200  59.1570490  66.9380836
  83.2166464  55.7153432  67.2772933  83.9897340  55.1682419  67.1385809
  83.5691863  56.5797681  67.4887394  85.0551507  57.0429814  80.4839832
  84.7641373  57.9475445  80.3686499  85.6908491  57.0846342  81.1983902
  85.9807714  54.4206663  77.0741192  86.5771286  54.1962685  76.3598155
  86.0382685  53.6791408  77.6766640  85.5532742  51.8746098  64.9091383
  85.8058263  51.3527619  64.1474846  84.6157301  51.7112243  65.0118066
  90.5976025  50.8781876  72.7166126  91.3839114  50.4601300  72.3656543
  90.8614729  51.7827969  72.8847774  90.7686102  56.3154727  67.4154783
  90.1331935  56.3889353  68.1275688  90.4383508  56.9048326  66.7373862
  95.9984452  50.8157110  73.6199105  96.7309624  50.2456326  73.8536934
  95.2423808  50.4278710  74.0605610  85.2729031  53.7774204  67.1115758
  85.1565289  53.1019107  67.7796842  85.3831291  53.2906578  66.2947911
  87.6160572  53.2384351  70.8162447  87.2518779  52.7114972  71.5275369
  88.4727687  52.8482820  70.6428932  93.5209872  44.5278684  78.0793713
  93.1893197  45.3974095  77.8554928  92.9255486  44.2114968  78.7587744
  87.2566059  48.2674251  65.8123796  87.4240461  49.1354487  66.1794267
  87.0663228  48.4301532  64.8885085  90.0141392  56.7291230  77.4789626
  89.7142115  57.6316268  77.3705433  89.6692451  56.4623413  78.3310779
  83.4653873  53.1805027  73.5126330  82.5404370  53.0481241  73.7204022
  83.7138286  53.9599246  74.0096273  93.4138536  49.2473770  75.1587063
  92.5055413  49.1789178  74.8645824  93.3626131  49.7245715  75.9868889
  87.2355279  50.7231908  66.7970462  87.1154905  51.1688959  67.6355943
  86.5407868  51.0717226  66.2384001  80.8262684  52.8238300  74.3470119
  80.9555065  53.0772779  75.2609531  80.1460136  53.4166008  74.0274775
  84.9962172  63.4935550  70.4460594  84.9186201  64.4443375  70.5249074
  84.3923815  63.1481423  71.1035520  87.4879401  50.6663415  83.1021961
  86.7112735  51.2257336  83.0924825  88.1269964  51.1520198  83.6236831
  95.2800182  47.4490208  76.9364937  94.6374562  47.7422741  76.2904732
  94.7755110  47.3343129  77.7418134  92.9340346  51.1953381  67.6250796
  93.8458202  51.4280768  67.4498494  92.4249993  51.7790426  67.0625875
  85.7425774  53.4748869  82.6639928  86.4840458  54.0133913  82.3874751
  85.0362759  54.1015158  82.8211479  91.2181113  55.6178009  81.2612089
  91.6264469  55.1760420  80.5166721  90.4958375  55.0430637  81.5146282
  87.5712183  50.5550616  78.6345646  88.4173378  50.9790030  78.7780295
  87.5110821  49.8984240  79.3284209  91.5409928  56.1779200  75.0164378
  90.9118790  56.3424914  74.3140446  91.1535590  56.5920809  75.7875342
  95.4199160  57.1133638  72.3708742  94.7350198  57.4932539  71.8205775
  95.5043009  57.7228964  73.1040689  90.7211629  48.2154984  80.2926820
  90.4772561  48.9697045  79.7561095  90.9971559  48.5940332  81.1274067
  92.6750091  54.7593597  78.9704085  92.8866987  55.4025357  78.2938466
  92.6279840  53.9255913  78.5026015  90.2776320  47.3711417  75.8740657
  89.4160799  47.6692671  76.1657395  90.3038755  47.5881816  74.9421690
  87.0937890  55.9153608  72.2814463  87.5576235  56.1941311  71.4919086
  86.8294688  55.0137053  72.0987554  83.9861971  55.4625090  75.2194226
  84.5563328  55.8912358  74.5811711  84.5770083  55.1807674  75.9178412
  86.0306776  52.0376760  69.0904028  86.7330819  52.4897804  69.5577955
  85.6987404  51.3960579  69.7183921  84.4787137  50.6288517  83.4655238
  83.8485798  51.3104798  83.6990634  84.3723225  50.5171599  82.5208376
  79.7732110  50.2960313  74.3921162  78.9831164  50.5517842  73.9161272
  80.2643357  51.1108651  74.4973202  93.7895919  57.6365552  77.1426443
  94.6113363  57.2345739  76.8609124  93.7858322  57.5333786  78.0942558
  81.7246855  50.6604892  71.3504638  80.9278018  50.7723587  71.8688134
  81.4972447  50.9991544  70.4845529  87.5552523  57.1849595  79.2987153
  87.6196955  57.6470003  80.1345325  86.8463447  56.5546960  79.4269463
  78.0569813  50.5490803  76.8236153  78.3077851  51.4337813  77.0893728
  78.5929361  50.3695405  76.0511244 101.8801912  53.9804301  73.4911414
 101.1265621  53.4111699  73.3355418 102.0149454  53.9466965  74.4382049
  87.2700540  58.8517703  69.1666133  87.1346215  59.6969239  69.5950981
  87.8110353  59.0536981  68.4032067  83.7567880  44.9309283  85.8280489
  83.3634826  44.3775481  86.5028133  84.5734020  45.2419861  86.2187006
  82.5324823  59.4858897  71.8216812  82.7091451  60.4076862  71.6337796
  83.3281656  59.1717317  72.2511191  86.6735841  46.3467162  83.4200745
  87.4145554  46.9474315  83.3405208  86.9053764  45.6044800  82.8618788
  81.8177179  51.5323529  81.6978975  81.7030694  50.6308786  81.9986074
  80.9621697  51.7787226  81.3463791  88.8969017  59.4741269  83.2966475
  88.4532871  58.6877648  82.9787380  89.5586230  59.6620420  82.6310366
  83.6556138  61.0037071  77.8227154  84.2063563  60.8754134  77.0504148
  82.8167614  61.3031960  77.4722047  90.9950255  59.7544069  81.3247877
  90.9768730  60.5752950  80.8328146  91.9170175  59.6298145  81.5498018
  87.4523309  57.2688199  82.1671385  87.9851646  56.5076487  81.9370693
  86.9237390  56.9761851  82.9095540  90.6193004  42.3748265  77.6965027
  90.2757273  43.2649907  77.6204137  90.9871967  42.1849923  76.8334612
  90.5843287  52.3656876  66.2037462  90.0689910  53.1361481  66.4425849
  90.3120595  51.6922012  66.8270523  88.1690398  47.2106577  71.2622700
  87.3131994  46.8213427  71.0828339  88.5817350  47.2898538  70.4022486
  89.6989544  44.7452920  75.6614260  89.1954340  44.7083055  74.8482065
  89.9920151  45.6545663  75.7210917  95.5577561  55.1189231  68.1390635
  94.7807004  54.7800390  67.6945798  96.2369042  55.1241854  67.4645600
  90.3729590  50.2383968  68.0297243  90.0679725  50.5530117  68.8807386
  91.3260032  50.3165388  68.0724576  88.8176022  56.3974191  69.6790197
  88.2897383  55.6626951  69.3663435  88.3163524  57.1748868  69.4330165
  93.7968868  54.5923212  74.7957243  93.1392542  55.2822473  74.8837372
  94.6009267  54.9819644  75.1391230  83.5494749  47.0593858  72.0396809
  84.1238501  46.8369039  71.3070002  84.1365732  47.1282552  72.7925410
  92.6074327  52.9467585  72.8461185  93.1206208  53.5797576  73.3482895
  93.2575550  52.3468780  72.4804545  83.8764336  49.0898319  66.0592694
  83.0401649  49.4273005  66.3801969  83.7369106  48.9547298  65.1219831
  85.8517417  43.9335107  70.7671878  85.1981829  43.6184124  70.1428493
  85.8097891  43.3110847  71.4931701  86.9628622  54.2154402  62.6825170
  86.0555684  53.9843655  62.8816319  87.4599654  53.4192021  62.8699152
  89.8696701  62.9251909  65.6021856  89.1958400  63.2283606  66.2106814
  90.2562523  63.7280989  65.2527313  89.0855157  50.4217040  75.0919526
  88.1677719  50.6431987  74.9341214  89.5015301  50.4963351  74.2331233
  89.8690205  51.8208456  70.2222206  90.6162024  52.3329853  69.9129328
  90.1381795  51.4992509  71.0826600  88.1416855  54.3166997  67.2049160
  87.2328075  54.0326029  67.3021630  88.1711939  54.7366075  66.3452467
  93.3736123  57.9273586  70.9740328  92.9198450  57.0864496  71.0305518
  92.7430090  58.5634984  71.3115108  92.3169042  48.8565572  72.2040995
  91.5791799  48.3442958  72.5351238  92.5695816  48.4165954  71.3924272
  91.8169062  59.7650083  71.9090146  92.1092036  60.3255140  71.1902512
  92.3267683  60.0578644  72.6643305  92.4180670  41.6341824  72.7982765
  92.7239546  40.7739187  72.5108680  93.1433274  42.2259444  72.5981758
  78.7105026  52.0372511  71.1864362  78.5129426  51.4441871  70.4615429
  78.1551690  51.7324721  71.9040301  86.6901749  51.9295617  73.3058956
  86.7450359  50.9769454  73.2301432  85.8792951  52.0855056  73.7900254
  87.8392943  55.8575740  64.5437239  87.4012373  55.1411599  64.0842876
  88.5803384  56.0851855  63.9822330  84.6294109  50.5472677  71.0649334
  83.8161975  50.8466847  71.4714527  85.1253104  50.1528366  71.7823817
  86.7802687  60.5430434  72.9983599  86.7378866  60.7691280  72.0692131
  87.6965386  60.3093808  73.1469400  90.2268321  51.0114501  79.8964228
  90.5817709  51.2385974  80.7558694  90.8740452  51.3432878  79.2741484
  95.9566058  54.1332937  70.6013557  95.8183957  54.3234533  69.6734747
  95.6002277  54.8952320  71.0581609  84.1208184  48.1191032  76.6810569
  84.7607563  47.9779791  75.9833533  83.2885715  47.8325546  76.3049171
  95.9835438  56.2009464  75.6124829  96.4171944  56.1084753  76.4607883
  96.6967018  56.1766965  74.9744845  84.8968488  57.4193463  72.7945562
  85.6909086  56.9243783  72.5928137  84.1860180  56.8911326  72.4313267
  89.7163332  59.8011558  77.1457929  89.7700355  60.3702495  77.9135645
  88.8478114  59.9713443  76.7811967  81.2051251  51.5636545  68.8705315
  80.2748840  51.5021000  69.0875277  81.3008723  51.0412497  68.0741956
  81.1236801  48.0891357  71.4583556  81.3843618  49.0036691  71.3492717
  81.9453973  47.6215800  71.6080169  82.5961726  49.5029115  78.6282381
  83.2684779  49.2946477  77.9795030  81.7691512  49.3051201  78.1887613
  96.8450987  56.2433165  78.1457714  97.0386877  57.1478975  78.3916989
  96.7451605  55.7840584  78.9796299  88.4987298  46.1291055  80.6448042
  87.8515213  46.8281005  80.5512518  89.2688313  46.5627199  81.0124290
  91.9066096  56.3939908  83.7198595  91.7551602  56.1650459  82.8028679
  91.8970775  57.3510509  83.7329940  88.6751432  53.9671820  78.7044861
  89.6043492  54.1182980  78.5313829  88.2542462  54.0555841  77.8493508
  87.4739764  57.9922485  76.4743399  87.3350850  57.6241269  77.3469337
  86.6854360  58.5070124  76.3027357  88.0687916  63.0931581  67.8168935
  88.2439672  62.6219624  68.6314558  87.3820704  63.7197347  68.0450196
  89.0244979  57.3704087  73.8632237  88.6894812  57.3304857  74.7589887
  88.5248925  56.7048803  73.3902647  82.9989223  52.7771718  79.3884818
  82.8609021  52.0451956  79.9896357  83.9094147  52.6880618  79.1069006
  91.9604171  54.7160122  64.1369296  91.3433341  53.9906950  64.0402349
  91.4920659  55.4769482  63.7936371  85.6271524  52.4891677  78.8768498
  86.3371142  51.8484869  78.8355116  85.5840832  52.7404572  79.7994678
  93.6158302  59.4259030  81.7975077  93.5570849  58.7418250  81.1305660
  94.0177821  60.1678020  81.3455703  84.3400458  49.4756895  80.6964137
  83.8037815  49.0247633  81.3485733  83.7517166  49.6102804  79.9534601
  83.7502717  48.9345546  63.2590601  82.8732183  48.8134347  62.8952847
  84.2260470  48.1431624  63.0069489  93.6175710  57.3898614  80.0289056
  92.7302488  57.0524536  80.1515455  94.1874261  56.6581645  80.2657822
  80.0739579  48.6112902  77.7817132  79.9897768  48.0038572  77.0467541
  79.2522285  49.1021921  77.7826628  87.1476863  62.0500066  76.9950300
  87.0747035  62.8555038  77.5069604  86.7054256  62.2492032  76.1698321
  86.9366643  61.2871836  70.5053121  86.1534165  61.8293517  70.5991346
  87.6359388  61.8045816  70.9047362  90.2463293  47.0966466  73.1487327
  90.7431992  46.3436428  72.8288397  89.4750274  47.1330783  72.5830536
  98.0993050  52.8006831  74.7905618  98.0882926  53.6831547  74.4199551
  97.2310430  52.4478382  74.5960155  89.6075547  61.9486900  79.1508458
  90.3203519  62.5834365  79.0784360  89.1165575  62.0450766  78.3348460
  91.3293074  55.8538153  70.7225750  90.3949352  55.9739616  70.5530454
  91.5069742  54.9510620  70.4585760  86.8298262  49.2383849  72.8759011
  86.4596049  48.6854889  73.5639917  87.3257354  48.6341982  72.3234011
  94.7165625  51.6955472  71.2575784  95.1826077  52.5283464  71.1836087
  95.1673125  51.2300454  71.9621043  84.6587460  59.6981344  79.9714029
  85.3596920  60.3317827  80.1243423  84.1882575  60.0396076  79.2109668
  92.7841856  58.0399294  68.2561936  93.0601700  57.9255888  69.1655810
  91.9146355  57.6416779  68.2174109  92.6882288  44.0636059  75.2966685
  91.7745367  44.2940286  75.4648892  93.1175389  44.1474504  76.1480718
  92.4588746  52.2525951  77.7966579  91.8060196  52.5001859  77.1419032
  92.8369126  51.4390090  77.4629057  89.4195920  62.2885645  71.8994750
  89.6018315  61.4707301  72.3622502  90.2428906  62.5053337  71.4619640
  89.7538086  61.2153830  69.1609798  90.2825852  60.7046284  68.5479960
  90.0166305  60.8996360  70.0255331  80.2555178  59.2317699  76.9045132
  80.8408615  58.4861387  77.0373036  80.0580017  59.5421656  77.7881796
  83.1093833  62.2668946  71.9207574  82.4404209  62.7515074  71.4371614
  82.9706703  62.5138167  72.8350953  74.8472833  51.8023299  75.6249575
  74.8856932  51.2686890  76.4186693  74.3413126  51.2758505  75.0060552
  87.2499102  64.3012690  78.5190233  87.8017410  64.4644311  79.2839318
  87.5905295  64.8917128  77.8470257  82.2263595  46.6487840  79.1212117
  82.2904922  47.5102671  78.7089515  82.1630716  46.0361841  78.3884476
  81.7015868  48.7210972  82.7685152  82.3287907  48.3388050  83.3822676
  80.8443787  48.5025174  83.1340844  78.4781411  50.5287401  68.7003506
  78.7734852  49.6198080  68.6470560  77.5769446  50.5075141  68.3784509
  90.3867489  62.2494665  75.5053915  90.2618629  61.4484405  74.9964860
  91.0446580  62.7440859  75.0167885  82.0075658  48.6043398  74.6831055
  81.2862243  49.2179366  74.5438528  82.7968913  49.1401163  74.6047701
  92.4502398  60.0503686  77.1333465  91.5032733  59.9309037  77.0611792
  92.7985171  59.1626184  77.2159726  84.8101971  45.9397824  80.9571707
  85.3336373  46.1860121  81.7198016  84.5914304  46.7717859  80.5374844
  80.2069252  48.2101499  68.8242831  79.8781958  47.3298878  68.6417937
  80.5608623  48.1549168  69.7119221  89.4548831  59.8456402  73.3337817
  89.3073793  58.9173109  73.5145387  90.2802325  59.8676492  72.8494892
  83.3211075  48.4974469  69.1918309  83.6607148  49.0260390  68.4696918
  83.7683196  48.8354875  69.9676876  93.0582953  60.6684960  74.4202690
  93.9829500  60.4627822  74.2827141  92.8898256  60.4201362  75.3292031
  86.6670988  43.9660832  77.0948700  87.4897057  43.4921310  76.9727591
  86.9109051  44.7451316  77.5947387  85.3079222  46.9949090  67.3911602
  86.0287585  47.3730343  66.8875319  84.6844527  47.7137967  67.4946580
  89.4510345  47.6994239  68.3269934  89.6673960  48.5818877  68.0258762
  88.9704412  47.3080453  67.5975576  84.1909567  50.6579953  74.9040679
  84.0454147  50.9720256  75.7964960  83.7134770  51.2764853  74.3511578
  86.0505950  47.6482501  74.9521568  86.0367518  46.7523594  74.6153866
  86.7678378  47.6553164  75.5859854  87.9032080  48.0819841  76.9974696
  87.6449858  49.0036911  76.9959026  87.3717121  47.6850275  77.6875160
  92.8478269  61.1870628  69.7764781  93.0215147  60.6217050  69.0238634
  93.3407160  61.9871523  69.5944271  78.6655229  53.1985297  77.8428340
  78.1208697  53.9745105  77.9748614  79.5434579  53.5456101  77.6847461
  98.7017660  53.9507051  71.3955081  99.1448806  53.2014376  70.9974204
  97.8244171  53.9417187  71.0128813  93.8353442  60.5037392  66.8761680
  94.5304346  61.1244085  67.0948994  94.1776592  59.6532744  67.1514057
  79.4521251  52.3255193  80.7358497  78.7102987  52.4737829  81.3223127
  79.1313995  52.5863459  79.8725246  95.7344865  57.9537098  68.4049010
  96.2596189  58.2924371  67.6798330  95.6467217  57.0184113  68.2212145
  87.3964913  61.8671172  80.5338887  87.7052040  61.6220318  81.4061587
  88.1940395  62.0717810  80.0457757  87.4185525  64.0209081  72.7644263
  86.9790516  63.5285460  73.4577120  88.1693642  63.4782049  72.5236339
  79.8977864  60.2120622  72.7668892  80.7235884  59.9124394  72.3867535
  79.5471916  59.4428244  73.2158680  84.8659398  59.5647090  74.8366565
  84.2439407  58.9017795  74.5368793  85.5364264  59.5908222  74.1540213
  78.0986469  58.1306948  73.7257825  77.2618378  57.7029123  73.5441826
  78.0710115  58.3239392  74.6628616  84.9383925  48.0428878  84.4299071
  84.9872081  48.9191001  84.0476841  85.4806439  47.5006271  83.8570714
  95.4238771  58.5870002  83.7100208  94.6334314  58.5694140  83.1704708
  95.1872125  59.1258295  84.4649245  95.5436646  55.4362468  81.0232937
  95.5934651  55.2712475  81.9648460  95.4350569  54.5689727  80.6330818
  84.4272904  58.1151014  68.3125026  84.5761025  58.7986478  67.6591698
  85.2339348  58.0956104  68.8274481  92.8340408  51.4193396  82.3392243
  93.7350271  51.2799861  82.0476241  92.9088383  51.5847851  83.2790421
  97.0454843  57.8559409  81.2674958  96.7539651  58.2189390  82.1038419
  96.4326974  57.1426418  81.0888290  98.2450525  55.4212289  73.7877529
  99.0797416  55.8602093  73.9515089  98.3809654  54.9450942  72.9685774
  95.2942031  52.9792024  79.7355016  95.7696152  53.1719670  78.9273868
  94.3707596  53.0351210  79.4898400  82.1825537  54.1416191  69.3186095
  81.9371579  53.2378521  69.5166305  82.3521452  54.1433342  68.3765573
  89.8722247  45.0139868  78.7010850  90.3904191  45.7500895  78.3757339
  89.5177380  45.3203861  79.5357609  81.4521185  49.8744549  66.8172256
  80.7590430  49.9488904  66.1612292  81.2072937  49.1104892  67.3393773
  90.1234841  41.4340150  74.2211747  90.4036595  40.7663339  74.8472173
  90.9085448  41.6269246  73.7086411  87.9268310  60.6099144  65.7836773
  87.3542277  61.2289331  65.3307245  88.5001104  61.1598506  66.3176695
  93.9943700  49.8557784  77.9683322  94.9461123  49.9555882  77.9895546
  93.8247150  49.0636053  78.4781406  92.0158079  46.9413367  78.1542723
  91.4208011  47.2218380  77.4589211  91.7307776  47.4307268  78.9259464
  91.1465570  60.8936294  66.9145355  92.0796243  60.8281856  67.1178231
  91.0588783  61.7292561  66.4559888  93.7753586  60.2102164  63.8749303
  93.6967218  59.8762028  64.7685061  94.5963253  60.7023932  63.8740775
  96.4731778  53.0763904  77.0825622  96.4408098  52.1379905  77.2685305
  97.0832401  53.1547941  76.3491446  88.3115108  51.9459957  63.1252826
  89.2574213  51.8166165  63.1941244  87.9329353  51.2074619  63.6022254
  96.6226266  49.8674947  77.1283905  96.1065315  49.0833404  76.9413834
  97.5066215  49.5393664  77.2930424  94.2836993  43.6115963  73.0879717
  94.0861814  43.3031051  73.9723049  94.8936699  44.3377602  73.2177647
 102.2908327  54.1379911  76.2231658 103.0211716  53.8765199  76.7839362
 101.6815273  53.4008633  76.2633726 100.3723625  52.2787773  76.8206110
  99.6456788  52.1443738  76.2122601  99.9570911  52.5864602  77.6262828
  88.1953801  55.9977703  84.5853483  89.1156810  56.1756302  84.7793529
  88.1603384  55.0533748  84.4333182  86.4958026  49.8709933  63.0607711
  85.5889481  49.5743046  63.1370424  86.7734007  49.5739751  62.1941997
  77.4135966  51.1916297  73.5106757  77.0938750  50.3381605  73.2181131
  76.8669394  51.4064875  74.2664725  81.1915874  53.9078738  77.2276264
  81.4101883  54.8395845  77.2464298  81.6041647  53.5486712  78.0131068
  90.0410640  43.4924870  70.8376249  90.5941678  43.9120323  71.4966272
  90.2780726  42.5660618  70.8799205  86.0643739  49.4811943  86.6179013
  85.9640466  50.4306300  86.5491104  85.8465281  49.1530182  85.7455083
  85.2656810  46.7296868  63.2019690  86.1275974  47.0551767  63.4615507
  85.4507154  45.9428364  62.6892756  77.2824226  54.8119208  75.4799879
  76.5887697  54.3973161  74.9669833  78.0297217  54.8539745  74.8833298
  85.9275009  52.9109082  85.4344074  85.4442091  53.7109442  85.6407963
  86.0135948  52.9217027  84.4811518  79.1960969  54.7437462  73.3565894
  79.1731657  54.8425149  72.4047777  79.5061605  55.5902613  73.6783060
  81.8548346  56.8013617  77.4712508  82.8091600  56.7697559  77.4042440
  81.6560870  56.3404241  78.2862734  82.4447729  55.3714733  80.0383306
  83.2640618  55.8658812  80.0618143  82.7184536  54.4546701  80.0100873
  92.2014325  47.7625485  69.4011261  91.3140180  48.0475136  69.1831456
  92.6168314  47.6019249  68.5538538  95.5528861  47.7872006  73.1165601
  96.3289251  48.2768459  73.3890217  94.8276995  48.2130060  73.5737470
  97.9901420  48.4999625  74.1739541  98.5845910  48.2595361  73.4632849
  98.0628003  47.7806756  74.8013077  80.2098575  62.3433236  74.4882706
  80.0753043  61.5833637  73.9220704  79.7930637  63.0674136  74.0211495
  91.3457538  57.5270160  63.4959281  92.0493388  57.7320162  64.1116937
  90.6220187  58.0946922  63.7608365  92.1755349  53.2780021  69.6161551
  92.1190550  53.7348573  68.7769184  92.7283691  52.5170706  69.4384394
  95.9860154  49.0669753  70.4411671  95.7297089  48.6666389  71.2719879
  95.3613022  49.7813547  70.3161810 100.2972492  51.8065826  72.9482962
  99.7372050  51.8759016  73.7214524  99.6915996  51.6306811  72.2282459
  83.3667701  63.2402553  74.7001149  83.2500085  64.1847986  74.5979839
  82.5460147  62.9376115  75.0886948  93.2544236  57.9652689  65.5457741
  94.0889840  57.5333888  65.3635216  93.0928579  57.7934703  66.4734636
  92.9090128  54.4684802  66.9114081  92.8538932  54.3029074  65.9702525
  92.2836183  55.1760835  67.0676270  77.6982643  49.7052867  80.7375503
  78.3441506  49.1951821  81.2262728  77.4899794  50.4421548  81.3118928
  86.2186253  43.9692911  66.4899399  86.2064923  44.9134751  66.6467670
  87.1109675  43.7863057  66.1958860  84.3922215  63.8930815  77.9157077
  85.2949462  63.9254426  78.2323572  84.1659585  62.9631266  77.9303413
  86.1475817  62.6461802  74.5767156  85.1971448  62.6463663  74.4631528
  86.4508303  61.8994536  74.0603190  82.0380134  46.8520484  84.8350517
  82.9011595  46.4957289  85.0453842  81.4645544  46.5134379  85.5225921
 101.8828511  68.4822340  75.6412918 102.5206921  68.3629088  74.9376258
 101.7649354  69.4303184  75.7000870  98.6918217  68.4349768  75.5774443
  98.3536729  68.3190833  74.6894978  99.5607985  68.0340933  75.5575449
  94.5505033  70.2885245  71.5671334  93.9869898  70.1975182  70.7987621
  94.4357428  69.4685149  72.0473826  99.1738000  69.5884620  81.5360648
  99.1626641  69.1937418  80.6641152  99.3358639  68.8550693  82.1294420
  92.0969465  71.7836436  74.4055554  92.8890757  71.4427261  73.9901853
  92.3366115  71.8931411  75.3257707 100.1304591  73.9556212  66.8785799
  99.4792571  74.5410293  66.4919812 100.9248954  74.4862407  66.9380836
  94.0560219  71.0445350  67.2772933  94.8291095  70.4974337  67.1385809
  94.4085617  71.9089599  67.4887394  95.8945261  72.3721732  80.4839832
  95.6035127  73.2767363  80.3686499  96.5302245  72.4138259  81.1983902
  96.8201468  69.7498580  77.0741192  97.4165040  69.5254603  76.3598155
  96.8776440  69.0083326  77.6766640  96.3926496  67.2038016  64.9091383
  96.6452017  66.6819537  64.1474846  95.4551055  67.0404161  65.0118066
 101.4369779  66.2073794  72.7166126 102.2232868  65.7893217  72.3656543
 101.7008484  67.1119886  72.8847774 101.6079857  71.6446644  67.4154783
 100.9725690  71.7181271  68.1275688 101.2777263  72.2340243  66.7373862
 106.8378206  66.1449027  73.6199105 107.5703378  65.5748244  73.8536934
 106.0817562  65.7570628  74.0605610  96.1122785  69.1066122  67.1115758
  95.9959043  68.4311025  67.7796842  96.2225045  68.6198496  66.2947911
  98.4554326  68.5676269  70.8162447  98.0912533  68.0406890  71.5275369
  99.3121442  68.1774738  70.6428932 104.3603627  59.8570601  78.0793713
 104.0286951  60.7266012  77.8554928 103.7649240  59.5406885  78.7587744
  98.0959813  63.5966168  65.8123796  98.2634215  64.4646405  66.1794267
  97.9056982  63.7593450  64.8885085 100.8535146  72.0583147  77.4789626
 100.5535869  72.9608186  77.3705433 100.5086206  71.7915331  78.3310779
  94.3047628  68.5096944  73.5126330  93.3798124  68.3773158  73.7204022
  94.5532041  69.2891163  74.0096273 104.2532290  64.5765688  75.1587063
 103.3449167  64.5081096  74.8645824 104.2019886  65.0537632  75.9868889
  98.0749034  66.0523826  66.7970462  97.9548659  66.4980877  67.6355943
  97.3801622  66.4009144  66.2384001  91.6656439  68.1530218  74.3470119
  91.7948820  68.4064697  75.2609531  90.9853890  68.7457926  74.0274775
  98.3273156  65.9955333  83.1021961  97.5506490  66.5549253  83.0924825
  98.9663719  66.4812116  83.6236831 106.1193936  62.7782126  76.9364937
 105.4768317  63.0714659  76.2904732 105.6148865  62.6635046  77.7418134
 103.7734100  66.5245299  67.6250796 104.6851956  66.7572686  67.4498494
 103.2643747  67.1082343  67.0625875  96.5819528  68.8040786  82.6639928
  97.3234212  69.3425830  82.3874751  95.8756514  69.4307075  82.8211479
 102.0574868  70.9469927  81.2612089 102.4658224  70.5052337  80.5166721
 101.3352129  70.3722554  81.5146282  98.4105938  65.8842534  78.6345646
  99.2567133  66.3081947  78.7780295  98.3504575  65.2276158  79.3284209
 102.3803682  71.5071118  75.0164378 101.7512545  71.6716832  74.3140446
 101.9929344  71.9212727  75.7875342 106.2592914  72.4425555  72.3708742
 105.5743952  72.8224457  71.8205775 106.3436764  73.0520882  73.1040689
 101.5605383  63.5446902  80.2926820 101.3166315  64.2988963  79.7561095
 101.8365314  63.9232250  81.1274067 103.5143846  70.0885514  78.9704085
 103.7260741  70.7317274  78.2938466 103.4673594  69.2547831  78.5026015
 101.1170075  62.7003335  75.8740657 100.2554554  62.9984589  76.1657395
 101.1432510  62.9173734  74.9421690  97.9331644  71.2445526  72.2814463
  98.3969990  71.5233229  71.4919086  97.6688442  70.3428970  72.0987554
  96.8700530  67.3668678  69.0904028  97.5724574  67.8189722  69.5577955
  96.5381159  66.7252497  69.7183921  95.3180892  65.9580435  83.4655238
  94.6879552  66.6396716  83.6990634  95.2116980  65.8463516  82.5208376
  90.6125864  65.6252231  74.3921162  89.8224918  65.8809759  73.9161272
  91.1037112  66.4400569  74.4973202 104.6289674  72.9657470  77.1426443
 105.4507118  72.5637657  76.8609124 104.6252077  72.8625704  78.0942558
  92.5640610  65.9896810  71.3504638  91.7671773  66.1015504  71.8688134
  92.3366202  66.3283462  70.4845529  98.3946277  72.5141513  79.2987153
  98.4590710  72.9761920  80.1345325  97.6857201  71.8838878  79.4269463
  88.8963567  65.8782721  76.8236153  89.1471606  66.7629731  77.0893728
  89.4323116  65.6987323  76.0511244 112.7195667  69.3096218  73.4911414
 111.9659375  68.7403616  73.3355418 112.8543208  69.2758883  74.4382049
  98.1094295  74.1809621  69.1666133  97.9739970  75.0261156  69.5950981
  98.6504107  74.3828898  68.4032067  94.5961635  60.2601201  85.8280489
  94.2028580  59.7067399  86.5028133  95.4127775  60.5711779  86.2187006
  91.5623692  71.6985059  69.7394058  92.0748213  72.4928309  69.8899623
  92.2146405  71.0011349  69.6727660  93.3718577  74.8150815  71.8216812
  93.5485205  75.7368780  71.6337796  94.1675411  74.5009234  72.2511191
  97.5129596  61.6759080  83.4200745  98.2539309  62.2766233  83.3405208
  97.7447518  60.9336717  82.8618788  92.6570934  66.8615447  81.6978975
  92.5424449  65.9600704  81.9986074  91.8015451  67.1079144  81.3463791
  99.7362771  74.8033187  83.2966475  99.2926626  74.0169566  82.9787380
 100.3979985  74.9912338  82.6310366  94.4949892  76.3328989  77.8227154
  95.0457318  76.2046052  77.0504148  93.6561368  76.6323878  77.4722047
 101.8344009  75.0835987  81.3247877 101.8162485  75.9044868  80.8328146
 102.7563929  74.9590062  81.5498018  98.2917064  72.5980117  82.1671385
  98.8245400  71.8368405  81.9370693  97.7631145  72.3053768  82.9095540
 101.4586759  57.7040183  77.6965027 101.1151028  58.5941824  77.6204137
 101.8265721  57.5141840  76.8334612  89.5272609  70.0273713  70.5153629
  90.3647831  70.4370721  70.2987337  89.7050877  69.0873155  70.4853823
 101.4237041  67.6948794  66.2037462 100.9083665  68.4653398  66.4425849
 101.1514350  67.0213930  66.8270523  99.0084152  62.5398494  71.2622700
  98.1525749  62.1505345  71.0828339  99.4211104  62.6190455  70.4022486
 100.5383299  60.0744838  75.6614260 100.0348094  60.0374973  74.8482065
 100.8313906  60.9837580  75.7210917  96.7826185  60.1583567  74.6680442
  97.6479182  59.9626376  74.3086331  96.8503694  59.9293919  75.5949799
 106.3971315  70.4481148  68.1390635 105.6200758  70.1092308  67.6945798
 107.0762796  70.4533771  67.4645600 101.2123344  65.5675886  68.0297243
 100.9073480  65.8822035  68.8807386 102.1653787  65.6457306  68.0724576
  99.6569776  71.7266109  69.6790197  99.1291138  70.9918869  69.3663435
  99.1557279  72.5040785  69.4330165 104.6362622  69.9215130  74.7957243
 103.9786297  70.6114391  74.8837372 105.4403021  70.3111561  75.1391230
  94.3888504  62.3885775  72.0396809  94.9632256  62.1660957  71.3070002
  94.9759486  62.4574470  72.7925410 103.4468081  68.2759502  72.8461185
 103.9599963  68.9089494  73.3482895 104.0969305  67.6760698  72.4804545
  94.7158091  64.4190236  66.0592694  93.8795403  64.7564923  66.3801969
  94.5762861  64.2839216  65.1219831  96.6911172  59.2627024  70.7671878
  96.0375584  58.9476041  70.1428493  96.6491646  58.6402765  71.4931701
  97.8022376  69.5446319  62.6825170  96.8949438  69.3135573  62.8816319
  98.2993408  68.7483939  62.8699152 100.7090455  78.2543827  65.6021856
 100.0352154  78.5575523  66.2106814 101.0956277  79.0572907  65.2527313
  99.9248912  65.7508958  75.0919526  99.0071473  65.9723905  74.9341214
 100.3409056  65.8255268  74.2331233 100.7083960  67.1500373  70.2222206
 101.4555779  67.6621771  69.9129328 100.9775549  66.8284426  71.0826600
  98.9810610  69.6458914  67.2049160  98.0721829  69.3617947  67.3021630
  99.0105694  70.0657993  66.3452467 104.2129877  73.2565504  70.9740328
 103.7592204  72.4156414  71.0305518 103.5823844  73.8926902  71.3115108
 103.1562797  64.1857490  72.2040995 102.4185554  63.6734876  72.5351238
 103.4089570  63.7457871  71.3924272 102.6562817  75.0942000  71.9090146
 102.9485791  75.6547057  71.1902512 103.1661437  75.3870561  72.6643305
 103.2574424  56.9633742  72.7982765 103.5633301  56.1031105  72.5108680
 103.9827029  57.5551362  72.5981758  89.5498780  67.3664428  71.1864362
  89.3523180  66.7733789  70.4615429  88.9945444  67.0616639  71.9040301
  97.5295504  67.2587535  73.3058956  97.5844114  66.3061371  73.2301432
  96.7186706  67.4146974  73.7900254  98.6786698  71.1867658  64.5437239
  98.2406128  70.4703517  64.0842876  99.4197139  71.4143773  63.9822330
  95.4687864  65.8764595  71.0649334  94.6555729  66.1758765  71.4714527
  95.9646858  65.4820283  71.7823817  97.6196442  75.8722351  72.9983599
  97.5772621  76.0983198  72.0692131  98.5359141  75.6385726  73.1469400
 101.0662076  66.3406419  79.8964228 101.4211463  66.5677892  80.7558694
 101.7134207  66.6724796  79.2741484 106.7959812  69.4624855  70.6013557
 106.6577711  69.6526451  69.6734747 106.4396031  70.2244238  71.0581609
  94.9601939  63.4482950  76.6810569  95.6001318  63.3071709  75.9833533
  94.1279469  63.1617463  76.3049171 106.8229192  71.5301382  75.6124829
 107.2565699  71.4376671  76.4607883 107.5360773  71.5058882  74.9744845
  95.7362242  72.7485380  72.7945562  96.5302841  72.2535701  72.5928137
  95.0253935  72.2203244  72.4313267 100.5557087  75.1303476  77.1457929
 100.6094109  75.6994412  77.9135645  99.6871868  75.3005361  76.7811967
  92.0445006  66.8928462  68.8705315  91.1142594  66.8312918  69.0875277
  92.1402478  66.3704415  68.0741956  91.9630555  63.4183275  71.4583556
  92.2237372  64.3328608  71.3492717  92.7847727  62.9507718  71.6080169
  93.4355480  64.8321032  78.6282381  94.1078534  64.6238394  77.9795030
  92.6085267  64.6343118  78.1887613 107.6844742  71.5725083  78.1457714
 107.8780632  72.4770893  78.3916989 107.5845360  71.1132502  78.9796299
  99.3381052  61.4582973  80.6448042  98.6908967  62.1572923  80.5512518
 100.1082068  61.8919117  81.0124290 102.7459850  71.7231825  83.7198595
 102.5945357  71.4942377  82.8028679 102.7364530  72.6802427  83.7329940
  99.5145187  69.2963738  78.7044861 100.4437247  69.4474898  78.5313829
  99.0936217  69.3847759  77.8493508  98.3133518  73.3214402  76.4743399
  98.1744604  72.9533187  77.3469337  97.5248115  73.8362042  76.3027357
  98.9081670  78.4223499  67.8168935  99.0833426  77.9511542  68.6314558
  98.2214458  79.0489265  68.0450196  99.8638734  72.6996005  73.8632237
  99.5288566  72.6596775  74.7589887  99.3642679  72.0340721  73.3902647
 102.7997925  70.0452040  64.1369296 102.1827096  69.3198868  64.0402349
 102.3314414  70.8061400  63.7936371  96.4665278  67.8183595  78.8768498
  97.1764897  67.1776787  78.8355116  96.4234586  68.0696489  79.7994678
 104.4552057  74.7550948  81.7975077 104.3964603  74.0710168  81.1305660
 104.8571575  75.4969938  81.3455703  95.1794212  64.8048812  80.6964137
  94.6431569  64.3539551  81.3485733  94.5910921  64.9394721  79.9534601
  93.4742756  81.5712862  74.5908796  93.7139354  82.2031386  75.2687814
  92.6311952  81.2200902  74.8774155  94.5896471  64.2637464  63.2590601
  93.7125938  64.1426265  62.8952847  95.0654224  63.4723542  63.0069489
 104.4569464  72.7190532  80.0289056 103.5696243  72.3816454  80.1515455
 105.0268015  71.9873563  80.2657822  86.1098611  69.0514624  73.3532108
  86.7969651  68.7376354  72.7653123  85.9546740  69.9555988  73.0799359
  90.9133333  63.9404820  77.7817132  90.8291522  63.3330490  77.0467541
  90.0916040  64.4313838  77.7826628  97.9870618  77.3791984  76.9950300
  97.9140789  78.1846956  77.5069604  97.5448011  77.5783950  76.1698321
 101.0857047  62.4258384  73.1487327 101.5825747  61.6728346  72.8288397
 100.3144029  62.4622700  72.5830536 108.9386805  68.1298749  74.7905618
 108.9276681  69.0123465  74.4199551 108.0704184  67.7770300  74.5960155
 100.4469301  77.2778818  79.1508458 101.1597273  77.9126283  79.0784360
  99.9559330  77.3742684  78.3348460 102.1686828  71.1830071  70.7225750
 101.2343107  71.3031533  70.5530454 102.3463496  70.2802538  70.4585760
  97.6692016  64.5675767  72.8759011  97.2989804  64.0146807  73.5639917
  98.1651109  63.9633900  72.3234011 105.5559379  67.0247390  71.2575784
 106.0219832  67.8575382  71.1836087 106.0066880  66.5592372  71.9621043
 103.6235610  73.3691211  68.2561936 103.8995454  73.2547806  69.1655810
 102.7540109  72.9708696  68.2174109 103.5276042  59.3927977  75.2966685
 102.6139122  59.6232204  75.4648892 103.9569144  59.4766421  76.1480718
 103.2982501  67.5817869  77.7966579 102.6453951  67.8293777  77.1419032
 103.6762881  66.7682007  77.4629057 100.2589675  77.6177562  71.8994750
 100.4412069  76.7999218  72.3622502 101.0822661  77.8345255  71.4619640
 100.5931840  76.5445747  69.1609798 101.1219606  76.0338202  68.5479960
 100.8560060  76.2288278  70.0255331  99.3470074  68.3237680  84.2832617
  98.6710711  68.2231809  84.9534992 100.1697708  68.1676894  84.7468614
  93.9487588  77.5960864  71.9207574  93.2797963  78.0806992  71.4371614
  93.8100458  77.8430085  72.8350953  85.6866587  67.1315217  75.6249575
  85.7250687  66.5978808  76.4186693  85.1806880  66.6050422  75.0060552
  98.0892857  79.6304608  78.5190233  98.6411165  79.7936229  79.2839318
  98.4299050  80.2209045  77.8470257  93.0657350  61.9779757  79.1212117
  93.1298676  62.8394588  78.7089515  93.0024470  61.3653759  78.3884476
 102.9403731  74.4565865  84.3738887 103.4843635  75.0695823  83.8793842
 102.3590576  75.0145444  84.8905900  89.3175165  65.8579319  68.7003506
  89.6128606  64.9489997  68.6470560  88.4163201  65.8367059  68.3784509
 101.2261244  77.5786583  75.5053915 101.1012383  76.7776323  74.9964860
 101.8840335  78.0732776  75.0167885  92.8469412  63.9335316  74.6831055
  92.1255998  64.5471283  74.5438528  93.6362668  64.4693080  74.6047701
 103.2896152  75.3795603  77.1333465 102.3426488  75.2600954  77.0611792
 103.6378925  74.4918101  77.2159726  95.6495726  61.2689742  80.9571707
  96.1730127  61.5152039  81.7198016  95.4308059  62.1009777  80.5374844
  91.0463007  63.5393417  68.8242831  90.7175713  62.6590796  68.6417937
  91.4002377  63.4841085  69.7119221 100.2942585  75.1748319  73.3337817
 100.1467548  74.2465027  73.5145387 101.1196079  75.1968410  72.8494892
  94.1604830  63.8266387  69.1918309  94.5000902  64.3552308  68.4696918
  94.6076950  64.1646793  69.9676876 103.8976707  75.9976878  74.4202690
 104.8223255  75.7919739  74.2827141 103.7292011  75.7493279  75.3292031
  96.8548271  62.2103437  78.6421377  96.5145091  61.4111250  79.0442057
  96.1487277  62.5105148  78.0698210  97.5064742  59.2952750  77.0948700
  98.3290812  58.8213228  76.9727591  97.7502806  60.0743233  77.5947387
  96.1472977  62.3241008  67.3911602  96.8681339  62.7022261  66.8875319
  95.5238281  63.0429885  67.4946580 100.2904100  63.0286157  68.3269934
 100.5067714  63.9110795  68.0258762  99.8098167  62.6372370  67.5975576
  95.0303321  65.9871870  74.9040679  94.8847902  66.3012173  75.7964960
  94.5528525  66.6056771  74.3511578  96.8899704  62.9774418  74.9521568
  96.8761273  62.0815512  74.6153866  97.6072132  62.9845082  75.5859854
  98.7425835  63.4111758  76.9974696  98.4843613  64.3328829  76.9959026
  98.2110875  63.0142193  77.6875160 103.6872024  76.5162546  69.7764781
 103.8608901  75.9508968  69.0238634 104.1800915  77.3163440  69.5944271
  89.5048983  68.5277215  77.8428340  88.9602451  69.3037023  77.9748614
  90.3828333  68.8748019  77.6847461  96.2936600  61.8588799  70.2209139
  96.4152511  60.9305445  70.4200026  96.0038642  61.8727485  69.3087454
  99.1627790  59.5443709  73.3575858  99.1849487  59.6083042  72.4027838
  99.5795849  58.7048218  73.5516365 109.5411415  69.2798969  71.3955081
 109.9842561  68.5306294  70.9974204 108.6637925  69.2709105  71.0128813
 104.6747196  75.8329310  66.8761680 105.3698101  76.4536003  67.0948994
 105.0170346  74.9824661  67.1514057 106.5738619  73.2829016  68.4049010
 107.0989943  73.6216288  67.6798330 106.4860972  72.3476031  68.2212145
  98.2358668  77.1963089  80.5338887  98.5445794  76.9512236  81.4061587
  99.0334150  77.4009728  80.0457757  98.2579280  79.3500999  72.7644263
  97.8184270  78.8577378  73.4577120  99.0087397  78.8073966  72.5236339
  90.7371619  75.5412540  72.7668892  91.5629639  75.2416312  72.3867535
  90.3865671  74.7720162  73.2158680  88.9380224  73.4598866  73.7257825
  88.1012132  73.0321040  73.5441826  88.9103869  73.6531309  74.6628616
  95.7777680  63.3720796  84.4299071  95.8265835  64.2482919  84.0476841
  96.3200194  62.8298189  83.8570714 106.2632525  73.9161919  83.7100208
 105.4728069  73.8986058  83.1704708 106.0265880  74.4550213  84.4649245
 106.3830400  70.7654386  81.0232937 106.4328405  70.6004393  81.9648460
 106.2744324  69.8981645  80.6330818  95.2666659  73.4442931  68.3125026
  95.4154779  74.1278396  67.6591698  96.0733102  73.4248021  68.8274481
 103.6734163  66.7485314  82.3392243 104.5744025  66.6091778  82.0476241
 103.7482137  66.9139768  83.2790421  98.0076968  64.1252168  81.1845430
  97.1380277  64.4185734  80.9128018  98.2436448  64.7092613  81.9052693
 107.8848597  73.1851327  81.2674958 107.5933405  73.5481308  82.1038419
 107.2720728  72.4718335  81.0888290 109.0844279  70.7504207  73.7877529
 109.9191171  71.1894011  73.9515089 109.2203408  70.2742860  72.9685774
 106.1335785  68.3083942  79.7355016 106.6089907  68.5011588  78.9273868
 105.2101351  68.3643128  79.4898400  93.0219292  69.4708109  69.3186095
  92.7765334  68.5670439  69.5166305  93.1915206  69.4725259  68.3765573
 100.7116002  60.3431785  78.7010850 101.2297946  61.0792812  78.3757339
 100.3571135  60.6495779  79.5357609  92.2914939  65.2036466  66.8172256
  91.5984184  65.2780821  66.1612292  92.0466691  64.4396810  67.3393773
 100.9628596  56.7632068  74.2211747 101.2430350  56.0955257  74.8472173
 101.7479203  56.9561163  73.7086411  98.7662064  75.9391062  65.7836773
  98.1936032  76.5581249  65.3307245  99.3394858  76.4890423  66.3176695
 104.8337454  65.1849702  77.9683322 105.7854877  65.2847799  77.9895546
 104.6640905  64.3927970  78.4781406 102.8551834  62.2705285  78.1542723
 102.2601766  62.5510298  77.4589211 102.5701531  62.7599186  78.9259464
 101.9859324  76.2228212  66.9145355 102.9189997  76.1573774  67.1178231
 101.8982537  77.0584479  66.4559888 104.6147341  75.5394082  63.8749303
 104.5360972  75.2053946  64.7685061 105.4357008  76.0315850  63.8740775
 107.3125532  68.4055821  77.0825622 107.2801852  67.4671822  77.2685305
 107.9226156  68.4839858  76.3491446  99.1508863  67.2751874  63.1252826
 100.0967968  67.1458083  63.1941244  98.7723108  66.5366536  63.6022254
 107.4620021  65.1966865  77.1283905 106.9459069  64.4125322  76.9413834
 108.3459969  64.8685582  77.2930424 105.1230748  58.9407880  73.0879717
 104.9255569  58.6322969  73.9723049 105.7330453  59.6669519  73.2177647
 113.1302082  69.4671828  76.2231658 113.8605470  69.2057116  76.7839362
 112.5209027  68.7300550  76.2633726 111.2117379  67.6079691  76.8206110
 110.4850543  67.4735656  76.2122601 110.7964666  67.9156520  77.6262828
  99.0347556  71.3269621  84.5853483  99.9550565  71.5048220  84.7793529
  98.9997139  70.3825666  84.4333182  97.3351780  65.2001851  63.0607711
  96.4283236  64.9034964  63.1370424  97.6127761  64.9031669  62.1941997
  88.2529721  66.5208214  73.5106757  87.9332505  65.6673522  73.2181131
  87.7063149  66.7356792  74.2664725  98.9513846  59.7438741  69.2151952
  98.1414574  59.3985826  69.5907198  99.6398263  59.4346284  69.8039564
 100.8804394  58.8216787  70.8376249 101.4335433  59.2412241  71.4966272
 101.1174481  57.8952535  70.8799205  96.9037493  64.8103861  86.6179013
  96.8034220  65.7598218  86.5491104  96.6859035  64.4822100  85.7455083
  96.1050565  62.0588786  63.2019690  96.9669729  62.3843684  63.4615507
  96.2900909  61.2720282  62.6892756  88.1217981  70.1411126  75.4799879
  87.4281452  69.7265079  74.9669833  88.8690972  70.1831662  74.8833298
 104.2583201  60.9317313  70.3454913 103.6781870  61.5902117  69.9632965
 103.9919134  60.1094657  69.9342331 102.7086768  60.3322370  72.5476233
 103.2086546  60.4438905  71.7390552 103.3522376  60.0283423  73.1877042
  96.7668763  68.2401000  85.4344074  96.2835845  69.0401360  85.6407963
  96.8529702  68.2508945  84.4811518  90.0354723  70.0729380  73.3565894
  90.0125411  70.1717067  72.4047777  90.3455360  70.9194530  73.6783060
  92.6942101  72.1305535  77.4712508  93.6485354  72.0989477  77.4042440
  92.4954625  71.6696158  78.2862734 103.0408079  63.0917403  69.4011261
 102.1533934  63.3767054  69.1831456 103.4562068  62.9311166  68.5538538
 106.3922615  63.1163924  73.1165601 107.1683006  63.6060376  73.3890217
 105.6670750  63.5421978  73.5737470 108.8295174  63.8291543  74.1739541
 109.4239665  63.5887279  73.4632849 108.9021758  63.1098674  74.8013077
  91.0492330  77.6725154  74.4882706  90.9146798  76.9125555  73.9220704
  90.6324392  78.3966054  74.0211495 102.1851293  72.8562078  63.4959281
 102.8887143  73.0612080  64.1116937 101.4613941  73.4238839  63.7608365
 103.0149103  68.6071939  69.6161551 102.9584304  69.0640490  68.7769184
 103.5677445  67.8462623  69.4384394 106.8253909  64.3961671  70.4411671
 106.5690843  63.9958306  71.2719879 106.2006777  65.1105465  70.3161810
 111.1366247  67.1357744  72.9482962 110.5765805  67.2050933  73.7214524
 110.5309750  66.9598729  72.2282459 104.0937990  73.2944607  65.5457741
 104.9283594  72.8625805  65.3635216 103.9322333  73.1226620  66.4734636
 103.7483882  69.7976720  66.9114081 103.6932686  69.6320992  65.9702525
 103.1229938  70.5052753  67.0676270  88.5376397  65.0344784  80.7375503
  89.1835261  64.5243738  81.2262728  88.3293548  65.7713466  81.3118928
 101.0629789  72.1025632  86.2367643 101.9320949  72.2766284  85.8754278
 100.5836541  72.9220049  86.1143373  97.0580008  59.2984829  66.4899399
  97.0458678  60.2426669  66.6467670  97.9503430  59.1154974  66.1958860
  96.9869572  77.9753719  74.5767156  96.0365203  77.9755581  74.4631528
  97.2902058  77.2286454  74.0603190 100.8732127  55.8927606  70.7445336
 100.1064523  55.3386092  70.8902018 101.2842832  55.9649474  71.6059487
  92.8773888  62.1812402  84.8350517  93.7405350  61.8249206  85.0453842
  92.3039299  61.8426296  85.5225921 112.7222265  83.8114258  75.6412918
 113.3600675  83.6921005  74.9376258 112.6043108  84.7595102  75.7000870
 109.5311972  83.7641686  75.5774443 109.1930483  83.6482751  74.6894978
 110.4001740  83.3632851  75.5575449 105.3898787  85.6177162  71.5671334
 104.8263652  85.5267099  70.7987621 105.2751182  84.7977067  72.0473826
 110.0131754  84.9176538  81.5360648 110.0020395  84.5229336  80.6641152
 110.1752394  84.1842610  82.1294420 102.9363219  87.1128354  74.4055554
 103.7284511  86.7719179  73.9901853 103.1759869  87.2223329  75.3257707
 110.9698346  89.2848130  66.8785799 110.3186326  89.8702211  66.4919812
 111.7642709  89.8154325  66.9380836 104.8953973  86.3737267  67.2772933
 105.6684849  85.8266254  67.1385809 105.2479372  87.2381517  67.4887394
 106.7339016  87.7013650  80.4839832 106.4428882  88.6059280  80.3686499
 107.3696000  87.7430177  81.1983902 107.6595222  85.0790498  77.0741192
 108.2558795  84.8546520  76.3598155 107.7170194  84.3375244  77.6766640
 107.2320251  82.5329933  64.9091383 107.4845772  82.0111455  64.1474846
 106.2944810  82.3696079  65.0118066 112.2763534  81.5365712  72.7166126
 113.0626623  81.1185135  72.3656543 112.5402238  82.4411804  72.8847774
 112.4473611  86.9738562  67.4154783 111.8119444  87.0473189  68.1275688
 112.1171017  87.5632161  66.7373862 117.6771961  81.4740945  73.6199105
 118.4097133  80.9040162  73.8536934 116.9211317  81.0862545  74.0605610
 106.9516540  84.4358039  67.1115758 106.8352798  83.7602943  67.7796842
 107.0618800  83.9490413  66.2947911 109.2948081  83.8968186  70.8162447
 108.9306288  83.3698807  71.5275369 110.1515196  83.5066655  70.6428932
 115.1997381  75.1862519  78.0793713 114.8680706  76.0557930  77.8554928
 114.6042995  74.8698803  78.7587744 108.9353568  78.9258086  65.8123796
 109.1027970  79.7938323  66.1794267 108.7450737  79.0885368  64.8885085
 111.6928901  87.3875065  77.4789626 111.3929624  88.2900104  77.3705433
 111.3479960  87.1207248  78.3310779 105.1441382  83.8388862  73.5126330
 104.2191879  83.7065076  73.7204022 105.3925795  84.6183081  74.0096273
 115.0926045  79.9057605  75.1587063 114.1842922  79.8373014  74.8645824
 115.0413640  80.3829550  75.9868889 108.9142788  81.3815744  66.7970462
 108.7942414  81.8272794  67.6355943 108.2195377  81.7301061  66.2384001
 102.5050193  83.4822135  74.3470119 102.6342574  83.7356614  75.2609531
 101.8247645  84.0749843  74.0274775 106.6749681  94.1519385  70.4460594
 106.5973710  95.1027210  70.5249074 106.0711324  93.8065258  71.1035520
 109.1666910  81.3247251  83.1021961 108.3900244  81.8841171  83.0924825
 109.8057473  81.8104034  83.6236831 116.9587691  78.1074044  76.9364937
 116.3162071  78.4006577  76.2904732 116.4542619  77.9926964  77.7418134
 114.6127855  81.8537217  67.6250796 115.5245711  82.0864604  67.4498494
 114.1037502  82.4374261  67.0625875 107.4213283  84.1332704  82.6639928
 108.1627967  84.6717748  82.3874751 106.7150268  84.7598993  82.8211479
 112.8968622  86.2761845  81.2612089 113.3051978  85.8344255  80.5166721
 112.1745884  85.7014472  81.5146282 109.2499692  81.2134451  78.6345646
 110.0960887  81.6373865  78.7780295 109.1898330  80.5568076  79.3284209
 113.2197437  86.8363035  75.0164378 112.5906299  87.0008749  74.3140446
 112.8323099  87.2504645  75.7875342 117.0986669  87.7717473  72.3708742
 116.4137707  88.1516374  71.8205775 117.1830518  88.3812800  73.1040689
 112.3999138  78.8738820  80.2926820 112.1560069  79.6280880  79.7561095
 112.6759068  79.2524167  81.1274067 114.3537600  85.4177432  78.9704085
 114.5654496  86.0609192  78.2938466 114.3067349  84.5839749  78.5026015
 111.9563829  78.0295253  75.8740657 111.0948308  78.3276506  76.1657395
 111.9826264  78.2465652  74.9421690 108.7725399  86.5737443  72.2814463
 109.2363744  86.8525146  71.4919086 108.5082197  85.6720888  72.0987554
 105.6649480  86.1208925  75.2194226 106.2350837  86.5496193  74.5811711
 106.2557592  85.8391510  75.9178412 107.7094285  82.6960596  69.0904028
 108.4118328  83.1481639  69.5577955 107.3774913  82.0544415  69.7183921
 106.1574646  81.2872352  83.4655238 105.5273307  81.9688633  83.6990634
 106.0510734  81.1755434  82.5208376 101.4519619  80.9544148  74.3921162
 100.6618673  81.2101677  73.9161272 101.9430866  81.7692486  74.4973202
 115.4683428  88.2949388  77.1426443 116.2900872  87.8929575  76.8609124
 115.4645831  88.1917622  78.0942558 103.4034364  81.3188728  71.3504638
 102.6065527  81.4307422  71.8688134 103.1759956  81.6575380  70.4845529
 109.2340032  87.8433431  79.2987153 109.2984464  88.3053838  80.1345325
 108.5250956  87.2130796  79.4269463  99.7357322  81.2074639  76.8236153
  99.9865360  82.0921649  77.0893728 100.2716870  81.0279240  76.0511244
 108.9488049  89.5101538  69.1666133 108.8133724  90.3553074  69.5950981
 109.4897862  89.7120816  68.4032067 105.4355389  75.5893118  85.8280489
 105.0422335  75.0359317  86.5028133 106.2521529  75.9003697  86.2187006
 102.4017447  87.0276976  69.7394058 102.9141967  87.8220227  69.8899623
 103.0540160  86.3303267  69.6727660 104.2112332  90.1442733  71.8216812
 104.3878960  91.0660697  71.6337796 105.0069165  89.8301152  72.2511191
 108.3523350  77.0050997  83.4200745 109.0933063  77.6058150  83.3405208
 108.5841273  76.2628635  82.8618788 103.4964688  82.1907365  81.6978975
 103.3818203  81.2892622  81.9986074 102.6409206  82.4371061  81.3463791
 110.5756526  90.1325105  83.2966475 110.1320380  89.3461483  82.9787380
 111.2373739  90.3204255  82.6310366 105.3343647  91.6620906  77.8227154
 105.8851072  91.5337970  77.0504148 104.4955123  91.9615795  77.4722047
 112.6737764  90.4127905  81.3247877 112.6556239  91.2336786  80.8328146
 113.5957684  90.2881980  81.5498018 109.1310818  87.9272034  82.1671385
 109.6639155  87.1660322  81.9370693 108.6024899  87.6345686  82.9095540
 112.2980513  73.0332100  77.6965027 111.9544782  73.9233742  77.6204137
 112.6659476  72.8433758  76.8334612 100.3666364  85.3565631  70.5153629
 101.2041586  85.7662639  70.2987337 100.5444631  84.4165073  70.4853823
 112.2630796  83.0240711  66.2037462 111.7477419  83.7945316  66.4425849
 111.9908104  82.3505847  66.8270523 109.8477907  77.8690412  71.2622700
 108.9919503  77.4797263  71.0828339 110.2604859  77.9482373  70.4022486
 111.3777053  75.4036755  75.6614260 110.8741849  75.3666891  74.8482065
 111.6707660  76.3129498  75.7210917 107.6219939  75.4875485  74.6680442
 108.4872936  75.2918294  74.3086331 107.6897448  75.2585837  75.5949799
 117.2365070  85.7773066  68.1390635 116.4594513  85.4384225  67.6945798
 117.9156551  85.7825689  67.4645600 112.0517099  80.8967803  68.0297243
 111.7467234  81.2113953  68.8807386 113.0047541  80.9749223  68.0724576
 110.4963531  87.0558027  69.6790197 109.9684892  86.3210786  69.3663435
 109.9951033  87.8332703  69.4330165 115.4756377  85.2507047  74.7957243
 114.8180051  85.9406309  74.8837372 116.2796776  85.6403479  75.1391230
 105.2282258  77.7177693  72.0396809 105.8026010  77.4952875  71.3070002
 105.8153241  77.7866388  72.7925410 114.2861836  83.6051420  72.8461185
 114.7993717  84.2381412  73.3482895 114.9363059  83.0052615  72.4804545
 105.5551845  79.7482154  66.0592694 104.7189158  80.0856841  66.3801969
 105.4156615  79.6131134  65.1219831 107.5304926  74.5918942  70.7671878
 106.8769338  74.2767959  70.1428493 107.4885400  73.9694682  71.4931701
 108.6416131  84.8738237  62.6825170 107.7343193  84.6427490  62.8816319
 109.1387163  84.0775856  62.8699152 111.5484210  93.5835744  65.6021856
 110.8745909  93.8867441  66.2106814 111.9350032  94.3864825  65.2527313
 110.7642666  81.0800875  75.0919526 109.8465228  81.3015822  74.9341214
 111.1802810  81.1547186  74.2331233 111.5477714  82.4792291  70.2222206
 112.2949533  82.9913688  69.9129328 111.8169304  82.1576344  71.0826600
 109.8204364  84.9750832  67.2049160 108.9115584  84.6909865  67.3021630
 109.8499448  85.3949910  66.3452467 115.0523632  88.5857421  70.9740328
 114.5985959  87.7448331  71.0305518 114.4217598  89.2218820  71.3115108
 113.9956551  79.5149407  72.2040995 113.2579308  79.0026794  72.5351238
 114.2483325  79.0749789  71.3924272 113.4956571  90.4233918  71.9090146
 113.7879545  90.9838975  71.1902512 114.0055192  90.7162479  72.6643305
 114.0968179  72.2925659  72.7982765 114.4027055  71.4323023  72.5108680
 114.8220783  72.8843280  72.5981758 100.3892535  82.6956346  71.1864362
 100.1916935  82.1025707  70.4615429  99.8339199  82.3908556  71.9040301
 108.3689258  82.5879452  73.3058956 108.4237868  81.6353289  73.2301432
 107.5580460  82.7438892  73.7900254 109.5180452  86.5159576  64.5437239
 109.0799882  85.7995434  64.0842876 110.2590893  86.7435690  63.9822330
 106.3081618  81.2056512  71.0649334 105.4949484  81.5050683  71.4714527
 106.8040613  80.8112201  71.7823817 108.4590196  91.2014269  72.9983599
 108.4166375  91.4275115  72.0692131 109.3752895  90.9677644  73.1469400
 111.9055830  81.6698337  79.8964228 112.2605218  81.8969810  80.7558694
 112.5527961  82.0016713  79.2741484 117.6353567  84.7916773  70.6013557
 117.4971466  84.9818369  69.6734747 117.2789786  85.5536155  71.0581609
 105.7995693  78.7774868  76.6810569 106.4395072  78.6363627  75.9833533
 104.9673224  78.4909381  76.3049171 117.6622947  86.8593300  75.6124829
 118.0959453  86.7668589  76.4607883 118.3754527  86.8350800  74.9744845
 106.5755997  88.0777298  72.7945562 107.3696595  87.5827618  72.5928137
 105.8647689  87.5495161  72.4313267 111.3950841  90.4595394  77.1457929
 111.4487864  91.0286330  77.9135645 110.5265623  90.6297279  76.7811967
 102.8838760  82.2220380  68.8705315 101.9536349  82.1604835  69.0875277
 102.9796232  81.6996333  68.0741956 102.8024309  78.7475193  71.4583556
 103.0631127  79.6620526  71.3492717 103.6241482  78.2799635  71.6080169
 104.2749235  80.1612950  78.6282381 104.9472288  79.9530312  77.9795030
 103.4479021  79.9635036  78.1887613 118.5238496  86.9017000  78.1457714
 118.7174386  87.8062811  78.3916989 118.4239114  86.4424419  78.9796299
 110.1774807  76.7874891  80.6448042 109.5302722  77.4864840  80.5512518
 110.9475822  77.2211035  81.0124290 113.5853605  87.0523743  83.7198595
 113.4339111  86.8234295  82.8028679 113.5758284  88.0094344  83.7329940
 110.3538941  84.6255656  78.7044861 111.2831001  84.7766815  78.5313829
 109.9329971  84.7139677  77.8493508 109.1527273  88.6506320  76.4743399
 109.0138359  88.2825105  77.3469337 108.3641869  89.1653960  76.3027357
 109.7475425  93.7515417  67.8168935 109.9227181  93.2803460  68.6314558
 109.0608213  94.3781183  68.0450196 110.7032488  88.0287923  73.8632237
 110.3682321  87.9888693  74.7589887 110.2036434  87.3632639  73.3902647
 104.6776732  83.4355553  79.3884818 104.5396530  82.7035792  79.9896357
 105.5881656  83.3464453  79.1069006 113.6391680  85.3743957  64.1369296
 113.0220850  84.6490785  64.0402349 113.1708168  86.1353317  63.7936371
 107.3059033  83.1475512  78.8768498 108.0158651  82.5068704  78.8355116
 107.2628341  83.3988407  79.7994678 115.2945811  90.0842866  81.7975077
 115.2358358  89.4002086  81.1305660 115.6965330  90.8261856  81.3455703
 106.0187967  80.1340730  80.6964137 105.4825324  79.6831469  81.3485733
 105.4304675  80.2686639  79.9534601 104.3136510  96.9004779  74.5908796
 104.5533108  97.5323304  75.2687814 103.4705707  96.5492819  74.8774155
 105.4290226  79.5929381  63.2590601 104.5519692  79.4718182  62.8952847
 105.9047979  78.8015460  63.0069489 115.2963219  88.0482449  80.0289056
 114.4089997  87.7108371  80.1515455 115.8661770  87.3165481  80.2657822
  96.9492366  84.3806541  73.3532108  97.6363406  84.0668271  72.7653123
  96.7940495  85.2847906  73.0799359 101.7527088  79.2696738  77.7817132
 101.6685277  78.6622407  77.0467541 100.9309794  79.7605756  77.7826628
 108.8264372  92.7083902  76.9950300 108.7534544  93.5138873  77.5069604
 108.3841765  92.9075868  76.1698321 108.6154152  91.9455672  70.5053121
 107.8321674  92.4877352  70.5991346 109.3146897  92.4629651  70.9047362
 111.9250802  77.7550301  73.1487327 112.4219501  77.0020264  72.8288397
 111.1537783  77.7914618  72.5830536 119.7780559  83.4590667  74.7905618
 119.7670435  84.3415382  74.4199551 118.9097939  83.1062218  74.5960155
 111.2863056  92.6070736  79.1508458 111.9991028  93.2418201  79.0784360
 110.7953084  92.7034602  78.3348460 113.0080583  86.5121989  70.7225750
 112.0736861  86.6323451  70.5530454 113.1857251  85.6094455  70.4585760
 108.5085771  79.8967684  72.8759011 108.1383558  79.3438725  73.5639917
 109.0044863  79.2925818  72.3234011 116.3953134  82.3539308  71.2575784
 116.8613586  83.1867299  71.1836087 116.8460634  81.8884289  71.9621043
 106.3374969  90.3565179  79.9714029 107.0384429  90.9901662  80.1243423
 105.8670084  90.6979911  79.2109668 114.4629365  88.6983129  68.2561936
 114.7389209  88.5839724  69.1655810 113.5933864  88.3000614  68.2174109
 114.3669797  74.7219895  75.2966685 113.4532876  74.9524122  75.4648892
 114.7962898  74.8058339  76.1480718 114.1376255  82.9109787  77.7966579
 113.4847705  83.1585694  77.1419032 114.5156635  82.0973925  77.4629057
 111.0983429  92.9469480  71.8994750 111.2805824  92.1291136  72.3622502
 111.9216415  93.1637172  71.4619640 111.4325594  91.8737665  69.1609798
 111.9613361  91.3630120  68.5479960 111.6953814  91.5580195  70.0255331
 110.1863828  83.6529598  84.2832617 109.5104465  83.5523727  84.9534992
 111.0091462  83.4968812  84.7468614 101.9342687  89.8901534  76.9045132
 102.5196124  89.1445222  77.0373036 101.7367526  90.2005491  77.7881796
 104.7881342  92.9252782  71.9207574 104.1191718  93.4098909  71.4371614
 104.6494212  93.1722002  72.8350953  96.5260342  82.4607135  75.6249575
  96.5644441  81.9270725  76.4186693  96.0200635  81.9342340  75.0060552
 108.9286611  94.9596525  78.5190233 109.4804919  95.1228147  79.2839318
 109.2692804  95.5500963  77.8470257 103.9051104  77.3071675  79.1212117
 103.9692431  78.1686506  78.7089515 103.8418224  76.6945677  78.3884476
 103.3803377  79.3794808  82.7685152 104.0075416  78.9971885  83.3822676
 102.5231296  79.1609010  83.1340844 113.7797485  89.7857783  84.3738887
 114.3237389  90.3987741  83.8793842 113.1984330  90.3437361  84.8905900
 100.1568920  81.1871237  68.7003506 100.4522361  80.2781915  68.6470560
  99.2556955  81.1658976  68.3784509 112.0654998  92.9078501  75.5053915
 111.9406138  92.1068241  74.9964860 112.7234089  93.4024694  75.0167885
 103.6863167  79.2627233  74.6831055 102.9649752  79.8763201  74.5438528
 104.4756422  79.7984998  74.6047701 114.1289907  90.7087521  77.1333465
 113.1820242  90.5892872  77.0611792 114.4772680  89.8210019  77.2159726
 106.4889480  76.5981660  80.9571707 107.0123882  76.8443956  81.7198016
 106.2701813  77.4301695  80.5374844 101.8856761  78.8685334  68.8242831
 101.5569467  77.9882713  68.6417937 102.2396132  78.8133003  69.7119221
 111.1336340  90.5040237  73.3337817 110.9861302  89.5756945  73.5145387
 111.9589833  90.5260328  72.8494892 104.9998584  79.1558304  69.1918309
 105.3394657  79.6844225  68.4696918 105.4470705  79.4938710  69.9676876
 114.7370462  91.3268796  74.4202690 115.6617009  91.1211657  74.2827141
 114.5685765  91.0785197  75.3292031 107.6942025  77.5395355  78.6421377
 107.3538845  76.7403168  79.0442057 106.9881031  77.8397066  78.0698210
 108.3458497  74.6244667  77.0948700 109.1684566  74.1505146  76.9727591
 108.5896560  75.4035151  77.5947387 106.9866731  77.6532926  67.3911602
 107.7075094  78.0314179  66.8875319 106.3632036  78.3721803  67.4946580
 111.1297854  78.3578075  68.3269934 111.3461469  79.2402713  68.0258762
 110.6491921  77.9664288  67.5975576 105.8697076  81.3163788  74.9040679
 105.7241656  81.6304091  75.7964960 105.3922279  81.9348688  74.3511578
 107.7293459  78.3066336  74.9521568 107.7155027  77.4107429  74.6153866
 108.4465887  78.3137000  75.5859854 109.5819589  78.7403676  76.9974696
 109.3237367  79.6620747  76.9959026 109.0504630  78.3434111  77.6875160
 114.5265778  91.8454463  69.7764781 114.7002656  91.2800886  69.0238634
 115.0194669  92.6455358  69.5944271 100.3442738  83.8569132  77.8428340
  99.7996206  84.6328940  77.9748614 101.2222088  84.2039937  77.6847461
 107.1330354  77.1880716  70.2209139 107.2546266  76.2597362  70.4200026
 106.8432397  77.2019402  69.3087454 110.0021545  74.8735627  73.3575858
 110.0243242  74.9374960  72.4027838 110.4189604  74.0340135  73.5516365
 120.3805169  84.6090886  71.3955081 120.8236315  83.8598211  70.9974204
 119.5031679  84.6001023  71.0128813 115.5140951  91.1621228  66.8761680
 116.2091855  91.7827920  67.0948994 115.8564101  90.3116579  67.1514057
 101.1308760  82.9839029  80.7358497 100.3890496  83.1321664  81.3223127
 100.8101504  83.2447294  79.8725246 117.4132374  88.6120933  68.4049010
 117.9383698  88.9508206  67.6798330 117.3254726  87.6767949  68.2212145
 109.0752422  92.5255007  80.5338887 109.3839549  92.2804154  81.4061587
 109.8727904  92.7301645  80.0457757 109.0973034  94.6792916  72.7644263
 108.6578025  94.1869295  73.4577120 109.8481151  94.1365884  72.5236339
 101.5765373  90.8704457  72.7668892 102.4023393  90.5708229  72.3867535
 101.2259425  90.1012080  73.2158680 106.5446907  90.2230926  74.8366565
 105.9226916  89.5601631  74.5368793 107.2151773  90.2492057  74.1540213
  99.7773978  88.7890784  73.7257825  98.9405887  88.3612958  73.5441826
  99.7497624  88.9823227  74.6628616 106.6171434  78.7012714  84.4299071
 106.6659589  79.5774836  84.0476841 107.1593948  78.1590107  83.8570714
 117.1026280  89.2453837  83.7100208 116.3121823  89.2277976  83.1704708
 116.8659634  89.7842131  84.4649245 117.2224155  86.0946303  81.0232937
 117.2722160  85.9296311  81.9648460 117.1138078  85.2273562  80.6330818
 106.1060413  88.7734849  68.3125026 106.2548534  89.4570313  67.6591698
 106.9126857  88.7539939  68.8274481 114.5127917  82.0777231  82.3392243
 115.4137780  81.9383696  82.0476241 114.5875892  82.2431686  83.2790421
 108.8470722  79.4544086  81.1845430 107.9774032  79.7477652  80.9128018
 109.0830203  80.0384531  81.9052693 118.7242352  88.5143245  81.2674958
 118.4327160  88.8773225  82.1038419 118.1114483  87.8010253  81.0888290
 119.9238034  86.0796125  73.7877529 120.7584925  86.5185929  73.9515089
 120.0597163  85.6034778  72.9685774 116.9729540  83.6375859  79.7355016
 117.4483661  83.8303506  78.9273868 116.0495105  83.6935045  79.4898400
 103.8613046  84.8000027  69.3186095 103.6159088  83.8962357  69.5166305
 104.0308961  84.8017177  68.3765573 111.5509756  75.6723703  78.7010850
 112.0691700  76.4084730  78.3757339 111.1964889  75.9787696  79.5357609
 103.1308694  80.5328384  66.8172256 102.4377939  80.6072739  66.1612292
 102.8860446  79.7688728  67.3393773 111.8022350  72.0923985  74.2211747
 112.0824104  71.4247175  74.8472173 112.5872957  72.2853081  73.7086411
 109.6055819  91.2682979  65.7836773 109.0329786  91.8873167  65.3307245
 110.1788613  91.8182341  66.3176695 115.6731209  80.5141619  77.9683322
 116.6248632  80.6139717  77.9895546 115.5034659  79.7219888  78.4781406
 113.6945588  77.5997203  78.1542723 113.0995520  77.8802215  77.4589211
 113.4095285  78.0891104  78.9259464 112.8253079  91.5520130  66.9145355
 113.7583752  91.4865691  67.1178231 112.7376292  92.3876396  66.4559888
 115.4541095  90.8686000  63.8749303 115.3754727  90.5345863  64.7685061
 116.2750762  91.3607768  63.8740775 118.1519287  83.7347739  77.0825622
 118.1195607  82.7963740  77.2685305 118.7619910  83.8131776  76.3491446
 109.9902617  82.6043792  63.1252826 110.9361722  82.4750000  63.1941244
 109.6116862  81.8658454  63.6022254 118.3013775  80.5258783  77.1283905
 117.7852824  79.7417239  76.9413834 119.1853724  80.1977499  77.2930424
 115.9624502  74.2699798  73.0879717 115.7649323  73.9614886  73.9723049
 116.5724208  74.9961437  73.2177647 109.8741310  86.6561538  84.5853483
 110.7944319  86.8340137  84.7793529 109.8390893  85.7117584  84.4333182
 108.1745535  80.5293769  63.0607711 107.2676990  80.2326881  63.1370424
 108.4521516  80.2323587  62.1941997  99.0923475  81.8500132  73.5106757
  98.7726259  80.9965440  73.2181131  98.5456903  82.0648710  74.2664725
 102.8703383  84.5662573  77.2276264 103.0889392  85.4979681  77.2464298
 103.2829156  84.2070547  78.0131068 109.7907600  75.0730658  69.2151952
 108.9808329  74.7277743  69.5907198 110.4792017  74.7638202  69.8039564
 111.7198149  74.1508705  70.8376249 112.2729187  74.5704158  71.4966272
 111.9568235  73.2244453  70.8799205 107.7431248  80.1395779  86.6179013
 107.6427975  81.0890136  86.5491104 107.5252790  79.8114018  85.7455083
 106.9444319  77.3880704  63.2019690 107.8063483  77.7135602  63.4615507
 107.1294663  76.6012200  62.6892756  98.9611735  85.4703043  75.4799879
  98.2675206  85.0556996  74.9669833  99.7084726  85.5123580  74.8833298
 115.0976956  76.2609230  70.3454913 114.5175625  76.9194034  69.9632965
 114.8312888  75.4386575  69.9342331 113.5480522  75.6614288  72.5476233
 114.0480300  75.7730822  71.7390552 114.1916130  75.3575341  73.1877042
 107.6062518  83.5692918  85.4344074 107.1229600  84.3693278  85.6407963
 107.6923457  83.5800862  84.4811518 100.8748478  85.4021297  73.3565894
 100.8519166  85.5008984  72.4047777 101.1849114  86.2486448  73.6783060
 103.5335855  87.4597452  77.4712508 104.4879109  87.4281395  77.4042440
 103.3348379  86.9988076  78.2862734 104.1235238  86.0298568  80.0383306
 104.9428127  86.5242647  80.0618143 104.3972045  85.1130536  80.0100873
 113.8801834  78.4209321  69.4011261 112.9927689  78.7058971  69.1831456
 114.2955823  78.2603084  68.5538538 117.2316370  78.4455842  73.1165601
 118.0076760  78.9352294  73.3890217 116.5064504  78.8713896  73.5737470
 119.6688928  79.1583461  74.1739541 120.2633419  78.9179197  73.4632849
 119.7415512  78.4390591  74.8013077 101.8886084  93.0017072  74.4882706
 101.7540552  92.2417473  73.9220704 101.4718146  93.7257972  74.0211495
 113.0245047  88.1853995  63.4959281 113.7280897  88.3903998  64.1116937
 112.3007696  88.7530757  63.7608365 113.8542857  83.9363857  69.6161551
 113.7978059  84.3932408  68.7769184 114.4071200  83.1754541  69.4384394
 117.6647663  79.7253588  70.4411671 117.4084598  79.3250224  71.2719879
 117.0400531  80.4397382  70.3161810 105.0455210  93.8986389  74.7001149
 104.9287594  94.8431821  74.5979839 104.2247656  93.5959950  75.0886948
 114.9331745  88.6236524  65.5457741 115.7677349  88.1917723  65.3635216
 114.7716088  88.4518538  66.4734636 114.5877637  85.1268638  66.9114081
 114.5326441  84.9612909  65.9702525 113.9623692  85.8344671  67.0676270
  99.3770152  80.3636702  80.7375503 100.0229015  79.8535656  81.2262728
  99.1687303  81.1005384  81.3118928 111.9023544  87.4317550  86.2367643
 112.7714704  87.6058202  85.8754278 111.4230295  88.2511966  86.1143373
 107.8973762  74.6276747  66.4899399 107.8852432  75.5718587  66.6467670
 108.7897184  74.4446892  66.1958860 106.0709724  94.5514651  77.9157077
 106.9736971  94.5838261  78.2323572 105.8447094  93.6215102  77.9303413
 107.8263326  93.3045637  74.5767156 106.8758957  93.3047499  74.4631528
 108.1295812  92.5578372  74.0603190 111.7125882  71.2219523  70.7445336
 110.9458278  70.6678010  70.8902018 112.1236587  71.2941392  71.6059487
 103.7167643  77.5104319  84.8350517 104.5799104  77.1541124  85.0453842
 103.1433053  77.1718214  85.5225921 120.3705726  99.0933604  75.5774443
 120.0324238  98.9774668  74.6894978 121.2395494  98.6924769  75.5575449
 116.2292542 100.9469080  71.5671334 115.6657407 100.8559017  70.7987621
 116.1144937 100.1268985  72.0473826 120.8525509 100.2468455  81.5360648
 120.8414150  99.8521254  80.6641152 121.0146148  99.5134528  82.1294420
 113.7756974 102.4420272  74.4055554 114.5678266 102.1011096  73.9901853
 114.0153624 102.5515247  75.3257707 115.7347728 101.7029185  67.2772933
 116.5078604 101.1558172  67.1385809 116.0873126 102.5673434  67.4887394
 117.5732770 103.0305567  80.4839832 117.2822636 103.9351198  80.3686499
 118.2089754 103.0722095  81.1983902 118.4988977 100.4082416  77.0741192
 119.0952549 100.1838438  76.3598155 118.5563949  99.6667161  77.6766640
 118.0714005  97.8621851  64.9091383 118.3239526  97.3403372  64.1474846
 117.1338564  97.6987996  65.0118066 117.7910294  99.7649957  67.1115758
 117.6746552  99.0894860  67.7796842 117.9012554  99.2782331  66.2947911
 120.1341835  99.2260104  70.8162447 119.7700042  98.6990725  71.5275369
 120.9908951  98.8358573  70.6428932 119.7747322  94.2550004  65.8123796
 119.9421724  95.1230240  66.1794267 119.5844491  94.4177286  64.8885085
 115.9835137  99.1680780  73.5126330 115.0585633  99.0356994  73.7204022
 116.2319550  99.9474999  74.0096273 119.7536543  96.7107661  66.7970462
 119.6336168  97.1564712  67.6355943 119.0589131  97.0592979  66.2384001
 113.3443948  98.8114053  74.3470119 113.4736329  99.0648532  75.2609531
 112.6641399  99.4041761  74.0274775 120.0060665  96.6539168  83.1021961
 119.2293999  97.2133089  83.0924825 120.6451228  97.1395951  83.6236831
 118.2607037  99.4624622  82.6639928 119.0021721 100.0009666  82.3874751
 117.5544023 100.0890911  82.8211479 120.0893447  96.5426369  78.6345646
 120.9354642  96.9665783  78.7780295 120.0292084  95.8859993  79.3284209
 119.6119153 101.9029361  72.2814463 120.0757499 102.1817064  71.4919086
 119.3475951 101.0012806  72.0987554 116.5043234 101.4500843  75.2194226
 117.0744591 101.8788111  74.5811711 117.0951346 101.1683427  75.9178412
 118.5488039  98.0252513  69.0904028 119.2512083  98.4773557  69.5577955
 118.2168668  97.3836332  69.7183921 116.9968401  96.6164270  83.4655238
 116.3667061  97.2980551  83.6990634 116.8904489  96.5047352  82.5208376
 112.2913373  96.2836066  74.3921162 111.5012427  96.5393595  73.9161272
 112.7824621  97.0984404  74.4973202 114.2428119  96.6480645  71.3504638
 113.4459282  96.7599340  71.8688134 114.0153711  96.9867298  70.4845529
 120.0733786 103.1725349  79.2987153 120.1378219 103.6345756  80.1345325
 119.3644710 102.5422713  79.4269463 110.5751076  96.5366556  76.8236153
 110.8259115  97.4213566  77.0893728 111.1110625  96.3571158  76.0511244
 116.2749144  90.9185036  85.8280489 115.8816089  90.3651234  86.5028133
 117.0915284  91.2295614  86.2187006 113.2411201 102.3568894  69.7394058
 113.7535722 103.1512144  69.8899623 113.8933914 101.6595185  69.6727660
 115.0506086 105.4734650  71.8216812 115.2272714 106.3952615  71.6337796
 115.8462920 105.1593070  72.2511191 119.1917105  92.3342915  83.4200745
 119.9326818  92.9350068  83.3405208 119.4235027  91.5920553  82.8618788
 114.3358443  97.5199282  81.6978975 114.2211958  96.6184539  81.9986074
 113.4802960  97.7662979  81.3463791 116.1737401 106.9912824  77.8227154
 116.7244827 106.8629887  77.0504148 115.3348877 107.2907713  77.4722047
 119.9704573 103.2563952  82.1671385 120.5032909 102.4952240  81.9370693
 119.4418654 102.9637604  82.9095540 111.2060118 100.6857548  70.5153629
 112.0435340 101.0954557  70.2987337 111.3838386  99.7456991  70.4853823
 120.6871661  93.1982330  71.2622700 119.8313258  92.8089180  71.0828339
 121.0998613  93.2774291  70.4022486 118.4613694  90.8167403  74.6680442
 119.3266691  90.6210211  74.3086331 118.5291203  90.5877755  75.5949799
 121.3357285 102.3849944  69.6790197 120.8078647 101.6502704  69.3663435
 120.8344788 103.1624621  69.4330165 116.0676013  93.0469611  72.0396809
 116.6419765  92.8244792  71.3070002 116.6546995  93.1158305  72.7925410
 116.3945600  95.0774072  66.0592694 115.5582912  95.4148758  66.3801969
 116.2550370  94.9423052  65.1219831 118.3698681  89.9210860  70.7671878
 117.7163093  89.6059877  70.1428493 118.3279155  89.2986600  71.4931701
 119.4809885 100.2030155  62.6825170 118.5736947  99.9719408  62.8816319
 119.9780917  99.4067774  62.8699152 120.6598119 100.3042750  67.2049160
 119.7509338 100.0201782  67.3021630 120.6893203 100.7241828  66.3452467
 111.2286289  98.0248264  71.1864362 111.0310689  97.4317624  70.4615429
 110.6732953  97.7200474  71.9040301 119.2083013  97.9171370  73.3058956
 119.2631623  96.9645207  73.2301432 118.3974215  98.0730809  73.7900254
 120.3574207 101.8451493  64.5437239 119.9193637 101.1287352  64.0842876
 121.0984648 102.0727608  63.9822330 117.1475373  96.5348430  71.0649334
 116.3343238  96.8342600  71.4714527 117.6434367  96.1404119  71.7823817
 116.6389448  94.1066785  76.6810569 117.2788827  93.9655545  75.9833533
 115.8066978  93.8201299  76.3049171 117.4149751 103.4069216  72.7945562
 118.2090350 102.9119536  72.5928137 116.7041444 102.8787079  72.4313267
 113.7232515  97.5512298  68.8705315 112.7930103  97.4896753  69.0875277
 113.8189987  97.0288250  68.0741956 113.6418064  94.0767110  71.4583556
 113.9024881  94.9912444  71.3492717 114.4635236  93.6091553  71.6080169
 115.1142989  95.4904868  78.6282381 115.7866043  95.2822230  77.9795030
 114.2872776  95.2926954  78.1887613 119.9921027 103.9798238  76.4743399
 119.8532113 103.6117022  77.3469337 119.2035624 104.4945877  76.3027357
 115.5170487  98.7647471  79.3884818 115.3790285  98.0327709  79.9896357
 116.4275410  98.6756371  79.1069006 118.1452787  98.4767430  78.8768498
 118.8552406  97.8360622  78.8355116 118.1022095  98.7280325  79.7994678
 116.8581721  95.4632648  80.6964137 116.3219078  95.0123386  81.3485733
 116.2698430  95.5978557  79.9534601 116.2683980  94.9221299  63.2590601
 115.3913446  94.8010100  62.8952847 116.7441733  94.1307377  63.0069489
 107.7886120  99.7098459  73.3532108 108.4757160  99.3960189  72.7653123
 107.6334249 100.6139824  73.0799359 112.5920842  94.5988655  77.7817132
 112.5079031  93.9914325  77.0467541 111.7703549  95.0897674  77.7826628
 119.3479525  95.2259602  72.8759011 118.9777313  94.6730642  73.5639917
 119.8438618  94.6217735  72.3234011 117.1768724 105.6857097  79.9714029
 117.8778183 106.3193580  80.1243423 116.7063839 106.0271829  79.2109668
 112.7736442 105.2193452  76.9045132 113.3589879 104.4737140  77.0373036
 112.5761280 105.5297409  77.7881796 107.3654096  97.7899052  75.6249575
 107.4038196  97.2562643  76.4186693 106.8594389  97.2634258  75.0060552
 114.7444859  92.6363593  79.1212117 114.8086185  93.4978424  78.7089515
 114.6811979  92.0237594  78.3884476 114.2197131  94.7086725  82.7685152
 114.8469170  94.3263803  83.3822676 113.3625050  94.4900927  83.1340844
 110.9962674  96.5163154  68.7003506 111.2916115  95.6073833  68.6470560
 110.0950710  96.4950894  68.3784509 114.5256921  94.5919151  74.6831055
 113.8043507  95.2055119  74.5438528 115.3150177  95.1276916  74.6047701
 117.3283235  91.9273577  80.9571707 117.8517636  92.1735874  81.7198016
 117.1095568  92.7593612  80.5374844 112.7250516  94.1977252  68.8242831
 112.3963222  93.3174631  68.6417937 113.0789886  94.1424921  69.7119221
 115.8392339  94.4850222  69.1918309 116.1788411  95.0136143  68.4696918
 116.2864459  94.8230628  69.9676876 118.5335780  92.8687273  78.6421377
 118.1932600  92.0695086  79.0442057 117.8274786  93.1688983  78.0698210
 119.1852251  89.9536585  77.0948700 120.0078321  89.4797063  76.9727591
 119.4290315  90.7327069  77.5947387 117.8260486  92.9824843  67.3911602
 118.5468848  93.3606096  66.8875319 117.2025790  93.7013720  67.4946580
 116.7090830  96.6455706  74.9040679 116.5635411  96.9596009  75.7964960
 116.2316034  97.2640606  74.3511578 118.5687213  93.6358254  74.9521568
 118.5548782  92.7399347  74.6153866 119.2859641  93.6428917  75.5859854
 120.4213344  94.0695594  76.9974696 120.1631122  94.9912664  76.9959026
 119.8898384  93.6726028  77.6875160 111.1836492  99.1861050  77.8428340
 110.6389960  99.9620858  77.9748614 112.0615842  99.5331855  77.6847461
 117.9724109  92.5172634  70.2209139 118.0940020  91.5889280  70.4200026
 117.6826151  92.5311320  69.3087454 120.8415299  90.2027544  73.3575858
 120.8636996  90.2666877  72.4027838 121.2583358  89.3632053  73.5516365
 111.9702514  98.3130946  80.7358497 111.2284250  98.4613582  81.3223127
 111.6495258  98.5739212  79.8725246 112.4159128 106.1996375  72.7668892
 113.2417148 105.9000147  72.3867535 112.0653180 105.4303997  73.2158680
 117.3840661 105.5522843  74.8366565 116.7620670 104.8893548  74.5368793
 118.0545528 105.5783975  74.1540213 110.6167733 104.1182701  73.7257825
 109.7799641 103.6904876  73.5441826 110.5891378 104.3115145  74.6628616
 117.4565189  94.0304631  84.4299071 117.5053344  94.9066754  84.0476841
 117.9987703  93.4882024  83.8570714 116.9454168 104.1026767  68.3125026
 117.0942288 104.7862231  67.6591698 117.7520611 104.0831857  68.8274481
 119.6864477  94.7836004  81.1845430 118.8167786  95.0769570  80.9128018
 119.9223957  95.3676449  81.9052693 114.7006801 100.1291944  69.3186095
 114.4552843  99.2254274  69.5166305 114.8702715 100.1309095  68.3765573
 113.9702448  95.8620302  66.8172256 113.2771693  95.9364657  66.1612292
 113.7254200  95.0980645  67.3393773 119.0139289  95.8585686  63.0607711
 118.1070745  95.5618799  63.1370424 119.2915270  95.5615504  62.1941997
 109.9317229  97.1792050  73.5106757 109.6120014  96.3257358  73.2181131
 109.3850658  97.3940628  74.2664725 113.7097137  99.8954491  77.2276264
 113.9283147 100.8271598  77.2464298 114.1222911  99.5362465  78.0131068
 120.6301355  90.4022576  69.2151952 119.8202083  90.0569661  69.5907198
 121.3185772  90.0930120  69.8039564 118.5825002  95.4687696  86.6179013
 118.4821729  96.4182053  86.5491104 118.3646544  95.1405935  85.7455083
 117.7838074  92.7172621  63.2019690 118.6457238  93.0427520  63.4615507
 117.9688418  91.9304117  62.6892756 109.8005489 100.7994961  75.4799879
 109.1068961 100.3848914  74.9669833 110.5478480 100.8415498  74.8833298
 118.4456272  98.8984835  85.4344074 117.9623354  99.6985195  85.6407963
 118.5317211  98.9092780  84.4811518 111.7142232 100.7313215  73.3565894
 111.6912920 100.8300902  72.4047777 112.0242869 101.5778366  73.6783060
 114.3729610 102.7889370  77.4712508 115.3272863 102.7573312  77.4042440
 114.1742133 102.3279994  78.2862734 114.9628992 101.3590486  80.0383306
 115.7821881 101.8534565  80.0618143 115.2365800 100.4422454  80.0100873
 112.7279839 108.3308989  74.4882706 112.5934307 107.5709390  73.9220704
 112.3111901 109.0549889  74.0211495 110.2163906  95.6928620  80.7375503
 110.8622770  95.1827574  81.2262728 110.0081057  96.4297301  81.3118928
 118.7367517  89.9568664  66.4899399 118.7246187  90.9010504  66.6467670
 119.6290939  89.7738810  66.1958860 114.5561397  92.8396237  84.8350517
 115.4192859  92.4833042  85.0453842 113.9826808  92.5010132  85.5225921
  52.4780909  -5.4878080  57.1705900  52.4004939  -4.5370255  57.2494381
  51.8742553  -5.8332208  57.8280827  50.1167739  -2.7392686  61.3154102
  50.3564337  -2.1074162  61.9933121  49.2736936  -3.0904646  61.6019462
  50.5912571  -6.7144684  58.6452881  49.9222946  -6.2298556  58.1616921
  50.4525441  -6.4675464  59.5596259  54.7317840  -4.6800941  65.2435539
  55.2836148  -4.5169319  66.0084624  55.0724033  -4.0896503  64.5715564
  47.6917313  -6.6380394  61.2128013  47.5571781  -7.3979993  60.6466011
  47.2749375  -5.9139494  60.7456801  50.8486439  -5.7411077  61.4246455
  50.7318823  -4.7965645  61.3225146  50.0278885  -6.0437515  61.8132254
  51.8740953  -5.0882815  64.6402384  52.7768200  -5.0559205  64.9568879
  51.6478323  -6.0182364  64.6548719  66.1736955  -0.5463862  62.3019749
  65.8355466  -0.6622797  61.4140284  67.0426723  -0.9472697  62.2820756
  62.0323770   1.3071614  58.2916640  61.4688636   1.2161551  57.5232928
  61.9176166   0.4871519  58.7719133  66.6556738   0.6070990  68.2605955
  66.6445379   0.2123788  67.3886459  66.8177377  -0.1262938  68.8539726
  59.5788202   2.8022806  61.1300861  60.3709494   2.4613631  60.7147160
  59.8184853   2.9117781  62.0503014  67.6123329   4.9742582  53.6031105
  66.9611309   5.5596662  53.2165119  68.4067692   5.5048777  53.6626143
  61.5378956   2.0631719  54.0018240  62.3109832   1.5160706  53.8631115
  61.8904355   2.9275968  54.2132701  63.3763999   3.3908101  67.2085139
  63.0853865   4.2953732  67.0931805  64.0120983   3.4324629  67.9229208
  64.3020206   0.7684950  63.7986499  64.8983778   0.5440972  63.0843461
  64.3595177   0.0269695  64.4011946  69.0898594   2.6633014  54.1400090
  68.4544427   2.7367640  54.8520994  68.7596001   3.2526613  53.4619169
  63.5941523   0.1252491  53.8361064  63.4777781  -0.5502605  54.5042149
  63.7043783  -0.3615135  53.0193218  65.9373064  -0.4137362  57.5407754
  65.5731271  -0.9406741  58.2520675  66.7940180  -0.8038893  57.3674239
  68.3353884   3.0769517  64.2034933  68.0354607   3.9794556  64.0950740
  67.9904944   2.8101700  65.0556085  61.7866365  -0.4716686  60.2371637
  60.8616862  -0.6040472  60.4449329  62.0350779   0.3077533  60.7341579
  59.1475177  -0.8283413  61.0715426  59.2767558  -0.5748934  61.9854838
  58.4672628  -0.2355705  60.7520081  63.3174664   9.8413837  57.1705900
  63.2398694  10.7921662  57.2494381  62.7136307   9.4959710  57.8280827
  64.0638266  -0.1772844  69.3885234  64.8052950   0.3612200  69.1120058
  63.3575251   0.4493445  69.5456786  69.5393606   1.9656297  67.9857396
  69.9476962   1.5238707  67.2412028  68.8170867   1.3908924  68.2391589
  69.8622420   2.5257487  61.7409685  69.2331283   2.6903201  61.0385752
  69.4748082   2.9399097  62.5120649  73.7411652   3.4611925  59.0954048
  73.0562690   3.8410826  58.5451082  73.8255501   4.0707252  59.8285996
  70.9962584   1.1071884  65.6949392  71.2079479   1.7503644  65.0183773
  70.9492332   0.2734201  65.2271322  65.4150382   2.2631895  59.0059770
  65.8788728   2.5419598  58.2164392  65.1507180   1.3615340  58.8232860
  62.3074463   1.8103377  61.9439533  62.8775820   2.2390645  61.3057017
  62.8982575   1.5285961  62.6423719  58.0944602  -3.3561400  61.1166468
  57.3043656  -3.1003871  60.6406579  58.5855849  -2.5413062  61.2218509
  72.1108412   3.9843839  63.8671749  72.9325855   3.5824027  63.5854431
  72.1070814   3.8812074  64.8187865  60.0459347  -2.9916820  58.0749945
  59.2490511  -2.8798126  58.5933441  59.8184940  -2.6530168  57.2090836
  65.8765015   3.5327883  66.0232460  65.9409448   3.9948290  66.8590632
  65.1675939   2.9025248  66.1514770  56.3782305  -3.1030909  63.5481459
  56.6290343  -2.2183899  63.8139035  56.9141853  -3.2826308  62.7756551
  65.5913033   5.1995990  55.8911440  65.4558708   6.0447526  56.3196288
  66.1322845   5.4015268  55.1277374  59.0442430   2.7171428  56.4639365
  59.5566951   3.5114679  56.6144930  59.6965143   2.0197719  56.3972967
  60.8537315   5.8337185  58.5462118  61.0303943   6.7555149  58.3583102
  61.6494148   5.5195604  58.9756498  60.1389671  -2.1198184  68.4224281
  60.0243186  -3.0212926  68.7231380  59.2834189  -1.8734487  68.0709098
  67.2181509   5.8219557  70.0211782  66.7745363   5.0355935  69.7032687
  67.8798723   6.0098707  69.3555673  61.9768630   7.3515358  64.5472461
  62.5276055   7.2232422  63.7749455  61.1380106   7.6510247  64.1967353
  69.3162747   6.1022357  68.0493183  69.2981223   6.9231238  67.5573453
  70.2382667   5.9776432  68.2743325  65.7735801   3.6166486  68.8916692
  66.3064138   2.8554774  68.6616000  65.2449882   3.3240138  69.6340846
  57.0091347   1.0460083  57.2398936  57.8466569   1.4557091  57.0232643
  57.1869615   0.1059525  57.2099130  67.1388514   2.7452479  56.4035504
  66.6109876   2.0105238  56.0908741  66.6376017   3.5227155  56.1575472
  72.1181360   0.9401499  61.5202550  71.4605034   1.6300761  61.6082679
  72.9221759   1.3297931  61.8636536  65.2841114   0.5632689  49.4070477
  64.3768176   0.3321942  49.6061626  65.7812146  -0.2329692  49.5944458
  68.1909193   9.2730196  52.3267163  67.5170892   9.5761893  52.9352121
  68.5775015  10.0759276  51.9772620  66.4629348   0.6645284  53.9294467
  65.5540567   0.3804317  54.0266937  66.4924431   1.0844362  53.0697774
  71.6948615   4.2751873  57.6985634  71.2410942   3.4342783  57.7550825
  71.0642582   4.9113272  58.0360415  70.1381554   6.1128370  58.6335453
  70.4304529   6.6733427  57.9147818  70.6480175   6.4056931  59.3888612
  57.0317518  -1.6149202  57.9109669  56.8341918  -2.2079841  57.1860736
  56.4764182  -1.9196992  58.6285608  66.1605435   2.2054027  51.2682545
  65.7224865   1.4889886  50.8088183  66.9015876   2.4330142  50.7067637
  65.1015179   6.8908721  59.7228906  65.0591358   7.1169567  58.7937438
  66.0177878   6.6572096  59.8714707  74.3047930   2.5487751  62.3370136
  74.7384437   2.4563041  63.1853190  75.0179511   2.5245252  61.6990152
  63.2180980   3.7671750  59.5190869  64.0121579   3.2722070  59.3173443
  62.5072673   3.2389613  59.1558574  68.0375825   6.1489846  63.8703236
  68.0912847   6.7180782  64.6380952  67.1690606   6.3191731  63.5057273
  59.5263744  -2.0885168  55.5950621  58.5961332  -2.1500713  55.8120583
  59.6221216  -2.6109215  54.7987262  75.1663479   2.5911452  64.8703021
  75.3599369   3.4957263  65.1162296  75.0664098   2.1318871  65.7041606
  70.2278588   2.7418195  70.4443902  70.0764094   2.5128747  69.5273985
  70.2183268   3.6988796  70.4575247  66.9963924   0.3150108  65.4290168
  67.9255984   0.4661267  65.2559135  66.5754955   0.4034128  64.5738814
  65.7952256   4.3400772  63.1988706  65.6563342   3.9719556  64.0714644
  65.0066852   4.8548411  63.0272663  66.3900408   9.4409869  54.5414242
  66.5652164   8.9697912  55.3559865  65.7033196  10.0675635  54.7695503
  67.3457471   3.7182375  60.5877543  67.0107304   3.6783145  61.4835193
  66.8461417   3.0527091  60.1147954  61.3201715  -0.8749995  66.1130125
  61.1821513  -1.6069756  66.7141664  62.2306639  -0.9641095  65.8314312
  70.2816663   1.0638409  50.8614603  69.6645834   0.3385237  50.7647656
  69.8133152   1.8247769  50.5181677  63.9484016  -1.1630036  65.6013804
  64.6583635  -1.8036844  65.5600423  63.9053324  -0.9117141  66.5239985
  71.9370795   5.7737317  68.5220383  71.8783341   5.0896538  67.8550966
  72.3390313   6.5156307  68.0701009  60.9561494  12.5899231  61.3154102
  61.1958092  13.2217755  61.9933121  60.1130690  12.2387271  61.6019462
  71.9388202   3.7376901  66.7534363  71.0514981   3.4002823  66.8760762
  72.5086753   3.0059933  66.9903128  53.5917349   0.0700993  60.0777414
  54.2788389  -0.2437277  59.4898430  53.4365478   0.9742358  59.8044666
  65.4689355   8.3978354  63.7195606  65.3959527   9.2033325  64.2314911
  65.0266748   8.5970320  62.8943628  65.2579135   7.6350124  57.2298428
  64.4746657   8.1771804  57.3236652  65.9571880   8.1524103  57.6292669
  67.9288039   8.2965188  65.8753765  68.6416011   8.9312653  65.8029666
  67.4378068   8.3929054  65.0593767  69.6505566   2.2016440  57.4471057
  68.7161845   2.3217903  57.2775761  69.8282234   1.2988907  57.1831066
  62.9799952   6.0459631  66.6959336  63.6809412   6.6796114  66.8488730
  62.5095067   6.3874363  65.9354975  71.1054348   4.3877581  54.9807243
  71.3814192   4.2734176  55.8901117  70.2358847   3.9895066  54.9419416
  67.7408412   8.6363932  58.6240056  67.9230807   7.8185588  59.0867809
  68.5641398   8.8531624  58.1864946  68.0750578   7.5632117  55.8855105
  68.6038344   7.0524572  55.2725267  68.3378797   7.2474647  56.7500638
  66.8288811  -0.6575950  71.0077923  66.1529448  -0.7581821  71.6780298
  67.6516445  -0.8136737  71.4713920  58.5767671   5.5795986  63.6290438
  59.1621107   4.8339674  63.7618343  58.3792509   5.8899943  64.5127102
  61.4306326   8.6147234  58.6452881  60.7616701   9.0993361  58.1616921
  61.2919195   8.8616454  59.5596259  53.1685325  -1.8498414  62.3494882
  53.2069425  -2.3834823  63.1432000  52.6625618  -2.3763208  61.7305859
  65.5711594  10.6490977  65.2435539  66.1229902  10.8122599  66.0084624
  65.9117788  11.2395415  64.5715564  70.4222469   5.4752235  71.0984194
  70.9662373   6.0882193  70.6039148  69.8409313   6.0331813  71.6151207
  56.7993903  -3.1234311  55.4248813  57.0947344  -4.0323633  55.3715867
  55.8981939  -3.1446572  55.1029815  68.7079982   8.5972953  62.2299221
  68.5831121   7.7962693  61.7210167  69.3659073   9.0919146  61.7413191
  70.7714890   6.3981973  63.8578771  69.8245226   6.2787324  63.7857098
  71.1197663   5.5104471  63.9405033  67.7761323   6.1934689  60.0583124
  67.6286286   5.2651396  60.2390694  68.6014817   6.2154780  59.5740199
  71.3795445   7.0163248  61.1447996  72.3041993   6.8106109  61.0072448
  71.2110748   6.7679649  62.0537338  71.1690761   7.5348915  56.5010088
  71.3427639   6.9695338  55.7483940  71.6619653   8.3349810  56.3189578
  56.9867721  -0.4536416  64.5673647  56.4421189   0.3223392  64.6993921
  57.8647071  -0.1065611  64.4092768  72.1565934   6.8515680  53.6006986
  72.8516838   7.4722372  53.8194301  72.4989084   6.0011031  53.8759364
  57.7733743  -1.3266519  67.4603804  57.0315479  -1.1783884  68.0468434
  57.4526487  -1.0658254  66.5970553  74.0557357   4.3015385  55.1294317
  74.5808681   4.6402658  54.4043637  73.9679709   3.3662400  54.9457452
  65.7177406   8.2149459  67.2584194  66.0264532   7.9698606  68.1306893
  66.5152888   8.4196097  66.7703064  65.7398018  10.3687368  59.4889570
  65.3003008   9.8763747  60.1822427  66.4906135   9.8260336  59.2481645
  58.2190357   6.5598909  59.4914198  59.0448377   6.2602681  59.1112842
  57.8684409   5.7906532  59.9403987  63.1871890   5.9125377  61.5611872
  62.5651899   5.2496082  61.2614100  63.8576757   5.9386509  60.8785520
  56.4198962   4.4785236  60.4503132  55.5830870   4.0507410  60.2687133
  56.3922607   4.6717679  61.3873923  73.7451263   4.9348289  70.4345515
  72.9546807   4.9172428  69.8950014  73.5084618   5.4736582  71.1894551
  62.7485397   4.4629301  55.0370332  62.8973517   5.1464765  54.3837005
  63.5551840   4.4434391  55.5519788  75.3667335   4.2037697  67.9920265
  75.0752143   4.5667677  68.8283726  74.7539466   3.4904705  67.8133597
  60.5038030   0.4894478  56.0431401  60.2584072  -0.4143192  56.2411611
  60.6733944   0.4911629  55.1010879  66.2480802   6.9577431  52.5082080
  65.6754769   7.5767618  52.0552552  66.8213596   7.5076793  53.0422002
  69.4678062   7.2414581  53.6390662  70.4008735   7.1760143  53.8423538
  69.3801275   8.0770848  53.1805195  72.0966079   6.5580452  50.5994610
  72.0179710   6.2240315  51.4930367  72.9175746   7.0502220  50.5986082
  66.5166293   2.3455990  71.3098789  67.4369303   2.5234589  71.5038836
  66.4815876   1.4012036  71.1578488  55.7348458  -2.4605416  60.2352064
  55.4151243  -3.3140108  59.9426438  55.1881886  -2.2456838  60.9910031
  59.5128366   0.2557025  63.9521570  59.7314376   1.1874133  63.9709604
  59.9254140  -0.1035001  64.7376374  55.6036718   1.1597495  62.2045185
  54.9100190   0.7451448  61.6915140  56.3509709   1.2018032  61.6078604
  64.2487501  -0.7412631  72.1589381  63.7654583   0.0587730  72.3653270
  64.3348440  -0.7304686  71.2056825  57.5173461   1.0915749  60.0811200
  57.4944149   1.1903436  59.1293083  57.8274097   1.9380900  60.4028366
  60.1760839   3.1491904  64.1957815  61.1304092   3.1175846  64.1287746
  59.9773362   2.6882528  65.0108041  60.7660221   1.7193020  66.7628612
  61.5853110   2.2137099  66.7863450  61.0397029   0.8024988  66.7346180
  58.5311067   8.6911524  61.2128013  58.3965535   7.9311924  60.6466011
  58.1143130   9.4152423  60.7456801  69.6670031   3.8748447  50.2204588
  70.3705881   4.0798450  50.8362244  68.9432679   4.4425209  50.4853671
  61.6880193   9.5880841  61.4246455  61.5712578  10.5326273  61.3225146
  60.8672640   9.2854402  61.8132254  71.5756728   4.3130976  52.2703048
  72.4102332   3.8812175  52.0880523  71.4141071   4.1412990  53.1979942
  71.2302620   0.8163090  53.6359387  71.1751424   0.6507361  52.6947831
  70.6048675   1.5239123  53.7921577  56.0195135  -3.9468846  67.4620809
  56.6653999  -4.4569892  67.9508035  55.8112286  -3.2100164  68.0364235
  68.5448527   3.1212002  72.9612950  69.4139687   3.2952654  72.5999585
  68.0655279   3.9406418  72.8388679  62.7134707  10.2409103  64.6402384
  63.6161954  10.2732713  64.9568879  62.4872078   9.3109553  64.6548719
  64.4688310   8.9940089  61.3012462  63.5183941   8.9941951  61.1876835
  64.7720796   8.2472824  60.7848497  80.2041003  14.8300627  62.3658225
  80.8419413  14.7107375  61.6621565  80.0861846  15.7781471  62.4246177
  77.0130709  14.7828056  62.3019749  76.6749221  14.6669120  61.4140284
  77.8820477  14.3819221  62.2820756  72.8717525  16.6363532  58.2916640
  72.3082390  16.5453469  57.5232928  72.7569920  15.8163436  58.7719133
  77.4950492  15.9362907  68.2605955  77.4839133  15.5415706  67.3886459
  77.6571132  15.2028980  68.8539726  70.4181957  18.1314724  61.1300861
  71.2103249  17.7905548  60.7147160  70.6578607  18.2409699  62.0503014
  78.4517084  20.3034500  53.6031105  77.8005063  20.8888580  53.2165119
  79.2461447  20.8340695  53.6626143  72.3772711  17.3923637  54.0018240
  73.1503587  16.8452624  53.8631115  72.7298110  18.2567886  54.2132701
  74.2157753  18.7200019  67.2085139  73.9247619  19.6245650  67.0931805
  74.8514738  18.7616547  67.9229208  75.1413960  16.0976868  63.7986499
  75.7377533  15.8732890  63.0843461  75.1988932  15.3561613  64.4011946
  74.7138989  13.5516303  51.6336690  74.9664509  13.0297824  50.8720153
  73.7763548  13.3882448  51.7363373  79.7582271  12.5552081  59.4411433
  80.5445361  12.1371504  59.0901850  80.0220976  13.4598173  59.6093081
  79.9292349  17.9924932  54.1400090  79.2938182  18.0659558  54.8520994
  79.5989755  18.5818530  53.4619169  85.1590699  12.4927315  60.3444411
  85.8915871  11.9226531  60.5782241  84.4030054  12.1048915  60.7850917
  74.4335277  15.4544409  53.8361064  74.3171536  14.7789312  54.5042149
  74.5437537  14.9676783  53.0193218  76.7766818  14.9154556  57.5407754
  76.4125026  14.3885177  58.2520675  77.6333934  14.5253025  57.3674239
  82.6816119   6.2048889  64.8039020  82.3499444   7.0744300  64.5800235
  82.0861732   5.8885173  65.4833050  76.4172305   9.9444456  52.5369102
  76.5846708  10.8124692  52.9039573  76.2269474  10.1071737  51.6130391
  79.1747638  18.4061435  64.2034933  78.8748362  19.3086473  64.0950740
  78.8298698  18.1393618  65.0556085  72.6260120  14.8575231  60.2371637
  71.7010616  14.7251446  60.4449329  72.8744533  15.6369451  60.7341579
  82.5744782  10.9243975  61.8832370  81.6661660  10.8559383  61.5891131
  82.5232378  11.4015920  62.7114195  76.3961526  12.4002113  53.5215769
  76.2761151  12.8459164  54.3601249  75.7014115  12.7487431  52.9629307
  69.9868931  14.5008505  61.0715426  70.1161312  14.7542984  61.9854838
  69.3066382  15.0936213  60.7520081  74.1568418  25.1705755  57.1705900
  74.0792448  26.1213580  57.2494381  73.5530062  24.8251627  57.8280827
  76.6485648  12.3433620  69.8267267  75.8718982  12.9027541  69.8170132
  77.2876211  12.8290403  70.3482137  84.4406429   9.1260413  63.6610244
  83.7980809   9.4192946  63.0150038  83.9361357   9.0113334  64.4663441
  82.0946592  12.8723586  54.3496103  83.0064448  13.1050973  54.1743801
  81.5856239  13.4560631  53.7871182  74.9032020  15.1519074  69.3885234
  75.6446705  15.6904118  69.1120058  74.1969006  15.7785362  69.5456786
  80.3787360  17.2948214  67.9857396  80.7870716  16.8530625  67.2412028
  79.6564622  16.7200842  68.2391589  76.7318430  12.2320821  65.3590953
  77.5779625  12.6560235  65.5025602  76.6717068  11.5754445  66.0529516
  80.7016175  17.8549405  61.7409685  80.0725037  18.0195119  61.0385752
  80.3141837  18.2691014  62.5120649  84.5805407  18.7903843  59.0954048
  83.8956445  19.1702744  58.5451082  84.6649256  19.3999169  59.8285996
  79.8817875   9.8925189  67.0172126  79.6378807  10.6467250  66.4806402
  80.1577806  10.2710537  67.8519373  81.8356338  16.4363802  65.6949392
  82.0473233  17.0795562  65.0183773  81.7886086  15.6026118  65.2271322
  79.4382567   9.0481622  62.5985964  78.5767046   9.3462876  62.8902702
  79.4645002   9.2652021  61.6666997  76.2544137  17.5923813  59.0059770
  76.7182482  17.8711516  58.2164392  75.9900935  16.6907257  58.8232860
  73.1468218  17.1395294  61.9439533  73.7169575  17.5682563  61.3057017
  73.7376329  16.8577879  62.6423719  75.1913023  13.7146965  55.8149335
  75.8937066  14.1668009  56.2823261  74.8593651  13.0730784  56.4429228
  73.6393384  12.3058722  70.1900544  73.0092045  12.9875003  70.4235941
  73.5329472  12.1941804  69.2453682  68.9338357  11.9730518  61.1166468
  68.1437411  12.2288046  60.6406579  69.4249604  12.7878856  61.2218509
  82.9502166  19.3135757  63.8671749  83.7719610  18.9115944  63.5854431
  82.9464569  19.2103991  64.8187865  70.8853102  12.3375097  58.0749945
  70.0884265  12.4493791  58.5933441  70.6578694  12.6761749  57.2090836
  76.7158770  18.8619800  66.0232460  76.7803202  19.3240208  66.8590632
  76.0069693  18.2317165  66.1514770  67.2176060  12.2261008  63.5481459
  67.4684098  13.1108018  63.8139035  67.7535608  12.0465610  62.7756551
  91.0408159  15.6574506  60.2156721  90.2871868  15.0881904  60.0600725
  91.1755700  15.6237170  61.1627355  76.4306787  20.5287908  55.8911440
  76.2952462  21.3739444  56.3196288  76.9716600  20.7307186  55.1277374
  72.9174127   6.6079488  72.5525795  72.5241072   6.0545686  73.2273439
  73.7340267   6.9190066  72.9432313  69.8836185  18.0463346  56.4639365
  70.3960705  18.8406596  56.6144930  70.5358897  17.3489636  56.3972967
  71.6931069  21.1629102  58.5462118  71.8697698  22.0847067  58.3583102
  72.4887903  20.8487521  58.9756498  75.8342088   8.0237367  70.1446052
  76.5751801   8.6244520  70.0650514  76.0660011   7.2815005  69.5864094
  70.9783426  13.2093734  68.4224281  70.8636941  12.3078991  68.7231380
  70.1227944  13.4557431  68.0709098  78.0575264  21.1511474  70.0211782
  77.6139118  20.3647853  69.7032687  78.7192477  21.3390625  69.3555673
  72.8162385  22.6807276  64.5472461  73.3669810  22.5524339  63.7749455
  71.9773861  22.9802165  64.1967353  80.1556502  21.4314274  68.0493183
  80.1374977  22.2523155  67.5573453  81.0776422  21.3068350  68.2743325
  76.6129556  18.9458404  68.8916692  77.1457893  18.1846692  68.6616000
  76.0843637  18.6532056  69.6340846  79.7799251   4.0518470  64.4210333
  79.4363520   4.9420111  64.3449444  80.1478213   3.8620127  63.5579918
  67.8485101  16.3752000  57.2398936  68.6860323  16.7849009  57.0232643
  68.0263369  15.4351442  57.2099130  79.7449534  14.0427081  52.9282769
  79.2296157  14.8131686  53.1671156  79.4726842  13.3692217  53.5515830
  77.3296645   8.8876782  57.9868007  76.4738241   8.4983632  57.8073646
  77.7423596   8.9668742  57.1267792  78.8595791   6.4223125  62.3859567
  78.3560587   6.3853260  61.5727372  79.1526398   7.3315868  62.4456223
  75.1038677   6.5061855  61.3925748  75.9691674   6.3104663  61.0331638
  75.1716186   6.2772206  62.3195105  84.7183808  16.7959436  54.8635942
  83.9413250  16.4570595  54.4191104  85.3975289  16.8012059  54.1890907
  79.5335837  11.9154173  54.7542550  79.2285972  12.2300322  55.6052693
  80.4866279  11.9935593  54.7969883  77.9782269  18.0744396  56.4035504
  77.4503630  17.3397156  56.0908741  77.4769771  18.8519073  56.1575472
  82.9575115  16.2693417  61.5202550  82.2998789  16.9592678  61.6082679
  83.7615514  16.6589849  61.8636536  72.7100996   8.7364063  58.7642115
  73.2844748   8.5139244  58.0315308  73.2971979   8.8052757  59.5170717
  81.7680573  14.6237789  59.5706492  82.2812455  15.2567781  60.0728202
  82.4181797  14.0238985  59.2049852  73.0370583  10.7668524  52.7838001
  72.2007895  11.1043210  53.1047275  72.8975353  10.6317503  51.8465138
  75.0123664   5.6105311  57.4917185  74.3588076   5.2954329  56.8673799
  74.9704138   4.9881052  58.2177008  76.1234869  15.8924607  49.4070477
  75.2161930  15.6613860  49.6061626  76.6205901  15.0962226  49.5944458
  79.0302948  24.6022114  52.3267163  78.3564646  24.9053811  52.9352121
  79.4168770  25.4051194  51.9772620  78.2461404  12.0987245  61.8164832
  77.3283966  12.3202192  61.6586520  78.6621548  12.1733556  60.9576540
  79.0296452  13.4978661  56.9467513  79.7768271  14.0100058  56.6374635
  79.2988042  13.1762713  57.8071906  77.3023102  15.9937201  53.9294467
  76.3934321  15.7096234  54.0266937  77.3318186  16.4136280  53.0697774
  82.5342370  19.6043791  57.6985634  82.0804697  18.7634701  57.7550825
  81.9036336  20.2405189  58.0360415  81.4775289  10.5335777  58.9286302
  80.7398046  10.0213163  59.2596544  81.7302063  10.0936159  58.1169579
  80.9775309  21.4420288  58.6335453  81.2698283  22.0025345  57.9147818
  81.4873929  21.7348849  59.3888612  67.8711273  13.7142716  57.9109669
  67.6735672  13.1212076  57.1860736  67.3157937  13.4094926  58.6285608
  75.8507996  13.6065822  60.0304262  75.9056606  12.6539658  59.9546739
  75.0399198  13.7625261  60.5145561  76.9999190  17.5345945  51.2682545
  76.5618620  16.8181804  50.8088183  77.7409631  17.7622060  50.7067637
  73.7900356  12.2242882  57.7894641  72.9768222  12.5237052  58.1959833
  74.2859350  11.8298571  58.5069123  75.9408934  22.2200639  59.7228906
  75.8985113  22.4461485  58.7937438  76.8571633  21.9864013  59.8714707
  79.3874568  12.6884706  66.6209535  79.7423956  12.9156179  67.4804001
  80.0346699  13.0203083  65.9986790  85.1172305  15.8103142  57.3258864
  84.9790203  16.0004738  56.3980053  84.7608524  16.5722525  57.7826915
  73.2814431   9.7961237  63.4055876  73.9213810   9.6549996  62.7078839
  72.4491961   9.5095751  63.0294478  85.1441684  17.8779669  62.3370136
  85.5778191  17.7854958  63.1853190  85.8573265  17.8537170  61.6990152
  74.0574735  19.0963668  59.5190869  74.8515333  18.6013988  59.3173443
  73.3466427  18.5681531  59.1558574  78.8769579  21.4781763  63.8703236
  78.9306602  22.0472700  64.6380952  78.0084361  21.6483648  63.5057273
  70.3657498  13.2406749  55.5950621  69.4355086  13.1791205  55.8120583
  70.4614970  12.7182702  54.7987262  70.2843047   9.7661562  58.1828863
  70.5449865  10.6806896  58.0738023  71.1060220   9.2986005  58.3325476
  71.7567973  11.1799319  65.3527687  72.4291026  10.9716682  64.7040336
  70.9297759  10.9821405  64.9132920  86.0057234  17.9203370  64.8703021
  86.1993124  18.8249180  65.1162296  85.9057852  17.4610789  65.7041606
  77.6593545   7.8061260  67.3693348  77.0121460   8.5051210  67.2757825
  78.4294560   8.2397404  67.7369596  81.0672343  18.0710113  70.4443902
  80.9157849  17.8420664  69.5273985  81.0577022  19.0280714  70.4575247
  77.8357679  15.6442025  65.4290168  78.7649739  15.7953185  65.2559135
  77.4148709  15.7326046  64.5738814  76.6346011  19.6692690  63.1988706
  76.4957096  19.3011474  64.0714644  75.8460607  20.1840329  63.0272663
  77.2294163  24.7701786  54.5414242  77.4045918  24.2989829  55.3559865
  76.5426951  25.3967552  54.7695503  78.1851226  19.0474292  60.5877543
  77.8501059  19.0075062  61.4835193  77.6855172  18.3819008  60.1147954
  72.1595470  14.4541922  66.1130125  72.0215268  13.7222161  66.7141664
  73.0700393  14.3650823  65.8314312  81.1210418  16.3930327  50.8614603
  80.5039588  15.6677155  50.7647656  80.6526906  17.1539687  50.5181677
  74.7877771  14.1661882  65.6013804  75.4977389  13.5255074  65.5600423
  74.7447079  14.4174777  66.5239985  82.7764549  21.1029235  68.5220383
  82.7177095  20.4188455  67.8550966  83.1784068  21.8448225  68.0701009
  73.5006705  11.1527100  67.4209444  72.9644062  10.7017838  68.0731040
  72.9123413  11.2873008  66.6779908  71.7955248  27.9191149  61.3154102
  72.0351846  28.5509673  61.9933121  70.9524444  27.5679189  61.6019462
  72.9108963  10.6115751  49.9835907  72.0338430  10.4904552  49.6198154
  73.3866717   9.8201829  49.7314796  82.7781956  19.0668819  66.7534363
  81.8908735  18.7294741  66.8760762  83.3480508  18.3351850  66.9903128
  64.4311104  15.3992911  60.0777414  65.1182143  15.0854641  59.4898430
  64.2759232  16.3034275  59.8044666  69.2345826  10.2883107  64.5062438
  69.1504014   9.6808777  63.7712848  68.4128532  10.7792126  64.5071935
  76.3083110  23.7270271  63.7195606  76.2353281  24.5325243  64.2314911
  75.8660503  23.9262237  62.8943628  76.0972889  22.9642041  57.2298428
  75.3140411  23.5063722  57.3236652  76.7965635  23.4816021  57.6292669
  79.4069540   8.7736671  59.8732633  79.9038239   8.0206633  59.5533703
  78.6356521   8.8100988  59.3075843  87.2599297  14.4777036  61.5150925
  87.2489173  15.3601752  61.1444858  86.3916676  14.1248587  61.3205462
  78.7681793  23.6257105  65.8753765  79.4809766  24.2604570  65.8029666
  78.2771822  23.7220971  65.0593767  80.4899320  17.5308358  57.4471057
  79.5555599  17.6509821  57.2775761  80.6675989  16.6280825  57.1831066
  75.9904508  10.9154054  59.6004318  75.6202296  10.3625094  60.2885223
  76.4863601  10.3112187  59.0479318  83.8771872  13.3725677  57.9821091
  84.3432324  14.2053669  57.9081393  84.3279372  12.9070659  58.6866349
  73.8193707  21.3751549  66.6959336  74.5203166  22.0088032  66.8488730
  73.3488822  21.7166280  65.9354975  81.9448103  19.7169499  54.9807243
  82.2207947  19.6026093  55.8901117  81.0752602  19.3186984  54.9419416
  81.8488534   5.7406264  62.0211992  80.9351614   5.9710491  62.1894199
  82.2781636   5.8244708  62.8726024  81.6194993  13.9296156  64.5211886
  80.9666443  14.1772064  63.8664339  81.9975373  13.1160295  64.1874363
  78.5802167  23.9655850  58.6240056  78.7624561  23.1477505  59.0867809
  79.4035153  24.1823542  58.1864946  78.9144332  22.8924035  55.8855105
  79.4432099  22.3816489  55.2725267  79.1772552  22.5766565  56.7500638
  77.6682566  14.6715967  71.0077923  76.9923203  14.5710097  71.6780298
  78.4910200  14.5155181  71.4713920  69.4161425  20.9087904  63.6290438
  70.0014862  20.1631592  63.7618343  69.2186263  21.2191861  64.5127102
  72.2700080  23.9439151  58.6452881  71.6010455  24.4285279  58.1616921
  72.1312950  24.1908372  59.5596259  64.0079080  13.4793504  62.3494882
  64.0463179  12.9457095  63.1432000  63.5019373  12.9528710  61.7305859
  76.4105349  25.9782895  65.2435539  76.9623657  26.1414516  66.0084624
  76.7511542  26.5687333  64.5715564  71.3869842   8.3258045  65.8457424
  71.4511169   9.1872876  65.4334822  71.3236962   7.7132046  65.1129782
  70.8622115  10.3981177  69.4930458  71.4894153  10.0158255  70.1067982
  70.0050033  10.1795379  69.8586151  81.2616223  20.8044152  71.0984194
  81.8056127  21.4174111  70.6039148  80.6803068  21.3623731  71.6151207
  67.6387657  12.2057606  55.4248813  67.9341098  11.2968285  55.3715867
  66.7375693  12.1845346  55.1029815  79.5473736  23.9264870  62.2299221
  79.4224876  23.1254610  61.7210167  80.2052827  24.4211064  61.7413191
  71.1681904  10.2813603  61.4076362  70.4468490  10.8949571  61.2683835
  71.9575160  10.8171368  61.3293008  81.6108644  21.7273890  63.8578771
  80.6638980  21.6079242  63.7857098  81.9591418  20.8396388  63.9405033
  73.9708218   7.6168029  67.6817013  74.4942620   7.8630326  68.4443323
  73.7520551   8.4488064  67.2620151  69.3675499   9.8871704  55.5488138
  69.0388205   9.0069083  55.3663244  69.7214870   9.8319373  56.4364527
  78.6155078  21.5226607  60.0583124  78.4680040  20.5943314  60.2390694
  79.4408571  21.5446697  59.5740199  72.4817322  10.1744674  55.9163616
  72.8213395  10.7030595  55.1942224  72.9289443  10.5125080  56.6922182
  82.2189200  22.3455165  61.1447996  83.1435747  22.1398027  61.0072448
  82.0504503  22.0971567  62.0537338  75.1760763   8.5581724  65.3666684
  74.8357583   7.7589538  65.7687364  74.4699769   8.8583435  64.7943517
  75.8277235   5.6431037  63.8194007  76.6503304   5.1691515  63.6972897
  76.0715298   6.4221521  64.3192693  74.4685469   8.6719295  54.1156909
  75.1893832   9.0500548  53.6120625  73.8450773   9.3908172  54.2191887
  78.6116592   9.3764444  55.0515241  78.8280206  10.2589082  54.7504069
  78.1310659   8.9850658  54.3220883  73.3515813  12.3350158  61.6285985
  73.2060394  12.6490461  62.5210267  72.8741017  12.9535058  61.0756884
  75.2112196   9.3252706  61.6766875  75.1973765   8.4293799  61.3399173
  75.9284624   9.3323369  62.3105161  77.0638327   9.7590046  63.7220002
  76.8056105  10.6807116  63.7204333  76.5323367   9.3620480  64.4120467
  82.0084516  22.8640833  56.5010088  82.1821393  22.2987255  55.7483940
  82.5013407  23.6641728  56.3189578  67.8261476  14.8755502  64.5673647
  67.2814944  15.6515310  64.6993921  68.7040825  15.2226306  64.4092768
  74.6149092   8.2067086  56.9454445  74.7365003   7.2783732  57.1445333
  74.3251135   8.2205772  56.0332761  77.4840283   5.8921996  60.0821165
  77.5061979   5.9561329  59.1273145  77.9008342   5.0526505  60.2761671
  87.8623907  15.6277256  58.1200388  88.3055053  14.8784581  57.7219511
  86.9850417  15.6187392  57.7374120  82.9959688  22.1807597  53.6006986
  83.6910593  22.8014290  53.8194301  83.3382838  21.3302948  53.8759364
  68.6127497  14.0025398  67.4603804  67.8709234  14.1508034  68.0468434
  68.2920242  14.2633664  66.5970553  84.8951111  19.6307303  55.1294317
  85.4202436  19.9694576  54.4043637  84.8073464  18.6954318  54.9457452
  76.5571160  23.5441376  67.2584194  76.8658287  23.2990523  68.1306893
  77.3546642  23.7488015  66.7703064  76.5791772  25.6979286  59.4889570
  76.1396762  25.2055665  60.1822427  77.3299889  25.1552254  59.2481645
  69.0584111  21.8890827  59.4914198  69.8842131  21.5894599  59.1112842
  68.7078163  21.1198449  59.9403987  74.0265644  21.2417295  61.5611872
  73.4045654  20.5788000  61.2614100  74.6970511  21.2678427  60.8785520
  67.2592716  19.8077153  60.4503132  66.4224625  19.3799328  60.2687133
  67.2316362  20.0009597  61.3873923  74.0990172   9.7199083  71.1544378
  74.1478327  10.5961206  70.7722147  74.6412686   9.1776476  70.5816021
  84.5845017  20.2640206  70.4345515  83.7940561  20.2464345  69.8950014
  84.3478372  20.8028500  71.1894551  84.7042893  17.1132673  67.7478243
  84.7540897  16.9482680  68.6893766  84.5956816  16.2459932  67.3576124
  73.5879151  19.7921219  55.0370332  73.7367272  20.4756683  54.3837005
  74.3945595  19.7726309  55.5519788  81.9946655  13.0963601  69.0637550
  82.8956518  12.9570066  68.7721548  82.0694629  13.2618056  70.0035728
  76.3289460  10.4730456  67.9090736  75.4592770  10.7664022  67.6373325
  76.5648941  11.0570901  68.6298000  86.2061089  19.5329614  67.9920265
  85.9145898  19.8959595  68.8283726  85.5933221  18.8196623  67.8133597
  87.4056772  17.0982494  60.5122835  88.2403663  17.5372298  60.6760396
  87.5415900  16.6221147  59.6931081  84.4548278  14.6562229  66.4600323
  84.9302399  14.8489875  65.6519174  83.5313843  14.7121415  66.2143707
  71.3431784  15.8186396  56.0431401  71.0977826  14.9148726  56.2411611
  71.5127699  15.8203547  55.1010879  79.0328494   6.6910073  65.4256157
  79.5510438   7.4271099  65.1002645  78.6783627   6.9974066  66.2602916
  70.6127432  11.5514754  53.5417563  69.9196677  11.6259109  52.8857599
  70.3679184  10.7875097  54.0639080  77.0874557  22.2869349  52.5082080
  76.5148524  22.9059536  52.0552552  77.6607350  22.8368711  53.0422002
  83.1549947  11.5327989  64.6928629  84.1067370  11.6326087  64.7140853
  82.9853397  10.7406258  65.2026713  81.1764326   8.6183572  64.8788029
  80.5814258   8.8988585  64.1834518  80.8914023   9.1077473  65.6504771
  80.3071817  22.5706499  53.6390662  81.2402490  22.5052061  53.8423538
  80.2195029  23.4062766  53.1805195  82.9359833  21.8872369  50.5994610
  82.8573465  21.5532233  51.4930367  83.7569500  22.3794137  50.5986082
  85.6338024  14.7534109  63.8070928  85.6014345  13.8150109  63.9930612
  86.2438648  14.8318145  63.0736753  77.4721355  13.6230162  49.8498132
  78.4180460  13.4936370  49.9186550  77.0935600  12.8844824  50.3267560
  85.7832513  11.5445152  63.8529211  85.2671562  10.7603609  63.6659140
  86.6672461  11.2163869  64.0175731  83.4443240   5.2886168  59.8125024
  83.2468061   4.9801256  60.6968356  84.0542945   6.0147807  59.9422954
  91.4514574  15.8150116  62.9476965  92.1817963  15.5535404  63.5084668
  90.8421520  15.0778838  62.9879033  89.5329871  13.9557978  63.5451416
  88.8063035  13.8213943  62.9367908  89.1177158  14.2634807  64.3508134
  77.3560048  17.6747908  71.3098789  78.2763057  17.8526507  71.5038836
  77.3209631  16.7303953  71.1578488  75.6564272  11.5480138  49.7853017
  74.7495728  11.2513251  49.8615731  75.9340253  11.2509956  48.9187304
  66.5742213  12.8686501  60.2352064  66.2544997  12.0151810  59.9426438
  66.0275641  13.0835080  60.9910031  70.3522120  15.5848942  63.9521570
  70.5708130  16.5166050  63.9709604  70.7647894  15.2256917  64.7376374
  77.2726338   6.0917028  55.9397259  76.4627066   5.7464113  56.3152505
  77.9610755   5.7824572  56.5284870  79.2016886   5.1695075  57.5621555
  79.7547925   5.5890528  58.2211579  79.4386973   4.2430823  57.6044511
  75.2249986  11.1582148  73.3424319  75.1246713  12.1076505  73.2736410
  75.0071528  10.8300387  72.4700389  74.4263057   8.4067073  49.9264997
  75.2882221   8.7321972  50.1860814  74.6113401   7.6198569  49.4138062
  66.4430473  16.4889413  62.2045185  65.7493944  16.0743366  61.6915140
  67.1903464  16.5309949  61.6078604  82.5795694   7.2795600  57.0700220
  81.9994363   7.9380404  56.6878272  82.3131626   6.4572944  56.6587637
  81.0299260   6.6800657  59.2721540  81.5299038   6.7917192  58.4635859
  81.6734868   6.3761710  59.9122348  75.0881256  14.5879287  72.1589381
  74.6048337  15.3879647  72.3653270  75.1742195  14.5987232  71.2056825
  68.3567215  16.4207667  60.0811200  68.3337903  16.5195354  59.1293083
  68.6667852  17.2672818  60.4028366  71.0154593  18.4783822  64.1957815
  71.9697847  18.4467764  64.1287746  70.8167117  18.0174446  65.0108041
  71.6053975  17.0484938  66.7628612  72.4246864  17.5429017  66.7863450
  71.8790783  16.1316906  66.7346180  81.3620572   9.4395690  56.1256568
  80.4746427   9.7245341  55.9076763  81.7774561   9.2789454  55.2783845
  84.7135108   9.4642211  59.8410907  85.4895498   9.9538664  60.1135524
  83.9883242   9.8900265  60.2982777  87.1507666  10.1769830  60.8984848
  87.7452157   9.9365566  60.1878156  87.2234250   9.4576961  61.5258384
  69.3704822  24.0203441  61.2128013  69.2359290  23.2603842  60.6466011
  68.9536884  24.7444341  60.7456801  80.5063785  19.2040365  50.2204588
  81.2099635  19.4090367  50.8362244  79.7826434  19.7717127  50.4853671
  81.3361595  14.9550226  56.3406858  81.2796797  15.4118778  55.5014490
  81.8889938  14.1940911  56.1629701  85.1466401  10.7439958  57.1656978
  84.8903335  10.3436594  57.9965185  84.5219269  11.4583752  57.0407117
  89.4578739  13.4836031  59.6728269  88.8978297  13.5529221  60.4459831
  88.8522242  13.3077016  58.9527765  72.5273948  24.9172758  61.4246455
  72.4106332  25.8618191  61.3225146  71.7066394  24.6146320  61.8132254
  82.4150482  19.6422894  52.2703048  83.2496086  19.2104092  52.0880523
  82.2534825  19.4704908  53.1979942  82.0696375  16.1455007  53.6359387
  82.0145178  15.9799279  52.6947831  81.4442430  16.8531040  53.7921577
  66.8588890  11.3823072  67.4620809  67.5047753  10.8722026  67.9508035
  66.6506041  12.1191753  68.0364235  79.3842282  18.4503919  72.9612950
  80.2533441  18.6244571  72.5999585  78.9049033  19.2698336  72.8388679
  75.3792500   5.6463116  53.2144706  75.3671170   6.5904956  53.3712977
  76.2715922   5.4633262  52.9204167  73.5528462  25.5701020  64.6402384
  74.4555709  25.6024630  64.9568879  73.3265832  24.6401471  64.6548719
  75.3082064  24.3232007  61.3012462  74.3577695  24.3233868  61.1876835
  75.6114550  23.5764741  60.7848497  71.1986381   8.5290689  71.5595824
  72.0617842   8.1727494  71.7699148  70.6251791   8.1904584  72.2471228
  91.0434757  30.1592545  62.3658225  91.6813167  30.0399292  61.6621565
  90.9255600  31.1073389  62.4246177  87.8524464  30.1119973  62.3019749
  87.5142975  29.9961038  61.4140284  88.7214232  29.7111138  62.2820756
  88.3344247  31.2654825  68.2605955  88.3232888  30.8707623  67.3886459
  88.4964886  30.5320898  68.8539726  85.0551508  34.0491937  67.2085139
  84.7641374  34.9537568  67.0931805  85.6908492  34.0908464  67.9229208
  85.9807715  31.4268785  63.7986499  86.5771287  31.2024808  63.0843461
  86.0382686  30.6853531  64.4011946  95.9984453  27.8219232  60.3444411
  96.7309625  27.2518449  60.5782241  95.2423809  27.4340833  60.7850917
  93.5209873  21.5340806  64.8039020  93.1893198  22.4036217  64.5800235
  92.9255487  21.2177090  65.4833050  90.0141393  33.7353352  64.2034933
  89.7142116  34.6378391  64.0950740  89.6692453  33.4685535  65.0556085
  93.4138537  26.2535892  61.8832370  92.5055414  26.1851301  61.5891131
  93.3626133  26.7307837  62.7114195  80.8262686  29.8300423  61.0715426
  80.9555067  30.0834902  61.9854838  80.1460137  30.4228131  60.7520081
  87.4879403  27.6725538  69.8267267  86.7112737  28.2319458  69.8170132
  88.1269966  28.1582321  70.3482137  95.2800183  24.4552331  63.6610244
  94.6374563  24.7484864  63.0150038  94.7755112  24.3405251  64.4663441
  85.7425775  30.4810991  69.3885234  86.4840459  31.0196035  69.1120058
  85.0362760  31.1077280  69.5456786  91.2181115  32.6240132  67.9857396
  91.6264471  32.1822542  67.2412028  90.4958376  32.0492759  68.2391589
  87.5712185  27.5612739  65.3590953  88.4173380  27.9852152  65.5025602
  87.5110822  26.9046363  66.0529516  90.7211630  25.2217107  67.0172126
  90.4772562  25.9759168  66.4806402  90.9971560  25.6002455  67.8519373
  92.6750093  31.7655719  65.6949392  92.8866988  32.4087479  65.0183773
  92.6279841  30.9318036  65.2271322  90.2776322  24.3773540  62.5985964
  89.4160801  24.6754794  62.8902702  90.3038756  24.5943939  61.6666997
  83.9861972  32.4687212  61.9439533  84.5563329  32.8974481  61.3057017
  84.5770084  32.1869797  62.6423719  84.4787139  27.6350640  70.1900544
  83.8485799  28.3166920  70.4235941  84.3723226  27.5233721  69.2453682
  79.7732111  27.3022436  61.1166468  78.9831165  27.5579964  60.6406579
  80.2643358  28.1170773  61.2218509  93.7895921  34.6427675  63.8671749
  94.6113364  34.2407862  63.5854431  93.7858323  34.5395909  64.8187865
  81.7246856  27.6667015  58.0749945  80.9278020  27.7785709  58.5933441
  81.4972449  28.0053667  57.2090836  87.5552524  34.1911718  66.0232460
  87.6196957  34.6532125  66.8590632  86.8463448  33.5609083  66.1514770
  78.0569814  27.5552926  63.5481459  78.3077852  28.4399936  63.8139035
  78.5929362  27.3757528  62.7756551 101.8801914  30.9866423  60.2156721
 101.1265622  30.4173821  60.0600725 102.0149455  30.9529088  61.1627355
  83.7567881  21.9371405  72.5525795  83.3634827  21.3837604  73.2273439
  84.5734022  22.2481984  72.9432313  86.6735842  23.3529285  70.1446052
  87.4145556  23.9536438  70.0650514  86.9053765  22.6106922  69.5864094
  81.8177180  28.5385652  68.4224281  81.7030695  27.6370909  68.7231380
  80.9621698  28.7849349  68.0709098  88.8969018  36.4803392  70.0211782
  88.4532872  35.6939771  69.7032687  89.5586232  36.6682543  69.3555673
  83.6556139  38.0099194  64.5472461  84.2063564  37.8816257  63.7749455
  82.8167615  38.3094083  64.1967353  90.9950256  36.7606192  68.0493183
  90.9768732  37.5815073  67.5573453  91.9170176  36.6360267  68.2743325
  87.4523310  34.2750322  68.8916692  87.9851647  33.5138610  68.6616000
  86.9237391  33.9823973  69.6340846  90.6193005  19.3810387  64.4210333
  90.2757275  20.2712029  64.3449444  90.9871968  19.1912045  63.5579918
  89.6989546  21.7515043  62.3859567  89.1954341  21.7145178  61.5727372
  89.9920153  22.6607785  62.4456223  85.9432432  21.8353772  61.3925748
  86.8085428  21.6396581  61.0331638  86.0109940  21.6064124  62.3195105
  83.5494751  24.0655980  58.7642115  84.1238503  23.8431162  58.0315308
  84.1365733  24.1344675  59.5170717  85.8517418  20.9397229  57.4917185
  85.1981831  20.6246246  56.8673799  85.8097892  20.3172970  58.2177008
  89.0855159  27.4279163  61.8164832  88.1677720  27.6494110  61.6586520
  89.5015302  27.5025473  60.9576540  92.4180671  18.6403947  59.5228071
  92.7239548  17.7801310  59.2353986  93.1433276  19.2321567  59.3227065
  78.7105027  29.0434633  57.9109669  78.5129427  28.4503994  57.1860736
  78.1551691  28.7386843  58.6285608  90.2268322  28.0176624  66.6209535
  90.5817710  28.2448097  67.4804001  90.8740453  28.3495001  65.9986790
  84.1208185  25.1253155  63.4055876  84.7607565  24.9841914  62.7078839
  83.2885716  24.8387668  63.0294478  89.7163334  36.8073681  63.8703236
  89.7700356  37.3764617  64.6380952  88.8478115  36.9775566  63.5057273
  81.1236802  25.0953480  58.1828863  81.3843619  26.0098813  58.0738023
  81.9453974  24.6277923  58.3325476  82.5961727  26.5091237  65.3527687
  83.2684781  26.3008599  64.7040336  81.7691514  26.3113323  64.9132920
  96.8450988  33.2495287  64.8703021  97.0386878  34.1541098  65.1162296
  96.7451607  32.7902707  65.7041606  88.4987299  23.1353178  67.3693348
  87.8515214  23.8343128  67.2757825  89.2688315  23.5689322  67.7369596
  91.9066097  33.4002030  70.4443902  91.7551603  33.1712582  69.5273985
  91.8970777  34.3572632  70.4575247  88.6751433  30.9733943  65.4290168
  89.6043493  31.1245103  65.2559135  88.2542463  31.0617964  64.5738814
  87.4739765  34.9984607  63.1988706  87.3350851  34.6303392  64.0714644
  86.6854361  35.5132247  63.0272663  82.9989224  29.7833840  66.1130125
  82.8609022  29.0514079  66.7141664  83.9094148  29.6942740  65.8314312
  85.6271525  29.4953799  65.6013804  86.3371144  28.8546992  65.5600423
  85.5840833  29.7466694  66.5239985  93.6158304  36.4321153  68.5220383
  93.5570850  35.7480373  67.8550966  94.0177822  37.1740143  68.0701009
  84.3400459  26.4819017  67.4209444  83.8037816  26.0309756  68.0731040
  83.7517167  26.6164926  66.6779908  82.6349003  43.2483067  61.3154102
  82.8745601  43.8801591  61.9933121  81.7918199  42.8971107  61.6019462
  93.6175711  34.3960737  66.7534363  92.7302490  34.0586659  66.8760762
  94.1874262  33.6643768  66.9903128  75.2704858  30.7284828  60.0777414
  75.9575898  30.4146558  59.4898430  75.1152987  31.6326193  59.8044666
  80.0739580  25.6175025  64.5062438  79.9897769  25.0100695  63.7712848
  79.2522287  26.1084043  64.5071935  87.1476864  39.0562189  63.7195606
  87.0747036  39.8617161  64.2314911  86.7054257  39.2554155  62.8943628
  90.2463294  24.1028589  59.8732633  90.7431994  23.3498551  59.5533703
  89.4750276  24.1392905  59.3075843  98.0993052  29.8068954  61.5150925
  98.0882928  30.6893670  61.1444858  97.2310431  29.4540505  61.3205462
  89.6075548  38.9549023  65.8753765  90.3203520  39.5896488  65.8029666
  89.1165577  39.0512889  65.0593767  84.6587461  36.7043467  66.6959336
  85.3596921  37.3379950  66.8488730  84.1882576  37.0458198  65.9354975
  92.6882289  21.0698182  62.0211992  91.7745369  21.3002409  62.1894199
  93.1175390  21.1536626  62.8726024  92.4588747  29.2588074  64.5211886
  91.8060198  29.5063981  63.8664339  92.8369127  28.4452212  64.1874363
  88.5076320  30.0007885  71.0077923  87.8316957  29.9002014  71.6780298
  89.3303954  29.8447099  71.4713920  80.2555179  36.2379822  63.6290438
  80.8408616  35.4923510  63.7618343  80.0580018  36.5483778  64.5127102
  74.8472834  28.8085422  62.3494882  74.8856934  28.2749013  63.1432000
  74.3413127  28.2820627  61.7305859  87.2499103  41.3074813  65.2435539
  87.8017411  41.4706434  66.0084624  87.5905297  41.8979250  64.5715564
  82.2263597  23.6549962  65.8457424  82.2904923  24.5164793  65.4334822
  82.1630717  23.0423964  65.1129782  81.7015869  25.7273095  69.4930458
  82.3287908  25.3450172  70.1067982  80.8443788  25.5087297  69.8586151
  92.1009978  36.1336070  71.0984194  92.6449882  36.7466028  70.6039148
  91.5196822  36.6915648  71.6151207  78.4781412  27.5349524  55.4248813
  78.7734853  26.6260202  55.3715867  77.5769448  27.5137263  55.1029815
  90.3867491  39.2556788  62.2299221  90.2618630  38.4546528  61.7210167
  91.0446582  39.7502981  61.7413191  82.0075659  25.6105521  61.4076362
  81.2862245  26.2241488  61.2683835  82.7968915  26.1463285  61.3293008
  92.4502399  37.0565808  63.8578771  91.5032734  36.9371159  63.7857098
  92.7985172  36.1688306  63.9405033  84.8101972  22.9459947  67.6817013
  85.3336374  23.1922244  68.4443323  84.5914306  23.7779982  67.2620151
  86.0154517  23.8873642  65.3666684  85.6751338  23.0881455  65.7687364
  85.3093524  24.1875353  64.7943517  86.6670989  20.9722955  63.8194007
  87.4897059  20.4983433  63.6972897  86.9109053  21.7513438  64.3192693
  84.1909568  27.6642075  61.6285985  84.0454149  27.9782378  62.5210267
  83.7134772  28.2826976  61.0756884  86.0505951  24.6544623  61.6766875
  86.0367520  23.7585717  61.3399173  86.7678379  24.6615287  62.3105161
  87.9032082  25.0881963  63.7220002  87.6449859  26.0099034  63.7204333
  87.3717122  24.6912398  64.4120467  78.6655230  30.2047420  64.5673647
  78.1208698  30.9807228  64.6993921  79.5434580  30.5518224  64.4092768
  85.4542847  23.5359003  56.9454445  85.5758758  22.6075650  57.1445333
  85.1644889  23.5497689  56.0332761  88.3234037  21.2213914  60.0821165
  88.3455734  21.2853247  59.1273145  88.7402096  20.3818423  60.2761671
  79.4521252  29.3317316  67.4603804  78.7102988  29.4799951  68.0468434
  79.1313996  29.5925581  66.5970553  87.3964915  38.8733294  67.2584194
  87.7052041  38.6282441  68.1306893  88.1940397  39.0779933  66.7703064
  78.0986471  35.1369071  60.4503132  77.2618379  34.7091245  60.2687133
  78.0710116  35.3301514  61.3873923  84.9383926  25.0491001  71.1544378
  84.9872082  25.9253124  70.7722147  85.4806441  24.5068394  70.5816021
  95.4238772  35.5932124  70.4345515  94.6334316  35.5756263  69.8950014
  95.1872127  36.1320418  71.1894551  95.5436647  32.4424590  67.7478243
  95.5934652  32.2774598  68.6893766  95.4350570  31.5751850  67.3576124
  92.8340409  28.4255519  69.0637550  93.7350272  28.2861983  68.7721548
  92.9088384  28.5909973  70.0035728  87.1683215  25.8022373  67.9090736
  86.2986524  26.0955939  67.6373325  87.4042695  26.3862818  68.6298000
  97.0454844  34.8621532  67.9920265  96.7539652  35.2251513  68.8283726
  96.4326975  34.1488540  67.8133597  95.2942032  29.9854147  66.4600323
  95.7696154  30.1781793  65.6519174  94.3707597  30.0413332  66.2143707
  89.8722249  22.0201990  65.4256157  90.3904192  22.7563017  65.1002645
  89.5177381  22.3265983  66.2602916  90.1234843  18.4402273  60.9457053
  90.4036597  17.7725462  61.5717480  90.9085450  18.6331368  60.4331717
  93.9943701  26.8619907  64.6928629  94.9461124  26.9618004  64.7140853
  93.8247152  26.0698175  65.2026713  92.0158081  23.9475490  64.8788029
  91.4208013  24.2280503  64.1834518  91.7307777  24.4369391  65.6504771
  96.4731779  30.0826026  63.8070928  96.4408099  29.1442027  63.9930612
  97.0832403  30.1610063  63.0736753  96.6226267  26.8737070  63.8529211
  96.1065316  26.0895526  63.6659140  97.5066216  26.5455786  64.0175731
  94.2836994  20.6178085  59.8125024  94.0861815  20.3093174  60.6968356
  94.8936700  21.3439724  59.9422954 102.2908329  31.1442033  62.9476965
 103.0211717  30.8827321  63.5084668 101.6815274  30.4070755  62.9879033
 100.3723626  29.2849896  63.5451416  99.6456789  29.1505861  62.9367908
  99.9570913  29.5926724  64.3508134  88.1953802  33.0039825  71.3098789
  89.1156812  33.1818425  71.5038836  88.1603385  32.0595871  71.1578488
  77.4135967  28.1978419  60.2352064  77.0938752  27.3443727  59.9426438
  76.8669395  28.4126997  60.9910031  81.1915875  30.9140860  63.9521570
  81.4101885  31.8457968  63.9709604  81.6041649  30.5548835  64.7376374
  88.1120093  21.4208945  55.9397259  87.3020821  21.0756030  56.3152505
  88.8004510  21.1116489  56.5284870  90.0410641  20.4986992  57.5621555
  90.5941680  20.9182446  58.2211579  90.2780727  19.5722740  57.6044511
  86.0643740  26.4874066  73.3424319  85.9640467  27.4368423  73.2736410
  85.8465282  26.1592305  72.4700389  77.2824227  31.8181331  62.2045185
  76.5887699  31.4035283  61.6915140  78.0297218  31.8601867  61.6078604
  93.4189448  22.6087517  57.0700220  92.8388117  23.2672321  56.6878272
  93.1525381  21.7864862  56.6587637  91.8693014  22.0092575  59.2721540
  92.3692793  22.1209110  58.4635859  92.5128622  21.7053628  59.9122348
  85.9275010  29.9171205  72.1589381  85.4442092  30.7171565  72.3653270
  86.0135949  29.9279150  71.2056825  79.1960970  31.7499584  60.0811200
  79.1731658  31.8487272  59.1293083  79.5061606  32.5964735  60.4028366
  81.8548348  33.8075739  64.1957815  82.8091601  33.7759682  64.1287746
  81.6560871  33.3466363  65.0108041  82.4447730  32.3776856  66.7628612
  83.2640619  32.8720934  66.7863450  82.7184538  31.4608824  66.7346180
  95.5528862  24.7934129  59.8410907  96.3289252  25.2830581  60.1135524
  94.8276996  25.2192183  60.2982777  97.9901421  25.5061748  60.8984848
  98.5845912  25.2657484  60.1878156  98.0628004  24.7868879  61.5258384
  80.2098576  39.3495359  61.2128013  80.0753044  38.5895760  60.6466011
  79.7930639  40.0736259  60.7456801  95.9860156  26.0731876  57.1656978
  95.7297090  25.6728511  57.9965185  95.3613024  26.7875670  57.0407117
 100.2972494  28.8127949  59.6728269  99.7372052  28.8821138  60.4459831
  99.6915997  28.6368933  58.9527765  83.3667702  40.2464676  61.4246455
  83.2500086  41.1910108  61.3225146  82.5460149  39.9438238  61.8132254
  77.6982644  26.7114989  67.4620809  78.3441508  26.2013943  67.9508035
  77.4899795  27.4483671  68.0364235  90.2236036  33.7795837  72.9612950
  91.0927196  33.9536489  72.5999585  89.7442788  34.5990254  72.8388679
  86.2186255  20.9755034  53.2144706  86.2064924  21.9196874  53.3712977
  87.1109676  20.7925179  52.9204167  84.3922216  40.8992938  64.6402384
  85.2949463  40.9316548  64.9568879  84.1659587  39.9693389  64.6548719
  90.0338374  17.5697811  57.4690642  89.2670770  17.0156297  57.6147325
  90.4449079  17.6419679  58.3304794  82.0380135  23.8582606  71.5595824
  82.9011597  23.5019411  71.7699148  81.4645546  23.5196501  72.2471228
 101.8828512  45.4884463  62.3658225 102.5206922  45.3691210  61.6621565
 101.7649355  46.4365307  62.4246177  98.6918218  45.4411891  62.3019749
  98.3536730  45.3252956  61.4140284  99.5607986  45.0403056  62.2820756
  94.5505034  47.2947367  58.2916640  93.9869899  47.2037304  57.5232928
  94.4357429  46.4747272  58.7719133  99.1738001  46.5946743  68.2605955
  99.1626642  46.1999541  67.3886459  99.3358641  45.8612815  68.8539726
  92.0969466  48.7898559  61.1300861  92.8890758  48.4489384  60.7147160
  92.3366116  48.8993534  62.0503014 100.1304593  50.9618335  53.6031105
  99.4792572  51.5472415  53.2165119 100.9248955  51.4924530  53.6626143
  94.0560220  48.0507472  54.0018240  94.8291096  47.5036459  53.8631115
  94.4085619  48.9151721  54.2132701  95.8945262  49.3783854  67.2085139
  95.6035128  50.2829485  67.0931805  96.5302247  49.4200382  67.9229208
  96.8201469  46.7560703  63.7986499  97.4165041  46.5316725  63.0843461
  96.8776441  46.0145448  64.4011946  96.3926498  44.2100138  51.6336690
  96.6452018  43.6881660  50.8720153  95.4551057  44.0466284  51.7363373
 101.4369780  43.2135917  59.4411433 102.2232870  42.7955340  59.0901850
 101.7008485  44.1182009  59.6093081 101.6079858  48.6508767  54.1400090
 100.9725691  48.7243393  54.8520994 101.2777264  49.2402366  53.4619169
 106.8378208  43.1511150  60.3444411 107.5703380  42.5810367  60.5782241
 106.0817563  42.7632750  60.7850917  96.1122786  46.1128244  53.8361064
  95.9959044  45.4373148  54.5042149  96.2225046  45.6260618  53.0193218
  98.4554327  45.5738391  57.5407754  98.0912535  45.0469012  58.2520675
  99.3121443  45.1836860  57.3674239 104.3603628  36.8632724  64.8039020
 104.0286953  37.7328135  64.5800235 103.7649241  36.5469008  65.4833050
 100.8535147  49.0645270  64.2034933 100.5535871  49.9670309  64.0950740
 100.5086207  48.7977453  65.0556085  94.3047629  45.5159067  60.2371637
  93.3798125  45.3835281  60.4449329  94.5532042  46.2953286  60.7341579
 104.2532291  41.5827810  61.8832370 103.3449169  41.5143219  61.5891131
 104.2019887  42.0599755  62.7114195  98.0749035  43.0585949  53.5215769
  97.9548660  43.5042999  54.3601249  97.3801624  43.4071266  52.9629307
  91.6656440  45.1592340  61.0715426  91.7948821  45.4126819  61.9854838
  90.9853891  45.7520048  60.7520081  95.8355927  55.8289590  57.1705900
  95.7579957  56.7797415  57.2494381  95.2317571  55.4835463  57.8280827
  98.3273157  43.0017456  69.8267267  97.5506491  43.5611376  69.8170132
  98.9663720  43.4874239  70.3482137 106.1193938  39.7844249  63.6610244
 105.4768318  40.0776782  63.0150038 105.6148866  39.6697169  64.4663441
 103.7734101  43.5307422  54.3496103 104.6851957  43.7634808  54.1743801
 103.2643748  44.1144466  53.7871182  96.5819529  45.8102909  69.3885234
  97.3234214  46.3487953  69.1120058  95.8756515  46.4369198  69.5456786
 102.0574869  47.9532050  67.9857396 102.4658225  47.5114460  67.2412028
 101.3352131  47.3784677  68.2391589  98.4105939  42.8904656  65.3590953
  99.2567134  43.3144070  65.5025602  98.3504577  42.2338281  66.0529516
 102.3803684  48.5133240  61.7409685 101.7512546  48.6778954  61.0385752
 101.9929346  48.9274850  62.5120649 106.2592916  49.4487678  59.0954048
 105.5743954  49.8286579  58.5451082 106.3436765  50.0583005  59.8285996
 101.5605384  40.5509025  67.0172126 101.3166316  41.3051085  66.4806402
 101.8365315  40.9294372  67.8519373 103.5143847  47.0947637  65.6949392
 103.7260742  47.7379397  65.0183773 103.4673595  46.2609954  65.2271322
 101.1170076  39.7065458  62.5985964 100.2554555  40.0046711  62.8902702
 101.1432511  39.9235857  61.6666997  97.9331646  48.2507648  59.0059770
  98.3969991  48.5295351  58.2164392  97.6688444  47.3491093  58.8232860
  94.8255727  47.7979130  61.9439533  95.3957084  48.2266398  61.3057017
  95.4163838  47.5161715  62.6423719  95.3180893  42.9642557  70.1900544
  94.6879554  43.6458838  70.4235941  95.2116981  42.8525639  69.2453682
  90.6125866  42.6314353  61.1166468  89.8224920  42.8871882  60.6406579
  91.1037113  43.4462691  61.2218509 104.6289675  49.9719592  63.8671749
 105.4507119  49.5699780  63.5854431 104.6252078  49.8687827  64.8187865
  98.3946279  49.5203636  66.0232460  98.4590711  49.9824043  66.8590632
  97.6857202  48.8901001  66.1514770  88.8963569  42.8844844  63.5481459
  89.1471607  43.7691854  63.8139035  89.4323117  42.7049445  62.7756551
 112.7195668  46.3158341  60.2156721 111.9659377  45.7465739  60.0600725
 112.8543209  46.2821005  61.1627355  98.1094296  51.1871743  55.8911440
  97.9739971  52.0323279  56.3196288  98.6504109  51.3891021  55.1277374
  91.5623694  48.7047181  56.4639365  92.0748214  49.4990432  56.6144930
  92.2146406  48.0073472  56.3972967  93.3718578  51.8212938  58.5462118
  93.5485207  52.7430902  58.3583102  94.1675412  51.5071357  58.9756498
  97.5129597  38.6821202  70.1446052  98.2539310  39.2828355  70.0650514
  97.7447520  37.9398840  69.5864094  92.6570935  43.8677569  68.4224281
  92.5424450  42.9662827  68.7231380  91.8015453  44.1141266  68.0709098
  99.7362773  51.8095310  70.0211782  99.2926627  51.0231688  69.7032687
 100.3979986  51.9974460  69.3555673  94.4949894  53.3391111  64.5472461
  95.0457319  53.2108175  63.7749455  93.6561370  53.6386000  64.1967353
 101.8344011  52.0898110  68.0493183 101.8162486  52.9106991  67.5573453
 102.7563931  51.9652185  68.2743325  98.2917065  49.6042239  68.8916692
  98.8245402  48.8430527  68.6616000  97.7631146  49.3115891  69.6340846
 101.4586760  34.7102305  64.4210333 101.1151029  35.6003947  64.3449444
 101.8265722  34.5203963  63.5579918  89.5272610  47.0335836  57.2398936
  90.3647832  47.4432844  57.0232643  89.7050878  46.0935278  57.2099130
 101.4237042  44.7010916  52.9282769 100.9083666  45.4715521  53.1671156
 101.1514351  44.0276052  53.5515830 100.5383300  37.0806960  62.3859567
 100.0348096  37.0437095  61.5727372 100.8313907  37.9899703  62.4456223
 106.3971317  47.4543271  54.8635942 105.6200759  47.1154430  54.4191104
 107.0762798  47.4595894  54.1890907  99.6569778  48.7328232  56.4035504
  99.1291139  47.9980991  56.0908741  99.1557280  49.5102908  56.1575472
 104.6362624  46.9277252  61.5202550 103.9786298  47.6176514  61.6082679
 105.4403023  47.3173684  61.8636536 103.4468082  45.2821625  59.5706492
 103.9599964  45.9151617  60.0728202 104.0969306  44.6822820  59.2049852
  97.8022378  46.5508442  49.4070477  96.8949439  46.3197695  49.6061626
  98.2993410  45.7546061  49.5944458 100.7090457  55.2605949  52.3267163
 100.0352155  55.5637646  52.9352121 101.0956279  56.0635029  51.9772620
  99.9248913  42.7571080  61.8164832  99.0071475  42.9786027  61.6586520
 100.3409057  42.8317391  60.9576540 100.7083961  44.1562496  56.9467513
 101.4555780  44.6683893  56.6374635 100.9775550  43.8346549  57.8071906
  98.9810611  46.6521037  53.9294467  98.0721830  46.3680070  54.0266937
  99.0105695  47.0720115  53.0697774 104.2129879  50.2627626  57.6985634
 103.7592206  49.4218536  57.7550825 103.5823845  50.8989025  58.0360415
 103.1562798  41.1919612  58.9286302 102.4185555  40.6796999  59.2596544
 103.4089572  40.7519994  58.1169579 102.6562818  52.1004123  58.6335453
 102.9485792  52.6609180  57.9147818 103.1661438  52.3932684  59.3888612
 103.2574425  33.9695864  59.5228071 103.5633302  33.1093228  59.2353986
 103.9827030  34.5613485  59.3227065  97.5295505  44.2649657  60.0304262
  97.5844115  43.3123494  59.9546739  96.7186707  44.4209096  60.5145561
  98.6786699  48.1929780  51.2682545  98.2406129  47.4765639  50.8088183
  99.4197140  48.4205895  50.7067637  97.6196443  52.8784474  59.7228906
  97.5772622  53.1045320  58.7937438  98.5359142  52.6447849  59.8714707
 101.0662077  43.3468542  66.6209535 101.4211464  43.5740015  67.4804001
 101.7134208  43.6786918  65.9986790 106.7959814  46.4686977  57.3258864
 106.6577712  46.6588573  56.3980053 106.4396033  47.2306360  57.7826915
  94.9601940  40.4545073  63.4055876  95.6001319  40.3133832  62.7078839
  94.1279470  40.1679586  63.0294478 106.8229193  48.5363505  62.3370136
 107.2565700  48.4438794  63.1853190 107.5360774  48.5121005  61.6990152
  95.7362244  49.7547503  59.5190869  96.5302842  49.2597823  59.3173443
  95.0253936  49.2265366  59.1558574 100.5557088  52.1365599  63.8703236
 100.6094110  52.7056535  64.6380952  99.6871870  52.3067484  63.5057273
  93.4355482  41.8383155  65.3527687  94.1078535  41.6300517  64.7040336
  92.6085268  41.6405241  64.9132920 107.6844743  48.5787205  64.8703021
 107.8780633  49.4833016  65.1162296 107.5845361  48.1194624  65.7041606
  99.3381054  38.4645096  67.3693348  98.6908969  39.1635045  67.2757825
 100.1082069  38.8981240  67.7369596 102.7459852  48.7293948  70.4443902
 102.5945358  48.5004500  69.5273985 102.7364531  49.6864549  70.4575247
  99.5145188  46.3025861  65.4290168 100.4437248  46.4537020  65.2559135
  99.0936218  46.3909881  64.5738814  98.3133520  50.3276525  63.1988706
  98.1744605  49.9595309  64.0714644  97.5248116  50.8424164  63.0272663
  98.9081672  55.4285622  54.5414242  99.0833427  54.9573665  55.3559865
  98.2214460  56.0551388  54.7695503  99.8638735  49.7058128  60.5877543
  99.5288567  49.6658898  61.4835193  99.3642681  49.0402844  60.1147954
  93.8382979  45.1125758  66.1130125  93.7002777  44.3805997  66.7141664
  94.7487902  45.0234658  65.8314312 102.7997927  47.0514162  50.8614603
 102.1827097  46.3260990  50.7647656 102.3314415  47.8123522  50.5181677
  96.4665280  44.8245717  65.6013804  97.1764898  44.1838909  65.5600423
  96.4234588  45.0758612  66.5239985 104.4552058  51.7613070  68.5220383
 104.3964604  51.0772291  67.8550966 104.8571577  52.5032060  68.0701009
  95.1794213  41.8110935  67.4209444  94.6431571  41.3601673  68.0731040
  94.5910922  41.9456844  66.6779908  93.4742757  58.5774984  61.3154102
  93.7139355  59.2093508  61.9933121  92.6311953  58.2263024  61.6019462
 104.4569465  49.7252654  66.7534363 103.5696244  49.3878576  66.8760762
 105.0268017  48.9935686  66.9903128  86.1098613  46.0576746  60.0777414
  86.7969652  45.7438476  59.4898430  85.9546741  46.9618111  59.8044666
  90.9133335  40.9466943  64.5062438  90.8291523  40.3392612  63.7712848
  90.0916041  41.4375961  64.5071935  97.9870619  54.3854107  63.7195606
  97.9140790  55.1909078  64.2314911  97.5448012  54.5846073  62.8943628
  97.7760398  53.6225877  57.2298428  96.9927920  54.1647557  57.3236652
  98.4753144  54.1399856  57.6292669 108.9386806  45.1360872  61.5150925
 108.9276682  46.0185587  61.1444858 108.0704185  44.7832423  61.3205462
 100.4469302  54.2840941  65.8753765 101.1597275  54.9188406  65.8029666
  99.9559331  54.3804807  65.0593767 102.1686829  48.1892193  57.4471057
 101.2343108  48.3093656  57.2775761 102.3463498  47.2864660  57.1831066
 105.5559381  44.0309513  57.9821091 106.0219833  44.8637504  57.9081393
 106.0066881  43.5654494  58.6866349  95.4981216  52.0335384  66.6959336
  96.1990675  52.6671867  66.8488730  95.0276331  52.3750116  65.9354975
 103.6235612  50.3753334  54.9807243 103.8995456  50.2609929  55.8901117
 102.7540110  49.9770819  54.9419416 103.5276043  36.3990100  62.0211992
 102.6139123  36.6294327  62.1894199 103.9569145  36.4828544  62.8726024
 103.2982502  44.5879992  64.5211886 102.6453952  44.8355899  63.8664339
 103.6762882  43.7744130  64.1874363 100.2589676  54.6239685  58.6240056
 100.4412070  53.8061341  59.0867809 101.0822662  54.8407377  58.1864946
 100.5931841  53.5507870  55.8855105 101.1219608  53.0400325  55.2725267
 100.8560061  53.2350400  56.7500638  99.3470075  45.3299803  71.0077923
  98.6710712  45.2293932  71.6780298 100.1697709  45.1739016  71.4713920
  91.0948934  51.5671739  63.6290438  91.6802371  50.8215427  63.7618343
  90.8973772  51.8775696  64.5127102  93.9487589  54.6022987  58.6452881
  93.2797964  55.0869114  58.1616921  93.8100459  54.8492207  59.5596259
  85.6866589  44.1377339  62.3494882  85.7250688  43.6040930  63.1432000
  85.1806882  43.6112545  61.7305859  98.0892858  56.6366730  65.2435539
  98.6411166  56.7998352  66.0084624  98.4299051  57.2271168  64.5715564
  93.0657351  38.9841880  65.8457424  93.1298677  39.8456711  65.4334822
  93.0024471  38.3715882  65.1129782  92.5409624  41.0565013  69.4930458
  93.1681662  40.6742090  70.1067982  91.6837542  40.8379214  69.8586151
 102.9403732  51.4627988  71.0984194 103.4843636  52.0757946  70.6039148
 102.3590577  52.0207566  71.6151207 101.2261245  54.5848706  62.2299221
 101.1012385  53.7838446  61.7210167 101.8840336  55.0794899  61.7413191
  92.8469413  40.9397438  61.4076362  92.1255999  41.5533406  61.2683835
  93.6362669  41.4755203  61.3293008 103.2896153  52.3857726  63.8578771
 102.3426489  52.2663077  63.7857098 103.6378927  51.4980224  63.9405033
  95.6495727  38.2751865  67.6817013  96.1730129  38.5214161  68.4443323
  95.4308060  39.1071900  67.2620151 100.2942587  52.1810442  60.0583124
 100.1467549  51.2527149  60.2390694 101.1196080  52.2030533  59.5740199
 103.8976709  53.0039001  61.1447996 104.8223256  52.7981862  61.0072448
 103.7292012  52.7555402  62.0537338  96.8548272  39.2165560  65.3666684
  96.5145092  38.4173373  65.7687364  96.1487278  39.5167271  64.7943517
  97.5064744  36.3014872  63.8194007  98.3290813  35.8275350  63.6972897
  97.7502807  37.0805356  64.3192693  95.0303322  42.9933993  61.6285985
  94.8847903  43.3074296  62.5210267  94.5528526  43.6118893  61.0756884
  96.8899705  39.9836541  61.6766875  96.8761274  39.0877634  61.3399173
  97.6072133  39.9907205  62.3105161  98.7425836  40.4173881  63.7220002
  98.4843614  41.3390952  63.7204333  98.2110876  40.0204316  64.4120467
 103.6872025  53.5224668  56.5010088 103.8608902  52.9571091  55.7483940
 104.1800916  54.3225563  56.3189578  89.5048985  45.5339337  64.5673647
  88.9602453  46.3099145  64.6993921  90.3828334  45.8810142  64.4092768
 109.5411416  46.2861091  58.1200388 109.9842562  45.5368416  57.7219511
 108.6637926  46.2771228  57.7374120 104.6747197  52.8391433  53.6006986
 105.3698102  53.4598125  53.8194301 105.0170347  51.9886784  53.8759364
  90.2915006  44.6609234  67.4603804  89.5496742  44.8091869  68.0468434
  89.9707751  44.9217499  66.5970553 106.5738620  50.2891138  55.1294317
 107.0989944  50.6278411  54.4043637 106.4860973  49.3538153  54.9457452
  98.2358669  54.2025212  67.2584194  98.5445796  53.9574359  68.1306893
  99.0334151  54.4071850  66.7703064  98.2579281  56.3563121  59.4889570
  97.8184271  55.8639500  60.1822427  99.0087398  55.8136089  59.2481645
  90.7371620  52.5474662  59.4914198  91.5629640  52.2478434  59.1112842
  90.3865672  51.7782285  59.9403987  95.7053153  51.9001131  61.5611872
  95.0833163  51.2371836  61.2614100  96.3758020  51.9262262  60.8785520
  88.9380225  50.4660989  60.4503132  88.1012133  50.0383163  60.2687133
  88.9103871  50.6593432  61.3873923  95.7777681  40.3782919  71.1544378
  95.8265836  41.2545041  70.7722147  96.3200195  39.8360312  70.5816021
 106.2632526  50.9224042  70.4345515 105.4728070  50.9048181  69.8950014
 106.0265881  51.4612335  71.1894551 106.3830402  47.7716508  67.7478243
 106.4328406  47.6066516  68.6893766 106.2744325  46.9043767  67.3576124
  95.2666660  50.4505054  55.0370332  95.4154781  51.1340518  54.3837005
  96.0733104  50.4310144  55.5519788 103.6734164  43.7547436  69.0637550
 104.5744027  43.6153901  68.7721548 103.7482138  43.9201891  70.0035728
  98.0076969  41.1314291  67.9090736  97.1380279  41.4247857  67.6373325
  98.2436450  41.7154736  68.6298000 107.8848598  50.1913450  67.9920265
 107.5933407  50.5543430  68.8283726 107.2720730  49.4780458  67.8133597
 109.0844281  47.7566329  60.5122835 109.9191172  48.1956134  60.6760396
 109.2203409  47.2804983  59.6931081 106.1335787  45.3146064  66.4600323
 106.6089908  45.5073711  65.6519174 105.2101352  45.3705250  66.2143707
  93.0219293  46.4770231  56.0431401  92.7765335  45.5732561  56.2411611
  93.1915208  46.4787382  55.1010879 100.7116003  37.3493908  65.4256157
 101.2297947  38.0854935  65.1002645 100.3571136  37.6557901  66.2602916
 100.9628597  33.7694190  60.9457053 101.2430351  33.1017379  61.5717480
 101.7479204  33.9623286  60.4331717  98.7662066  52.9453184  52.5082080
  98.1936033  53.5643371  52.0552552  99.3394859  53.4952546  53.0422002
 104.8337456  42.1911824  64.6928629 105.7854878  42.2909922  64.7140853
 104.6640906  41.3990093  65.2026713 102.8551835  39.2767408  64.8788029
 102.2601767  39.5572420  64.1834518 102.5701532  39.7661309  65.6504771
 101.9859326  53.2290334  53.6390662 102.9189999  53.1635896  53.8423538
 101.8982538  54.0646601  53.1805195 104.6147342  52.5456205  50.5994610
 104.5360974  52.2116068  51.4930367 105.4357009  53.0377973  50.5986082
 107.3125533  45.4117944  63.8070928 107.2801853  44.4733945  63.9930612
 107.9226157  45.4901981  63.0736753 107.4620022  42.2028988  63.8529211
 106.9459071  41.4187444  63.6659140 108.3459970  41.8747704  64.0175731
 105.1230749  35.9470003  59.8125024 104.9255570  35.6385091  60.6968356
 105.7330454  36.6731642  59.9422954 113.1302083  46.4733951  62.9476965
 113.8605472  46.2119239  63.5084668 112.5209029  45.7362673  62.9879033
 111.2117380  44.6141813  63.5451416 110.4850544  44.4797778  62.9367908
 110.7964667  44.9218642  64.3508134  99.0347557  48.3331743  71.3098789
  99.9550566  48.5110342  71.5038836  98.9997140  47.3887789  71.1578488
  88.2529722  43.5270337  60.2352064  87.9332506  42.6735645  59.9426438
  87.7063150  43.7418915  60.9910031  92.0309629  46.2432778  63.9521570
  92.2495639  47.1749886  63.9709604  92.4435403  45.8840752  64.7376374
 100.8804395  35.8278910  57.5621555 101.4335434  36.2474363  58.2211579
 101.1174482  34.9014658  57.6044511  96.9037495  41.8165984  73.3424319
  96.8034222  42.7660341  73.2736410  96.6859037  41.4884223  72.4700389
  88.1217982  47.1473248  62.2045185  87.4281453  46.7327201  61.6915140
  88.8690973  47.1893785  61.6078604 104.2583202  37.9379435  57.0700220
 103.6781872  38.5964239  56.6878272 103.9919135  37.1156780  56.6587637
 102.7086769  37.3384493  59.2721540 103.2086547  37.4501027  58.4635859
 103.3522377  37.0345546  59.9122348  96.7668765  45.2463122  72.1589381
  96.2835846  46.0463483  72.3653270  96.8529704  45.2571067  71.2056825
  90.0354724  47.0791502  60.0811200  90.0125412  47.1779189  59.1293083
  90.3455361  47.9256653  60.4028366  92.6942102  49.1367657  64.1957815
  93.6485356  49.1051599  64.1287746  92.4954626  48.6758281  65.0108041
  93.2841484  47.7068773  66.7628612  94.1034373  48.2012852  66.7863450
  93.5578292  46.7900741  66.7346180 106.3922617  40.1226046  59.8410907
 107.1683007  40.6122499  60.1135524 105.6670751  40.5484101  60.2982777
 108.8295175  40.8353666  60.8984848 109.4239666  40.5949402  60.1878156
 108.9021759  40.1160796  61.5258384  91.0492331  54.6787277  61.2128013
  90.9146799  53.9187678  60.6466011  90.6324393  55.4028176  60.7456801
 102.1851294  49.8624200  50.2204588 102.8887144  50.0674203  50.8362244
 101.4613943  50.4300962  50.4853671 103.0149104  45.6134061  56.3406858
 102.9584306  46.0702613  55.5014490 103.5677447  44.8524746  56.1629701
 106.8253910  41.4023793  57.1656978 106.5690844  41.0020429  57.9965185
 106.2006778  42.1167587  57.0407117 111.1366248  44.1419867  59.6728269
 110.5765806  44.2113056  60.4459831 110.5309751  43.9660851  58.9527765
  94.2061457  55.5756594  61.4246455  94.0893841  56.5202026  61.3225146
  93.3853903  55.2730155  61.8132254 104.0937991  50.3006729  52.2703048
 104.9283595  49.8687928  52.0880523 103.9322334  50.1288743  53.1979942
 103.7483884  46.8038843  53.6359387 103.6932687  46.6383114  52.6947831
 103.1229939  47.5114876  53.7921577  88.5376399  42.0406907  67.4620809
  89.1835262  41.5305861  67.9508035  88.3293550  42.7775589  68.0364235
 101.0629791  49.1087755  72.9612950 101.9320950  49.2828407  72.5999585
 100.5836542  49.9282171  72.8388679  95.2315971  56.2284856  64.6402384
  96.1343218  56.2608466  64.9568879  95.0053341  55.2985306  64.6548719
  96.9869573  54.9815842  61.3012462  96.0365204  54.9817704  61.1876835
  97.2902059  54.2348577  60.7848497 100.8732128  32.8989728  57.4690642
 100.1064524  32.3448215  57.6147325 101.2842833  32.9711597  58.3304794
  92.8773890  39.1874524  71.5595824  93.7405351  38.8311329  71.7699148
  92.3039300  38.8488419  72.2471228 112.7222266  60.8176380  62.3658225
 113.3600676  60.6983128  61.6621565 112.6043109  61.7657224  62.4246177
 109.5311973  60.7703809  62.3019749 109.1930484  60.6544873  61.4140284
 110.4001741  60.3694974  62.2820756 105.3898788  62.6239285  58.2916640
 104.8263654  62.5329222  57.5232928 105.2751183  61.8039189  58.7719133
 110.0131756  61.9238660  68.2605955 110.0020397  61.5291459  67.3886459
 110.1752395  61.1904733  68.8539726 102.9363220  64.1190477  61.1300861
 103.7284512  63.7781301  60.7147160 103.1759871  64.2285452  62.0503014
 110.9698347  66.2910253  53.6031105 110.3186327  66.8764333  53.2165119
 111.7642710  66.8216448  53.6626143 104.8953974  63.3799390  54.0018240
 105.6684850  62.8328377  53.8631115 105.2479373  64.2443639  54.2132701
 106.7339017  64.7075772  67.2085139 106.4428883  65.6121403  67.0931805
 107.3696001  64.7492300  67.9229208 107.6595224  62.0852621  63.7986499
 108.2558796  61.8608643  63.0843461 107.7170195  61.3437366  64.4011946
 107.2320252  59.5392056  51.6336690 107.4845773  59.0173577  50.8720153
 106.2944811  59.3758201  51.7363373 112.2763535  58.5427834  59.4411433
 113.0626624  58.1247257  59.0901850 112.5402239  59.4473927  59.6093081
 112.4473612  63.9800685  54.1400090 111.8119445  64.0535311  54.8520994
 112.1171019  64.5694283  53.4619169 117.6771962  58.4803068  60.3444411
 118.4097134  57.9102284  60.5782241 116.9211318  58.0924668  60.7850917
 106.9516541  61.4420162  53.8361064 106.8352799  60.7665065  54.5042149
 107.0618801  60.9552536  53.0193218 109.2948082  60.9030309  57.5407754
 108.9306289  60.3760930  58.2520675 110.1515198  60.5128778  57.3674239
 115.1997382  52.1924642  64.8039020 114.8680707  53.0620053  64.5800235
 114.6042996  51.8760926  65.4833050 108.9353569  55.9320209  52.5369102
 109.1027971  56.8000445  52.9039573 108.7450738  56.0947490  51.6130391
 111.6928902  64.3937188  64.2034933 111.3929625  65.2962226  64.0950740
 111.3479961  64.1269371  65.0556085 105.1441383  60.8450984  60.2371637
 104.2191880  60.7127199  60.4449329 105.3925797  61.6245204  60.7341579
 115.0926046  56.9119728  61.8832370 114.1842923  56.8435136  61.5891131
 115.0413642  57.3891673  62.7114195 108.9142790  58.3877866  53.5215769
 108.7942415  58.8334917  54.3601249 108.2195378  58.7363184  52.9629307
 102.5050194  60.4884258  61.0715426 102.6342576  60.7418737  61.9854838
 101.8247646  61.0811966  60.7520081 106.6749682  71.1581508  57.1705900
 106.5973711  72.1089333  57.2494381 106.0711325  70.8127380  57.8280827
 109.1666912  58.3309373  69.8267267 108.3900246  58.8903294  69.8170132
 109.8057475  58.8166156  70.3482137 116.9587692  55.1136166  63.6610244
 116.3162072  55.4068699  63.0150038 116.4542621  54.9989087  64.4663441
 114.6127856  58.8599339  54.3496103 115.5245712  59.0926726  54.1743801
 114.1037503  59.4436384  53.7871182 107.4213284  61.1394827  69.3885234
 108.1627968  61.6779871  69.1120058 106.7150269  61.7661116  69.5456786
 112.8968623  63.2823967  67.9857396 113.3051980  62.8406378  67.2412028
 112.1745885  62.7076595  68.2391589 109.2499694  58.2196574  65.3590953
 110.0960889  58.6435988  65.5025602 109.1898331  57.5630198  66.0529516
 113.2197438  63.8425158  61.7409685 112.5906301  64.0070872  61.0385752
 112.8323100  64.2566767  62.5120649 117.0986670  64.7779596  59.0954048
 116.4137708  65.1578497  58.5451082 117.1830519  65.3874922  59.8285996
 112.3999139  55.8800942  67.0172126 112.1560071  56.6343003  66.4806402
 112.6759069  56.2586290  67.8519373 114.3537602  62.4239555  65.6949392
 114.5654497  63.0671315  65.0183773 114.3067350  61.5901871  65.2271322
 111.9563831  55.0357375  62.5985964 111.0948310  55.3338629  62.8902702
 111.9826265  55.2527774  61.6666997 108.7725400  63.5799566  59.0059770
 109.2363746  63.8587269  58.2164392 108.5082198  62.6783011  58.8232860
 105.6649481  63.1271047  61.9439533 106.2350838  63.5558316  61.3057017
 106.2557593  62.8453632  62.6423719 107.7094286  59.7022718  55.8149335
 108.4118329  60.1543762  56.2823261 107.3774915  59.0606537  56.4429228
 106.1574648  58.2934475  70.1900544 105.5273308  58.9750756  70.4235941
 106.0510735  58.1817557  69.2453682 101.4519620  57.9606271  61.1166468
 100.6618674  58.2163800  60.6406579 101.9430867  58.7754609  61.2218509
 115.4683430  65.3011510  63.8671749 116.2900873  64.8991697  63.5854431
 115.4645832  65.1979744  64.8187865 103.4034365  58.3250850  58.0749945
 102.6065529  58.4369544  58.5933441 103.1759958  58.6637502  57.2090836
 109.2340033  64.8495553  66.0232460 109.2984466  65.3115961  66.8590632
 108.5250957  64.2192918  66.1514770  99.7357323  58.2136761  63.5481459
  99.9865361  59.0983771  63.8139035 100.2716871  58.0341363  62.7756551
 108.9488051  66.5163661  55.8911440 108.8133725  67.3615197  56.3196288
 109.4897863  66.7182939  55.1277374 105.4355390  52.5955241  72.5525795
 105.0422336  52.0421439  73.2273439 106.2521531  52.9065819  72.9432313
 102.4017448  64.0339099  56.4639365 102.9141969  64.8282349  56.6144930
 103.0540161  63.3365389  56.3972967 104.2112333  67.1504855  58.5462118
 104.3878961  68.0722820  58.3583102 105.0069166  66.8363274  58.9756498
 108.3523351  54.0113120  70.1446052 109.0933065  54.6120273  70.0650514
 108.5841274  53.2690758  69.5864094 103.4964689  59.1969487  68.4224281
 103.3818204  58.2954744  68.7231380 102.6409207  59.4433184  68.0709098
 110.5756527  67.1387227  70.0211782 110.1320381  66.3523606  69.7032687
 111.2373741  67.3266378  69.3555673 105.3343648  68.6683029  64.5472461
 105.8851073  68.5400092  63.7749455 104.4955124  68.9677918  64.1967353
 112.6737765  67.4190027  68.0493183 112.6556240  68.2398908  67.5573453
 113.5957685  67.2944103  68.2743325 109.1310819  64.9334157  68.8916692
 109.6639156  64.1722445  68.6616000 108.6024900  64.6407809  69.6340846
 112.2980514  50.0394223  64.4210333 111.9544784  50.9295864  64.3449444
 112.6659477  49.8495880  63.5579918 100.3666365  62.3627753  57.2398936
 101.2041587  62.7724762  57.0232643 100.5444633  61.4227195  57.2099130
 112.2630797  60.0302834  52.9282769 111.7477420  60.8007439  53.1671156
 111.9908105  59.3567970  53.5515830 109.8477908  54.8752535  57.9868007
 108.9919504  54.4859385  57.8073646 110.2604860  54.9544496  57.1267792
 111.3777055  52.4098878  62.3859567 110.8741850  52.3729013  61.5727372
 111.6707662  53.3191621  62.4456223 107.6219941  52.4937608  61.3925748
 108.4872937  52.2980416  61.0331638 107.6897449  52.2647959  62.3195105
 117.2365071  62.7835189  54.8635942 116.4594514  62.4446348  54.4191104
 117.9156552  62.7887812  54.1890907 112.0517100  57.9029926  54.7542550
 111.7467236  58.2176075  55.6052693 113.0047542  57.9811346  54.7969883
 110.4963532  64.0620149  56.4035504 109.9684894  63.3272909  56.0908741
 109.9951035  64.8394826  56.1575472 115.4756378  62.2569170  61.5202550
 114.8180052  62.9468431  61.6082679 116.2796777  62.6465602  61.8636536
 105.2282260  54.7239816  58.7642115 105.8026012  54.5014997  58.0315308
 105.8153242  54.7928510  59.5170717 114.2861837  60.6113543  59.5706492
 114.7993719  61.2443534  60.0728202 114.9363061  60.0114738  59.2049852
 105.5551847  56.7544277  52.7838001 104.7189159  57.0918963  53.1047275
 105.4156616  56.6193256  51.8465138 107.5304927  51.5981065  57.4917185
 106.8769340  51.2830082  56.8673799 107.4885401  50.9756805  58.2177008
 108.6416132  61.8800360  49.4070477 107.7343194  61.6489613  49.6061626
 109.1387164  61.0837979  49.5944458 111.5484211  70.5897867  52.3267163
 110.8745910  70.8929564  52.9352121 111.9350033  71.3926947  51.9772620
 110.7642668  58.0862998  61.8164832 109.8465229  58.3077945  61.6586520
 111.1802811  58.1609309  60.9576540 111.5477715  59.4854414  56.9467513
 112.2949534  59.9975811  56.6374635 111.8169305  59.1638466  57.8071906
 109.8204366  61.9812954  53.9294467 108.9115585  61.6971987  54.0266937
 109.8499449  62.4012033  53.0697774 115.0523633  65.5919544  57.6985634
 114.5985960  64.7510454  57.7550825 114.4217600  66.2280942  58.0360415
 113.9956553  56.5211530  58.9286302 113.2579309  56.0088916  59.2596544
 114.2483326  56.0811912  58.1169579 113.4956572  67.4296041  58.6335453
 113.7879547  67.9901098  57.9147818 114.0055193  67.7224602  59.3888612
 114.0968180  49.2987782  59.5228071 114.4027057  48.4385145  59.2353986
 114.8220785  49.8905402  59.3227065 100.3892536  59.7018469  57.9109669
 100.1916936  59.1087829  57.1860736  99.8339200  59.3970679  58.6285608
 108.3689260  59.5941575  60.0304262 108.4237869  58.6415411  59.9546739
 107.5580462  59.7501014  60.5145561 109.5180453  63.5221698  51.2682545
 109.0799883  62.8057557  50.8088183 110.2590894  63.7497813  50.7067637
 106.3081620  58.2118635  57.7894641 105.4949485  58.5112805  58.1959833
 106.8040614  57.8174324  58.5069123 108.4590197  68.2076392  59.7228906
 108.4166376  68.4337238  58.7937438 109.3752896  67.9739766  59.8714707
 111.9055831  58.6760459  66.6209535 112.2605219  58.9031932  67.4804001
 112.5527962  59.0078836  65.9986790 117.6353568  61.7978895  57.3258864
 117.4971467  61.9880491  56.3980053 117.2789787  62.5598278  57.7826915
 105.7995694  55.7836990  63.4055876 106.4395074  55.6425749  62.7078839
 104.9673225  55.4971504  63.0294478 117.6622948  63.8655422  62.3370136
 118.0959454  63.7730711  63.1853190 118.3754529  63.8412923  61.6990152
 106.5755998  65.0839421  59.5190869 107.3696597  64.5889741  59.3173443
 105.8647691  64.5557284  59.1558574 111.3950843  67.4657516  63.8703236
 111.4487865  68.0348453  64.6380952 110.5265624  67.6359401  63.5057273
 102.8838762  59.2282502  55.5950621 101.9536350  59.1666958  55.8120583
 102.9796234  58.7058455  54.7987262 102.8024311  55.7537315  58.1828863
 103.0631128  56.6682649  58.0738023 103.6241483  55.2861758  58.3325476
 104.2749236  57.1675072  65.3527687 104.9472290  56.9592435  64.7040336
 103.4479023  56.9697158  64.9132920 118.5238497  63.9079123  64.8703021
 118.7174387  64.8124933  65.1162296 118.4239116  63.4486542  65.7041606
 110.1774808  53.7937013  67.3693348 109.5302723  54.4926963  67.2757825
 110.9475823  54.2273157  67.7369596 113.5853606  64.0585866  70.4443902
 113.4339112  63.8296417  69.5273985 113.5758286  65.0156467  70.4575247
 110.3538942  61.6317778  65.4290168 111.2831002  61.7828938  65.2559135
 109.9329972  61.7201799  64.5738814 109.1527274  65.6568443  63.1988706
 109.0138360  65.2887227  64.0714644 108.3641870  66.1716082  63.0272663
 109.7475426  70.7577539  54.5414242 109.9227182  70.2865582  55.3559865
 109.0608214  71.3843305  54.7695503 110.7032489  65.0350045  60.5877543
 110.3682322  64.9950815  61.4835193 110.2036435  64.3694761  60.1147954
 104.6776733  60.4417675  66.1130125 104.5396531  59.7097914  66.7141664
 105.5881657  60.3526576  65.8314312 113.6391681  62.3806080  50.8614603
 113.0220852  61.6552908  50.7647656 113.1708169  63.1415440  50.5181677
 107.3059034  60.1537635  65.6013804 108.0158653  59.5130827  65.5600423
 107.2628342  60.4050530  66.5239985 115.2945813  67.0904988  68.5220383
 115.2358359  66.4064208  67.8550966 115.6965331  67.8323978  68.0701009
 106.0187968  57.1402853  67.4209444 105.4825325  56.6893591  68.0731040
 105.4304676  57.2748762  66.6779908 104.3136511  73.9066902  61.3154102
 104.5533110  74.5385426  61.9933121 103.4705708  73.5554942  61.6019462
 105.4290227  56.5991504  49.9835907 104.5519693  56.4780305  49.6198154
 105.9047980  55.8077582  49.7314796 115.2963220  65.0544572  66.7534363
 114.4089999  64.7170494  66.8760762 115.8661771  64.3227603  66.9903128
  96.9492367  61.3868664  60.0777414  97.6363407  61.0730394  59.4898430
  96.7940496  62.2910028  59.8044666 101.7527089  56.2758860  64.5062438
 101.6685278  55.6684530  63.7712848 100.9309796  56.7667879  64.5071935
 108.8264373  69.7146024  63.7195606 108.7534545  70.5200996  64.2314911
 108.3841766  69.9137990  62.8943628 108.6154153  68.9517794  57.2298428
 107.8321675  69.4939475  57.3236652 109.3146898  69.4691774  57.6292669
 111.9250803  54.7612424  59.8732633 112.4219503  54.0082386  59.5533703
 111.1537785  54.7976741  59.3075843 119.7780560  60.4652789  61.5150925
 119.7670437  61.3477505  61.1444858 118.9097940  60.1124340  61.3205462
 111.2863057  69.6132858  65.8753765 111.9991029  70.2480323  65.8029666
 110.7953086  69.7096724  65.0593767 113.0080584  63.5184111  57.4471057
 112.0736863  63.6385574  57.2775761 113.1857252  62.6156578  57.1831066
 108.5085772  56.9029807  59.6004318 108.1383559  56.3500847  60.2885223
 109.0044864  56.2987940  59.0479318 116.3953135  59.3601430  57.9821091
 116.8613587  60.1929422  57.9081393 116.8460636  58.8946412  58.6866349
 106.3374970  67.3627302  66.6959336 107.0384430  67.9963785  66.8488730
 105.8670085  67.7042033  65.9354975 114.4629366  65.7045252  54.9807243
 114.7389210  65.5901846  55.8901117 113.5933865  65.3062737  54.9419416
 114.3669798  51.7282017  62.0211992 113.4532878  51.9586244  62.1894199
 114.7962899  51.8120461  62.8726024 114.1376256  59.9171909  64.5211886
 113.4847707  60.1647817  63.8664339 114.5156636  59.1036048  64.1874363
 111.0983430  69.9531603  58.6240056 111.2805825  69.1353258  59.0867809
 111.9216416  70.1699295  58.1864946 111.4325596  68.8799788  55.8855105
 111.9613362  68.3692242  55.2725267 111.6953815  68.5642318  56.7500638
 110.1863829  60.6591720  71.0077923 109.5104466  60.5585850  71.6780298
 111.0091463  60.5030934  71.4713920 101.9342688  66.8963657  63.6290438
 102.5196125  66.1507345  63.7618343 101.7367527  67.2067614  64.5127102
 104.7881344  69.9314904  58.6452881 104.1191719  70.4161032  58.1616921
 104.6494213  70.1784125  59.5596259  96.5260343  59.4669257  62.3494882
  96.5644443  58.9332848  63.1432000  96.0200636  58.9404463  61.7305859
 108.9286612  71.9658648  65.2435539 109.4804920  72.1290269  66.0084624
 109.2692806  72.5563086  64.5715564 103.9051105  54.3133798  65.8457424
 103.9692432  55.1748629  65.4334822 103.8418226  53.7007799  65.1129782
 103.3803378  56.3856930  69.4930458 104.0075417  56.0034008  70.1067982
 102.5231297  56.1671132  69.8586151 113.7797487  66.7919905  71.0984194
 114.3237391  67.4049864  70.6039148 113.1984331  67.3499484  71.6151207
 100.1568921  58.1933359  55.4248813 100.4522362  57.2844038  55.3715867
  99.2556957  58.1721099  55.1029815 112.0655000  69.9140623  62.2299221
 111.9406139  69.1130363  61.7210167 112.7234091  70.4086817  61.7413191
 103.6863168  56.2689356  61.4076362 102.9649754  56.8825324  61.2683835
 104.4756424  56.8047121  61.3293008 114.1289908  67.7149643  63.8578771
 113.1820243  67.5954995  63.7857098 114.4772681  66.8272142  63.9405033
 106.4889481  53.6043782  67.6817013 107.0123883  53.8506079  68.4443323
 106.2701815  54.4363817  67.2620151 101.8856762  55.8747457  55.5488138
 101.5569469  54.9944836  55.3663244 102.2396133  55.8195126  56.4364527
 111.1336341  67.5102360  60.0583124 110.9861304  66.5819067  60.2390694
 111.9589835  67.5322450  59.5740199 104.9998586  56.1620427  55.9163616
 105.3394658  56.6906348  55.1942224 105.4470706  56.5000833  56.6922182
 114.7370463  68.3330918  61.1447996 115.6617011  68.1273780  61.0072448
 114.5685766  68.0847320  62.0537338 107.6942026  54.5457478  65.3666684
 107.3538847  53.7465291  65.7687364 106.9881033  54.8459188  64.7943517
 108.3458498  51.6306790  63.8194007 109.1684567  51.1567268  63.6972897
 108.5896562  52.4097274  64.3192693 106.9866733  54.6595048  54.1156909
 107.7075095  55.0376301  53.6120625 106.3632037  55.3783925  54.2191887
 111.1297856  55.3640197  55.0515241 111.3461470  56.2464835  54.7504069
 110.6491923  54.9726411  54.3220883 105.8697077  58.3225911  61.6285985
 105.7241658  58.6366214  62.5210267 105.3922281  58.9410811  61.0756884
 107.7293460  55.3128459  61.6766875 107.7155029  54.4169552  61.3399173
 108.4465888  55.3199122  62.3105161 109.5819591  55.7465799  63.7220002
 109.3237368  56.6682869  63.7204333 109.0504631  55.3496233  64.4120467
 114.5265779  68.8516586  56.5010088 114.7002657  68.2863008  55.7483940
 115.0194671  69.6517481  56.3189578 100.3442739  60.8631255  64.5673647
  99.7996207  61.6391063  64.6993921 101.2222089  61.2102059  64.4092768
 107.1330356  54.1942839  56.9454445 107.2546267  53.2659485  57.1445333
 106.8432398  54.2081525  56.0332761 110.0021546  51.8797749  60.0821165
 110.0243243  51.9437082  59.1273145 110.4189605  51.0402258  60.2761671
 120.3805170  61.6153009  58.1200388 120.8236316  60.8660334  57.7219511
 119.5031681  61.6063145  57.7374120 115.5140952  68.1683350  53.6006986
 116.2091856  68.7890043  53.8194301 115.8564102  67.3178702  53.8759364
 101.1308761  59.9901151  67.4603804 100.3890497  60.1383787  68.0468434
 100.8101505  60.2509417  66.5970553 117.4132375  65.6183056  55.1294317
 117.9383699  65.9570329  54.4043637 117.3254727  64.6830071  54.9457452
 109.0752424  69.5317129  67.2584194 109.3839550  69.2866276  68.1306893
 109.8727906  69.7363768  66.7703064 109.0973036  71.6855039  59.4889570
 108.6578026  71.1931418  60.1822427 109.8481153  71.1428007  59.2481645
 101.5765375  67.8766580  59.4914198 102.4023395  67.5770352  59.1112842
 101.2259427  67.1074202  59.9403987 106.5446908  67.2293048  61.5611872
 105.9226917  66.5663753  61.2614100 107.2151775  67.2554180  60.8785520
  99.7773980  65.7952906  60.4503132  98.9405888  65.3675081  60.2687133
  99.7497625  65.9885350  61.3873923 106.6171435  55.7074836  71.1544378
 106.6659591  56.5836959  70.7722147 107.1593949  55.1652229  70.5816021
 117.1026281  66.2515959  70.4345515 116.3121825  66.2340098  69.8950014
 116.8659636  66.7904253  71.1894551 117.2224156  63.1008426  67.7478243
 117.2722161  62.9358433  68.6893766 117.1138079  62.2335685  67.3576124
 106.1060415  65.7796972  55.0370332 106.2548535  66.4632436  54.3837005
 106.9126858  65.7602062  55.5519788 114.5127918  59.0839354  69.0637550
 115.4137781  58.9445819  68.7721548 114.5875893  59.2493809  70.0035728
 108.8470724  56.4606209  67.9090736 107.9774033  56.7539775  67.6373325
 109.0830204  57.0446654  68.6298000 118.7242353  65.5205367  67.9920265
 118.4327161  65.8835348  68.8283726 118.1114484  64.8072376  67.8133597
 119.9238035  63.0858247  60.5122835 120.7584927  63.5248051  60.6760396
 120.0597164  62.6096900  59.6931081 116.9729541  60.6437982  66.4600323
 117.4483663  60.8365628  65.6519174 116.0495106  60.6997168  66.2143707
 103.8613048  61.8062149  56.0431401 103.6159090  60.9024479  56.2411611
 104.0308962  61.8079300  55.1010879 111.5509758  52.6785826  65.4256157
 112.0691701  53.4146852  65.1002645 111.1964890  52.9849819  66.2602916
 103.1308695  57.5390507  53.5417563 102.4377940  57.6134862  52.8857599
 102.8860447  56.7750850  54.0639080 111.8022352  49.0986108  60.9457053
 112.0824106  48.4309297  61.5717480 112.5872959  49.2915204  60.4331717
 109.6055820  68.2745102  52.5082080 109.0329787  68.8935289  52.0552552
 110.1788614  68.8244464  53.0422002 115.6731210  57.5203742  64.6928629
 116.6248633  57.6201840  64.7140853 115.5034660  56.7282011  65.2026713
 113.6945590  54.6059325  64.8788029 113.0995522  54.8864338  64.1834518
 113.4095286  55.0953226  65.6504771 112.8253080  68.5582252  53.6390662
 113.7583753  68.4927814  53.8423538 112.7376293  69.3938519  53.1805195
 115.4541097  67.8748122  50.5994610 115.3754728  67.5407986  51.4930367
 116.2750763  68.3669890  50.5986082 118.1519288  60.7409862  63.8070928
 118.1195608  59.8025862  63.9930612 118.7619912  60.8193898  63.0736753
 109.9902619  59.6105915  49.8498132 110.9361723  59.4812123  49.9186550
 109.6116864  58.8720577  50.3267560 118.3013776  57.5320905  63.8529211
 117.7852825  56.7479362  63.6659140 119.1853725  57.2039622  64.0175731
 115.9624503  51.2761921  59.8125024 115.7649324  50.9677009  60.6968356
 116.5724209  52.0023560  59.9422954 109.8741311  63.6623661  71.3098789
 110.7944321  63.8402260  71.5038836 109.8390894  62.7179706  71.1578488
 108.1745536  57.5355891  49.7853017 107.2676991  57.2389004  49.8615731
 108.4521517  57.2385709  48.9187304  99.0923476  58.8562255  60.2352064
  98.7726261  58.0027563  59.9426438  98.5456904  59.0710833  60.9910031
 102.8703384  61.5724696  63.9521570 103.0889394  62.5041803  63.9709604
 103.2829158  61.2132670  64.7376374 109.7907602  52.0792781  55.9397259
 108.9808330  51.7339866  56.3152505 110.4792019  51.7700325  56.5284870
 111.7198150  51.1570828  57.5621555 112.2729189  51.5766281  58.2211579
 111.9568236  50.2306576  57.6044511 107.7431249  57.1457901  73.3424319
 107.6427976  58.0952258  73.2736410 107.5252791  56.8176140  72.4700389
 106.9444321  54.3942826  49.9264997 107.8063485  54.7197725  50.1860814
 107.1294665  53.6074322  49.4138062  98.9611736  62.4765166  62.2045185
  98.2675208  62.0619119  61.6915140  99.7084727  62.5185703  61.6078604
 115.0976957  53.2671353  57.0700220 114.5175626  53.9256157  56.6878272
 114.8312890  52.4448697  56.6587637 113.5480523  52.6676411  59.2721540
 114.0480302  52.7792945  58.4635859 114.1916131  52.3637463  59.9122348
 107.6062519  60.5755040  72.1589381 107.1229601  61.3755400  72.3653270
 107.6923458  60.5862985  71.2056825 100.8748479  62.4083420  60.0811200
 100.8519167  62.5071107  59.1293083 101.1849115  63.2548571  60.4028366
 103.5335857  64.4659575  64.1957815 104.4879110  64.4343517  64.1287746
 103.3348380  64.0050199  65.0108041 104.1235239  63.0360691  66.7628612
 104.9428128  63.5304770  66.7863450 104.3972047  62.1192659  66.7346180
 113.8801835  55.4271443  56.1256568 112.9927690  55.7121094  55.9076763
 114.2955824  55.2665207  55.2783845 117.2316371  55.4517964  59.8410907
 118.0076761  55.9414417  60.1135524 116.5064505  55.8776018  60.2982777
 119.6688930  56.1645583  60.8984848 120.2633421  55.9241319  60.1878156
 119.7415513  55.4452714  61.5258384 101.8886085  70.0079194  61.2128013
 101.7540553  69.2479595  60.6466011 101.4718148  70.7320094  60.7456801
 113.0245048  65.1916118  50.2204588 113.7280899  65.3966120  50.8362244
 112.3007697  65.7592880  50.4853671 113.8542859  60.9425979  56.3406858
 113.7978060  61.3994531  55.5014490 114.4071201  60.1816664  56.1629701
 117.6647665  56.7315711  57.1656978 117.4084599  56.3312347  57.9965185
 117.0400533  57.4459505  57.0407117 105.0455211  70.9048511  61.4246455
 104.9287595  71.8493944  61.3225146 104.2247658  70.6022073  61.8132254
 114.9331746  65.6298647  52.2703048 115.7677350  65.1979846  52.0880523
 114.7716089  65.4580661  53.1979942 114.5877638  62.1330760  53.6359387
 114.5326442  61.9675032  52.6947831 113.9623693  62.8406793  53.7921577
  99.3770153  57.3698825  67.4620809 100.0229017  56.8597779  67.9508035
  99.1687304  58.1067506  68.0364235 111.9023545  64.4379672  72.9612950
 112.7714705  64.6120325  72.5999585 111.4230297  65.2574089  72.8388679
 107.8973764  51.6338869  53.2144706 107.8852433  52.5780709  53.3712977
 108.7897185  51.4509015  52.9204167 106.0709725  71.5576773  64.6402384
 106.9736972  71.5900383  64.9568879 105.8447096  70.6277224  64.6548719
 107.8263327  70.3107760  61.3012462 106.8758958  70.3109621  61.1876835
 108.1295814  69.5640494  60.7848497 111.7125883  48.2281646  57.4690642
 110.9458279  47.6740133  57.6147325 112.1236588  48.3003515  58.3304794
 103.7167644  54.5166442  71.5595824 104.5799106  54.1603247  71.7699148
 103.1433055  54.1780337  72.2471228 120.3705727  76.0995726  62.3019749
 120.0324239  75.9836791  61.4140284 121.2395495  75.6986891  62.2820756
 116.2292543  77.9531203  58.2916640 115.6657408  77.8621140  57.5232928
 116.1144938  77.1331107  58.7719133 120.8525510  77.2530578  68.2605955
 120.8414151  76.8583376  67.3886459 121.0146150  76.5196651  68.8539726
 113.7756975  79.4482394  61.1300861 114.5678267  79.1073219  60.7147160
 114.0153625  79.5577369  62.0503014 115.7347729  78.7091308  54.0018240
 116.5078605  78.1620295  53.8631115 116.0873128  79.5735557  54.2132701
 117.5732771  80.0367690  67.2085139 117.2822637  80.9413321  67.0931805
 118.2089756  80.0784217  67.9229208 118.4988978  77.4144538  63.7986499
 119.0952550  77.1900561  63.0843461 118.5563950  76.6729284  64.4011946
 118.0714007  74.8683974  51.6336690 118.3239527  74.3465495  50.8720153
 117.1338566  74.7050119  51.7363373 117.7910295  76.7712080  53.8361064
 117.6746553  76.0956983  54.5042149 117.9012555  76.2844454  53.0193218
 120.1341836  76.2322227  57.5407754 119.7700044  75.7052848  58.2520675
 120.9908952  75.8420696  57.3674239 119.7747323  71.2612126  52.5369102
 119.9421726  72.1292363  52.9039573 119.5844492  71.4239408  51.6130391
 115.9835138  76.1742902  60.2371637 115.0585634  76.0419116  60.4449329
 116.2319551  76.9537121  60.7341579 119.7536544  73.7169784  53.5215769
 119.6336169  74.1626835  54.3601249 119.0589133  74.0655102  52.9629307
 113.3443949  75.8176176  61.0715426 113.4736330  76.0710655  61.9854838
 112.6641400  76.4103884  60.7520081 117.5143436  86.4873426  57.1705900
 117.4367466  87.4381251  57.2494381 116.9105080  86.1419298  57.8280827
 120.0060666  73.6601291  69.8267267 119.2294000  74.2195211  69.8170132
 120.6451229  74.1458074  70.3482137 118.2607038  76.4686744  69.3885234
 119.0021723  77.0071788  69.1120058 117.5544024  77.0953033  69.5456786
 120.0893448  73.5488492  65.3590953 120.9354643  73.9727905  65.5025602
 120.0292086  72.8922116  66.0529516 119.6119155  78.9091484  59.0059770
 120.0757500  79.1879187  58.2164392 119.3475953  78.0074928  58.8232860
 116.5043236  78.4562965  61.9439533 117.0744593  78.8850234  61.3057017
 117.0951347  78.1745550  62.6423719 118.5488041  75.0314636  55.8149335
 119.2512084  75.4835680  56.2823261 118.2168669  74.3898455  56.4429228
 116.9968402  73.6226393  70.1900544 116.3667063  74.3042673  70.4235941
 116.8904490  73.5109474  69.2453682 112.2913375  73.2898189  61.1166468
 111.5012429  73.5455717  60.6406579 112.7824622  74.1046527  61.2218509
 114.2428120  73.6542768  58.0749945 113.4459283  73.7661462  58.5933441
 114.0153712  73.9929420  57.2090836 120.0733788  80.1787471  66.0232460
 120.1378220  80.6407878  66.8590632 119.3644711  79.5484836  66.1514770
 110.5751078  73.5428679  63.5481459 110.8259116  74.4275689  63.8139035
 111.1110626  73.3633281  62.7756551 119.7881805  81.8455579  55.8911440
 119.6527480  82.6907114  56.3196288 120.3291618  82.0474856  55.1277374
 116.2749145  67.9247158  72.5525795 115.8816090  67.3713357  73.2273439
 117.0915285  68.2357737  72.9432313 113.2411203  79.3631017  56.4639365
 113.7535723  80.1574267  56.6144930 113.8933915  78.6657307  56.3972967
 115.0506087  82.4796773  58.5462118 115.2272716  83.4014738  58.3583102
 115.8462921  82.1655192  58.9756498 119.1917106  69.3405038  70.1446052
 119.9326819  69.9412191  70.0650514 119.4235029  68.5982675  69.5864094
 114.3358444  74.5261405  68.4224281 114.2211959  73.6246662  68.7231380
 113.4802962  74.7725102  68.0709098 116.1737403  83.9974947  64.5472461
 116.7244828  83.8692010  63.7749455 115.3348879  84.2969836  64.1967353
 119.9704574  80.2626075  68.8916692 120.5032911  79.5014363  68.6616000
 119.4418655  79.9699726  69.6340846 111.2060119  77.6919671  57.2398936
 112.0435341  78.1016679  57.0232643 111.3838387  76.7519113  57.2099130
 120.6871663  70.2044452  57.9868007 119.8313259  69.8151303  57.8073646
 121.0998614  70.2836413  57.1267792 118.4613695  67.8229525  61.3925748
 119.3266692  67.6272334  61.0331638 118.5291204  67.5939877  62.3195105
 121.3357286  79.3912067  56.4035504 120.8078648  78.6564827  56.0908741
 120.8344789  80.1686743  56.1575472 116.0676014  70.0531733  58.7642115
 116.6419766  69.8306915  58.0315308 116.6546997  70.1220428  59.5170717
 116.3945601  72.0836194  52.7838001 115.5582913  72.4210881  53.1047275
 116.2550371  71.9485174  51.8465138 118.3698682  66.9272982  57.4917185
 117.7163094  66.6121999  56.8673799 118.3279156  66.3048723  58.2177008
 119.4809887  77.2092277  49.4070477 118.5736948  76.9781531  49.6061626
 119.9780919  76.4129897  49.5944458 120.6598120  77.3104872  53.9294467
 119.7509339  77.0263905  54.0266937 120.6893204  77.7303951  53.0697774
 111.2286290  75.0310386  57.9109669 111.0310690  74.4379747  57.1860736
 110.6732954  74.7262596  58.6285608 119.2083014  74.9233493  60.0304262
 119.2631624  73.9707329  59.9546739 118.3974216  75.0792932  60.5145561
 120.3574208  78.8513616  51.2682545 119.9193638  78.1349475  50.8088183
 121.0984649  79.0789731  50.7067637 117.1475374  73.5410552  57.7894641
 116.3343240  73.8404723  58.1959833 117.6434368  73.1466241  58.5069123
 119.2983952  83.5368309  59.7228906 119.2560131  83.7629156  58.7937438
 120.2146651  83.3031684  59.8714707 116.6389449  71.1128908  63.4055876
 117.2788828  70.9717667  62.7078839 115.8066979  70.8263421  63.0294478
 117.4149753  80.4131338  59.5190869 118.2090351  79.9181659  59.3173443
 116.7041445  79.8849202  59.1558574 113.7232516  74.5574420  55.5950621
 112.7930104  74.4958876  55.8120583 113.8189988  74.0350373  54.7987262
 113.6418065  71.0829233  58.1828863 113.9024883  71.9974566  58.0738023
 114.4635238  70.6153676  58.3325476 115.1142991  72.4966990  65.3527687
 115.7866044  72.2884352  64.7040336 114.2872777  72.2989076  64.9132920
 119.9921029  80.9860360  63.1988706 119.8532114  80.6179145  64.0714644
 119.2035625  81.5008000  63.0272663 120.5869181  86.0869457  54.5414242
 120.7620936  85.6157500  55.3559865 119.9001969  86.7135223  54.7695503
 115.5170488  75.7709593  66.1130125 115.3790286  75.0389832  66.7141664
 116.4275411  75.6818493  65.8314312 118.1452788  75.4829552  65.6013804
 118.8552407  74.8422745  65.5600423 118.1022097  75.7342447  66.5239985
 116.8581722  72.4694770  67.4209444 116.3219079  72.0185509  68.0731040
 116.2698431  72.6040679  66.6779908 115.1530266  89.2358820  61.3154102
 115.3926864  89.8677344  61.9933121 114.3099462  88.8846860  61.6019462
 116.2683981  71.9283422  49.9835907 115.3913448  71.8072223  49.6198154
 116.7441734  71.1369500  49.7314796 107.7886122  76.7160581  60.0777414
 108.4757161  76.4022312  59.4898430 107.6334250  77.6201946  59.8044666
 112.5920844  71.6050778  64.5062438 112.5079032  70.9976448  63.7712848
 111.7703550  72.0959796  64.5071935 119.6658128  85.0437942  63.7195606
 119.5928299  85.8492914  64.2314911 119.2235521  85.2429908  62.8943628
 119.4547907  84.2809712  57.2298428 118.6715429  84.8231392  57.3236652
 120.1540653  84.7983692  57.6292669 119.3479526  72.2321725  59.6004318
 118.9777314  71.6792765  60.2885223 119.8438619  71.6279858  59.0479318
 117.1768725  82.6919220  66.6959336 117.8778184  83.3255703  66.8488730
 116.7063840  83.0333951  65.9354975 112.7736443  82.2255575  63.6290438
 113.3589880  81.4799263  63.7618343 112.5761281  82.5359531  64.5127102
 115.6275098  85.2606822  58.6452881 114.9585473  85.7452950  58.1616921
 115.4887968  85.5076042  59.5596259 107.3654098  74.7961175  62.3494882
 107.4038197  74.2624766  63.1432000 106.8594391  74.2696380  61.7305859
 119.7680367  87.2950566  65.2435539 120.3198675  87.4582187  66.0084624
 120.1086560  87.8855003  64.5715564 114.7444860  69.6425715  65.8457424
 114.8086186  70.5040546  65.4334822 114.6811980  69.0299717  65.1129782
 114.2197133  71.7148848  69.4930458 114.8469171  71.3325925  70.1067982
 113.3625051  71.4963050  69.8586151 110.9962675  73.5225277  55.4248813
 111.2916116  72.6135955  55.3715867 110.0950711  73.5013016  55.1029815
 114.5256922  71.5981274  61.4076362 113.8043508  72.2117241  61.2683835
 115.3150178  72.1339038  61.3293008 117.3283236  68.9335700  67.6817013
 117.8517638  69.1797997  68.4443323 117.1095569  69.7655735  67.2620151
 112.7250517  71.2039375  55.5488138 112.3963223  70.3236754  55.3663244
 113.0789888  71.1487043  56.4364527 115.8392340  71.4912344  55.9163616
 116.1788413  72.0198266  55.1942224 116.2864460  71.8292751  56.6922182
 118.5335781  69.8749395  65.3666684 118.1932601  69.0757208  65.7687364
 117.8274787  70.1751106  64.7943517 119.1852253  66.9598708  63.8194007
 120.0078322  66.4859186  63.6972897 119.4290316  67.7389191  64.3192693
 117.8260487  69.9886966  54.1156909 118.5468850  70.3668219  53.6120625
 117.2025791  70.7075843  54.2191887 116.7090831  73.6517828  61.6285985
 116.5635412  73.9658131  62.5210267 116.2316035  74.2702729  61.0756884
 118.5687214  70.6420376  61.6766875 118.5548783  69.7461470  61.3399173
 119.2859642  70.6491040  62.3105161 120.4213345  71.0757716  63.7220002
 120.1631123  71.9974787  63.7204333 119.8898385  70.6788151  64.4120467
 111.1836494  76.1923173  64.5673647 110.6389962  76.9682981  64.6993921
 112.0615843  76.5393977  64.4092768 117.9724110  69.5234757  56.9454445
 118.0940021  68.5951403  57.1445333 117.6826153  69.5373442  56.0332761
 120.8415301  67.2089667  60.0821165 120.8636997  67.2729000  59.1273145
 121.2583360  66.3694176  60.2761671 111.9702515  75.3193069  67.4603804
 111.2284251  75.4675704  68.0468434 111.6495260  75.5801335  66.5970553
 119.9146178  84.8609047  67.2584194 120.2233305  84.6158194  68.1306893
 120.7121660  85.0655686  66.7703064 119.9366790  87.0146957  59.4889570
 119.4971780  86.5223335  60.1822427 120.6874907  86.4719924  59.2481645
 112.4159129  83.2058498  59.4914198 113.2417149  82.9062269  59.1112842
 112.0653181  82.4366120  59.9403987 117.3840662  82.5584966  61.5611872
 116.7620672  81.8955671  61.2614100 118.0545529  82.5846098  60.8785520
 110.6167734  81.1244824  60.4503132 109.7799642  80.6966998  60.2687133
 110.5891380  81.3177267  61.3873923 117.4565190  71.0366754  71.1544378
 117.5053345  71.9128877  70.7722147 117.9987704  70.4944147  70.5816021
 116.9454169  81.1088889  55.0370332 117.0942290  81.7924354  54.3837005
 117.7520613  81.0893979  55.5519788 119.6864478  71.7898126  67.9090736
 118.8167788  72.0831692  67.6373325 119.9223959  72.3738571  68.6298000
 114.7006802  77.1354067  56.0431401 114.4552844  76.2316397  56.2411611
 114.8702717  77.1371217  55.1010879 113.9702450  72.8682424  53.5417563
 113.2771695  72.9426779  52.8857599 113.7254202  72.1042768  54.0639080
 120.4449575  83.6037020  52.5082080 119.8723542  84.2227207  52.0552552
 121.0182368  84.1536381  53.0422002 119.0139290  72.8647809  49.7853017
 118.1070746  72.5680922  49.8615731 119.2915271  72.5677627  48.9187304
 109.9317231  74.1854172  60.2352064 109.6120015  73.3319480  59.9426438
 109.3850659  74.4002750  60.9910031 113.7097138  76.9016613  63.9521570
 113.9283148  77.8333721  63.9709604 114.1222912  76.5424588  64.7376374
 120.6301356  67.4084699  55.9397259 119.8202084  67.0631783  56.3152505
 121.3185773  67.0992242  56.5284870 118.5825004  72.4749819  73.3424319
 118.4821731  73.4244176  73.2736410 118.3646546  72.1468058  72.4700389
 117.7838075  69.7234744  49.9264997 118.6457239  70.0489642  50.1860814
 117.9688419  68.9366240  49.4138062 109.8005491  77.8057084  62.2045185
 109.1068962  77.3911036  61.6915140 110.5478482  77.8477620  61.6078604
 118.4456274  75.9046958  72.1589381 117.9623355  76.7047318  72.3653270
 118.5317213  75.9154903  71.2056825 111.7142233  77.7375337  60.0811200
 111.6912921  77.8363025  59.1293083 112.0242870  78.5840488  60.4028366
 114.3729611  79.7951492  64.1957815 115.3272865  79.7635435  64.1287746
 114.1742135  79.3342116  65.0108041 114.9628993  78.3652609  66.7628612
 115.7821882  78.8596687  66.7863450 115.2365801  77.4484577  66.7346180
 112.7279840  85.3371112  61.2128013 112.5934308  84.5771513  60.6466011
 112.3111902  86.0612012  60.7456801 115.8848966  86.2340429  61.4246455
 115.7681350  87.1785861  61.3225146 115.0641412  85.9313991  61.8132254
 110.2163908  72.6990742  67.4620809 110.8622771  72.1889696  67.9508035
 110.0081059  73.4359424  68.0364235 118.7367518  66.9630787  53.2144706
 118.7246188  67.9072627  53.3712977 119.6290940  66.7800932  52.9204167
 116.9103480  86.8868691  64.6402384 117.8130727  86.9192301  64.9568879
 116.6840850  85.9569142  64.6548719 118.6657082  85.6399677  61.3012462
 117.7152713  85.6401539  61.1876835 118.9689568  84.8932412  60.7848497
 114.5561399  69.8458359  71.5595824 115.4192860  69.4895164  71.7699148
 113.9826809  69.5072254  72.2471228 118.6279876  92.0452499  60.0777414
 119.3150916  91.7314229  59.4898430 118.4728005  92.9493864  59.8044666
 118.2047852  90.1253093  62.3494882 118.2431952  89.5916683  63.1432000
 117.6988145  89.5988298  61.7305859 121.4561489  96.4536742  60.4503132
 120.6193397  96.0258916  60.2687133 121.4285134  96.6469185  61.3873923
 120.7710985  89.5146090  60.2352064 120.4513770  88.6611398  59.9426438
 120.2244413  89.7294668  60.9910031 120.6399245  93.1349001  62.2045185
 119.9462717  92.7202954  61.6915140 121.3872236  93.1769538  61.6078604
  74.1568420   2.1767878  43.8951207  74.0792449   3.1275703  43.9739687
  73.5530063   1.8313750  44.5526133  71.7955249   4.9253272  48.0399409
  72.0351847   5.5571796  48.7178427  70.9524446   4.5741312  48.3264768
  72.2700081   0.9501274  45.3698187  71.6010457   1.4347402  44.8862228
  72.1312951   1.1970494  46.2841566  76.4105350   2.9845017  51.9680846
  76.9623658   3.1476639  52.7329931  76.7511544   3.5749455  51.2960871
  69.3704823   1.0265564  47.9373319  69.2359291   0.2665965  47.3711317
  68.9536886   1.7506464  47.4702108  72.5273949   1.9234881  48.1491762
  72.4106333   2.8680313  48.0470452  71.7066395   1.6208442  48.5377561
  73.5528463   2.5763143  51.3647690  74.4555710   2.6086753  51.6814185
  73.3265833   1.6463594  51.3794026  87.8524465   7.1182096  49.0265056
  87.5142977   7.0023161  48.1385591  88.7214233   6.7173261  49.0066062
  83.7111281   8.9717572  45.0161947  83.1476146   8.8807509  44.2478235
  83.5963676   8.1517477  45.4964440  88.3344248   8.2716948  54.9851262
  88.3232889   7.8769746  54.1131765  88.4964887   7.5383020  55.5785033
  81.2575713  10.4668764  47.8546167  82.0497005  10.1259588  47.4392467
  81.4972363  10.5763739  48.7748321  89.2910839  12.6388540  40.3276412
  88.6398819  13.2242620  39.9410426  90.0855202  13.1694735  40.3871449
  83.2166467   9.7277677  40.7263546  83.9897343   9.1806664  40.5876422
  83.5691865  10.5921926  40.9378008  85.0551509  11.0554059  53.9330446
  84.7641375  11.9599690  53.8177112  85.6908494  11.0970587  54.6474515
  85.9807716   8.4330908  50.5231805  86.5771288   8.2086930  49.8088768
  86.0382688   7.6915653  51.1257253  90.7686105  10.3278972  40.8645396
  90.1331938  10.4013598  41.5766301  90.4383511  10.9172571  40.1864475
  85.2729033   7.7898449  40.5606371  85.1565291   7.1143353  41.2287455
  85.3831293   7.3030823  39.7438524  87.6160574   7.2508596  44.2653060
  87.2518781   6.7239217  44.9765982  88.4727690   6.8607065  44.0919546
  90.0141394  10.7415475  50.9280239  89.7142117  11.6440514  50.8196046
  89.6692454  10.4747658  51.7801392  83.4653876   7.1929272  46.9616944
  82.5404372   7.0605486  47.1694635  83.7138289   7.9723491  47.4586886
  80.8262687   6.8362545  47.7960733  80.9555068   7.0897024  48.7100144
  80.1460138   7.4290253  47.4765388  84.9962174  17.5059795  43.8951207
  84.9186204  18.4567620  43.9739687  84.3923818  17.1605668  44.5526133
  85.7425776   7.4873114  56.1130541  86.4840460   8.0258158  55.8365364
  85.0362762   8.1139403  56.2702093  91.2181116   9.6302254  54.7102702
  91.6264472   9.1884665  53.9657335  90.4958377   9.0554882  54.9636895
  91.5409930  10.1903445  48.4654991  90.9118793  10.3549159  47.7631059
  91.1535592  10.6045055  49.2365955  95.4199162  11.1257883  45.8199355
  94.7350200  11.5056784  45.2696388  95.5043012  11.7353210  46.5531303
  92.6750094   8.7717842  52.4194698  92.8866989   9.4149602  51.7429080
  92.6279842   7.9380159  51.9516629  87.0937892   9.9277853  45.7305076
  87.5576238  10.2065556  44.9409699  86.8294690   9.0261298  45.5478167
  83.9861973   9.4749335  48.6684840  84.5563330   9.9036603  48.0302324
  84.5770085   9.1931919  49.3669025  79.7732112   4.3084558  47.8411775
  78.9831166   4.5642087  47.3651886  80.2643360   5.1232896  47.9463816
  93.7895922  11.6489797  50.5917056  94.6113366  11.2469985  50.3099737
  93.7858325  11.5458032  51.5433172  81.7246858   4.6729137  44.7995252
  80.9278021   4.7847832  45.3178747  81.4972450   5.0115790  43.9336142
  87.5552525  11.1973841  52.7477766  87.6196958  11.6594248  53.5835938
  86.8463449  10.5671206  52.8760076  78.0569815   4.5615049  50.2726766
  78.3077854   5.4462059  50.5384342  78.5929364   4.3819650  49.5001858
  87.2700543  12.8641948  42.6156747  87.1346218  13.7093484  43.0441594
  87.8110355  13.0661226  41.8522680  80.7229940  10.3817386  43.1884672
  81.2354461  11.1760636  43.3390236  81.3752653   9.6843677  43.1218273
  82.5324825  13.4983142  45.2707425  82.7091453  14.4201107  45.0828409
  83.3281659  13.1841562  45.7001805  81.8177182   5.5447774  55.1469588
  81.7030697   4.6433032  55.4476687  80.9621699   5.7911471  54.7954405
  88.8969019  13.4865515  56.7457089  88.4532874  12.7001893  56.4277993
  89.5586233  13.6744665  56.0800980  83.6556141  15.0161316  51.2717767
  84.2063566  14.8878380  50.4994761  82.8167616  15.3156205  50.9212660
  90.9950257  13.7668315  54.7738490  90.9768733  14.5877196  54.2818759
  91.9170177  13.6422390  54.9988631  87.4523312  11.2812444  55.6161998
  87.9851648  10.5200732  55.3861306  86.9237393  10.9886096  56.3586153
  78.6878857   8.7106041  43.9644242  79.5254079   9.1203049  43.7477950
  78.8657125   7.7705483  43.9344436  88.8176024  10.4098437  43.1280810
  88.2897386   9.6751196  42.8154048  88.3163527  11.1873113  42.8820779
  93.7968870   8.6047457  48.2447857  93.1392545   9.2946718  48.3327985
  94.6009270   8.9943889  48.5881843  86.9628624   8.2278647  36.1315783
  86.0555686   7.9967900  36.3306932  87.4599656   7.4316266  36.3189765
  89.8696703  16.9376154  39.0512470  89.1958402  17.2407851  39.6597427
  90.2562525  17.7405234  38.7017927  88.1416858   8.3291242  40.6539774
  87.2328077   8.0450275  40.7512243  88.1711942   8.7490320  39.7943080
  93.3736125  11.9397831  44.4230941  92.9198452  11.0988741  44.4796132
  92.7430092  12.5759230  44.7605721  91.8169065  13.7774328  45.3580759
  92.1092039  14.3379385  44.6393125  92.3267685  14.0702889  46.1133918
  78.7105028   6.0496756  44.6354976  78.5129428   5.4566117  43.9106042
  78.1551692   5.7448966  45.3530915  87.8392946   9.8699985  37.9927852
  87.4012376   9.1535844  37.5333489  88.5803387  10.0976100  37.4312943
  86.7802690  14.5554679  46.4474212  86.7378869  14.7815525  45.5182744
  87.6965389  14.3218054  46.5960014  95.9835440  10.2133709  49.0615442
  96.4171947  10.1208999  49.9098496  96.6967021  10.1891210  48.4235458
  84.8968491  11.4317708  46.2436175  85.6909089  10.9368028  46.0418750
  84.1860183  10.9035571  45.8803881  89.7163335  13.8135804  50.5948543
  89.7700357  14.3826740  51.3626259  88.8478116  13.9837689  50.2302580
  81.2051254   5.5760790  42.3195928  80.2748842   5.5145245  42.5365890
  81.3008726   5.0536742  41.5232569  96.8450990  10.2557410  51.5948328
  97.0386880  11.1603221  51.8407602  96.7451608   9.7964829  52.4286913
  91.9066098  10.4064153  57.1689208  91.7551605  10.1774705  56.2519292
  91.8970778  11.3634754  57.1820553  88.6751435   7.9796066  52.1535475
  89.6043495   8.1307225  51.9804442  88.2542465   8.0680086  51.2984121
  87.4739767  12.0046730  49.9234012  87.3350852  11.6365514  50.7959950
  86.6854363  12.5194369  49.7517970  88.0687918  17.1055826  41.2659549
  88.2439674  16.6343870  42.0805171  87.3820707  17.7321593  41.4940809
  89.0244982  11.3828333  47.3122850  88.6894814  11.3429103  48.2080500
  88.5248927  10.7173049  46.8393260  82.9989226   6.7895963  52.8375431
  82.8609024   6.0576202  53.4386970  83.9094149   6.7004863  52.5559619
  91.9604173   8.7284367  37.5859910  91.3433344   8.0031195  37.4892962
  91.4920662   9.4893727  37.2426984  85.6271526   6.5015922  52.3259111
  86.3371145   5.8609114  52.2845729  85.5840834   6.7528817  53.2485292
  93.6158305  13.4383275  55.2465690  93.5570851  12.7542496  54.5796273
  94.0177823  14.1802265  54.7946316  82.6349004  20.2545189  48.0399409
  82.8745602  20.8863713  48.7178427  81.7918200  19.9033229  48.3264768
  93.6175712  11.4022859  53.4779670  92.7302491  11.0648781  53.6006069
  94.1874263  10.6705891  53.7148435  75.2704859   7.7346951  46.8022721
  75.9575899   7.4208681  46.2143736  75.1152988   8.6388316  46.5289973
  87.1476866  16.0624312  50.4440913  87.0747037  16.8679283  50.9560217
  86.7054259  16.2616277  49.6188934  86.9366645  15.2996082  43.9543734
  86.1534167  15.8417762  44.0481959  87.6359390  15.8170061  44.3537976
  89.6075549  15.9611146  52.5999072  90.3203521  16.5958611  52.5274973
  89.1165578  16.0575012  51.7839073  91.3293076   9.8662398  44.1716363
  90.3949355   9.9863861  44.0021068  91.5069745   8.9634865  43.9076373
  84.6587463  13.7105589  53.4204642  85.3596922  14.3442072  53.5734037
  84.1882578  14.0520321  52.6600282  92.7841859  12.0523539  41.7052549
  93.0601702  11.9380134  42.6146424  91.9146357  11.6541024  41.6664723
  89.4195923  16.3009890  45.3485363  89.6018317  15.4831546  45.8113115
  90.2428909  16.5177582  44.9110253  89.7538088  15.2278075  42.6100412
  90.2825854  14.7170530  41.9970574  90.0166308  14.9120605  43.4745945
  88.5076322   7.0070008  57.7323230  87.8316959   6.9064137  58.4025605
  89.3303956   6.8509221  58.1959227  80.2555181  13.2441944  50.3535745
  80.8408618  12.4985632  50.4863649  80.0580019  13.5545901  51.2372409
  83.1093836  16.2793192  45.3698187  82.4404211  16.7639319  44.8862228
  82.9706706  16.5262412  46.2841566  74.8472835   5.8147544  49.0740188
  74.8856935   5.2811135  49.8677306  74.3413128   5.2882750  48.4551165
  87.2499105  18.3136935  51.9680846  87.8017413  18.4768557  52.7329931
  87.5905298  18.9041373  51.2960871  92.1009979  13.1398193  57.8229500
  92.6449883  13.7528151  57.3284455  91.5196824  13.6977771  58.3396513
  78.4781413   4.5411647  42.1494120  78.7734854   3.6322325  42.0961173
  77.5769449   4.5199386  41.8275122  90.3867492  16.2618911  48.9544528
  90.2618631  15.4608650  48.4455473  91.0446583  16.7565104  48.4658498
  92.4502400  14.0627931  50.5824078  91.5032736  13.9433282  50.5102405
  92.7985173  13.1750429  50.6650340  89.4548834  13.8580647  46.7828430
  89.3073796  12.9297354  46.9636000  90.2802327  13.8800738  46.2985506
  93.0582955  14.6809206  47.8693303  93.9829503  14.4752067  47.7317754
  92.8898259  14.4325607  48.7782645  92.8478272  15.1994873  43.2255395
  93.0215149  14.6341296  42.4729247  93.3407163  15.9995768  43.0434884
  78.6655231   7.2109542  51.2918953  78.1208699   7.9869350  51.4239228
  79.5434581   7.5580347  51.1338075  93.8353444  14.5161638  40.3252293
  94.5304349  15.1368330  40.5439607  94.1776594  13.6656989  40.6004671
  79.4521253   6.3379438  54.1849110  78.7102989   6.4862074  54.7713741
  79.1313998   6.5987704  53.3215860  95.7344867  11.9661343  41.8539624
  96.2596191  12.3048616  41.1288944  95.6467220  11.0308358  41.6702758
  87.3964916  15.8795417  53.9829500  87.7052042  15.6344563  54.8552200
  88.1940398  16.0842055  53.4948370  87.4185528  18.0333326  46.2134877
  86.9790518  17.5409705  46.9067733  88.1693645  17.4906294  45.9726952
  79.8977867  14.2244867  46.2159505  80.7235887  13.9248639  45.8358148
  79.5471919  13.4552490  46.6649293  84.8659400  13.5771335  48.2857178
  84.2439409  12.9142040  47.9859406  85.5364267  13.6032467  47.6030826
  78.0986472  12.1431194  47.1748438  77.2618380  11.7153368  46.9932440
  78.0710117  12.3363637  48.1119230  95.4238773  12.5994247  57.1590822
  94.6334317  12.5818386  56.6195321  95.1872128  13.1382540  57.9139858
  84.4272907  12.1275259  41.7615639  84.5761027  12.8110723  41.1082312
  85.2339350  12.1080349  42.2765095  97.0454845  11.8683655  54.7165572
  96.7539653  12.2313635  55.5529033  96.4326976  11.1550663  54.5378904
  82.1825540   8.1540436  42.7676708  81.9371582   7.2502766  42.9656918
  82.3521455   8.1557587  41.8256186  87.9268313  14.6223389  39.2327386
  87.3542280  15.2413576  38.7797858  88.5001106  15.1722751  39.7667308
  91.1465572  14.9060539  40.3635969  92.0796245  14.8406101  40.5668844
  91.0588785  15.7416806  39.9050501  93.7753589  14.2226410  37.3239916
  93.6967220  13.8886273  38.2175674  94.5963256  14.7148178  37.3231389
  88.1953804  10.0101948  58.0344096  89.1156813  10.1880547  58.2284142
  88.1603387   9.0657993  57.8823795  77.4135969   5.2040542  46.9597370
  77.0938753   4.3505850  46.6671745  76.8669397   5.4189120  47.7155338
  81.1915876   7.9202983  50.6766877  81.4101886   8.8520091  50.6954911
  81.6041650   7.5610957  51.4621681  77.2824229   8.8243453  48.9290492
  76.5887700   8.4097406  48.4160446  78.0297220   8.8663990  48.3323911
  85.9275011   6.9233327  58.8834688  85.4442093   7.7233687  59.0898577
  86.0135950   6.9341272  57.9302132  79.1960971   8.7561707  46.8056507
  79.1731659   8.8549394  45.8538390  79.5061608   9.6026858  47.1273673
  81.8548349  10.8137862  50.9203121  82.8091602  10.7821804  50.8533053
  81.6560873  10.3528486  51.7353347  82.4447731   9.3838978  53.4873919
  83.2640620   9.8783057  53.5108756  82.7184539   8.4670946  53.4591487
  80.2098578  16.3557482  47.9373319  80.0753046  15.5957882  47.3711317
  79.7930640  17.0798381  47.4702108  91.3457541  11.5394405  36.9449895
  92.0493391  11.7444408  37.5607550  90.6220190  12.1071167  37.2098978
  83.3667704  17.2526799  48.1491762  83.2500088  18.1972231  48.0470452
  82.5460150  16.9500360  48.5377561  93.2544238  11.9776934  38.9948355
  94.0889842  11.5458133  38.8125829  93.0928581  11.8058948  39.9225249
  92.9090130   8.4809048  40.3604694  92.8538934   8.3153319  39.4193138
  92.2836186   9.1885081  40.5166884  77.6982645   3.7177112  54.1866116
  78.3441509   3.2076066  54.6753341  77.4899796   4.4545794  54.7609541
  90.2236038  10.7857959  59.6858257  91.0927197  10.9598612  59.3244892
  89.7442789  11.6052376  59.5633986  84.3922218  17.9055060  51.3647690
  85.2949464  17.9378671  51.6814185  84.1659588  16.9755511  51.3794026
  86.1475820  16.6586047  48.0257769  85.1971451  16.6587909  47.9122141
  86.4508306  15.9118782  47.5093804 101.8828513  22.4946585  49.0903531
 102.5206923  22.3753333  48.3866871 101.7649356  23.4427429  49.1491483
  98.6918220  22.4474014  49.0265056  98.3536731  22.3315078  48.1385591
  99.5607988  22.0465179  49.0066062  99.1738003  23.6008865  54.9851262
  99.1626643  23.2061664  54.1131765  99.3358642  22.8674938  55.5785033
  96.3926499  21.2162261  38.3581996  96.6452020  20.6943782  37.5965459
  95.4551058  21.0528406  38.4608680 101.4369782  20.2198039  46.1656739
 102.2232871  19.8017462  45.8147156 101.7008486  21.1244131  46.3338388
 101.6079859  25.6570890  40.8645396 100.9725692  25.7305516  41.5766301
 101.2777265  26.2464488  40.1864475 106.8378209  20.1573272  47.0689718
 107.5703381  19.5872489  47.3027547 106.0817565  19.7694873  47.5096223
  96.1122788  23.1190367  40.5606371  95.9959046  22.4435270  41.2287455
  96.2225048  22.6322741  39.7438524  98.4554329  22.5800514  44.2653060
  98.0912536  22.0531135  44.9765982  99.3121444  22.1898983  44.0919546
 104.3603629  13.8694847  51.5284326 104.0286954  14.7390258  51.3045541
 103.7649243  13.5531131  52.2078357  98.0959816  17.6090414  39.2614409
  98.2634218  18.4770650  39.6284880  97.9056985  17.7717695  38.3375698
 100.8535149  26.0707393  50.9280239 100.5535872  26.9732431  50.8196046
 100.5086208  25.8039576  51.7801392  94.3047630  22.5221189  46.9616944
  93.3798127  22.3897403  47.1694635  94.5532043  23.3015409  47.4586886
 104.2532293  18.5889933  48.6077677 103.3449170  18.5205341  48.3136438
 104.2019888  19.0661878  49.4359502  98.0749036  20.0648071  40.2461076
  97.9548662  20.5105122  41.0846556  97.3801625  20.4133389  39.6874614
  91.6656441  22.1654463  47.7960733  91.7948822  22.4188942  48.7100144
  90.9853893  22.7582171  47.4765388  98.3273158  20.0079578  56.5512574
  97.5506492  20.5673498  56.5415438  98.9663721  20.4936361  57.0727444
 106.1193939  16.7906371  50.3855550 105.4768319  17.0838904  49.7395345
 105.6148867  16.6759291  51.1908747 103.7734103  20.5369544  41.0741410
 104.6851959  20.7696931  40.8989107 103.2643750  21.1206589  40.5116488
  96.5819531  22.8165032  56.1130541  97.3234215  23.3550076  55.8365364
  95.8756516  23.4431320  56.2702093 102.0574870  24.9594172  54.7102702
 102.4658226  24.5176583  53.9657335 101.3352132  24.3846800  54.9636895
  98.4105940  19.8966779  52.0836259  99.2567136  20.3206192  52.2270908
  98.3504578  19.2400403  52.7774822 102.3803685  25.5195363  48.4654991
 101.7512547  25.6841077  47.7631059 101.9929347  25.9336972  49.2365955
 106.2592917  26.4549801  45.8199355 105.5743955  26.8348702  45.2696388
 106.3436766  27.0645127  46.5531303 101.5605386  17.5571147  53.7417433
 101.3166318  18.3113208  53.2051709 101.8365316  17.9356495  54.5764680
 103.5143848  24.1009760  52.4194698 103.7260744  24.7441520  51.7429080
 103.4673597  23.2672076  51.9516629 101.1170077  16.7127580  49.3231271
 100.2554556  17.0108834  49.6148008 101.1432512  16.9297979  48.3912303
  96.8700533  21.3792923  42.5394641  97.5724576  21.8313967  43.0068568
  96.5381161  20.7376742  43.1674535  95.3180894  19.9704680  56.9145851
  94.6879555  20.6520961  57.1481248  95.2116982  19.8587761  55.9698989
  90.6125867  19.6376476  47.8411775  89.8224921  19.8934004  47.3651886
  91.1037114  20.4524814  47.9463816 104.6289676  26.9781715  50.5917056
 105.4507120  26.5761902  50.3099737 104.6252079  26.8749949  51.5433172
  92.5640612  20.0021055  44.7995252  91.7671775  20.1139749  45.3178747
  92.3366204  20.3407707  43.9336142  98.3946280  26.5265758  52.7477766
  98.4590712  26.9886166  53.5835938  97.6857204  25.8963123  52.8760076
  88.8963570  19.8906966  50.2726766  89.1471608  20.7753976  50.5384342
  89.4323118  19.7111568  49.5001858 112.7195669  23.3220464  46.9402027
 111.9659378  22.7527862  46.7846032 112.8543211  23.2883128  47.8872662
  94.5961637  14.2725446  59.2771102  94.2028583  13.7191644  59.9518746
  95.4127777  14.5836024  59.6677619  97.5129598  15.6883325  56.8691358
  98.2539311  16.2890478  56.7895821  97.7447521  14.9460963  56.3109401
  92.6570936  20.8739692  55.1469588  92.5424451  19.9724949  55.4476687
  91.8015454  21.1203389  54.7954405  99.7362774  28.8157432  56.7457089
  99.2926628  28.0293811  56.4277993 100.3979987  29.0036583  56.0800980
 101.8344012  29.0960232  54.7738490 101.8162487  29.9169113  54.2818759
 102.7563932  28.9714308  54.9988631  98.2917066  26.6104362  55.6161998
  98.8245403  25.8492650  55.3861306  97.7631147  26.3178014  56.3586153
 101.4586761  11.7164428  51.1455640 101.1151030  12.6066069  51.0694751
 101.8265724  11.5266085  50.2825225 101.4237044  21.7073039  39.6528075
 100.9083667  22.4777643  39.8916463 101.1514352  21.0338175  40.2761137
  99.0084155  16.5522740  44.7113314  98.1525751  16.1629590  44.5318952
  99.4211107  16.6314700  43.8513099 100.5383301  14.0869083  49.1104873
 100.0348097  14.0499218  48.2972679 100.8313908  14.9961826  49.1701530
  96.7826187  14.1707813  48.1171055  97.6479184  13.9750621  47.7576945
  96.8503696  13.9418164  49.0440412 106.3971318  24.4605393  41.5881249
 105.6200761  24.1216553  41.1436411 107.0762799  24.4658017  40.9136214
 101.2123347  19.5800131  41.4787856 100.9073482  19.8946280  42.3298000
 102.1653789  19.6581551  41.5215189 104.6362625  23.9339375  48.2447857
 103.9786299  24.6238636  48.3327985 105.4403024  24.3235807  48.5881843
  94.3888506  16.4010021  45.4887422  94.9632258  16.1785202  44.7560615
  94.9759489  16.4698715  46.2416023 103.4468084  22.2883747  46.2951798
 103.9599965  22.9213739  46.7973508 104.0969307  21.6884943  45.9295158
  94.7158093  18.4314482  39.5083307  93.8795406  18.7689168  39.8292582
  94.5762863  18.2963461  38.5710444  96.6911174  13.2751269  44.2162491
  96.0375586  12.9600287  43.5919106  96.6491648  12.6527010  44.9422314
  97.8022379  23.5570565  36.1315783  96.8949441  23.3259818  36.3306932
  98.2993411  22.7608184  36.3189765  99.9248914  19.7633203  48.5410139
  99.0071476  19.9848150  48.3831827 100.3409058  19.8379513  47.6821846
 100.7083962  21.1624619  43.6712819 101.4555781  21.6746016  43.3619941
 100.9775552  20.8408671  44.5317213  98.9810612  23.6583159  40.6539774
  98.0721832  23.3742192  40.7512243  99.0105696  24.0782238  39.7943080
 104.2129880  27.2689749  44.4230941 103.7592207  26.4280659  44.4796132
 103.5823847  27.9051147  44.7605721 103.1562799  18.1981735  45.6531609
 102.4185556  17.6859121  45.9841851 103.4089573  17.7582117  44.8414885
  97.5295506  21.2711780  46.7549569  97.5844116  20.3185616  46.6792045
  96.7186708  21.4271219  47.2390867  98.6786700  25.1991903  37.9927852
  98.2406130  24.4827762  37.5333489  99.4197141  25.4268018  37.4312943
  95.4687866  19.8888840  44.5139948  94.6555732  20.1883010  44.9205140
  95.9646861  19.4944529  45.2314430 101.0662078  20.3530664  53.3454842
 101.4211466  20.5802137  54.2049307 101.7134209  20.6849041  52.7232097
 106.7959815  23.4749100  44.0504171 106.6577714  23.6650696  43.1225360
 106.4396034  24.2368483  44.5072222  94.9601941  17.4607195  50.1301183
  95.6001320  17.3195954  49.4324146  94.1279472  17.1741709  49.7539785
 106.8229195  25.5425627  49.0615442 107.2565701  25.4500916  49.9098496
 107.5360775  25.5183128  48.4235458 100.5557089  29.1427721  50.5948543
 100.6094112  29.7118658  51.3626259  99.6871871  29.3129606  50.2302580
  91.9630558  17.4307520  44.9074169  92.2237375  18.3452853  44.7983330
  92.7847730  16.9631963  45.0570782  93.4355483  18.8445277  52.0772994
  94.1078536  18.6362640  51.4285643  92.6085269  18.6467363  51.6378226
 107.6844744  25.5849328  51.5948328 107.8780634  26.4895138  51.8407602
 107.5845362  25.1256747  52.4286913  99.3381055  15.4707218  54.0938655
  98.6908970  16.1697168  54.0003131 100.1082070  15.9043362  54.4614903
 102.7459853  25.7356071  57.1689208 102.5945359  25.5066622  56.2519292
 102.7364532  26.6926672  57.1820553  99.5145189  23.3087983  52.1535475
 100.4437249  23.4599143  51.9804442  99.0936219  23.3972004  51.2984121
  98.3133521  27.3338648  49.9234012  98.1744607  26.9657432  50.7959950
  97.5248117  27.8486287  49.7517970 102.7997928  24.0576285  37.5859910
 102.1827098  23.3323113  37.4892962 102.3314416  24.8185645  37.2426984
  96.4665281  21.8307840  52.3259111  97.1764899  21.1901032  52.2845729
  96.4234589  22.0820735  53.2485292 104.4552059  28.7675193  55.2465690
 104.3964606  28.0834413  54.5796273 104.8571578  29.5094183  54.7946316
  95.1794215  18.8173058  54.1454750  94.6431572  18.3663796  54.7976347
  94.5910923  18.9518966  53.4025215  94.5896474  18.2761709  36.7081214
  93.7125940  18.1550510  36.3443461  95.0654227  17.4847787  36.4560103
 104.4569467  26.7314777  53.4779670 103.5696245  26.3940699  53.6006069
 105.0268018  25.9997808  53.7148435  90.9133336  17.9529065  51.2307745
  90.8291525  17.3454735  50.4958155  90.0916042  18.4438084  51.2317241
 101.0857050  16.4382629  46.5977940 101.5825749  15.6852591  46.2779010
 100.3144031  16.4746945  46.0321149 108.9386807  22.1422994  48.2396231
 108.9276684  23.0247710  47.8690164 108.0704187  21.7894545  48.0450768
 100.4469304  31.2903063  52.5999072 101.1597276  31.9250528  52.5274973
  99.9559332  31.3866929  51.7839073 102.1686831  25.1954316  44.1716363
 101.2343109  25.3155779  44.0021068 102.3463499  24.2926783  43.9076373
  97.6692019  18.5800012  46.3249624  97.2989806  18.0271052  47.0130530
  98.1651111  17.9758145  45.7724624 105.5559382  21.0371635  44.7066397
 106.0219834  21.8699627  44.6326700 106.0066882  20.5716617  45.4111656
 103.6235613  27.3815457  41.7052549 103.8995457  27.2672051  42.6146424
 102.7540112  26.9832941  41.6664723 103.5276045  13.4052222  48.7457299
 102.6139124  13.6356449  48.9139506 103.9569146  13.4890666  49.5971331
 103.2982503  21.5942114  51.2457193 102.6453953  21.8418022  50.5909646
 103.6762883  20.7806252  50.9119670  99.3470076  22.3361925  57.7323230
  98.6710713  22.2356055  58.4025605 100.1697710  22.1801139  58.1959227
  85.6866590  21.1439462  49.0740188  85.7250689  20.6103053  49.8677306
  85.1806883  20.6174668  48.4551165  93.0657352  15.9904003  52.5702731
  93.1298679  16.8518834  52.1580128  93.0024473  15.3778004  51.8375089
  92.5409625  18.0627135  56.2175765  93.1681664  17.6804212  56.8313289
  91.6837544  17.8441337  56.5831457 102.9403733  28.4690110  57.8229500
 103.4843637  29.0820069  57.3284455 102.3590578  29.0269689  58.3396513
  89.3175168  19.8703564  42.1494120  89.6128609  18.9614243  42.0961173
  88.4163203  19.8491304  41.8275122 101.2261246  31.5910828  48.9544528
 101.1012386  30.7900568  48.4455473 101.8840337  32.0857022  48.4658498
  92.8469415  17.9459561  48.1321668  92.1256000  18.5595529  47.9929142
  93.6362670  18.4817326  48.0538314 103.2896155  29.3919848  50.5824078
 102.3426490  29.2725200  50.5102405 103.6378928  28.5042346  50.6650340
  95.6495728  15.2813987  54.4062320  96.1730130  15.5276284  55.1688629
  95.4308061  16.1134022  53.9865457  91.0463009  17.5517662  42.2733445
  90.7175715  16.6715041  42.0908551  91.4002380  17.4965331  43.1609834
  94.1604832  17.8390632  42.6408922  94.5000905  18.3676553  41.9187531
  94.6076953  18.1771038  43.4167489 103.8976710  30.0101123  47.8693303
 104.8223257  29.8043985  47.7317754 103.7292013  29.7617525  48.7782645
  96.8548273  16.2227682  52.0911991  96.5145093  15.4235495  52.4932670
  96.1487279  16.5229393  51.5188824  97.5064745  13.3076995  50.5439314
  98.3290814  12.8337473  50.4218204  97.7502808  14.0867479  51.0438000
  96.1472979  16.3365253  40.8402215  96.8681342  16.7146506  40.3365932
  95.5238284  17.0554130  40.9437193 100.2904102  17.0410402  41.7760548
 100.5067717  17.9235040  41.4749376  99.8098169  16.6496616  41.0466190
  95.0303324  19.9996115  48.3531292  94.8847904  20.3136419  49.2455574
  94.5528527  20.6181016  47.8002191  96.8899707  16.9898663  48.4012182
  96.8761275  16.0939757  48.0644480  97.6072135  16.9969327  49.0350468
  98.7425837  17.4236004  50.4465309  98.4843615  18.3453074  50.4449640
  98.2110878  17.0266438  51.1365773  96.2936603  15.8713044  43.6699752
  96.4152514  14.9429690  43.8690639  96.0038645  15.8851730  42.7578067
  99.1627793  13.5567954  46.8066472  99.1849490  13.6207287  45.8518451
  99.5795852  12.7172463  47.0006978 109.5411417  23.2923214  44.8445694
 109.9842563  22.5430539  44.4464818 108.6637928  23.2833350  44.4619426
 104.6747199  29.8453555  40.3252293 105.3698103  30.4660248  40.5439607
 105.0170349  28.9948906  40.6004671  90.2915008  21.6671356  54.1849110
  89.5496744  21.8153992  54.7713741  89.9707752  21.9279622  53.3215860
 106.5738622  27.2953261  41.8539624 107.0989946  27.6340533  41.1288944
 106.4860974  26.3600276  41.6702758  95.7777682  17.3845041  57.8789684
  95.8265838  18.2607164  57.4967454  96.3200196  16.8422434  57.3061328
 106.2632528  27.9286164  57.1590822 105.4728071  27.9110303  56.6195321
 106.0265882  28.4674458  57.9139858 106.3830403  24.7778631  54.4723550
 106.4328408  24.6128638  55.4139073 106.2744326  23.9105890  54.0821431
 103.6734165  20.7609559  55.7882857 104.5744028  20.6216024  55.4966855
 103.7482140  20.9264014  56.7281034  98.0076970  18.1376414  54.6336043
  97.1380280  18.4309980  54.3618632  98.2436451  18.7216859  55.3543307
 107.8848600  27.1975572  54.7165572 107.5933408  27.5605553  55.5529033
 107.2720731  26.4842581  54.5378904 109.0844282  24.7628452  47.2368142
 109.9191173  25.2018256  47.4005702 109.2203411  24.2867105  46.4176388
 106.1335788  22.3208187  53.1845630 106.6089909  22.5135833  52.3764481
 105.2101353  22.3767373  52.9389013 100.7116004  14.3556030  52.1501463
 101.2297948  15.0917057  51.8247952 100.3571137  14.6620024  52.9848223
 104.8337457  19.1973947  51.4173935 105.7854880  19.2972045  51.4386159
 104.6640907  18.4052216  51.9272020 102.8551836  16.2829530  51.6033336
 102.2601768  16.5634543  50.9079825 102.5701533  16.7723431  52.3750077
 104.6147343  29.5518327  37.3239916 104.5360975  29.2178191  38.2175674
 105.4357010  30.0440095  37.3231389 107.3125535  22.4180067  50.5316235
 107.2801855  21.4796067  50.7175919 107.9226158  22.4964103  49.7982060
  99.1508865  21.2876120  36.5743439 100.0967970  21.1582328  36.6431857
  98.7723110  20.5490782  37.0512867 107.4620023  19.2091110  50.5774518
 106.9459072  18.4249567  50.3904447 108.3459972  18.8809827  50.7421037
 105.1230750  12.9532126  46.5370331 104.9255571  12.6447214  47.4213663
 105.7330456  13.6793765  46.6668261 113.1302084  23.4796074  49.6722272
 113.8605473  23.2181362  50.2329975 112.5209030  22.7424795  49.7124340
 111.2117382  21.6203936  50.2696723 110.4850545  21.4859901  49.6613214
 110.7964668  21.9280765  51.0753441  99.0347558  25.3393866  58.0344096
  99.9550567  25.5172465  58.2284142  98.9997141  24.3949911  57.8823795
  97.3351783  19.2126096  36.5098324  96.4283238  18.9159209  36.5861038
  97.6127764  18.9155914  35.6432610  98.9513848  13.7562986  42.6642565
  98.1414577  13.4110071  43.0397811  99.6398265  13.4470529  43.2530177
 100.8804397  12.8341033  44.2866862 101.4335435  13.2536486  44.9456885
 101.1174483  11.9076781  44.3289818  96.9037496  18.8228106  60.0669626
  96.8034223  19.7722463  59.9981717  96.6859038  18.4946345  59.1945696
  96.1050567  16.0713031  36.6510303  96.9669731  16.3967930  36.9106121
  96.2900911  15.2844527  36.1383369 104.2583204  14.9441558  43.7945526
 103.6781873  15.6026362  43.4123579 103.9919136  14.1218902  43.3832944
 102.7086770  14.3446615  45.9966847 103.2086548  14.4563150  45.1881165
 103.3522378  14.0407668  46.6367655  96.7668766  22.2525245  58.8834688
  96.2835848  23.0525605  59.0898577  96.8529705  22.2633190  57.9302132
 103.0408082  17.1041648  42.8501875 102.1533937  17.3891299  42.6322069
 103.4562071  16.9435411  42.0029151 106.3922618  17.1288169  46.5656214
 107.1683008  17.6184622  46.8380831 105.6670752  17.5546223  47.0228083
 108.8295177  17.8415788  47.6230154 109.4239667  17.6011524  46.9123463
 108.9021760  17.1222919  48.2503691 102.1851295  26.8686323  36.9449895
 102.8887145  27.0736325  37.5607550 101.4613944  27.4363085  37.2098978
 103.0149106  22.6196184  43.0652165 102.9584307  23.0764735  42.2259797
 103.5677448  21.8586869  42.8875007 106.8253911  18.4085916  43.8902284
 106.5690846  18.0082552  44.7210492 106.2006779  19.1229710  43.7652423
 111.1366249  21.1481989  46.3973576 110.5765807  21.2175178  47.1705138
 110.5309753  20.9722974  45.6773072 104.0937993  27.3068852  38.9948355
 104.9283597  26.8750050  38.8125829 103.9322336  27.1350866  39.9225249
 103.7483885  23.8100965  40.3604694 103.6932689  23.6445237  39.4193138
 103.1229940  24.5176998  40.5166884  88.5376400  19.0469030  54.1866116
  89.1835263  18.5367984  54.6753341  88.3293551  19.7837711  54.7609541
 101.0629792  26.1149877  59.6858257 101.9320952  26.2890529  59.3244892
 100.5836543  26.9344294  59.5633986  97.0580010  13.3109074  39.9390012
  97.0458680  14.2550914  40.0958283  97.9503432  13.1279220  39.6449473
  92.8773891  16.1936647  58.2841130  93.7405352  15.8373452  58.4944455
  92.3039301  15.8550542  58.9716535 112.7222268  37.8238503  49.0903531
 113.3600678  37.7045250  48.3866871 112.6043111  38.7719347  49.1491483
 109.5311974  37.7765931  49.0265056 109.1930486  37.6606996  48.1385591
 110.4001742  37.3757096  49.0066062 105.3898790  39.6301408  45.0161947
 104.8263655  39.5391345  44.2478235 105.2751185  38.8101312  45.4964440
 110.0131757  38.9300783  54.9851262 110.0020398  38.5353581  54.1131765
 110.1752396  38.1966856  55.5785033 102.9363222  41.1252599  47.8546167
 103.7284514  40.7843424  47.4392467 103.1759872  41.2347574  48.7748321
 110.9698348  43.2972375  40.3276412 110.3186328  43.8826456  39.9410426
 111.7642711  43.8278570  40.3871449 104.8953976  40.3861512  40.7263546
 105.6684852  39.8390500  40.5876422 105.2479374  41.2505762  40.9378008
 106.7339018  41.7137895  53.9330446 106.4428884  42.6183526  53.8177112
 107.3696003  41.7554422  54.6474515 107.6595225  39.0914743  50.5231805
 108.2558797  38.8670766  49.8088768 107.7170197  38.3499489  51.1257253
 107.2320253  36.5454179  38.3581996 107.4845774  36.0235700  37.5965459
 106.2944812  36.3820324  38.4608680 112.2763536  35.5489957  46.1656739
 113.0626625  35.1309380  45.8147156 112.5402241  36.4536049  46.3338388
 112.4473614  40.9862807  40.8645396 111.8119447  41.0597434  41.5766301
 112.1171020  41.5756406  40.1864475 117.6771963  35.4865190  47.0689718
 118.4097135  34.9164407  47.3027547 116.9211319  35.0986791  47.5096223
 106.9516542  38.4482285  40.5606371 106.8352800  37.7727188  41.2287455
 107.0618802  37.9614658  39.7438524 109.2948083  37.9092432  44.2653060
 108.9306290  37.3823053  44.9765982 110.1515199  37.5190901  44.0919546
 115.1997384  29.1986764  51.5284326 114.8680708  30.0682175  51.3045541
 114.6042997  28.8823048  52.2078357 108.9353570  32.9382331  39.2614409
 109.1027972  33.8062568  39.6284880 108.7450739  33.1009613  38.3375698
 111.6928903  41.3999310  50.9280239 111.3929626  42.3024349  50.8196046
 111.3479963  41.1331493  51.7801392 105.1441385  37.8513107  46.9616944
 104.2191881  37.7189321  47.1694635 105.3925798  38.6307326  47.4586886
 115.0926047  33.9181850  48.6077677 114.1842924  33.8497259  48.3136438
 115.0413643  34.3953795  49.4359502 108.9142791  35.3939989  40.2461076
 108.7942416  35.8397040  41.0846556 108.2195379  35.7425306  39.6874614
 102.5050196  37.4946381  47.7960733 102.6342577  37.7480860  48.7100144
 101.8247647  38.0874089  47.4765388 106.6749683  48.1643631  43.8951207
 106.5973713  49.1151456  43.9739687 106.0711327  47.8189503  44.5526133
 109.1666913  35.3371496  56.5512574 108.3900247  35.8965416  56.5415438
 109.8057476  35.8228279  57.0727444 116.9587693  32.1198289  50.3855550
 116.3162074  32.4130822  49.7395345 116.4542622  32.0051209  51.1908747
 114.6127857  35.8661462  41.0741410 115.5245713  36.0988849  40.8989107
 114.1037504  36.4498506  40.5116488 107.4213285  38.1456949  56.1130541
 108.1627969  38.6841993  55.8365364 106.7150271  38.7723238  56.2702093
 112.8968625  40.2886090  54.7102702 113.3051981  39.8468500  53.9657335
 112.1745886  39.7138717  54.9636895 109.2499695  35.2258697  52.0836259
 110.0960890  35.6498110  52.2270908 109.1898332  34.5692321  52.7774822
 113.2197439  40.8487280  48.4654991 112.5906302  41.0132995  47.7631059
 112.8323101  41.2628890  49.2365955 117.0986671  41.7841718  45.8199355
 116.4137709  42.1640620  45.2696388 117.1830521  42.3937045  46.5531303
 112.3999140  32.8863065  53.7417433 112.1560072  33.6405125  53.2051709
 112.6759071  33.2648413  54.5764680 114.3537603  39.4301677  52.4194698
 114.5654498  40.0733437  51.7429080 114.3067351  38.5963994  51.9516629
 111.9563832  32.0419498  49.3231271 111.0948311  32.3400752  49.6148008
 111.9826267  32.2589897  48.3912303 108.7725401  40.5861689  45.7305076
 109.2363747  40.8649392  44.9409699 108.5082199  39.6845133  45.5478167
 105.6649482  40.1333170  48.6684840 106.2350839  40.5620438  48.0302324
 106.2557594  39.8515755  49.3669025 107.7094287  36.7084841  42.5394641
 108.4118331  37.1605885  43.0068568 107.3774916  36.0668660  43.1674535
 106.1574649  35.2996598  56.9145851 105.5273309  35.9812878  57.1481248
 106.0510737  35.1879679  55.9698989 115.4683431  42.3073633  50.5917056
 116.2900875  41.9053820  50.3099737 115.4645834  42.2041867  51.5433172
 109.2340034  41.8557676  52.7477766 109.2984467  42.3178083  53.5835938
 108.5250958  41.2255041  52.8760076 108.9488052  43.5225784  42.6156747
 108.8133727  44.3677319  43.0441594 109.4897864  43.7245061  41.8522680
 105.4355392  29.6017363  59.2771102 105.0422337  29.0483562  59.9518746
 106.2521532  29.9127942  59.6677619 104.2112334  44.1566978  45.2707425
 104.3878962  45.0784943  45.0828409 105.0069168  43.8425397  45.7001805
 108.3523353  31.0175242  56.8691358 109.0933066  31.6182396  56.7895821
 108.5841275  30.2752880  56.3109401 103.4964691  36.2031610  55.1469588
 103.3818206  35.3016867  55.4476687 102.6409208  36.4495306  54.7954405
 110.5756528  44.1449350  56.7457089 110.1320383  43.3585729  56.4277993
 111.2373742  44.3328501  56.0800980 105.3343650  45.6745152  51.2717767
 105.8851075  45.5462215  50.4994761 104.4955125  45.9740041  50.9212660
 112.6737766  44.4252150  54.7738490 112.6556242  45.2461031  54.2818759
 113.5957686  44.3006225  54.9988631 109.1310821  41.9396279  55.6161998
 109.6639157  41.1784568  55.3861306 108.6024902  41.6469931  56.3586153
 112.2980516  27.0456345  51.1455640 111.9544785  27.9357987  51.0694751
 112.6659478  26.8558003  50.2825225 112.2630798  37.0364957  39.6528075
 111.7477422  37.8069561  39.8916463 111.9908107  36.3630093  40.2761137
 109.8477909  31.8814657  44.7113314 108.9919506  31.4921508  44.5318952
 110.2604861  31.9606618  43.8513099 111.3777056  29.4161001  49.1104873
 110.8741851  29.3791136  48.2972679 111.6707663  30.3253743  49.1701530
 107.6219942  29.4999730  48.1171055 108.4872939  29.3042539  47.7576945
 107.6897451  29.2710082  49.0440412 117.2365072  39.7897311  41.5881249
 116.4594515  39.4508471  41.1436411 117.9156553  39.7949934  40.9136214
 112.0517101  34.9092049  41.4787856 111.7467237  35.2238198  42.3298000
 113.0047544  34.9873469  41.5215189 110.4963533  41.0682272  43.1280810
 109.9684895  40.3335032  42.8154048 109.9951036  41.8456948  42.8820779
 115.4756379  39.2631292  48.2447857 114.8180054  39.9530554  48.3327985
 116.2796778  39.6527724  48.5881843 105.2282261  31.7301938  45.4887422
 105.8026013  31.5077120  44.7560615 105.8153243  31.7990633  46.2416023
 114.2861838  37.6175665  46.2951798 114.7993720  38.2505657  46.7973508
 114.9363062  37.0176861  45.9295158 105.5551848  33.7606399  39.5083307
 104.7189160  34.0981086  39.8292582 105.4156618  33.6255379  38.5710444
 107.5304929  28.6043187  44.2162491 106.8769341  28.2892204  43.5919106
 107.4885403  27.9818928  44.9422314 108.6416133  38.8862482  36.1315783
 107.7343195  38.6551736  36.3306932 109.1387165  38.0900101  36.3189765
 111.5484212  47.5959989  39.0512470 110.8745911  47.8991686  39.6597427
 111.9350034  48.3989070  38.7017927 110.7642669  35.0925121  48.5410139
 109.8465230  35.3140068  48.3831827 111.1802813  35.1671431  47.6821846
 111.5477717  36.4916536  43.6712819 112.2949536  37.0037934  43.3619941
 111.8169306  36.1700589  44.5317213 109.8204367  38.9875077  40.6539774
 108.9115586  38.7034110  40.7512243 109.8499451  39.4074156  39.7943080
 115.0523634  42.5981667  44.4230941 114.5985961  41.7572576  44.4796132
 114.4217601  43.2343065  44.7605721 113.9956554  33.5273653  45.6531609
 113.2579311  33.0151039  45.9841851 114.2483327  33.0874034  44.8414885
 113.4956574  44.4358163  45.3580759 113.7879548  44.9963220  44.6393125
 114.0055194  44.7286724  46.1133918 114.0968181  26.3049905  46.2473378
 114.4027058  25.4447268  45.9599293 114.8220786  26.8967525  46.0472372
 108.3689261  36.6003698  46.7549569 108.4237871  35.6477534  46.6792045
 107.5580463  36.7563137  47.2390867 109.5180455  40.5283821  37.9927852
 109.0799885  39.8119680  37.5333489 110.2590896  40.7559936  37.4312943
 106.3081621  35.2180757  44.5139948 105.4949486  35.5174928  44.9205140
 106.8040615  34.8236446  45.2314430 108.4590199  45.2138514  46.4474212
 108.4166378  45.4399361  45.5182744 109.3752898  44.9801889  46.5960014
 111.9055833  35.6822582  53.3454842 112.2605220  35.9094055  54.2049307
 112.5527964  36.0140959  52.7232097 117.6353569  38.8041018  44.0504171
 117.4971468  38.9942614  43.1225360 117.2789788  39.5660401  44.5072222
 105.7995696  32.7899113  50.1301183 106.4395075  32.6487872  49.4324146
 104.9673226  32.5033626  49.7539785 117.6622949  40.8717545  49.0615442
 118.0959456  40.7792834  49.9098496 118.3754530  40.8475045  48.4235458
 106.5755999  42.0901543  46.2436175 107.3696598  41.5951863  46.0418750
 105.8647692  41.5619406  45.8803881 111.3950844  44.4719639  50.5948543
 111.4487866  45.0410575  51.3626259 110.5265625  44.6421524  50.2302580
 104.2749237  34.1737195  52.0772994 104.9472291  33.9654557  51.4285643
 103.4479024  33.9759281  51.6378226 118.5238499  40.9141245  51.5948328
 118.7174389  41.8187056  51.8407602 118.4239117  40.4548665  52.4286913
 110.1774809  30.7999136  54.0938655 109.5302724  31.4989086  54.0003131
 110.9475825  31.2335280  54.4614903 113.5853607  41.0647988  57.1689208
 113.4339114  40.8358540  56.2519292 113.5758287  42.0218590  57.1820553
 110.3538944  38.6379901  52.1535475 111.2831004  38.7891061  51.9804442
 109.9329974  38.7263922  51.2984121 109.1527275  42.6630565  49.9234012
 109.0138361  42.2949350  50.7959950 108.3641872  43.1778205  49.7517970
 109.7475427  47.7639662  41.2659549 109.9227183  47.2927705  42.0805171
 109.0608215  48.3905428  41.4940809 110.7032491  42.0412168  47.3122850
 110.3682323  42.0012938  48.2080500 110.2036436  41.3756884  46.8393260
 104.6776735  37.4479798  52.8375431 104.5396533  36.7160037  53.4386970
 105.5881658  37.3588698  52.5559619 113.6391682  39.3868202  37.5859910
 113.0220853  38.6615031  37.4892962 113.1708171  40.1477563  37.2426984
 107.3059035  37.1599757  52.3259111 108.0158654  36.5192950  52.2845729
 107.2628343  37.4112652  53.2485292 115.2945814  44.0967111  55.2465690
 115.2358360  43.4126331  54.5796273 115.6965332  44.8386101  54.7946316
 106.0187969  34.1464975  54.1454750 105.4825326  33.6955714  54.7976347
 105.4304678  34.2810884  53.4025215 104.3136513  50.9129025  48.0399409
 104.5533111  51.5447549  48.7178427 103.4705709  50.5617065  48.3264768
 105.4290228  33.6053627  36.7081214 104.5519695  33.4842427  36.3443461
 105.9047981  32.8139705  36.4560103 115.2963221  42.0606695  53.4779670
 114.4090000  41.7232616  53.6006069 115.8661772  41.3289726  53.7148435
 101.7527090  33.2820983  51.2307745 101.6685279  32.6746653  50.4958155
 100.9309797  33.7730001  51.2317241 108.8264375  46.7208147  50.4440913
 108.7534546  47.5263119  50.9560217 108.3841768  46.9200113  49.6188934
 108.6154154  45.9579917  43.9543734 107.8321676  46.5001597  44.0481959
 109.3146899  46.4753897  44.3537976 111.9250804  31.7674547  46.5977940
 112.4219504  31.0144509  46.2779010 111.1537786  31.8038863  46.0321149
 119.7780562  37.4714912  48.2396231 119.7670438  38.3539627  47.8690164
 118.9097941  37.1186463  48.0450768 111.2863058  46.6194981  52.5999072
 111.9991030  47.2542446  52.5274973 110.7953087  46.7158847  51.7839073
 113.0080585  40.5246234  44.1716363 112.0736864  40.6447696  44.0021068
 113.1857254  39.6218700  43.9076373 108.5085773  33.9091929  46.3249624
 108.1383561  33.3562970  47.0130530 109.0044866  33.3050063  45.7724624
 116.3953136  36.3663553  44.7066397 116.8613589  37.1991545  44.6326700
 116.8460637  35.9008535  45.4111656 106.3374972  44.3689425  53.4204642
 107.0384431  45.0025907  53.5734037 105.8670087  44.7104156  52.6600282
 114.4629367  42.7107374  41.7052549 114.7389211  42.5963969  42.6146424
 113.5933866  42.3124859  41.6664723 114.3669799  28.7344140  48.7457299
 113.4532879  28.9648367  48.9139506 114.7962901  28.8182584  49.5971331
 114.1376258  36.9234032  51.2457193 113.4847708  37.1709939  50.5909646
 114.5156638  36.1098170  50.9119670 111.0983432  46.9593725  45.3485363
 111.2805826  46.1415381  45.8113115 111.9216418  47.1761417  44.9110253
 111.4325597  45.8861910  42.6100412 111.9613363  45.3754365  41.9970574
 111.6953817  45.5704440  43.4745945 110.1863831  37.6653843  57.7323230
 109.5104468  37.5647972  58.4025605 111.0091465  37.5093057  58.1959227
 101.9342690  43.9025780  50.3535745 102.5196127  43.1569467  50.4863649
 101.7367528  44.2129736  51.2372409 104.7881345  46.9377027  45.3698187
 104.1191720  47.4223155  44.8862228 104.6494215  47.1846247  46.2841566
 108.9286614  48.9720770  51.9680846 109.4804922  49.1352392  52.7329931
 109.2692807  49.5625208  51.2960871 103.9051107  31.3195920  52.5702731
 103.9692433  32.1810751  52.1580128 103.8418227  30.7069922  51.8375089
 103.3803379  33.3919053  56.2175765 104.0075418  33.0096130  56.8313289
 102.5231298  33.1733255  56.5831457 113.7797488  43.7982028  57.8229500
 114.3237392  44.4111986  57.3284455 113.1984333  44.3561606  58.3396513
 112.0655001  46.9202746  48.9544528 111.9406140  46.1192486  48.4455473
 112.7234092  47.4148939  48.4658498 103.6863169  33.2751478  48.1321668
 102.9649755  33.8887446  47.9929142 104.4756425  33.8109243  48.0538314
 114.1289909  44.7211766  50.5824078 113.1820245  44.6017117  50.5102405
 114.4772682  43.8334264  50.6650340 106.4889483  30.6105905  54.4062320
 107.0123884  30.8568202  55.1688629 106.2701816  31.4425940  53.9865457
 111.1336342  44.5164482  46.7828430 110.9861305  43.5881190  46.9636000
 111.9589836  44.5384573  46.2985506 104.9998587  33.1682549  42.6408922
 105.3394659  33.6968471  41.9187531 105.4470707  33.5062956  43.4167489
 114.7370464  45.3393041  47.8693303 115.6617012  45.1335902  47.7317754
 114.5685768  45.0909442  48.7782645 107.6942028  31.5519600  52.0911991
 107.3538848  30.7527413  52.4932670 106.9881034  31.8521311  51.5188824
 108.3458499  28.6368913  50.5439314 109.1684569  28.1629391  50.4218204
 108.5896563  29.4159396  51.0438000 106.9866734  31.6657171  40.8402215
 107.7075096  32.0438424  40.3365932 106.3632038  32.3846048  40.9437193
 111.1297857  32.3702320  41.7760548 111.3461471  33.2526958  41.4749376
 110.6491924  31.9788533  41.0466190 105.8697078  35.3288033  48.3531292
 105.7241659  35.6428336  49.2455574 105.3922282  35.9472933  47.8002191
 107.7293461  32.3190581  48.4012182 107.7155030  31.4231674  48.0644480
 108.4465889  32.3261245  49.0350468 109.5819592  32.7527921  50.4465309
 109.3237370  33.6744992  50.4449640 109.0504632  32.3558356  51.1365773
 114.5265781  45.8578708  43.2255395 114.7002658  45.2925131  42.4729247
 115.0194672  46.6579603  43.0434884 107.1330357  31.2004961  43.6699752
 107.2546268  30.2721608  43.8690639 106.8432399  31.2143647  42.7578067
 110.0021547  28.8859872  46.8066472 110.0243244  28.9499205  45.8518451
 110.4189606  28.0464381  47.0006978 120.3805172  38.6215131  44.8445694
 120.8236318  37.8722457  44.4464818 119.5031682  38.6125268  44.4619426
 115.5140953  45.1745473  40.3252293 116.2091858  45.7952166  40.5439607
 115.8564103  44.3240824  40.6004671 101.1308762  36.9963274  54.1849110
 100.3890498  37.1445909  54.7713741 100.8101506  37.2571539  53.3215860
 117.4132376  42.6245178  41.8539624 117.9383700  42.9632451  41.1288944
 117.3254729  41.6892194  41.6702758 109.0752425  46.5379252  53.9829500
 109.3839551  46.2928399  54.8552200 109.8727907  46.7425891  53.4948370
 109.0973037  48.6917162  46.2134877 108.6578027  48.1993540  46.9067733
 109.8481154  48.1490129  45.9726952 101.5765376  44.8828703  46.2159505
 102.4023396  44.5832474  45.8358148 101.2259428  44.1136325  46.6649293
 106.5446909  44.2355171  48.2857178 105.9226918  43.5725876  47.9859406
 107.2151776  44.2616303  47.6030826 106.6171437  32.7136959  57.8789684
 106.6659592  33.5899082  57.4967454 107.1593951  32.1714352  57.3061328
 117.1026282  43.2578082  57.1590822 116.3121826  43.2402221  56.6195321
 116.8659637  43.7966376  57.9139858 117.2224157  40.1070548  54.4723550
 117.2722162  39.9420556  55.4139073 117.1138081  39.2397807  54.0821431
 106.1060416  42.7859094  41.7615639 106.2548536  43.4694559  41.1082312
 106.9126859  42.7664184  42.2765095 114.5127920  36.0901476  55.7882857
 115.4137782  35.9507941  55.4966855 114.5875894  36.2555931  56.7281034
 108.8470725  33.4668331  54.6336043 107.9774034  33.7601897  54.3618632
 109.0830205  34.0508776  55.3543307 118.7242354  42.5267490  54.7165572
 118.4327162  42.8897470  55.5529033 118.1114485  41.8134498  54.5378904
 119.9238036  40.0920370  47.2368142 120.7584928  40.5310174  47.4005702
 120.0597165  39.6159023  46.4176388 116.9729542  37.6500105  53.1845630
 117.4483664  37.8427751  52.3764481 116.0495108  37.7059290  52.9389013
 111.5509759  29.6847948  52.1501463 112.0691703  30.4208975  51.8247952
 111.1964892  29.9911941  52.9848223 111.8022353  26.1048231  47.6702360
 112.0824107  25.4371420  48.2962787 112.5872960  26.2977326  47.1577024
 109.6055821  45.2807225  39.2327386 109.0329789  45.8997412  38.7797858
 110.1788615  45.8306586  39.7667308 115.6731211  34.5265865  51.4173935
 116.6248634  34.6263962  51.4386159 115.5034662  33.7344133  51.9272020
 113.6945591  31.6121448  51.6033336 113.0995523  31.8926461  50.9079825
 113.4095288  32.1015349  52.3750077 112.8253081  45.5644375  40.3635969
 113.7583754  45.4989936  40.5668844 112.7376294  46.4000642  39.9050501
 115.4541098  44.8810245  37.3239916 115.3754729  44.5470109  38.2175674
 116.2750765  45.3732013  37.3231389 118.1519289  37.7471984  50.5316235
 118.1195609  36.8087985  50.7175919 118.7619913  37.8256021  49.7982060
 109.9902620  36.6168037  36.5743439 110.9361725  36.4874245  36.6431857
 109.6116865  35.8782699  37.0512867 118.3013778  34.5383028  50.5774518
 117.7852826  33.7541484  50.3904447 119.1853726  34.2101744  50.7421037
 115.9624505  28.2824043  46.5370331 115.7649326  27.9739132  47.4213663
 116.5724210  29.0085682  46.6668261 109.8741313  40.6685783  58.0344096
 110.7944322  40.8464382  58.2284142 109.8390896  39.7241829  57.8823795
 108.1745537  34.5418014  36.5098324 107.2676993  34.2451126  36.5861038
 108.4521518  34.2447832  35.6432610 102.8703385  38.5786818  50.6766877
 103.0889395  39.5103926  50.6954911 103.2829159  38.2194793  51.4621681
 109.7907603  29.0854903  42.6642565 108.9808331  28.7401988  43.0397811
 110.4792020  28.7762447  43.2530177 111.7198151  28.1632950  44.2866862
 112.2729190  28.5828404  44.9456885 111.9568238  27.2368698  44.3289818
 107.7431250  34.1520024  60.0669626 107.6427977  35.1014381  59.9981717
 107.5252792  33.8238263  59.1945696 106.9444322  31.4004949  36.6510303
 107.8063486  31.7259847  36.9106121 107.1294666  30.6136445  36.1383369
 115.0976958  30.2733475  43.7945526 114.5175627  30.9318279  43.4123579
 114.8312891  29.4510820  43.3832944 113.5480525  29.6738533  45.9966847
 114.0480303  29.7855068  45.1881165 114.1916133  29.3699586  46.6367655
 107.6062520  37.5817163  58.8834688 107.1229602  38.3817523  59.0898577
 107.6923459  37.5925108  57.9302132 103.5335858  41.4721697  50.9203121
 104.4879111  41.4405640  50.8533053 103.3348382  41.0112321  51.7353347
 104.1235240  40.0422813  53.4873919 104.9428129  40.5366892  53.5108756
 104.3972048  39.1254782  53.4591487 113.8801836  32.4333566  42.8501875
 112.9927691  32.7183216  42.6322069 114.2955825  32.2727329  42.0029151
 117.2316372  32.4580087  46.5656214 118.0076763  32.9476539  46.8380831
 116.5064507  32.8838141  47.0228083 119.6688931  33.1707706  47.6230154
 120.2633422  32.9303442  46.9123463 119.7415515  32.4514837  48.2503691
 101.8886087  47.0141317  47.9373319 101.7540555  46.2541718  47.3711317
 101.4718149  47.7382217  47.4702108 113.0245050  42.1978240  36.9449895
 113.7280900  42.4028243  37.5607550 112.3007698  42.7655002  37.2098978
 113.8542860  37.9488102  43.0652165 113.7978061  38.4056653  42.2259797
 114.4071202  37.1878786  42.8875007 117.6647666  33.7377834  43.8902284
 117.4084600  33.3374469  44.7210492 117.0400534  34.4521628  43.7652423
 105.0455213  47.9110634  48.1491762 104.9287597  48.8556066  48.0470452
 104.2247659  47.6084195  48.5377561 114.9331747  42.6360770  38.9948355
 115.7677351  42.2041968  38.8125829 114.7716090  42.4642783  39.9225249
 114.5877639  39.1392883  40.3604694 114.5326443  38.9737154  39.4193138
 113.9623695  39.8468916  40.5166884 111.9023546  41.4441795  59.6858257
 112.7714706  41.6182447  59.3244892 111.4230298  42.2636212  59.5633986
 107.8973765  28.6400992  39.9390012 107.8852435  29.5842832  40.0958283
 108.7897187  28.4571137  39.6449473 106.0709727  48.5638896  51.3647690
 106.9736973  48.5962506  51.6814185 105.8447097  47.6339347  51.3794026
 107.8263329  47.3169882  48.0257769 106.8758960  47.3171744  47.9122141
 108.1295815  46.5702617  47.5093804 111.7125884  25.2343769  44.1935949
 110.9458280  24.6802255  44.3392631 112.1236589  25.3065637  45.0550101
 103.7167645  31.5228564  58.2841130 104.5799107  31.1665369  58.4944455
 103.1433056  31.1842459  58.9716535 120.3705729  53.1057849  49.0265056
 120.0324240  52.9898914  48.1385591 121.2395497  52.7049014  49.0066062
 116.2292544  54.9593325  45.0161947 115.6657409  54.8683262  44.2478235
 116.1144939  54.1393230  45.4964440 120.8525512  54.2592701  54.9851262
 120.8414152  53.8645499  54.1131765 121.0146151  53.5258773  55.5785033
 113.7756976  56.4544517  47.8546167 114.5678268  56.1135342  47.4392467
 114.0153626  56.5639492  48.7748321 115.7347730  55.7153430  40.7263546
 116.5078606  55.1682417  40.5876422 116.0873129  56.5797679  40.9378008
 117.5732773  57.0429812  53.9330446 117.2822639  57.9475443  53.8177112
 118.2089757  57.0846340  54.6474515 118.4988979  54.4206661  50.5231805
 119.0952552  54.1962683  49.8088768 118.5563951  53.6791406  51.1257253
 118.0714008  51.8746096  38.3581996 118.3239529  51.3527618  37.5965459
 117.1338567  51.7112242  38.4608680 117.7910297  53.7774202  40.5606371
 117.6746555  53.1019106  41.2287455 117.9012557  53.2906576  39.7438524
 120.1341838  53.2384349  44.2653060 119.7700045  52.7114970  44.9765982
 120.9908953  52.8482818  44.0919546 119.7747325  48.2674249  39.2614409
 119.9421727  49.1354485  39.6284880 119.5844494  48.4301531  38.3375698
 115.9835139  53.1805025  46.9616944 115.0585636  53.0481239  47.1694635
 116.2319552  53.9599244  47.4586886 119.7536545  50.7231906  40.2461076
 119.6336171  51.1688957  41.0846556 119.0589134  51.0717224  39.6874614
 113.3443950  52.8238298  47.7960733 113.4736331  53.0772777  48.7100144
 112.6641402  53.4166006  47.4765388 117.5143438  63.4935548  43.8951207
 117.4367467  64.4443373  43.9739687 116.9105081  63.1481421  44.5526133
 120.0060667  50.6663414  56.5512574 119.2294001  51.2257334  56.5415438
 120.6451230  51.1520197  57.0727444 118.2607040  53.4748867  56.1130541
 119.0021724  54.0133911  55.8365364 117.5544025  54.1015156  56.2702093
 120.0893449  50.5550614  52.0836259 120.9354644  50.9790028  52.2270908
 120.0292087  49.8984239  52.7774822 119.6119156  55.9153606  45.7305076
 120.0757501  56.1941309  44.9409699 119.3475954  55.0137051  45.5478167
 116.5043237  55.4625088  48.6684840 117.0744594  55.8912356  48.0302324
 117.0951349  55.1807672  49.3669025 118.5488042  52.0376759  42.5394641
 119.2512085  52.4897802  43.0068568 118.2168670  51.3960577  43.1674535
 116.9968403  50.6288515  56.9145851 116.3667064  51.3104796  57.1481248
 116.8904491  50.5171597  55.9698989 112.2913376  50.2960311  47.8411775
 111.5012430  50.5517840  47.3651886 112.7824623  51.1108649  47.9463816
 114.2428121  50.6604890  44.7995252 113.4459284  50.7723585  45.3178747
 114.0153713  50.9991543  43.9336142 120.0733789  57.1849594  52.7477766
 120.1378221  57.6470001  53.5835938 119.3644713  56.5546959  52.8760076
 110.5751079  50.5490802  50.2726766 110.8259117  51.4337812  50.5384342
 111.1110627  50.3695403  49.5001858 119.7881806  58.8517701  42.6156747
 119.6527481  59.6969237  43.0441594 120.3291619  59.0536979  41.8522680
 116.2749146  44.9309281  59.2771102 115.8816092  44.3775480  59.9518746
 117.0915286  45.2419860  59.6677619 113.2411204  56.3693139  43.1884672
 113.7535724  57.1636389  43.3390236 113.8933917  55.6719430  43.1218273
 115.0506089  59.4858896  45.2707425 115.2272717  60.4076860  45.0828409
 115.8462922  59.1717315  45.7001805 119.1917107  46.3467160  56.8691358
 119.9326820  46.9474313  56.7895821 119.4235030  45.6044798  56.3109401
 114.3358445  51.5323527  55.1469588 114.2211960  50.6308785  55.4476687
 113.4802963  51.7787224  54.7954405 116.1737404  61.0037069  51.2717767
 116.7244829  60.8754133  50.4994761 115.3348880  61.3031958  50.9212660
 119.9704575  57.2688197  55.6161998 120.5032912  56.5076485  55.3861306
 119.4418656  56.9761849  56.3586153 111.2060121  54.6981794  43.9644242
 112.0435343  55.1078802  43.7477950 111.3838388  53.7581236  43.9344436
 120.6871664  47.2106575  44.7113314 119.8313260  46.8213425  44.5318952
 121.0998616  47.2898536  43.8513099 118.4613696  44.8291648  48.1171055
 119.3266693  44.6334457  47.7576945 118.5291205  44.6002000  49.0440412
 121.3357288  56.3974190  43.1280810 120.8078649  55.6626949  42.8154048
 120.8344790  57.1748866  42.8820779 116.0676015  47.0593856  45.4887422
 116.6419767  46.8369037  44.7560615 116.6546998  47.1282550  46.2416023
 116.3945602  49.0898317  39.5083307 115.5582915  49.4273003  39.8292582
 116.2550372  48.9547297  38.5710444 118.3698683  43.9335105  44.2162491
 117.7163095  43.6184122  43.5919106 118.3279157  43.3110845  44.9422314
 119.4809888  54.2154400  36.1315783 118.5736950  53.9843653  36.3306932
 119.9780920  53.4192019  36.3189765 120.6598121  54.3166995  40.6539774
 119.7509341  54.0326028  40.7512243 120.6893205  54.7366073  39.7943080
 111.2286292  52.0372509  44.6354976 111.0310692  51.4441870  43.9106042
 110.6732956  51.7324719  45.3530915 119.2083015  51.9295615  46.7549569
 119.2631625  50.9769452  46.6792045 118.3974217  52.0855054  47.2390867
 120.3574209  55.8575738  37.9927852 119.9193639  55.1411597  37.5333489
 121.0984650  56.0851853  37.4312943 117.1475375  50.5472675  44.5139948
 116.3343241  50.8466846  44.9205140 117.6434370  50.1528364  45.2314430
 119.2983953  60.5430432  46.4474212 119.2560132  60.7691278  45.5182744
 120.2146652  60.3093807  46.5960014 116.6389450  48.1191031  50.1301183
 117.2788829  47.9779790  49.4324146 115.8066981  47.8325544  49.7539785
 117.4149754  57.4193461  46.2436175 118.2090352  56.9243781  46.0418750
 116.7041446  56.8911324  45.8803881 113.7232517  51.5636543  42.3195928
 112.7930106  51.5020998  42.5365890 113.8189989  51.0412496  41.5232569
 113.6418066  48.0891356  44.9074169 113.9024884  49.0036689  44.7983330
 114.4635239  47.6215798  45.0570782 115.1142992  49.5029113  52.0772994
 115.7866045  49.2946475  51.4285643 114.2872778  49.3051199  51.6378226
 119.9921030  57.9922483  49.9234012 119.8532116  57.6241267  50.7959950
 119.2035626  58.5070122  49.7517970 120.5869182  63.0931579  41.2659549
 120.7620938  62.6219623  42.0805171 119.9001970  63.7197346  41.4940809
 115.5170489  52.7771716  52.8375431 115.3790287  52.0451955  53.4386970
 116.4275413  52.6880616  52.5559619 118.1452790  52.4891675  52.3259111
 118.8552408  51.8484867  52.2845729 118.1022098  52.7404570  53.2485292
 116.8581724  49.4756893  54.1454750 116.3219081  49.0247631  54.7976347
 116.2698432  49.6102802  53.4025215 115.1530267  66.2420942  48.0399409
 115.3926865  66.8739466  48.7178427 114.3099464  65.8908982  48.3264768
 116.2683983  48.9345544  36.7081214 115.3913449  48.8134345  36.3443461
 116.7441736  48.1431623  36.4560103 107.7886123  53.7222704  46.8022721
 108.4757163  53.4084434  46.2143736 107.6334252  54.6264069  46.5289973
 112.5920845  48.6112901  51.2307745 112.5079034  48.0038570  50.4958155
 111.7703551  49.1021919  51.2317241 119.6658129  62.0500065  50.4440913
 119.5928301  62.8555036  50.9560217 119.2235522  62.2492031  49.6188934
 119.4547909  61.2871835  43.9543734 118.6715431  61.8293515  44.0481959
 120.1540654  61.8045814  44.3537976 119.3479528  49.2383847  46.3249624
 118.9777315  48.6854888  47.0130530 119.8438620  48.6341981  45.7724624
 117.1768726  59.6981342  53.4204642 117.8778186  60.3317825  53.5734037
 116.7063841  60.0396074  52.6600282 112.7736444  59.2317697  50.3535745
 113.3589881  58.4861385  50.4863649 112.5761283  59.5421654  51.2372409
 115.6275099  62.2668945  45.3698187 114.9585475  62.7515072  44.8862228
 115.4887969  62.5138165  46.2841566 107.3654099  51.8023297  49.0740188
 107.4038198  51.2686888  49.8677306 106.8594392  51.2758503  48.4551165
 119.7680368  64.3012688  51.9680846 120.3198676  64.4644310  52.7329931
 120.1086561  64.8917126  51.2960871 114.7444861  46.6487838  52.5702731
 114.8086188  47.5102669  52.1580128 114.6811981  46.0361840  51.8375089
 114.2197134  48.7210970  56.2175765 114.8469173  48.3388048  56.8313289
 113.3625053  48.5025172  56.5831457 110.9962677  50.5287400  42.1494120
 111.2916118  49.6198078  42.0961173 110.0950712  50.5075139  41.8275122
 114.5256924  48.6043396  48.1321668 113.8043509  49.2179364  47.9929142
 115.3150179  49.1401161  48.0538314 117.3283237  45.9397823  54.4062320
 117.8517639  46.1860119  55.1688629 117.1095570  46.7717857  53.9865457
 112.7250518  48.2101497  42.2733445 112.3963224  47.3298876  42.0908551
 113.0789889  48.1549166  43.1609834 115.8392341  48.4974467  42.6408922
 116.1788414  49.0260388  41.9187531 116.2864462  48.8354873  43.4167489
 118.5335782  46.8811518  52.0911991 118.1932602  46.0819331  52.4932670
 117.8274788  47.1813229  51.5188824 119.1852254  43.9660830  50.5439314
 120.0078323  43.4921308  50.4218204 119.4290317  44.7451314  51.0438000
 117.8260488  46.9949089  40.8402215 118.5468851  47.3730341  40.3365932
 117.2025793  47.7137965  40.9437193 116.7090833  50.6579951  48.3531292
 116.5635413  50.9720254  49.2455574 116.2316036  51.2764851  47.8002191
 118.5687216  47.6482499  48.4012182 118.5548784  46.7523592  48.0644480
 119.2859644  47.6553163  49.0350468 120.4213346  48.0819839  50.4465309
 120.1631124  49.0036910  50.4449640 119.8898387  47.6850274  51.1365773
 111.1836495  53.1985295  51.2918953 110.6389963  53.9745103  51.4239228
 112.0615845  53.5456100  51.1338075 117.9724111  46.5296879  43.6699752
 118.0940023  45.6013525  43.8690639 117.6826154  46.5435565  42.7578067
 120.8415302  44.2151790  46.8066472 120.8636999  44.2791123  45.8518451
 121.2583361  43.3756298  47.0006978 111.9702517  52.3255192  54.1849110
 111.2284253  52.4737827  54.7713741 111.6495261  52.5863457  53.3215860
 119.9146179  61.8671170  53.9829500 120.2233306  61.6220317  54.8552200
 120.7121661  62.0717808  53.4948370 119.9366791  64.0209079  46.2134877
 119.4971782  63.5285458  46.9067733 120.6874908  63.4782047  45.9726952
 112.4159130  60.2120620  46.2159505 113.2417150  59.9124392  45.8358148
 112.0653182  59.4428243  46.6649293 117.3840664  59.5647088  48.2857178
 116.7620673  58.9017793  47.9859406 118.0545530  59.5908220  47.6030826
 110.6167735  58.1306947  47.1748438 109.7799644  57.7029121  46.9932440
 110.5891381  58.3239390  48.1119230 117.4565191  48.0428876  57.8789684
 117.5053347  48.9190999  57.4967454 117.9987705  47.5006270  57.3061328
 116.9454170  58.1151012  41.7615639 117.0942291  58.7986476  41.1082312
 117.7520614  58.0956102  42.2765095 119.6864479  48.7960249  54.6336043
 118.8167789  49.0893815  54.3618632 119.9223960  49.3800694  55.3543307
 114.7006803  54.1416189  42.7676708 114.4552845  53.2378519  42.9656918
 114.8702718  54.1433340  41.8256186 113.9702451  49.8744547  40.2662869
 113.2771696  49.9488902  39.6102905 113.7254203  49.1104891  40.7884386
 120.4449576  60.6099142  39.2327386 119.8723543  61.2289329  38.7797858
 121.0182370  61.1598504  39.7667308 119.0139292  49.8709931  36.5098324
 118.1070747  49.5743044  36.5861038 119.2915273  49.5739749  35.6432610
 109.9317232  51.1916295  46.9597370 109.6120016  50.3381603  46.6671745
 109.3850660  51.4064873  47.7155338 113.7097140  53.9078736  50.6766877
 113.9283149  54.8395844  50.6954911 114.1222913  53.5486710  51.4621681
 120.6301357  44.4146821  42.6642565 119.8202086  44.0693906  43.0397811
 121.3185774  44.1054365  43.2530177 118.5825005  49.4811942  60.0669626
 118.4821732  50.4306299  59.9981717 118.3646547  49.1530180  59.1945696
 117.7838076  46.7296867  36.6510303 118.6457240  47.0551765  36.9106121
 117.9688420  45.9428363  36.1383369 109.8005492  54.8119206  48.9290492
 109.1068963  54.3973159  48.4160446 110.5478483  54.8539743  48.3323911
 118.4456275  52.9109080  58.8834688 117.9623357  53.7109441  59.0898577
 118.5317214  52.9217025  57.9302132 111.7142235  54.7437460  46.8056507
 111.6912923  54.8425147  45.8538390 112.0242871  55.5902611  47.1273673
 114.3729612  56.8013615  50.9203121 115.3272866  56.7697557  50.8533053
 114.1742136  56.3404239  51.7353347 114.9628995  55.3714731  53.4873919
 115.7821884  55.8658810  53.5108756 115.2365802  54.4546699  53.4591487
 112.7279841  62.3433235  47.9373319 112.5934309  61.5833635  47.3711317
 112.3111903  63.0674134  47.4702108 115.8848967  63.2402552  48.1491762
 115.7681351  64.1847984  48.0470452 115.0641413  62.9376113  48.5377561
 110.2163909  49.7052865  54.1866116 110.8622772  49.1951819  54.6753341
 110.0081060  50.4421547  54.7609541 118.7367519  43.9692910  39.9390012
 118.7246189  44.9134750  40.0958283 119.6290941  43.7863055  39.6449473
 116.9103481  63.8930813  51.3647690 117.8130728  63.9254424  51.6814185
 116.6840851  62.9631264  51.3794026 118.6657083  62.6461800  48.0257769
 117.7152714  62.6463662  47.9122141 118.9689569  61.8994535  47.5093804
 114.5561400  46.8520482  58.2841130 115.4192861  46.4957287  58.4944455
 113.9826810  46.5134377  58.9716535 118.6279877  69.0514622  46.8022721
 119.3150917  68.7376352  46.2143736 118.4728006  69.9555986  46.5289973
 118.2047853  67.1315215  49.0740188 118.2431953  66.5978806  49.8677306
 117.6988146  66.6050421  48.4551165 121.4561490  73.4598864  47.1748438
 120.6193398  73.0321039  46.9932440 121.4285135  73.6531308  48.1119230
 120.7710987  66.5208212  46.9597370 120.4513771  65.6673521  46.6671745
 120.2244415  66.7356791  47.7155338 120.6399247  70.1411124  48.9290492
 119.9462718  69.7265077  48.4160446 121.3872238  70.1831660  48.3323911
  95.8355930   9.8413835  30.6196514  95.7579959  10.7921661  30.6984994
  95.2317573   9.4959708  31.2771440  93.4742760  12.5899229  34.7644716
  93.7139358  13.2217754  35.4423734  92.6311956  12.2387270  35.0510075
  93.9487592   8.6147232  32.0943494  93.2797967   9.0993359  31.6107534
  93.8100461   8.8616452  33.0086873  98.0892860  10.6490975  38.6926152
  98.6411168  10.8122597  39.4575238  98.4299054  11.2395413  38.0206177
  91.0492333   8.6911522  34.6618626  90.9146801   7.9311923  34.0956624
  90.6324396   9.4152422  34.1947415  94.2061459   9.5880839  34.8737069
  94.0893844  10.5326271  34.7715759  93.3853906   9.2854400  35.2622868
  95.2315973  10.2409101  38.0892997  96.1343220  10.2732711  38.4059492
  95.0053344   9.3109552  38.1039333 109.5311975  14.7828054  35.7510363
 109.1930487  14.6669118  34.8630898 110.4001743  14.3819219  35.7311369
 105.3898791  16.6363530  31.7407254 104.8263656  16.5453467  30.9723541
 105.2751186  15.8163435  32.2209746 110.0131758  15.9362906  41.7096568
 110.0020399  15.5415704  40.8377072 110.1752398  15.2028978  42.3030340
 102.9363223  18.1314722  34.5791474 103.7284515  17.7905546  34.1637773
 103.1759873  18.2409697  35.4993627 110.9698350  20.3034498  27.0521719
 110.3186329  20.8888578  26.6655732 111.7642712  20.8340693  27.1116756
 104.8953977  17.3923635  27.4508853 105.6684853  16.8452622  27.3121729
 105.2479376  18.2567884  27.6623314 106.7339019  18.7200017  40.6575752
 106.4428885  19.6245648  40.5422419 107.3696004  18.7616545  41.3719822
 107.6595226  16.0976866  37.2477112 108.2558799  15.8732888  36.5334075
 107.7170198  15.3561611  37.8502560 106.9516543  15.4544407  27.2851678
 106.8352801  14.7789310  27.9532762 107.0618803  14.9676781  26.4683831
 109.2948084  14.9154554  30.9898367 108.9306292  14.3885175  31.7011288
 110.1515200  14.5253023  30.8164852 111.6928904  18.4061433  37.6525546
 111.3929628  19.3086472  37.5441353 111.3479964  18.1393616  38.5046699
 105.1441386  14.8575230  33.6862250 104.2191882  14.7251444  33.8939942
 105.3925799  15.6369449  34.1832193 102.5050197  14.5008503  34.5206039
 102.6342578  14.7542982  35.4345451 101.8247648  15.0936211  34.2010694
 106.6749684  25.1705753  30.6196514 106.5973714  26.1213578  30.6984994
 106.0711328  24.8251626  31.2771440 107.4213286  15.1519072  42.8375847
 108.1627971  15.6904116  42.5610671 106.7150272  15.7785361  42.9947399
 112.8968626  17.2948212  41.4348009 113.3051982  16.8530623  40.6902641
 112.1745888  16.7200840  41.6882202 113.2197441  17.8549403  35.1900298
 112.5906303  18.0195117  34.4876366 112.8323103  18.2691013  35.9611262
 117.0986673  18.7903841  32.5444662 116.4137711  19.1702742  31.9941695
 117.1830522  19.3999168  33.2776609 114.3537604  16.4363800  39.1440005
 114.5654499  17.0795560  38.4674386 114.3067352  15.6026116  38.6761935
 108.7725403  17.5923811  32.4550383 109.2363748  17.8711514  31.6655005
 108.5082201  16.6907256  32.2723474 105.6649484  17.1395293  35.3930146
 106.2350841  17.5682561  34.7547631 106.2557595  16.8577877  36.0914332
 101.4519623  11.9730516  34.5657082 100.6618677  12.2288045  34.0897192
 101.9430870  12.7878854  34.6709122 115.4683432  19.3135755  37.3162362
 116.2900876  18.9115943  37.0345044 115.4645835  19.2103990  38.2678478
 103.4034368  12.3375095  31.5240558 102.6065531  12.4493790  32.0424054
 103.1759960  12.6761748  30.6581449 109.2340036  18.8619799  39.4723073
 109.2984468  19.3240206  40.3081245 108.5250959  18.2317164  39.6005383
  99.7357326  12.2261007  36.9972072  99.9865364  13.1108017  37.2629648
 100.2716874  12.0465608  36.2247164 108.9488053  20.5287906  29.3402053
 108.8133728  21.3739442  29.7686901 109.4897866  20.7307184  28.5767987
 102.4017451  18.0463344  29.9129978 102.9141971  18.8406594  30.0635543
 103.0540163  17.3489635  29.8463580 104.2112335  21.1629100  31.9952732
 104.3878964  22.0847065  31.8073715 105.0069169  20.8487520  32.4247111
 103.4964692  13.2093732  41.8714895 103.3818207  12.3078990  42.1721994
 102.6409210  13.4557429  41.5199711 110.5756530  21.1511473  43.4702395
 110.1320384  20.3647851  43.1523300 111.2373743  21.3390623  42.8046286
 105.3343651  22.6807274  37.9963074 105.8851076  22.5524338  37.2240068
 104.4955127  22.9802163  37.6457967 112.6737768  21.4314273  41.4983797
 112.6556243  22.2523154  41.0064066 113.5957688  21.3068348  41.7233938
 109.1310822  18.9458402  42.3407305 109.6639159  18.1846690  42.1106613
 108.6024903  18.6532054  43.0831459 100.3666367  16.3751998  30.6889549
 101.2041589  16.7849007  30.4723257 100.5444635  15.4351441  30.6589743
 110.4963535  18.0744395  29.8526117 109.9684896  17.3397154  29.5399354
 109.9951037  18.8519071  29.6066085 115.4756381  16.2693415  34.9693163
 114.8180055  16.9592676  35.0573292 116.2796780  16.6589847  35.3127150
 111.5484214  24.6022112  25.7757776 110.8745912  24.9053809  26.3842734
 111.9350036  25.4051192  25.4263233 115.0523636  19.6043789  31.1476248
 114.5985963  18.7634699  31.2041438 114.4217602  20.2405188  31.4851028
 113.4956575  21.4420286  32.0826066 113.7879549  22.0025343  31.3638431
 114.0055195  21.7348847  32.8379225 100.3892539  13.7142714  31.3600282
 100.1916938  13.1212074  30.6351349  99.8339203  13.4094924  32.0776221
 108.4590200  22.2200637  33.1719519 108.4166379  22.4461483  32.2428051
 109.3752899  21.9864012  33.3205320 117.6622950  17.8779667  35.7860749
 118.0959457  17.7854956  36.6343803 118.3754531  17.8537168  35.1480765
 106.5756001  19.0963666  32.9681482 107.3696599  18.6013986  32.7664057
 105.8647693  18.5681529  32.6049187 111.3950845  21.4781761  37.3193849
 111.4487868  22.0472698  38.0871565 110.5265627  21.6483647  36.9547887
 102.8838764  13.2406748  29.0441234 101.9536352  13.1791203  29.2611197
 102.9796236  12.7182700  28.2477876 118.5238500  17.9203368  38.3193634
 118.7174390  18.8249179  38.5652909 118.4239118  17.4610787  39.1532219
 113.5853609  18.0710111  43.8934515 113.4339115  17.8420662  42.9764599
 113.5758288  19.0280712  43.9065860 110.3538945  15.6442024  38.8780781
 111.2831005  15.7953183  38.7049749 109.9329975  15.7326044  38.0229428
 109.1527277  19.6692688  36.6479319 109.0138362  19.3011472  37.5205257
 108.3641873  20.1840327  36.4763277 109.7475429  24.7701784  27.9904855
 109.9227184  24.2989828  28.8050478 109.0608217  25.3967551  28.2186116
 110.7032492  19.0474291  34.0368157 110.3682325  19.0075061  34.9325807
 110.2036438  18.3819007  33.5638567 104.6776736  14.4541921  39.5620738
 104.5396534  13.7222159  40.1632277 105.5881659  14.3650821  39.2804926
 107.3059037  14.1661880  39.0504417 108.0158655  13.5255072  39.0091036
 107.2628345  14.4174775  39.9730598 115.2945815  21.1029233  41.9710997
 115.2358361  20.4188453  41.3041580 115.6965334  21.8448223  41.5191623
 104.3136514  27.9191147  34.7644716 104.5533112  28.5509671  35.4423734
 103.4705710  27.5679187  35.0510075 115.2963222  19.0668817  40.2024976
 114.4090001  18.7294739  40.3251375 115.8661774  18.3351848  40.4393742
  96.9492370  15.3992909  33.5268028  97.6363409  15.0854639  32.9389043
  96.7940498  16.3034274  33.2535279 108.8264376  23.7270270  37.1686220
 108.7534547  24.5325241  37.6805524 108.3841769  23.9262235  36.3434241
 108.6154155  22.9642040  30.6789041 107.8321677  23.5063720  30.7727266
 109.3146901  23.4816019  31.0783282 111.2863059  23.6257104  39.3244378
 111.9991032  24.2604568  39.2520280 110.7953088  23.7220970  38.5084380
 113.0080586  17.5308356  30.8961670 112.0736865  17.6509819  30.7266374
 113.1857255  16.6280823  30.6321680 106.3374973  21.3751547  40.1449949
 107.0384432  22.0088030  40.2979343 105.8670088  21.7166279  39.3845588
 111.0983433  23.9655848  32.0730670 111.2805827  23.1477504  32.5358422
 111.9216419  24.1823540  31.6355560 111.4325598  22.8924033  29.3345718
 111.9613365  22.3816487  28.7215880 111.6953818  22.5766563  30.1991251
 110.1863832  14.6715966  44.4568536 109.5104469  14.5710095  45.1270912
 111.0091466  14.5155179  44.9204534 101.9342691  20.9087902  37.0781052
 102.5196128  20.1631590  37.2108956 101.7367529  21.2191859  37.9617716
 104.7881346  23.9439150  32.0943494 104.1191721  24.4285277  31.6107534
 104.6494216  24.1908370  33.0086873  96.5260346  13.4793502  35.7985495
  96.5644445  12.9457093  36.5922613  96.0200639  12.9528708  35.1796472
 108.9286615  25.9782893  38.6926152 109.4804923  26.1414515  39.4575238
 109.2692808  26.5687331  38.0206177 113.7797489  20.8044151  44.5474807
 114.3237393  21.4174109  44.0529762 113.1984334  21.3623729  45.0641820
 100.1568923  12.2057605  28.8739426 100.4522364  11.2968283  28.8206480
  99.2556959  12.1845344  28.5520429 112.0655002  23.9264869  35.6789835
 111.9406142  23.1254608  35.1700780 112.7234093  24.4211062  35.1903805
 114.1289910  21.7273889  37.3069385 113.1820246  21.6079240  37.2347711
 114.4772684  20.8396387  37.3895646 111.1336344  21.5226605  33.5073737
 110.9861306  20.5943312  33.6881307 111.9589837  21.5446696  33.0230812
 114.7370466  22.3455164  34.5938610 115.6617013  22.1398025  34.4563061
 114.5685769  22.0971565  35.5027951 114.5265782  22.8640831  29.9500701
 114.7002659  22.2987254  29.1974554 115.0194673  23.6641726  29.7680191
 100.3442742  14.8755500  38.0164260  99.7996210  15.6515308  38.1484534
 101.2222091  15.2226305  37.8583381 101.1308763  14.0025396  40.9094417
 100.3890500  14.1508032  41.4959047 100.8101508  14.2633662  40.0461166
 109.0752426  23.5441375  40.7074807 109.3839553  23.2990521  41.5797506
 109.8727908  23.7488013  40.2193677 109.0973038  25.6979284  32.9380183
 108.6578028  25.2055663  33.6313040 109.8481155  25.1552252  32.6972259
 101.5765377  21.8890825  32.9404811 102.4023397  21.5894597  32.5603455
 101.2259429  21.1198448  33.3894600 106.5446910  21.2417293  35.0102485
 105.9226920  20.5787998  34.7104713 107.2151777  21.2678425  34.3276133
  99.7773982  19.8077152  33.8993745  98.9405890  19.3799326  33.7177746
  99.7497628  20.0009595  34.8364536 117.1026283  20.2640205  43.8836128
 116.3121827  20.2464343  43.3440628 116.8659638  20.8028498  44.6385165
 106.1060417  19.7921217  28.4860946 106.2548538  20.4756681  27.8327618
 106.9126861  19.7726307  29.0010401 118.7242355  19.5329613  41.4410878
 118.4327164  19.8959593  42.2774339 118.1114487  18.8196621  41.2624210
 103.8613050  15.8186394  29.4922015 103.6159092  14.9148724  29.6902225
 104.0308965  15.8203545  28.5501493 109.6055823  22.2869347  25.9572693
 109.0329790  22.9059534  25.5043165 110.1788616  22.8368709  26.4912615
 109.8741314  17.6747906  44.7589402 110.7944323  17.8526505  44.9529449
 109.8390897  16.7303951  44.6069102  99.0923479  12.8686500  33.6842677
  98.7726263  12.0151808  33.3917051  98.5456907  13.0835078  34.4400644
 102.8703386  15.5848941  37.4012184 103.0889396  16.5166049  37.4200217
 103.2829160  15.2256915  38.1866987  98.9611739  16.4889411  35.6535799
  98.2675210  16.0743364  35.1405753  99.7084730  16.5309948  35.0569218
 107.6062522  14.5879285  45.6079994 107.1229603  15.3879645  45.8143883
 107.6923461  14.5987230  44.6547438 100.8748481  16.4207665  33.5301814
 100.8519169  16.5195352  32.5783697 101.1849118  17.2672816  33.8518980
 103.5335859  18.4783820  37.6448428 104.4879113  18.4467762  37.5778360
 103.3348383  18.0174444  38.4598654 104.1235241  17.0484936  40.2119226
 104.9428130  17.5429015  40.2354063 104.3972049  16.1316904  40.1836793
 101.8886088  24.0203440  34.6618626 101.7540556  23.2603840  34.0956624
 101.4718150  24.7444339  34.1947415 105.0455214  24.9172757  34.8737069
 104.9287598  25.8618189  34.7715759 104.2247660  24.6146318  35.2622868
  99.3770156  11.3823070  40.9111423 100.0229019  10.8722024  41.3998648
  99.1687307  12.1191752  41.4854848 111.9023548  18.4503917  46.4103563
 112.7714707  18.6244570  46.0490198 111.4230299  19.2698334  46.2879293
 106.0709728  25.5701018  38.0892997 106.9736975  25.6024629  38.4059492
 105.8447098  24.6401469  38.1039333 107.8263330  24.3232005  34.7503076
 106.8758961  24.3233867  34.6367448 108.1295816  23.5764740  34.2339110
 120.3705730  30.1119971  35.7510363 120.0324241  29.9961036  34.8630898
 121.2395498  29.7111137  35.7311369 116.2292545  31.9655448  31.7407254
 115.6657411  31.8745385  30.9723541 116.1144940  31.1455352  32.2209746
 120.8525513  31.2654823  41.7096568 120.8414154  30.8707621  40.8377072
 121.0146152  30.5320896  42.3030340 113.7756977  33.4606639  34.5791474
 114.5678269  33.1197464  34.1637773 114.0153628  33.5701615  35.4993627
 115.7347731  32.7215553  27.4508853 116.5078607  32.1744540  27.3121729
 116.0873130  33.5859802  27.6623314 117.5732774  34.0491935  40.6575752
 117.2822640  34.9537566  40.5422419 118.2089758  34.0908463  41.3719822
 118.4988981  31.4268784  37.2477112 119.0952553  31.2024806  36.5334075
 118.5563952  30.6853529  37.8502560 117.7910298  30.7836325  27.2851678
 117.6746556  30.1081228  27.9532762 117.9012558  30.2968699  26.4683831
 120.1341839  30.2446472  30.9898367 119.7700046  29.7177093  31.7011288
 120.9908955  29.8544941  30.8164852 115.9835140  30.1867147  33.6862250
 115.0585637  30.0543361  33.8939942 116.2319554  30.9661367  34.1832193
 113.3443951  29.8300421  34.5206039 113.4736333  30.0834900  35.4345451
 112.6641403  30.4228129  34.2010694 117.5143439  40.4997671  30.6196514
 117.4367468  41.4505496  30.6984994 116.9105082  40.1543543  31.2771440
 120.0060669  27.6725536  43.2757880 119.2294003  28.2319456  43.2660745
 120.6451232  28.1582319  43.7972751 118.2607041  30.4810990  42.8375847
 119.0021725  31.0196034  42.5610671 117.5544026  31.1077278  42.9947399
 120.0893451  27.5612737  38.8081566 120.9354646  27.9852150  38.9516215
 120.0292088  26.9046361  39.5020129 119.6119157  32.9215729  32.4550383
 120.0757503  33.2003432  31.6655005 119.3475955  32.0199173  32.2723474
 116.5043238  32.4687210  35.3930146 117.0744595  32.8974479  34.7547631
 117.0951350  32.1869795  36.0914332 118.5488043  29.0438881  29.2639948
 119.2512086  29.4959925  29.7313874 118.2168672  28.4022700  29.8919841
 116.9968405  27.6350638  43.6391157 116.3667065  28.3166919  43.8726554
 116.8904492  27.5233719  42.6944296 112.2913377  27.3022434  34.5657082
 111.5012431  27.5579962  34.0897192 112.7824624  28.1170772  34.6709122
 114.2428122  27.6667013  31.5240558 113.4459286  27.7785707  32.0424054
 114.0153715  28.0053665  30.6581449 120.0733790  34.1911716  39.4723073
 120.1378223  34.6532124  40.3081245 119.3644714  33.5609081  39.6005383
 110.5751080  27.5552924  36.9972072 110.8259118  28.4399934  37.2629648
 111.1110628  27.3757526  36.2247164 119.7881808  35.8579824  29.3402053
 119.6527482  36.7031360  29.7686901 120.3291620  36.0599101  28.5767987
 116.2749147  21.9371404  46.0016409 115.8816093  21.3837602  46.6764053
 117.0915288  22.2481982  46.3922926 113.2411205  33.3755262  29.9129978
 113.7535726  34.1698512  30.0635543 113.8933918  32.6781552  29.8463580
 115.0506090  36.4921018  31.9952732 115.2272718  37.4138983  31.8073715
 115.8462923  36.1779437  32.4247111 119.1917108  23.3529283  43.5936665
 119.9326822  23.9536436  43.5141128 119.4235031  22.6106921  43.0354708
 114.3358446  28.5385650  41.8714895 114.2211961  27.6370907  42.1721994
 113.4802964  28.7849347  41.5199711 116.1737405  38.0099192  37.9963074
 116.7244830  37.8816255  37.2240068 115.3348881  38.3094081  37.6457967
 119.9704576  34.2750320  42.3407305 120.5032913  33.5138608  42.1106613
 119.4418657  33.9823972  43.0831459 111.2060122  31.7043916  30.6889549
 112.0435344  32.1140925  30.4723257 111.3838390  30.7643358  30.6589743
 118.4613698  21.8353771  34.8416362 119.3266694  21.6396579  34.4822251
 118.5291206  21.6064122  35.7685718 121.3357289  33.4036312  29.8526117
 120.8078651  32.6689072  29.5399354 120.8344792  34.1810989  29.6066085
 116.0676017  24.0655978  32.2132729 116.6419769  23.8431160  31.4805922
 116.6546999  24.1344673  32.9661330 111.2286293  29.0434631  31.3600282
 111.0310693  28.4503992  30.6351349 110.6732957  28.7386842  32.0776221
 119.2083017  28.9357738  33.4794876 119.2631626  27.9831574  33.4037352
 118.3974219  29.0917177  33.9636174 117.1475377  27.5534798  31.2385254
 116.3343242  27.8528968  31.6450447 117.6434371  27.1590486  31.9559737
 119.2983954  37.5492555  33.1719519 119.2560133  37.7753401  32.2428051
 120.2146653  37.3155929  33.3205320 116.6389451  25.1253153  36.8546489
 117.2788831  24.9841912  36.1569453 115.8066982  24.8387667  36.4785091
 117.4149755  34.4255584  32.9681482 118.2090354  33.9305904  32.7664057
 116.7041448  33.8973447  32.6049187 113.7232519  28.5698665  29.0441234
 112.7930107  28.5083121  29.2611197 113.8189991  28.0474618  28.2477876
 113.6418068  25.0953478  31.6319476 113.9024885  26.0098811  31.5228637
 114.4635240  24.6277921  31.7816089 115.1142993  26.5091235  38.8018301
 115.7866047  26.3008597  38.1530950 114.2872780  26.3113321  38.3623533
 119.9921031  34.9984606  36.6479319 119.8532117  34.6303390  37.5205257
 119.2035627  35.5132245  36.4763277 120.5869183  40.0993702  27.9904855
 120.7620939  39.6281745  28.8050478 119.9001971  40.7259468  28.2186116
 115.5170490  29.7833838  39.5620738 115.3790288  29.0514077  40.1632277
 116.4275414  29.6942738  39.2804926 118.1452791  29.4953798  39.0504417
 118.8552410  28.8546990  39.0091036 118.1022099  29.7466693  39.9730598
 116.8581725  26.4819016  40.8700057 116.3219082  26.0309754  41.5221653
 116.2698433  26.6164924  40.1270521 115.1530268  43.2483065  34.7644716
 115.3926867  43.8801589  35.4423734 114.3099465  42.8971105  35.0510075
 107.7886124  30.7284827  33.5268028 108.4757164  30.4146557  32.9389043
 107.6334253  31.6326191  33.2535279 112.5920846  25.6175023  37.9553051
 112.5079035  25.0100693  37.2203461 111.7703553  26.1084042  37.9562548
 119.6658130  39.0562187  37.1686220 119.5928302  39.8617159  37.6805524
 119.2235523  39.2554153  36.3434241 119.4547910  38.2933957  30.6789041
 118.6715432  38.8355638  30.7727266 120.1540655  38.8107937  31.0783282
 119.3479529  26.2445970  33.0494931 118.9777316  25.6917010  33.7375837
 119.8438621  25.6404103  32.4969931 117.1768727  36.7043465  40.1449949
 117.8778187  37.3379948  40.2979343 116.7063842  37.0458196  39.3845588
 112.7736445  36.2379820  37.0781052 113.3589882  35.4923508  37.2108956
 112.5761284  36.5483777  37.9617716 115.6275101  39.2731067  32.0943494
 114.9585476  39.7577195  31.6107534 115.4887970  39.5200288  33.0086873
 107.3654100  28.8085420  35.7985495 107.4038200  28.2749011  36.5922613
 106.8594393  28.2820626  35.1796472 119.7680369  41.3074811  38.6926152
 120.3198677  41.4706432  39.4575238 120.1086563  41.8979249  38.0206177
 114.7444863  23.6549961  39.2948037 114.8086189  24.5164791  38.8825435
 114.6811983  23.0423962  38.5620396 114.2197135  25.7273093  42.9421071
 114.8469174  25.3450170  43.5558596 113.3625054  25.5087295  43.3076764
 110.9962678  27.5349522  28.8739426 111.2916119  26.6260201  28.8206480
 110.0950714  27.5137262  28.5520429 114.5256925  25.6105519  34.8566975
 113.8043511  26.2241486  34.7174448 115.3150181  26.1463284  34.7783621
 117.3283238  22.9459945  41.1307627 117.8517640  23.1922242  41.8933936
 117.1095572  23.7779980  40.7110764 112.7250519  25.2163620  28.9978751
 112.3963226  24.3360999  28.8153857 113.0789890  25.1611289  29.8855141
 115.8392343  25.5036590  29.3654229 116.1788415  26.0322511  28.6432837
 116.2864463  25.8416996  30.1412796 118.5335783  23.8873640  38.8157297
 118.1932604  23.0881453  39.2177977 117.8274790  24.1875351  38.2434130
 119.1852255  20.9722953  37.2684620 120.0078324  20.4983431  37.1463510
 119.4290319  21.7513437  37.7683306 116.7090834  27.6642073  35.0776599
 116.5635415  27.9782377  35.9700880 116.2316038  28.2826974  34.5247497
 118.5687217  24.6544621  35.1257488 118.5548786  23.7585715  34.7889786
 119.2859645  24.6615285  35.7595774 120.4213348  25.0881962  37.1710616
 120.1631125  26.0099032  37.1694946 119.8898388  24.6912396  37.8611080
 111.1836496  30.2047418  38.0164260 110.6389964  30.9807226  38.1484534
 112.0615846  30.5518222  37.8583381 111.9702518  29.3317314  40.9094417
 111.2284254  29.4799949  41.4959047 111.6495262  29.5925580  40.0461166
 119.9146181  38.8733292  40.7074807 120.2233307  38.6282439  41.5797506
 120.7121663  39.0779931  40.2193677 119.9366793  41.0271202  32.9380183
 119.4971783  40.5347581  33.6313040 120.6874910  40.4844170  32.6972259
 112.4159132  37.2182743  32.9404811 113.2417152  36.9186515  32.5603455
 112.0653184  36.4490365  33.3894600 117.3840665  36.5709211  35.0102485
 116.7620674  35.9079916  34.7104713 118.0545532  36.5970343  34.3276133
 110.6167737  35.1369069  33.8993745 109.7799645  34.7091244  33.7177746
 110.5891382  35.3301513  34.8364536 117.4565192  25.0490999  44.6034991
 117.5053348  25.9253122  44.2212761 117.9987706  24.5068392  44.0306634
 116.9454172  35.1213134  28.4860946 117.0942292  35.8048599  27.8327618
 117.7520615  35.1018224  29.0010401 119.6864481  25.8022371  41.3581350
 118.8167790  26.0955938  41.0863938 119.9223961  26.3862816  42.0788613
 114.7006805  31.1478312  29.4922015 114.4552847  30.2440642  29.6902225
 114.8702719  31.1495462  28.5501493 113.9702452  26.8806670  26.9908176
 113.2771697  26.9551025  26.3348212 113.7254204  26.1167013  27.5129693
 120.4449577  37.6161265  25.9572693 119.8723544  38.2351452  25.5043165
 121.0182371  38.1660627  26.4912615 109.9317233  28.1978417  33.6842677
 109.6120018  27.3443726  33.3917051 109.3850661  28.4126996  34.4400644
 113.7097141  30.9140858  37.4012184 113.9283151  31.8457966  37.4200217
 114.1222915  30.5548833  38.1866987 118.5825006  26.4874064  46.7914933
 118.4821733  27.4368421  46.7227024 118.3646548  26.1592303  45.9191003
 109.8005493  31.8181329  35.6535799 109.1068965  31.4035282  35.1405753
 110.5478484  31.8601865  35.0569218 118.4456276  29.9171203  45.6079994
 117.9623358  30.7171563  45.8143883 118.5317215  29.9279148  44.6547438
 111.7142236  31.7499583  33.5301814 111.6912924  31.8487270  32.5783697
 112.0242872  32.5964733  33.8518980 114.3729614  33.8075738  37.6448428
 115.3272867  33.7759680  37.5778360 114.1742137  33.3466361  38.4598654
 114.9628996  32.3776854  40.2119226 115.7821885  32.8720932  40.2354063
 115.2365804  31.4608822  40.1836793 112.7279842  39.3495357  34.6618626
 112.5934310  38.5895758  34.0956624 112.3111905  40.0736257  34.1947415
 115.8848968  40.2464674  34.8737069 115.7681352  41.1910107  34.7715759
 115.0641415  39.9438236  35.2622868 110.2163910  26.7114988  40.9111423
 110.8622774  26.2013942  41.3998648 110.0081061  27.4483669  41.4854848
 116.9103482  40.8992936  38.0892997 117.8130729  40.9316546  38.4059492
 116.6840853  39.9693387  38.1039333 118.6657084  39.6523923  34.7503076
 117.7152715  39.6525784  34.6367448 118.9689571  38.9056657  34.2339110
 114.5561401  23.8582605  45.0086437 115.4192863  23.5019410  45.2189762
 113.9826812  23.5196500  45.6961841 118.6279879  46.0576744  33.5268028
 119.3150918  45.7438474  32.9389043 118.4728007  46.9618109  33.2535279
 118.2047855  44.1377338  35.7985495 118.2431954  43.6040928  36.5922613
 117.6988148  43.6112543  35.1796472 121.4561491  50.4660987  33.8993745
 120.6193399  50.0383161  33.7177746 121.4285137  50.6593430  34.8364536
 120.7710988  43.5270335  33.6842677 120.4513772  42.6735643  33.3917051
 120.2244416  43.7418913  34.4400644 120.6399248  47.1473247  35.6535799
 119.9462719  46.7327199  35.1405753 121.3872239  47.1893783  35.0569218
   3.1546661  55.2605953 105.4285933   2.4808360  55.5637649 106.0370891
   3.5412483  56.0635033 105.0791390   7.1203402  52.8391436 106.7025757
   7.8154306  53.4598129 106.9213071   7.4626552  51.9886787 106.9778134
   1.2118270  52.9453188 105.6100850   0.6392237  53.5643375 105.1571322
   1.7851064  53.4952550 106.1440772   4.4315530  53.2290338 106.7409432
   5.3646203  53.1635900 106.9442308   4.3438743  54.0646605 106.2823965
   7.0603547  52.5456208 103.7013380   6.9817178  52.2116072 104.5949138
   7.8813214  53.0377976 103.7004852   4.6307499  49.8624204 103.3223358
   5.3343349  50.0674206 103.9381014   3.9070147  50.4300966 103.5872442
   6.5394196  50.3006733 105.3721818   7.3739800  49.8687931 105.1899293
   6.3778539  50.1288747 106.2998713  15.1678471  60.8176384 115.4676995
  15.8056881  60.6983131 114.7640335  15.0499314  61.7657228 115.5264947
   7.8354993  62.6239289 111.3935411   7.2719858  62.5329225 110.6251698
   7.7207388  61.8039193 111.8737903  13.4154552  66.2910256 106.7049876
  12.7642531  66.8764337 106.3183889  14.2098915  66.8216451 106.7644913
   7.3410179  63.3799393 107.1037010   8.1141055  62.8328380 106.9649886
   7.6935578  64.2443643 107.3151471   9.6776457  59.5392060 104.7355460
   9.9301977  59.0173581 103.9738923   8.7401016  59.3758205 104.8382143
  14.7219740  58.5427838 112.5430203  15.5082829  58.1247261 112.1920620
  14.9858444  59.4473930 112.7111852  14.8929817  63.9800688 107.2418860
  14.2575650  64.0535315 107.9539765  14.5627223  64.5694287 106.5637939
  20.1228167  58.4803071 113.4463182  20.8553339  57.9102288 113.6801011
  19.3667522  58.0924672 113.8869687   9.3972745  61.4420165 106.9379835
   9.2809004  60.7665069 107.6060919   9.5075005  60.9552539 106.1211988
  11.7404286  60.9030313 110.6426524  11.3762494  60.3760934 111.3539446
  12.5971402  60.5128782 110.4693009  11.3809773  55.9320212 105.6387873
  11.5484176  56.8000449 106.0058344  11.1906942  56.0947494 104.7149162
  11.3598994  58.3877870 106.6234539  11.2398619  58.8334921 107.4620020
  10.6651583  58.7363187 106.0648078   9.1205886  71.1581512 110.2724671
   9.0429916  72.1089337 110.3513151   8.5167530  70.8127384 110.9299597
  17.0584060  58.8599343 107.4514873  17.9701916  59.0926730 107.2762571
  16.5493707  59.4436387 106.8889952  15.6653643  63.8425161 114.8428455
  15.0362505  64.0070876 114.1404523  15.2779305  64.2566771 115.6139419
  19.5442875  64.7779599 112.1972819  18.8593913  65.1578501 111.6469852
  19.6286724  65.3874926 112.9304766  11.2181605  63.5799570 112.1078540
  11.6819950  63.8587272 111.3183163  10.9538403  62.6783014 111.9251631
  10.1550491  59.7022722 108.9168105  10.8574534  60.1543766 109.3842032
   9.8231119  59.0606541 109.5447998  17.9139634  65.3011514 116.9690520
  18.7357078  64.8991701 116.6873201  17.9102037  65.1979748 117.9206635
  26.0045627  61.6450262 113.3175491  25.2509336  61.0757660 113.1619495
  26.1393168  61.6112927 114.2646126  11.3944255  66.5163664 108.9930210
  11.2589930  67.3615200 109.4215058  11.9354068  66.7182942 108.2296144
   4.8473653  64.0339103 109.5658135   5.3598173  64.8282353 109.7163700
   5.4996365  63.3365393 109.4991737   6.6568537  67.1504859 111.6480889
   6.8335166  68.0722824 111.4601873   7.4525371  66.8363278 112.0775268
   2.8122569  62.3627757 110.3417706   3.6497791  62.7724765 110.1251414
   2.9900837  61.4227199 110.3117900  14.7087002  60.0302837 106.0301539
  14.1933625  60.8007442 106.2689926  14.4364310  59.3567974 106.6534600
  12.2934113  54.8752538 111.0886777  11.4375709  54.4859389 110.9092416
  12.7061064  54.9544499 110.2286563  19.6821276  62.7835192 107.9654712
  18.9050718  62.4446352 107.5209875  20.3612757  62.7887815 107.2909677
  14.4973305  57.9029930 107.8561320  14.1923440  58.2176079 108.7071463
  15.4503747  57.9811349 107.8988653  12.9419737  64.0620153 109.5054274
  12.4141098  63.3272912 109.1927512  12.4407239  64.8394829 109.2594242
  17.9212583  62.2569173 114.6221320  17.2636257  62.9468435 114.7101449
  18.7252982  62.6465605 114.9655307  16.7318041  60.6113546 112.6725262
  17.2449923  61.2443538 113.1746972  17.3819265  60.0114742 112.3068622
   8.0008051  56.7544280 105.8856771   7.1645364  57.0918967 106.2066046
   7.8612821  56.6193260 104.9483908  11.0872337  61.8800363 102.5089247
  10.1799398  61.6489617 102.7080396  11.5843369  61.0837982 102.6963229
  13.9940416  70.5897870 105.4285933  13.3202114  70.8929567 106.0370891
  14.3806238  71.3926951 105.0791390  13.9933920  59.4854417 110.0486283
  14.7405739  59.9975815 109.7393405  14.2625510  59.1638470 110.9090677
  12.2660570  61.9812958 107.0313237  11.3571789  61.6971991 107.1285707
  12.2955654  62.4012037 106.1716544  17.4979838  65.5919548 110.8004405
  17.0442165  64.7510457 110.8569595  16.8673804  66.2280946 111.1379185
  16.4412757  56.5211534 112.0305072  15.7035514  56.0088920 112.3615315
  16.6939531  56.0811915 111.2188349  15.9412777  67.4296044 111.7354223
  16.2335751  67.9901101 111.0166589  16.4511397  67.7224605 112.4907382
  10.8145464  59.5941579 113.1323033  10.8694074  58.6415415 113.0565509
  10.0036666  59.7501018 113.6164331  11.9636658  63.5221702 104.3701316
  11.5256088  62.8057561 103.9106953  12.7047099  63.7497817 103.8086407
   8.7537824  58.2118638 110.8913411   7.9405690  58.5112809 111.2978604
   9.2496818  57.8174327 111.6087894  10.9046402  68.2076395 112.8247676
  10.8622581  68.4337242 111.8956208  11.8209101  67.9739770 112.9733477
  20.0809773  61.7978899 110.4277634  19.9427671  61.9880495 109.4998824
  19.7245992  62.5598282 110.8845686  20.1079152  63.8655426 115.4388906
  20.5415659  63.7730715 116.2871960  20.8210733  63.8412926 114.8008922
   9.0212203  65.0839424 112.6209639   9.8152801  64.5889744 112.4192214
   8.3103895  64.5557287 112.2577344   5.3294966  59.2282506 108.6969392
   4.3992554  59.1666962 108.9139354   5.4252438  58.7058459 107.9006033
  20.9694702  63.9079126 117.9721791  21.1630592  64.8124937 118.2181066
  20.8695320  63.4486545 118.8060376  12.1931631  70.7577543 107.6433013
  12.3683386  70.2865586 108.4578635  11.5064419  71.3843309 107.8714273
  13.1488694  65.0350049 113.6896314  12.8138527  64.9950819 114.5853964
  12.6492640  64.3694765 113.2166724  16.0847886  62.3806083 103.9633373
  15.4677056  61.6552912 103.8666426  15.6164374  63.1415444 103.6200448
   7.8746431  56.5991508 103.0854678   6.9975898  56.4780308 102.7216924
   8.3504185  55.8077586 102.8333566  11.0610358  68.9517798 110.3317198
  10.2777879  69.4939478 110.4255423  11.7603103  69.4691778 110.7311439
  22.2236765  60.4652793 114.6169695  22.2126641  61.3477508 114.2463628
  21.3554144  60.1124344 114.4224232  15.4536788  63.5184115 110.5489827
  14.5193067  63.6385577 110.3794531  15.6313457  62.6156581 110.2849837
  18.8409340  59.3601434 111.0839861  19.3069792  60.1929426 111.0100164
  19.2916840  58.8946416 111.7885120  16.9085571  65.7045255 108.0826013
  17.1845415  65.5901850 108.9919887  16.0390070  65.3062740 108.0438186
  13.5439635  69.9531606 111.7258827  13.7262029  69.1353262 112.1886579
  14.3672621  70.1699298 111.2883717  13.8781800  68.8799791 108.9873875
  14.4069567  68.3692246 108.3744037  14.1410020  68.5642321 109.8519408
   2.6025125  58.1933363 108.5267583   2.8978566  57.2844041 108.4734637
   1.7013161  58.1721102 108.2048586  14.5111204  69.9140627 115.3317992
  14.3862344  69.1130367 114.8228937  15.1690295  70.4086820 114.8431962
  16.5746112  67.7149647 116.9597542  15.6276448  67.5954998 116.8875869
  16.9228886  66.8272145 117.0423803  13.5792546  67.5102363 113.1601894
  13.4317508  66.5819071 113.3409464  14.4046039  67.5322454 112.6758969
   7.4454790  56.1620430 109.0182386   7.7850863  56.6906352 108.2960995
   7.8926911  56.5000836 109.7940953  17.1826668  68.3330922 114.2466767
  18.1073215  68.1273783 114.1091218  17.0141971  68.0847323 115.1556108
   9.4322937  54.6595052 107.2175679  10.1531300  55.0376305 106.7139396
   8.8088241  55.3783929 107.3210657  13.5754060  55.3640201 108.1534011
  13.7917674  56.2464839 107.8522839  13.0948127  54.9726414 107.4239653
  16.9721984  68.8516589 109.6028858  17.1458861  68.2863012 108.8502711
  17.4650875  69.6517484 109.4208348  22.8261375  61.6153012 111.2219158
  23.2692521  60.8660338 110.8238281  21.9487885  61.6063149 110.8392890
  17.9597156  68.1683354 106.7025757  18.6548061  68.7890047 106.9213071
  18.3020306  67.3178705 106.9778134  19.8588579  65.6183059 108.2313087
  20.3839904  65.9570332 107.5062407  19.7710932  64.6830075 108.0476222
   8.5516619  65.7796975 108.1389103   8.7004740  66.4632439 107.4855775
   9.3583063  65.7602065 108.6538558  22.3694240  63.0858251 113.6141606
  23.2041131  63.5248055 113.7779166  22.5053369  62.6096904 112.7949851
   6.3069252  61.8062153 109.1450172   6.0615294  60.9024483 109.3430382
   6.4765167  61.8079303 108.2029650   5.5764900  57.5390510 106.6436333
   4.8834145  57.6134865 105.9876369   5.3316652  56.7750854 107.1657850
  12.0512025  68.2745106 105.6100850  11.4785992  68.8935293 105.1571322
  12.6244818  68.8244467 106.1440772  15.2709285  68.5582256 106.7409432
  16.2039958  68.4927817 106.9442308  15.1832497  69.3938523 106.2823965
  17.8997301  67.8748126 103.7013380  17.8210933  67.5407990 104.5949138
  18.7206968  68.3669894 103.7004852  20.5975492  60.7409865 116.9089699
  20.5651813  59.8025866 117.0949382  21.2076116  60.8193902 116.1755523
  12.4358823  59.6105918 102.9516903  13.3817928  59.4812126 103.0205321
  12.0573068  58.8720580 103.4286331  26.4152042  61.8025872 116.0495735
  27.1455431  61.5411160 116.6103439  25.8058988  61.0654594 116.0897803
  24.4967339  59.9433735 116.6470187  23.7700503  59.8089700 116.0386678
  24.0814626  60.2510563 117.4526905  10.6201740  57.5355895 102.8871788
   9.7133196  57.2389007 102.9634501  10.8977721  57.2385713 102.0206074
  12.2363806  52.0792784 109.0416029  11.4264534  51.7339869 109.4171275
  12.9248223  51.7700328 109.6303641   9.3900525  54.3942830 103.0283767
  10.2519689  54.7197728 103.2879584   9.5750869  53.6074326 102.5156833
  17.5433162  53.2671356 110.1718990  16.9631831  53.9256160 109.7897042
  17.2769094  52.4448701 109.7606408  16.3258040  55.4271447 109.2275338
  15.4383895  55.7121097 109.0095533  16.7412029  55.2665210 108.3802615
  19.6772576  55.4517968 112.9429678  20.4532966  55.9414420 113.2154294
  18.9520710  55.8776022 113.4001547  22.1145134  56.1645587 114.0003618
  22.7089625  55.9241323 113.2896926  22.1871718  55.4452718 114.6277154
  15.4701253  65.1916121 103.3223358  16.1737103  65.3966124 103.9381014
  14.7463902  65.7592883 103.5872442  16.2999063  60.9425983 109.4425628
  16.2434265  61.3994534 108.6033261  16.8527406  60.1816667 109.2648471
  20.1103869  56.7315715 110.2675748  19.8540803  56.3312350 111.0983956
  19.4856737  57.4459508 110.1425887  24.4216207  59.4711788 112.7747039
  23.8615765  59.5404977 113.5478601  23.8159710  59.2952772 112.0546536
  17.3787950  65.6298651 105.3721818  18.2133554  65.1979849 105.1899293
  17.2172293  65.4580664 106.2998713  17.0333843  62.1330764 106.7378158
  16.9782646  61.9675035 105.7966602  16.4079898  62.8406797 106.8940347
  10.3429968  51.6338873 106.3163476  10.3308638  52.5780713 106.4731747
  11.2353390  51.4509018 106.0222937  26.0072226  76.1468302 115.4676995
  26.6450635  76.0275049 114.7640335  25.8893068  77.0949146 115.5264947
  22.8161932  76.0995730 115.4038520  22.4780443  75.9836795 114.5159055
  23.6851700  75.6986895 115.3839526  18.6748747  77.9531206 111.3935411
  18.1113613  77.8621143 110.6251698  18.5601143  77.1331111 111.8737903
  24.2548306  81.6202174 106.7049876  23.6036286  82.2056254 106.3183889
  25.0492669  82.1508369 106.7644913  18.1803933  78.7091311 107.1037010
  18.9534809  78.1620298 106.9649886  18.5329332  79.5735560 107.3151471
  20.9445183  77.4144542 116.9005269  21.5408755  77.1900564 116.1862232
  21.0020154  76.6729287 117.5030717  20.5170211  74.8683977 104.7355460
  20.7695732  74.3465498 103.9738923  19.5794770  74.7050123 104.8382143
  25.5613494  73.8719756 112.5430203  26.3476583  73.4539179 112.1920620
  25.8252198  74.7765848 112.7111852  25.7323571  79.3092606 107.2418860
  25.0969404  79.3827232 107.9539765  25.4020978  79.8986205 106.5637939
  30.9621921  73.8094989 113.4463182  31.6947093  73.2394206 113.6801011
  30.2061277  73.4216589 113.8869687  20.2366500  76.7712083 106.9379835
  20.1202758  76.0956987 107.6060919  20.3468760  76.2844457 106.1211988
  22.5798041  76.2322230 110.6426524  22.2156248  75.7052851 111.3539446
  23.4365157  75.8420699 110.4693009  28.4847341  67.5216563 117.9057790
  28.1530666  68.3911974 117.6819005  27.8892955  67.2052847 118.5851821
  22.2203528  71.2612130 105.6387873  22.3877930  72.1292366 106.0058344
  22.0300697  71.4239412 104.7149162  24.9778861  79.7229109 117.3053703
  24.6779584  80.6254148 117.1969510  24.6329921  79.4561292 118.1574856
  18.4291342  76.1742906 113.3390407  17.5041839  76.0419120 113.5468099
  18.6775756  76.9537125 113.8360350  28.3776005  72.2411649 114.9851140
  27.4692882  72.1727057 114.6909901  28.3263601  72.7183594 115.8132966
  22.1992749  73.7169787 106.6234539  22.0792374  74.1626838 107.4620020
  21.5045337  74.0655105 106.0648078  19.9599641  86.4873429 110.2724671
  19.8823671  87.4381254 110.3513151  19.3561284  86.1419302 110.9299597
  30.2437651  70.4428087 116.7629014  29.6012031  70.7360621 116.1168809
  29.7392580  70.3281008 117.5682211  27.8977815  74.1891261 107.4514873
  28.8095671  74.4218647 107.2762571  27.3887462  74.7728305 106.8889952
  22.5349653  73.5488495 118.4609723  23.3810848  73.9727909 118.6044372
  22.4748290  72.8922120 119.1548286  26.5047397  79.1717079 114.8428455
  25.8756260  79.3362793 114.1404523  26.1173059  79.5858689 115.6139419
  30.3836629  80.1071517 112.1972819  29.6987667  80.4870418 111.6469852
  30.4680478  80.7166844 112.9304766  25.6849098  71.2092864 120.1190897
  25.4410030  71.9634924 119.5825172  25.9609028  71.5878211 120.9538144
  27.6387561  77.7531476 118.7968162  27.8504456  78.3963236 118.1202543
  27.5917309  76.9193793 118.3290092  25.2413790  70.3649297 115.7004734
  24.3798269  70.6630550 115.9921472  25.2676224  70.5819696 114.7685767
  22.0575359  78.9091487 112.1078540  22.5213705  79.1879190 111.3183163
  21.7932157  78.0074932 111.9251631  18.9499440  78.4562969 115.0458303
  19.5200797  78.8850237 114.4075788  19.5407552  78.1745553 115.7442489
  20.9944245  75.0314640 108.9168105  21.6968288  75.4835683 109.3842032
  20.6624874  74.3898458 109.5447998  14.7369579  73.2898192 114.2185239
  13.9468633  73.5455721 113.7425349  15.2280826  74.1046530 114.3237279
  28.7533389  80.6303431 116.9690520  29.5750832  80.2283619 116.6873201
  28.7495791  80.5271666 117.9206635  16.6884324  73.6542771 111.1768715
  15.8915488  73.7661466 111.6952211  16.4609917  73.9929424 110.3109606
  36.8439382  76.9742180 113.3175491  36.0903090  76.4049578 113.1619495
  36.9786923  76.9404844 114.2646126  22.2338010  81.8455582 108.9930210
  22.0983685  82.6907118 109.4215058  22.7747822  82.0474860 108.2296144
  15.6867407  79.3631020 109.5658135  16.1991928  80.1574270 109.7163700
  16.3390120  78.6657311 109.4991737  17.4962292  82.4796776 111.6480889
  17.6728920  83.4014741 111.4601873  18.2919125  82.1655196 112.0775268
  25.5830473  65.3686144 117.5229104  25.2394743  66.2587786 117.4468214
  25.9509436  65.1787802 116.6598689  13.6516324  77.6919675 110.3417706
  14.4891546  78.1016683 110.1251414  13.8294592  76.7519117 110.3117900
  25.5480756  75.3594755 106.0301539  25.0327379  76.1299360 106.2689926
  25.2758064  74.6859891 106.6534600  23.1327867  70.2044456 111.0886777
  22.2769463  69.8151306 110.9092416  23.5454819  70.2836417 110.2286563
  24.6627014  67.7390799 115.4878337  24.1591809  67.7020934 114.6746142
  24.9557621  68.6483542 115.5474994  20.9069900  67.8229529 114.4944519
  21.7722896  67.6272338 114.1350408  20.9747408  67.5939881 115.4213876
  30.5215030  78.1127110 107.9654712  29.7444473  77.7738269 107.5209875
  31.2006511  78.1179733 107.2909677  25.3367059  73.2321847 107.8561320
  25.0317195  73.5467996 108.7071463  26.2897501  73.3103267 107.8988653
  23.7813491  79.3912071 109.5054274  23.2534853  78.6564830 109.1927512
  23.2800994  80.1686747 109.2594242  28.7606337  77.5861091 114.6221320
  28.1030011  78.2760352 114.7101449  29.5646736  77.9757523 114.9655307
  18.5132219  70.0531737 111.8660886  19.0875971  69.8306918 111.1334079
  19.1003201  70.1220431 112.6189487  27.5711796  75.9405464 112.6725262
  28.0843678  76.5735456 113.1746972  28.2213020  75.3406659 112.3068622
  18.8401806  72.0836198 105.8856771  18.0039118  72.4210884 106.2066046
  18.7006575  71.9485178 104.9483908  20.8154886  66.9272986 110.5935955
  20.1619299  66.6122003 109.9692570  20.7735361  66.3048726 111.3195778
  21.9266091  77.2092281 102.5089247  21.0193153  76.9781534 102.7080396
  22.4237123  76.4129900 102.6963229  24.8334170  85.9189788 105.4285933
  24.1595869  86.2221485 106.0370891  25.2199992  86.7218868 105.0791390
  24.0492627  73.4154919 114.9183603  23.1315188  73.6369866 114.7605291
  24.4652770  73.4901230 114.0595310  24.8327674  74.8146335 110.0486283
  25.5799493  75.3267732 109.7393405  25.1019264  74.4930388 110.9090677
  23.1054325  77.3104876 107.0313237  22.1965544  77.0263909 107.1285707
  23.1349408  77.7303954 106.1716544  28.3373592  80.9211465 110.8004405
  27.8835919  80.0802375 110.8569595  27.7067559  81.5572864 111.1379185
  27.2806512  71.8503451 112.0305072  26.5429268  71.3380837 112.3615315
  27.5333285  71.4103833 111.2188349  26.7806531  82.7587962 111.7354223
  27.0729506  83.3193019 111.0166589  27.2905152  83.0516523 112.4907382
  27.3818139  64.6279703 112.6246842  27.6877016  63.7677067 112.3372757
  28.1070744  65.2197323 112.4245835  13.6742495  75.0310390 111.0128439
  13.4766895  74.4379751 110.2879506  13.1189159  74.7262600 111.7304378
  21.6539219  74.9233496 113.1323033  21.7087828  73.9707333 113.0565509
  20.8430421  75.0792935 113.6164331  22.8030412  78.8513619 104.3701316
  22.3649842  78.1349478 103.9106953  23.5440853  79.0789734 103.8086407
  19.5931579  73.5410556 110.8913411  18.7799444  73.8404727 111.2978604
  20.0890573  73.1466245 111.6087894  21.7440157  83.5368313 112.8247676
  21.7016335  83.7629159 111.8956208  22.6602855  83.3031688 112.9733477
  25.1905790  74.0052381 119.7228305  25.5455178  74.2323854 120.5822771
  25.8377922  74.3370757 119.1005561  30.9203527  77.1270816 110.4277634
  30.7821426  77.3172412 109.4998824  30.5639746  77.8890199 110.8845686
  19.0845653  71.1128912 116.5074646  19.7245033  70.9717671 115.8097610
  18.2523184  70.8263425 116.1313248  30.9472907  79.1947343 115.4388906
  31.3809414  79.1022633 116.2871960  31.6604488  79.1704844 114.8008922
  19.8605957  80.4131342 112.6209639  20.6546556  79.9181662 112.4192214
  19.1497650  79.8849205 112.2577344  16.1688721  74.5574424 108.6969392
  15.2386309  74.4958879 108.9139354  16.2646193  74.0350376 107.9006033
  16.0874270  71.0829237 111.2847633  16.3481087  71.9974570 111.1756794
  16.9091442  70.6153679 111.4344246  31.8088456  79.2371044 117.9721791
  32.0024346  80.1416855 118.2181066  31.7089075  78.7778463 118.8060376
  23.4624767  69.1228935 120.4712119  22.8152682  69.8218884 120.3776595
  24.2325783  69.5565079 120.8388367  23.6388901  76.9609700 118.5308938
  24.5680961  77.1120859 118.3577906  23.2179932  77.0493720 117.6757585
  23.0325385  86.0869460 107.6433013  23.2077141  85.6157504 108.4578635
  22.3458173  86.7135227 107.8714273  23.9882448  80.3641967 113.6896314
  23.6532281  80.3242737 114.5853964  23.4886394  79.6986683 113.2166724
  26.9241640  77.7098001 103.9633373  26.3070811  76.9844829 103.8666426
  26.4558129  78.4707361 103.6200448  18.7140186  71.9283425 103.0854678
  17.8369652  71.8072226 102.7216924  19.1897939  71.1369504 102.8333566
  28.5813179  80.3836493 119.8553133  27.6939958  80.0462415 119.9779532
  29.1511730  79.6519525 120.0921899  21.9004112  84.2809716 110.3317198
  21.1171634  84.8231396 110.4255423  22.5996857  84.7983695 110.7311439
  25.2100762  70.0904345 112.9751404  25.7069462  69.3374307 112.6552474
  24.4387744  70.1268662 112.4094613  33.0630520  75.7944711 114.6169695
  33.0520396  76.6769426 114.2463628  32.1947899  75.4416262 114.4224232
  26.2930543  78.8476032 110.5489827  25.3586822  78.9677495 110.3794531
  26.4707211  77.9448499 110.2849837  21.7935731  72.2321728 112.7023088
  21.4233518  71.6792769 113.3903994  22.2894823  71.6279862 112.1498088
  29.6803094  74.6893352 111.0839861  30.1463546  75.5221343 111.0100164
  30.1310595  74.2238333 111.7885120  27.7479325  81.0337173 108.0826013
  28.0239169  80.9193768 108.9919887  26.8783824  80.6354658 108.0438186
  27.6519757  67.0573939 115.1230762  26.7382837  67.2878165 115.2912969
  28.0812858  67.1412383 115.9744795  27.4226215  75.2463831 117.6230656
  26.7697666  75.4939738 116.9683109  27.8006595  74.4327969 117.2893134
  24.3833389  85.2823524 111.7258827  24.5655784  84.4645180 112.1886579
  25.2066375  85.4991216 111.2883717  24.7175555  84.2091709 108.9873875
  25.2463321  83.6984163 108.3744037  24.9803774  83.8934239 109.8519408
  17.1901065  69.6425719 118.9476194  17.2542391  70.5040550 118.5353592
  17.1268185  69.0299721 118.2148553  13.4418880  73.5225281 108.5267583
  13.7372321  72.6135959 108.4734637  12.5406916  73.5013020 108.2048586
  25.3504959  85.2432545 115.3317992  25.2256098  84.4422284 114.8228937
  26.0084050  85.7378738 114.8431962  16.9713127  71.5981277 114.5095132
  16.2499713  72.2117245 114.3702605  17.7606383  72.1339042 114.4311778
  27.4139867  83.0441565 116.9597542  26.4670203  82.9246916 116.8875869
  27.7622640  82.1564063 117.0423803  19.7739440  68.9335704 120.7835784
  20.2973842  69.1798000 121.5462093  19.5551774  69.7655738 120.3638921
  15.1706721  71.2039378 108.6506909  14.8419428  70.3236757 108.4682014
  15.5246092  71.1487047 109.5383298  24.4186300  82.8394281 113.1601894
  24.2711263  81.9110988 113.3409464  25.2439794  82.8614372 112.6758969
  18.2848545  71.4912348 109.0182386  18.6244617  72.0198269 108.2960995
  18.7320665  71.8292754 109.7940953  28.0220422  83.6622840 114.2466767
  28.9466970  83.4565701 114.1091218  27.8535725  83.4139241 115.1556108
  20.9791985  69.8749399 118.4685454  20.6388806  69.0757212 118.8706134
  20.2730992  70.1751110 117.8962287  21.6308457  66.9598711 116.9212777
  22.4534527  66.4859189 116.7991668  21.8746521  67.7389195 117.4211464
  20.2716692  69.9886970 107.2175679  20.9925054  70.3668222 106.7139396
  19.6481996  70.7075846 107.3210657  24.4147815  70.6932119 108.1534011
  24.6311429  71.5756756 107.8522839  23.9341882  70.3018332 107.4239653
  19.1547036  73.6517832 114.7304756  19.0091617  73.9658135 115.6229037
  18.6772240  74.2702732 114.1775655  21.0143419  70.6420380 114.7785645
  21.0004988  69.7461473 114.4417943  21.7315847  70.6491044 115.4123931
  22.8669550  71.0757720 116.8238773  22.6087327  71.9974791 116.8223103
  22.3354590  70.6788155 117.5139237  27.8115738  84.1808507 109.6028858
  27.9852616  83.6154930 108.8502711  28.3044630  84.9809402 109.4208348
  20.4180315  69.5234760 110.0473216  20.5396226  68.5951406 110.2464103
  20.1282357  69.5373446 109.1351531  23.2871505  67.2089671 113.1839935
  23.3093202  67.2729004 112.2291915  23.7039564  66.3694179 113.3780442
  33.6655130  76.9444930 111.2219158  34.1086276  76.1952255 110.8238281
  32.7881640  76.9355066 110.8392890  28.7990911  83.4975272 106.7025757
  29.4941815  84.1181964 106.9213071  29.1414061  82.6470623 106.9778134
  30.6982334  80.9474977 108.2313087  31.2233658  81.2862250 107.5062407
  30.6104687  80.0121992 108.0476222  30.5074115  78.4300347 120.8497014
  30.5572120  78.2650355 121.7912537  30.3988038  77.5627606 120.4594895
  19.3910374  81.1088893 108.1389103  19.5398494  81.7924357 107.4855775
  20.1976817  81.0893983 108.6538558  27.7977877  74.4131275 122.1656320
  28.6987740  74.2737740 121.8740318  27.8725852  74.5785730 123.1054498
  22.1320683  71.7898130 121.0109507  21.2623992  72.0831696 120.7392095
  22.3680163  72.3738575 121.7316770  32.0092312  80.8497289 121.0939035
  31.7177120  81.2127269 121.9302496  31.3964443  80.1364297 120.9152367
  33.2087994  78.4150168 113.6141606  34.0434886  78.8539972 113.7779166
  33.3447123  77.9388822 112.7949851  30.2579500  75.9729903 119.5619093
  30.7333622  76.1657550 118.7537945  29.3345066  76.0289089 119.3162477
  17.1463007  77.1354070 109.1450172  16.9009049  76.2316400 109.3430382
  17.3158921  77.1371221 108.2029650  24.8359717  68.0077747 118.5274927
  25.3541660  68.7438774 118.2021416  24.4814849  68.3141740 119.3621686
  16.4158654  72.8682428 106.6436333  15.7227899  72.9426783 105.9876369
  16.1710406  72.1042772 107.1657850  25.0872311  64.4278029 114.0475824
  25.3674065  63.7601218 114.6736250  25.8722918  64.6207125 113.5350488
  22.8905779  83.6037023 105.6100850  22.3179746  84.2227210 105.1571322
  23.4638573  84.1536385 106.1440772  28.9581169  72.8495663 117.7947399
  29.9098592  72.9493761 117.8159623  28.7884620  72.0573932 118.3045483
  26.9795549  69.9351247 117.9806800  26.3845481  70.2156259 117.2853288
  26.6945245  70.4245147 118.7523541  26.1103039  83.8874173 106.7409432
  27.0433712  83.8219735 106.9442308  26.0226252  84.7230440 106.2823965
  28.7391056  83.2040044 103.7013380  28.6604687  82.8699907 104.5949138
  29.5600723  83.6961812 103.7004852  31.4369247  76.0701783 116.9089699
  31.4045567  75.1317784 117.0949382  32.0469871  76.1485820 116.1755523
  23.2752578  74.9397836 102.9516903  24.2211683  74.8104044 103.0205321
  22.8966823  74.2012498 103.4286331  31.5863735  72.8612826 116.9547982
  31.0702784  72.0771283 116.7677911  32.4703684  72.5331543 117.1194501
  29.2474462  66.6053842 112.9143794  29.0499283  66.2968930 113.7987126
  29.8574168  67.3315481 113.0441724  37.2545797  77.1317790 116.0495735
  37.9849185  76.8703078 116.6103439  36.6452742  76.3946512 116.0897803
  35.3361094  75.2725652 116.6470187  34.6094257  75.1381617 116.0386678
  34.9208381  75.5802481 117.4526905  21.4595495  72.8647812 102.8871788
  20.5526950  72.5680925 102.9634501  21.7371476  72.5677630 102.0206074
  23.0757561  67.4084702 109.0416029  22.2658289  67.0631787 109.4171275
  23.7641978  67.0992246 109.6303641  25.0048109  66.4862749 110.6640326
  25.5579148  66.9058202 111.3230349  25.2418195  65.5598497 110.7063282
  20.2294280  69.7234748 103.0283767  21.0913444  70.0489646 103.2879584
  20.4144624  68.9366243 102.5156833  28.3826916  68.5963274 110.1718990
  27.8025585  69.2548078 109.7897042  28.1162849  67.7740619 109.7606408
  26.8330482  67.9968332 112.3740310  27.3330261  68.1084866 111.5654629
  27.4766090  67.6929385 113.0141119  27.1651794  70.7563364 109.2275338
  26.2777649  71.0413015 109.0095533  27.5805783  70.5957128 108.3802615
  30.5166330  70.7809885 112.9429678  31.2926720  71.2706338 113.2154294
  29.7914464  71.2067940 113.4001547  32.9538889  71.4937505 114.0003618
  33.5483380  71.2533241 113.2896926  33.0265473  70.7744635 114.6277154
  26.3095008  80.5208039 103.3223358  27.0130858  80.7258042 103.9381014
  25.5857656  81.0884801 103.5872442  27.1392818  76.2717900 109.4425628
  27.0828019  76.7286452 108.6033261  27.6921160  75.5108585 109.2648471
  30.9497624  72.0607632 110.2675748  30.6934558  71.6604268 111.0983956
  30.3250492  72.7751426 110.1425887  35.2609962  74.8003705 112.7747039
  34.7009520  74.8696895 113.5478601  34.6553465  74.6244690 112.0546536
  28.2181705  80.9590568 105.3721818  29.0527309  80.5271767 105.1899293
  28.0566048  80.7872582 106.2998713  27.8727597  77.4622682 106.7378158
  27.8176401  77.2966953 105.7966602  27.2473652  78.1698714 106.8940347
  21.1823723  66.9630791 106.3163476  21.1702392  67.9072631 106.4731747
  22.0747144  66.7800936 106.0222937  24.9975842  63.5573567 110.5709413
  24.2308238  63.0032054 110.7166095  25.4086547  63.6295436 111.4323564
  36.8465980  91.4760219 115.4676995  37.4844390  91.3566967 114.7640335
  36.7286823  92.4241063 115.5264947  33.6555686  91.4287647 115.4038520
  33.3174198  91.3128712 114.5159055  34.5245454  91.0278813 115.3839526
  29.5142502  93.2823124 111.3935411  28.9507367  93.1913061 110.6251698
  29.3994897  92.4623028 111.8737903  35.0942061  96.9494092 106.7049876
  34.4430040  97.5348172 106.3183889  35.8886424  97.4800287 106.7644913
  29.0197688  94.0383229 107.1037010  29.7928564  93.4912216 106.9649886
  29.3723087  94.9027478 107.3151471  31.7838937  92.7436460 116.9005269
  32.3802510  92.5192482 116.1862232  31.8413909  92.0021205 117.5030717
  31.3563966  90.1975895 104.7355460  31.6089486  89.6757416 103.9738923
  30.4188525  90.0342040 104.8382143  36.4007248  89.2011673 112.5430203
  37.1870338  88.7831096 112.1920620  36.6645953  90.1057765 112.7111852
  36.5717326  94.6384524 107.2418860  35.9363159  94.7119150 107.9539765
  36.2414732  95.2278122 106.5637939  41.8015676  89.1386906 113.4463182
  42.5340848  88.5686123 113.6801011  41.0455031  88.7508507 113.8869687
  31.0760254  92.1004001 106.9379835  30.9596513  91.4248904 107.6060919
  31.1862514  91.6136375 106.1211988  33.4191795  91.5614148 110.6426524
  33.0550003  91.0344769 111.3539446  34.2758911  91.1712617 110.4693009
  39.3241096  82.8508481 117.9057790  38.9924421  83.7203892 117.6819005
  38.7286709  82.5344765 118.5851821  33.0597282  86.5904048 105.6387873
  33.2271685  87.4584284 106.0058344  32.8694451  86.7531329 104.7149162
  35.8172616  95.0521027 117.3053703  35.5173339  95.9546065 117.1969510
  35.4723675  94.7853210 118.1574856  29.2685097  91.5034823 113.3390407
  28.3435593  91.3711037 113.5468099  29.5169510  92.2829043 113.8360350
  39.2169759  87.5703567 114.9851140  38.3086637  87.5018975 114.6909901
  39.1657355  88.0475512 115.8132966  33.0386503  89.0461705 106.6234539
  32.9186128  89.4918756 107.4620020  32.3439092  89.3947023 106.0648078
  30.7993395 101.8165347 110.2724671  30.7217425 102.7673172 110.3513151
  30.1955039 101.4711219 110.9299597  41.0831406  85.7720005 116.7629014
  40.4405786  86.0652538 116.1168809  40.5786334  85.6572925 117.5682211
  38.7371569  89.5183178 107.4514873  39.6489425  89.7510565 107.2762571
  38.2281216  90.1020223 106.8889952  33.3743407  88.8780413 118.4609723
  34.2204602  89.3019826 118.6044372  33.3142045  88.2214037 119.1548286
  37.3441152  94.5008997 114.8428455  36.7150014  94.6654711 114.1404523
  36.9566814  94.9150606 115.6139419  41.2230384  95.4363435 112.1972819
  40.5381422  95.8162336 111.6469852  41.3074233  96.0458761 112.9304766
  36.5242852  86.5384781 120.1190897  36.2803784  87.2926842 119.5825172
  36.8002783  86.9170129 120.9538144  38.4781315  93.0823394 118.7968162
  38.6898210  93.7255154 118.1202543  38.4311063  92.2485710 118.3290092
  36.0807544  85.6941214 115.7004734  35.2192023  85.9922468 115.9921472
  36.1069979  85.9111613 114.7685767  32.8969114  94.2383405 112.1078540
  33.3607459  94.5171108 111.3183163  32.6325912  93.3366849 111.9251631
  29.7893195  93.7854886 115.0458303  30.3594552  94.2142155 114.4075788
  30.3801306  93.5037471 115.7442489  31.8338000  90.3606557 108.9168105
  32.5362043  90.8127601 109.3842032  31.5018628  89.7190376 109.5447998
  25.5763334  88.6190110 114.2185239  24.7862388  88.8747638 113.7425349
  26.0674581  89.4338448 114.3237279  39.5927143  95.9595349 116.9690520
  40.4144587  95.5575536 116.6873201  39.5889546  95.8563583 117.9206635
  27.5278079  88.9834689 111.1768715  26.7309242  89.0953383 111.6952211
  27.3003671  89.3221341 110.3109606  47.6833136  92.3034098 113.3175491
  46.9296845  91.7341496 113.1619495  47.8180677  92.2696762 114.2646126
  33.0731764  97.1747500 108.9930210  32.9377439  98.0199036 109.4215058
  33.6141577  97.3766777 108.2296144  26.5261162  94.6922938 109.5658135
  27.0385682  95.4866188 109.7163700  27.1783874  93.9949228 109.4991737
  28.3356046  97.8088694 111.6480889  28.5122675  98.7306659 111.4601873
  29.1312880  97.4947113 112.0775268  36.4224228  80.6978062 117.5229104
  36.0788497  81.5879703 117.4468214  36.7903190  80.5079719 116.6598689
  24.4910078  93.0211592 110.3417706  25.3285300  93.4308601 110.1251414
  24.6688346  92.0811034 110.3117900  36.3874511  90.6886673 106.0301539
  35.8721134  91.4591277 106.2689926  36.1151819  90.0151809 106.6534600
  33.9721622  85.5336374 111.0886777  33.1163218  85.1443224 110.9092416
  34.3848573  85.6128334 110.2286563  35.5020768  83.0682717 115.4878337
  34.9985564  83.0312852 114.6746142  35.7951375  83.9775460 115.5474994
  31.7463654  83.1521447 114.4944519  32.6116651  82.9564255 114.1350408
  31.8141163  82.9231798 115.4213876  41.3608785  93.4419027 107.9654712
  40.5838227  93.1030187 107.5209875  42.0400266  93.4471651 107.2909677
  36.1760814  88.5613765 107.8561320  35.8710949  88.8759914 108.7071463
  37.1291256  88.6395185 107.8988653  34.6207246  94.7203988 109.5054274
  34.0928607  93.9856748 109.1927512  34.1194748  95.4978665 109.2594242
  39.6000092  92.9153009 114.6221320  38.9423766  93.6052270 114.7101449
  40.4040491  93.3049441 114.9655307  29.3525973  85.3823655 111.8660886
  29.9269725  85.1598836 111.1334079  29.9396956  85.4512349 112.6189487
  38.4105550  91.2697381 112.6725262  38.9237432  91.9027373 113.1746972
  39.0606774  90.6698577 112.3068622  29.6795560  87.4128116 105.8856771
  28.8432873  87.7502802 106.2066046  29.5400330  87.2777095 104.9483908
  31.6548641  82.2564903 110.5935955  31.0013053  81.9413921 109.9692570
  31.6129115  81.6340644 111.3195778  32.7659846  92.5384199 102.5089247
  31.8586907  92.3073452 102.7080396  33.2630878  91.7421818 102.6963229
  35.6727925 101.2481706 105.4285933  34.9989623 101.5513402 106.0370891
  36.0593747 102.0510786 105.0791390  34.8886381  88.7446837 114.9183603
  33.9708943  88.9661784 114.7605291  35.3046525  88.8193147 114.0595310
  35.6721429  90.1438253 110.0486283  36.4193248  90.6559650 109.7393405
  35.9413019  89.8222305 110.9090677  33.9448079  92.6396793 107.0313237
  33.0359298  92.3555826 107.1285707  33.9743163  93.0595872 106.1716544
  39.1767347  96.2503383 110.8004405  38.7229674  95.4094293 110.8569595
  38.5461313  96.8864781 111.1379185  38.1200266  87.1795369 112.0305072
  37.3823023  86.6672755 112.3615315  38.3727040  86.7395751 111.2188349
  37.6200286  98.0879880 111.7354223  37.9123260  98.6484937 111.0166589
  38.1298906  98.3808441 112.4907382  38.2211893  79.9571621 112.6246842
  38.5270770  79.0968984 112.3372757  38.9464498  80.5489241 112.4245835
  24.5136250  90.3602308 111.0128439  24.3160649  89.7671668 110.2879506
  23.9582914  90.0554518 111.7304378  32.4932973  90.2525414 113.1323033
  32.5481583  89.2999250 113.0565509  31.6824175  90.4084853 113.6164331
  33.6424167  94.1805537 104.3701316  33.2043597  93.4641396 103.9106953
  34.3834608  94.4081652 103.8086407  30.4325333  88.8702474 110.8913411
  29.6193199  89.1696644 111.2978604  30.9284327  88.4758162 111.6087894
  32.5833911  98.8660231 112.8247676  32.5410090  99.0921077 111.8956208
  33.4996610  98.6323605 112.9733477  36.0299545  89.3344298 119.7228305
  36.3848933  89.5615771 120.5822771  36.6771676  89.6662675 119.1005561
  41.7597282  92.4562734 110.4277634  41.6215180  92.6464330 109.4998824
  41.4033501  93.2182117 110.8845686  29.9239408  86.4420829 116.5074646
  30.5638787  86.3009588 115.8097610  29.0916938  86.1555343 116.1313248
  41.7866661  94.5239261 115.4388906  42.2203168  94.4314550 116.2871960
  42.4998242  94.4996762 114.8008922  30.6999712  95.7423260 112.6209639
  31.4940310  95.2473580 112.4192214  29.9891404  95.2141123 112.2577344
  27.0082475  89.8866341 108.6969392  26.0780063  89.8250797 108.9139354
  27.1039947  89.3642294 107.9006033  26.9268024  86.4121154 111.2847633
  27.1874842  87.3266487 111.1756794  27.7485197  85.9445597 111.4344246
  42.6482211  94.5662962 117.9721791  42.8418101  95.4708772 118.2181066
  42.5482829  94.1070381 118.8060376  34.3018522  84.4520852 120.4712119
  33.6546437  85.1510802 120.3776595  35.0719537  84.8856996 120.8388367
  34.4782656  92.2901617 118.5308938  35.4074716  92.4412777 118.3577906
  34.0573686  92.3785638 117.6757585  33.8719140 101.4161378 107.6433013
  34.0470895 100.9449421 108.4578635  33.1851928 102.0427144 107.8714273
  34.8276203  95.6933884 113.6896314  34.4926036  95.6534654 114.5853964
  34.3280149  95.0278600 113.2166724  37.7635395  93.0389919 103.9633373
  37.1464565  92.3136747 103.8666426  37.2951883  93.7999279 103.6200448
  29.5533940  87.2575343 103.0854678  28.6763407  87.1364144 102.7216924
  30.0291694  86.4661421 102.8333566  39.4206933  95.7128411 119.8553133
  38.5333712  95.3754333 119.9779532  39.9905485  94.9811442 120.0921899
  32.7397867  99.6101633 110.3317198  31.9565388 100.1523314 110.4255423
  33.4390612 100.1275613 110.7311439  36.0494517  85.4196263 112.9751404
  36.5463216  84.6666225 112.6552474  35.2781498  85.4560579 112.4094613
  43.9024274  91.1236628 114.6169695  43.8914150  92.0061344 114.2463628
  43.0341653  90.7708179 114.4224232  37.1324297  94.1767950 110.5489827
  36.1980576  94.2969413 110.3794531  37.3100966  93.2740417 110.2849837
  32.6329485  87.5613646 112.7023088  32.2627273  87.0084686 113.3903994
  33.1288578  86.9571779 112.1498088  40.5196849  90.0185269 111.0839861
  40.9857301  90.8513261 111.0100164  40.9704349  89.5530251 111.7885120
  38.5873080  96.3629091 108.0826013  38.8632924  96.2485685 108.9919887
  37.7177579  95.9646575 108.0438186  38.4913511  82.3865856 115.1230762
  37.5776591  82.6170083 115.2912969  38.9206613  82.4704300 115.9744795
  38.2619970  90.5755748 117.6230656  37.6091420  90.8231656 116.9683109
  38.6400350  89.7619886 117.2893134  35.2227144 100.6115441 111.7258827
  35.4049538  99.7937097 112.1886579  36.0460130 100.8283134 111.2883717
  35.5569309  99.5383627 108.9873875  36.0857076  99.0276081 108.3744037
  35.8197529  99.2226157 109.8519408  28.0294819  84.9717637 118.9476194
  28.0936146  85.8332467 118.5353592  27.9661939  84.3591638 118.2148553
  24.2812634  88.8517198 108.5267583  24.5766075  87.9427877 108.4734637
  23.3800670  88.8304938 108.2048586  36.1898713 100.5724462 115.3317992
  36.0649853  99.7714202 114.8228937  36.8477804 101.0670656 114.8431962
  27.8106881  86.9273195 114.5095132  27.0893467  87.5409163 114.3702605
  28.6000137  87.4630960 114.4311778  38.2533621  98.3733482 116.9597542
  37.3063957  98.2538834 116.8875869  38.6016395  97.4855980 117.0423803
  30.6133195  84.2627621 120.7835784  31.1367597  84.5089918 121.5462093
  30.3945528  85.0947656 120.3638921  26.0100476  86.5331296 108.6506909
  25.6813182  85.6528675 108.4682014  26.3639847  86.4778965 109.5383298
  35.2580055  98.1686199 113.1601894  35.1105017  97.2402906 113.3409464
  36.0833548  98.1906289 112.6758969  29.1242299  86.8204266 109.0182386
  29.4638372  87.3490187 108.2960995  29.5714420  87.1584672 109.7940953
  38.8614177  98.9914757 114.2466767  39.7860724  98.7857619 114.1091218
  38.6929480  98.7431159 115.1556108  31.8185740  85.2041316 118.4685454
  31.4782560  84.4049129 118.8706134  31.1124746  85.5043027 117.8962287
  32.4702212  82.2890629 116.9212777  33.2928281  81.8151107 116.7991668
  32.7140275  83.0681113 117.4211464  31.1110446  85.3178887 107.2175679
  31.8318809  85.6960140 106.7139396  30.4875750  86.0367764 107.3210657
  35.2541569  86.0224036 108.1534011  35.4705183  86.9048674 107.8522839
  34.7735636  85.6310250 107.4239653  29.9940790  88.9809749 114.7304756
  29.8485371  89.2950053 115.6229037  29.5165994  89.5994650 114.1775655
  31.8537173  85.9712297 114.7785645  31.8398742  85.0753391 114.4417943
  32.5709601  85.9782961 115.4123931  33.7063304  86.4049638 116.8238773
  33.4481082  87.3266708 116.8223103  33.1748344  86.0080072 117.5139237
  38.6509493  99.5100425 109.6028858  38.8246370  98.9446847 108.8502711
  39.1438384 100.3101320 109.4208348  31.2574069  84.8526678 110.0473216
  31.3789980  83.9243324 110.2464103  30.9676112  84.8665364 109.1351531
  34.1265260  82.5381588 113.1839935  34.1486956  82.6020921 112.2291915
  34.5433319  81.6986097 113.3780442  44.5048884  92.2736848 111.2219158
  44.9480030  91.5244173 110.8238281  43.6275394  92.2646984 110.8392890
  39.6384665  98.8267189 106.7025757  40.3335570  99.4473882 106.9213071
  39.9807815  97.9762540 106.9778134  41.5376088  96.2766895 108.2313087
  42.0627413  96.6154167 107.5062407  41.4498441  95.3413910 108.0476222
  41.3467870  93.7592265 120.8497014  41.3965874  93.5942272 121.7912537
  41.2381793  92.8919524 120.4594895  30.2304128  96.4380810 108.1389103
  30.3792249  97.1216275 107.4855775  31.0370572  96.4185900 108.6538558
  38.6371632  89.7423193 122.1656320  39.5381495  89.6029658 121.8740318
  38.7119606  89.9077648 123.1054498  32.9714437  87.1190048 121.0109507
  32.1017747  87.4123614 120.7392095  33.2073918  87.7030493 121.7316770
  42.8486066  96.1789206 121.0939035  42.5570875  96.5419187 121.9302496
  42.2358198  95.4656215 120.9152367  44.0481749  93.7442086 113.6141606
  44.8828640  94.1831890 113.7779166  44.1840877  93.2680739 112.7949851
  41.0973255  91.3021821 119.5619093  41.5727376  91.4949467 118.7537945
  40.1738820  91.3581007 119.3162477  27.9856761  92.4645988 109.1450172
  27.7402803  91.5608318 109.3430382  28.1552676  92.4663139 108.2029650
  35.6753471  83.3369664 118.5274927  36.1935415  84.0730691 118.2021416
  35.3208604  83.6433658 119.3621686  27.2552409  88.1974346 106.6436333
  26.5621654  88.2718701 105.9876369  27.0104161  87.4334689 107.1657850
  35.9266065  79.7569947 114.0475824  36.2067819  79.0893136 114.6736250
  36.7116672  79.9499043 113.5350488  33.7299534  98.9328941 105.6100850
  33.1573501  99.5519128 105.1571322  34.3032327  99.4828303 106.1440772
  39.7974924  88.1787581 117.7947399  40.7492347  88.2785679 117.8159623
  39.6278374  87.3865850 118.3045483  37.8189303  85.2643164 117.9806800
  37.2239235  85.5448177 117.2853288  37.5339000  85.7537065 118.7523541
  36.9496794  99.2166091 106.7409432  37.8827467  99.1511653 106.9442308
  36.8620006 100.0522358 106.2823965  39.5784810  98.5331961 103.7013380
  39.4998442  98.1991825 104.5949138  40.3994477  99.0253729 103.7004852
  42.2763001  91.3993701 116.9089699  42.2439322  90.4609701 117.0949382
  42.8863625  91.4777737 116.1755523  34.1146332  90.2689754 102.9516903
  35.0605437  90.1395962 103.0205321  33.7360577  89.5304416 103.4286331
  42.4257490  88.1904744 116.9547982  41.9096539  87.4063201 116.7677911
  43.3097438  87.8623461 117.1194501  40.0868217  81.9345760 112.9143794
  39.8893038  81.6260848 113.7987126  40.6967922  82.6607399 113.0441724
  48.0939551  92.4609708 116.0495735  48.8242940  92.1994996 116.6103439
  47.4846497  91.7238429 116.0897803  46.1754848  90.6017570 116.6470187
  45.4488012  90.4673535 116.0386678  45.7602135  90.9094399 117.4526905
  32.2989249  88.1939730 102.8871788  31.3920705  87.8972843 102.9634501
  32.5765230  87.8969548 102.0206074  33.9151315  82.7376620 109.0416029
  33.1052043  82.3923705 109.4171275  34.6035732  82.4284163 109.6303641
  35.8441863  81.8154667 110.6640326  36.3972902  82.2350120 111.3230349
  36.0811950  80.8890415 110.7063282  31.0688034  85.0526665 103.0283767
  31.9307198  85.3781564 103.2879584  31.2538378  84.2658161 102.5156833
  39.2220671  83.9255192 110.1718990  38.6419340  84.5839996 109.7897042
  38.9556603  83.1032536 109.7606408  37.6724237  83.3260249 112.3740310
  38.1724015  83.4376784 111.5654629  38.3159845  83.0221302 113.0141119
  38.0045549  86.0855282 109.2275338  37.1171404  86.3704933 109.0095533
  38.4199538  85.9249045 108.3802615  41.3560085  86.1101803 112.9429678
  42.1320475  86.5998256 113.2154294  40.6308219  86.5359857 113.4001547
  43.7932643  86.8229422 114.0003618  44.3877134  86.5825158 113.2896926
  43.8659227  86.1036553 114.6277154  37.1488762  95.8499957 103.3223358
  37.8524612  96.0549959 103.9381014  36.4251411  96.4176719 103.5872442
  37.9786572  91.6009818 109.4425628  37.9221774  92.0578369 108.6033261
  38.5314915  90.8400503 109.2648471  41.7891378  87.3899550 110.2675748
  41.5328312  86.9896186 111.0983956  41.1644246  88.1043344 110.1425887
  46.1003716  90.1295623 112.7747039  45.5403274  90.1988812 113.5478601
  45.4947219  89.9536608 112.0546536  39.0575459  96.2882486 105.3721818
  39.8921063  95.8563684 105.1899293  38.8959802  96.1164500 106.2998713
  38.7121352  92.7914599 106.7378158  38.6570155  92.6258871 105.7966602
  38.0867407  93.4990632 106.8940347  32.0217477  82.2922708 106.3163476
  32.0096147  83.2364548 106.4731747  32.9140899  82.1092854 106.0222937
  35.8369597  78.8865485 110.5709413  35.0701992  78.3323972 110.7166095
  36.2480301  78.9587354 111.4323564  40.3536256 108.6115042 111.3935411
  39.7901122 108.5204979 110.6251698  40.2388652 107.7914946 111.8737903
  45.9335815 112.2786009 106.7049876  45.2823795 112.8640090 106.3183889
  46.7280178 112.8092204 106.7644913  39.8591442 109.3675146 107.1037010
  40.6322318 108.8204134 106.9649886  40.2116841 110.2319396 107.3151471
  42.1957720 105.5267813 104.7355460  42.4483241 105.0049334 103.9738923
  41.2582279 105.3633958 104.8382143  47.2401003 104.5303591 112.5430203
  48.0264092 104.1123014 112.1920620  47.5039707 105.4349683 112.7111852
  47.4111080 109.9676441 107.2418860  46.7756913 110.0411068 107.9539765
  47.0808487 110.5570040 106.5637939  41.9154009 107.4295919 106.9379835
  41.7990267 106.7540822 107.6060919  42.0256269 106.9428292 106.1211988
  44.2585550 106.8906066 110.6426524  43.8943757 106.3636687 111.3539446
  45.1152666 106.5004535 110.4693009  43.8991037 101.9195965 105.6387873
  44.0665439 102.7876202 106.0058344  43.7088206 102.0823247 104.7149162
  40.1078851 106.8326741 113.3390407  39.1829348 106.7002955 113.5468099
  40.3563265 107.6120960 113.8360350  43.8780258 104.3753623 106.6234539
  43.7579883 104.8210674 107.4620020  43.1832846 104.7238940 106.0648078
  49.5765324 104.8475096 107.4514873  50.4883180 105.0802483 107.2762571
  49.0674971 105.4312140 106.8889952  46.9201299 101.0233132 115.7004734
  46.0585778 101.3214386 115.9921472  46.9463733 101.2403531 114.7685767
  43.7362868 109.5675323 112.1078540  44.2001214 109.8463026 111.3183163
  43.4719666 108.6658767 111.9251631  42.6731754 105.6898475 108.9168105
  43.3755797 106.1419519 109.3842032  42.3412383 105.0482294 109.5447998
  36.4157088 103.9482028 114.2185239  35.6256142 104.2039556 113.7425349
  36.9068335 104.7630365 114.3237279  38.3671833 104.3126607 111.1768715
  37.5702997 104.4245301 111.6952211  38.1397426 104.6513259 110.3109606
  43.9125519 112.5039418 108.9930210  43.7771193 113.3490953 109.4215058
  44.4535331 112.7058695 108.2296144  37.3654916 110.0214856 109.5658135
  37.8779437 110.8158106 109.7163700  38.0177629 109.3241146 109.4991737
  39.1749801 113.1380612 111.6480889  39.3516429 114.0598577 111.4601873
  39.9706634 112.8239031 112.0775268  47.2617982  96.0269979 117.5229104
  46.9182252  96.9171621 117.4468214  47.6296945  95.8371637 116.6598689
  35.3303833 108.3503510 110.3417706  36.1679055 108.7600518 110.1251414
  35.5082101 107.4102952 110.3117900  47.2268265 106.0178591 106.0301539
  46.7114888 106.7883195 106.2689926  46.9545573 105.3443727 106.6534600
  44.8115376 100.8628291 111.0886777  43.9556972 100.4735142 110.9092416
  45.2242328 100.9420252 110.2286563  46.3414523  98.3974635 115.4878337
  45.8379318  98.3604770 114.6746142  46.6345130  99.3067377 115.5474994
  42.5857409  98.4813364 114.4944519  43.4510405  98.2856173 114.1350408
  42.6534917  98.2523716 115.4213876  52.2002539 108.7710945 107.9654712
  51.4231982 108.4322105 107.5209875  52.8794020 108.7763568 107.2909677
  47.0154568 103.8905683 107.8561320  46.7104704 104.2051832 108.7071463
  47.9685010 103.9687102 107.8988653  45.4601000 110.0495906 109.5054274
  44.9322362 109.3148666 109.1927512  44.9588503 110.8270582 109.2594242
  40.1919728 100.7115572 111.8660886  40.7663480 100.4890754 111.1334079
  40.7790710 100.7804267 112.6189487  40.5189315 102.7420033 105.8856771
  39.6826627 103.0794720 106.2066046  40.3794084 102.6069013 104.9483908
  42.4942395  97.5856821 110.5935955  41.8406808  97.2705838 109.9692570
  42.4522869  96.9632562 111.3195778  43.6053600 107.8676116 102.5089247
  42.6980662 107.6365370 102.7080396  44.1024632 107.0713735 102.6963229
  46.5121679 116.5773623 105.4285933  45.8383378 116.8805320 106.0370891
  46.8987501 117.3802704 105.0791390  45.7280136 104.0738755 114.9183603
  44.8102697 104.2953702 114.7605291  46.1440279 104.1485065 114.0595310
  46.5115183 105.4730170 110.0486283  47.2587002 105.9851568 109.7393405
  46.7806773 105.1514223 110.9090677  44.7841834 107.9688711 107.0313237
  43.8753053 107.6847744 107.1285707  44.8136917 108.3887790 106.1716544
  48.9594021 102.5087287 112.0305072  48.2216777 101.9964673 112.3615315
  49.2120794 102.0687668 111.2188349  49.0605648  95.2863539 112.6246842
  49.3664525  94.4260902 112.3372757  49.7858253  95.8781159 112.4245835
  35.3530004 105.6894225 111.0128439  35.1554404 105.0963586 110.2879506
  34.7976668 105.3846435 111.7304378  43.3326728 105.5817332 113.1323033
  43.3875337 104.6291168 113.0565509  42.5217930 105.7376771 113.6164331
  44.4817921 109.5097455 104.3701316  44.0437351 108.7933314 103.9106953
  45.2228362 109.7373570 103.8086407  41.2719088 104.1994391 110.8913411
  40.4586953 104.4988562 111.2978604  41.7678082 103.8050080 111.6087894
  52.5991036 107.7854652 110.4277634  52.4608935 107.9756248 109.4998824
  52.2427255 108.5474035 110.8845686  40.7633162 101.7712747 116.5074646
  41.4032542 101.6301506 115.8097610  39.9310693 101.4847260 116.1313248
  41.5393466 111.0715177 112.6209639  42.3334065 110.5765497 112.4192214
  40.8285159 110.5433040 112.2577344  37.8476230 105.2158259 108.6969392
  36.9173818 105.1542715 108.9139354  37.9433702 104.6934212 107.9006033
  37.7661779 101.7413072 111.2847633  38.0268596 102.6558405 111.1756794
  38.5878951 101.2737514 111.4344246  44.7112894 116.7453296 107.6433013
  44.8864650 116.2741339 108.4578635  44.0245682 117.3719062 107.8714273
  48.6029149 108.3681836 103.9633373  47.9858320 107.6428665 103.8666426
  48.1345638 109.1291197 103.6200448  40.3927695 102.5867261 103.0854678
  39.5157161 102.4656061 102.7216924  40.8685448 101.7953339 102.8333566
  46.8888271 100.7488180 112.9751404  47.3856971  99.9958143 112.6552474
  46.1175253 100.7852497 112.4094613  47.9718052 109.5059868 110.5489827
  47.0374331 109.6261330 110.3794531  48.1494720 108.6032334 110.2849837
  43.4723240 102.8905563 112.7023088  43.1021027 102.3376604 113.3903994
  43.9682332 102.2863697 112.1498088  51.3590603 105.3477187 111.0839861
  51.8251055 106.1805179 111.0100164  51.8098104 104.8822169 111.7885120
  49.4266834 111.6921008 108.0826013  49.7026678 111.5777603 108.9919887
  48.5571333 111.2938493 108.0438186  49.3307266  97.7157774 115.1230762
  48.4170346  97.9462001 115.2912969  49.7600367  97.7996218 115.9744795
  46.3963064 114.8675544 108.9873875  46.9250830 114.3567999 108.3744037
  46.6591283 114.5518074 109.8519408  38.8688574 100.3009554 118.9476194
  38.9329900 101.1624385 118.5353592  38.8055694  99.6883556 118.2148553
  35.1206389 104.1809116 108.5267583  35.4159830 103.2719794 108.4734637
  34.2194425 104.1596855 108.2048586  38.6500636 102.2565112 114.5095132
  37.9287222 102.8701080 114.3702605  39.4393892 102.7922877 114.4311778
  36.8494230 101.8623214 108.6506909  36.5206937 100.9820592 108.4682014
  37.2033601 101.8070882 109.5383298  39.9636054 102.1496183 109.0182386
  40.3032126 102.6782105 108.2960995  40.4108174 102.4876589 109.7940953
  42.6579494 100.5333234 118.4685454  42.3176315  99.7341047 118.8706134
  41.9518501 100.8334945 117.8962287  43.3095966  97.6182547 116.9212777
  44.1322036  97.1443025 116.7991668  43.5534030  98.3973030 117.4211464
  41.9504201 100.6470805 107.2175679  42.6712563 101.0252058 106.7139396
  41.3269505 101.3659682 107.3210657  46.0935324 101.3515954 108.1534011
  46.3098938 102.2340592 107.8522839  45.6129391 100.9602167 107.4239653
  40.8334545 104.3101667 114.7304756  40.6879126 104.6241970 115.6229037
  40.3559749 104.9286567 114.1775655  42.6930928 101.3004215 114.7785645
  42.6792497 100.4045308 114.4417943  43.4103356 101.3074879 115.4123931
  44.5457059 101.7341555 116.8238773  44.2874836 102.6558626 116.8223103
  44.0142099 101.3371990 117.5139237  42.0967824 100.1818595 110.0473216
  42.2183735  99.2535242 110.2464103  41.8069866 100.1957281 109.1351531
  44.9659014  97.8673506 113.1839935  44.9880711  97.9312839 112.2291915
  45.3827073  97.0278015 113.3780442  50.4778420 114.1559107 106.7025757
  51.1729324 114.7765800 106.9213071  50.8201570 113.3054458 106.9778134
  52.3769843 111.6058812 108.2313087  52.9021167 111.9446085 107.5062407
  52.2892195 110.6705828 108.0476222  41.0697883 111.7672728 108.1389103
  41.2186003 112.4508192 107.4855775  41.8764326 111.7477818 108.6538558
  38.8250516 107.7937906 109.1450172  38.5796558 106.8900236 109.3430382
  38.9946430 107.7955056 108.2029650  38.0946163 103.5266263 106.6436333
  37.4015408 103.6010618 105.9876369  37.8497915 102.7626607 107.1657850
  46.7659820  95.0861865 114.0475824  47.0461574  94.4185054 114.6736250
  47.5510427  95.2790960 113.5350488  44.5693288 114.2620859 105.6100850
  43.9967255 114.8811046 105.1571322  45.1426082 114.8120220 106.1440772
  47.7890548 114.5458009 106.7409432  48.7221221 114.4803570 106.9442308
  47.7013761 115.3814276 106.2823965  50.4178565 113.8623879 103.7013380
  50.3392196 113.5283743 104.5949138  51.2388232 114.3545647 103.7004852
  44.9540087 105.5981671 102.9516903  45.8999191 105.4687879 103.0205321
  44.5754332 104.8596333 103.4286331  50.9261971  97.2637677 112.9143794
  50.7286792  96.9552766 113.7987126  51.5361677  97.9899316 113.0441724
  43.1383004 103.5231648 102.8871788  42.2314459 103.2264760 102.9634501
  43.4158985 103.2261466 102.0206074  44.7545070  98.0668537 109.0416029
  43.9445798  97.7215622 109.4171275  45.4429487  97.7576081 109.6303641
  46.6835618  97.1446584 110.6640326  47.2366657  97.5642038 111.3230349
  46.9205704  96.2182332 110.7063282  41.9081789 100.3818583 103.0283767
  42.7700953 100.7073481 103.2879584  42.0932133  99.5950079 102.5156833
  50.0614425  99.2547109 110.1718990  49.4813094  99.9131913 109.7897042
  49.7950358  98.4324454 109.7606408  48.5117991  98.6552167 112.3740310
  49.0117770  98.7668702 111.5654629  49.1553599  98.3513220 113.0141119
  48.8439303 101.4147200 109.2275338  47.9565158 101.6996850 109.0095533
  49.2593292 101.2540963 108.3802615  52.1953839 101.4393721 112.9429678
  52.9714229 101.9290173 113.2154294  51.4701973 101.8651775 113.4001547
  47.9882516 111.1791874 103.3223358  48.6918367 111.3841877 103.9381014
  47.2645165 111.7468636 103.5872442  48.8180327 106.9301736 109.4425628
  48.7615528 107.3870287 108.6033261  49.3708669 106.1692420 109.2648471
  52.6285133 102.7191468 110.2675748  52.3722067 102.3188103 111.0983956
  52.0038001 103.4335261 110.1425887  49.8969214 111.6174404 105.3721818
  50.7314818 111.1855602 105.1899293  49.7353557 111.4456417 106.2998713
  49.5515106 108.1206517 106.7378158  49.4963910 107.9550788 105.7966602
  48.9261161 108.8282550 106.8940347  42.8611232  97.6214626 106.3163476
  42.8489901  98.5656466 106.4731747  43.7534653  97.4384771 106.0222937
  46.6763351  94.2157403 110.5709413  45.9095747  93.6615889 110.7166095
  47.0874056  94.2879271 111.4323564  51.3583069 118.0711951 105.8856771
  50.5220381 118.4086637 106.2066046  51.2187839 117.9360931 104.9483908
  51.2321449 117.9159178 103.0854678  50.3550916 117.7947979 102.7216924
  51.7079203 117.1245257 102.8333566  53.9776758 118.8523565 102.8871788
  53.0708214 118.5556678 102.9634501  54.2552739 118.5553383 102.0206074
  52.7475543 115.7110501 103.0283767  53.6094707 116.0365399 103.2879584
  52.9325887 114.9241996 102.5156833  53.7004986 112.9506544 106.3163476
  53.6883656 113.8948384 106.4731747  54.5928408 112.7676689 106.0222937
   3.1546662  32.2668075  92.1531240   2.4808361  32.5699772  92.7616198
   3.5412484  33.0697156  91.8036697   7.1203403  29.8453559  93.4271063
   7.8154308  30.4660251  93.6458378   7.4626553  28.9948910  93.7023441
   1.2118272  29.9515310  92.3346157   0.6392239  30.5705498  91.8816629
   1.7851065  30.5014672  92.8686079   4.4315531  30.2352461  93.4654739
   5.3646204  30.1698022  93.6687615   4.3438744  31.0708727  93.0069272
   7.0603548  29.5518331  90.4258687   6.9817180  29.2178195  91.3194445
   7.8813215  30.0440099  90.4250159   4.6307500  26.8686326  90.0468665
   5.3343350  27.0736329  90.6626321   3.9070149  27.4363088  90.3117748
   6.5394197  27.3068856  92.0967125   7.3739801  26.8750054  91.9144600
   6.3778540  27.1350869  93.0244019  15.1678472  37.8238507 102.1922302
  15.8056882  37.7045254 101.4885642  15.0499315  38.7719351 102.2510254
   7.8354994  39.6301411  98.1180717   7.2719859  39.5391348  97.3497005
   7.7207389  38.8101316  98.5983210  13.4154553  43.2972379  93.4295182
  12.7642533  43.8826459  93.0429196  14.2098916  43.8278574  93.4890220
   7.3410180  40.3861516  93.8282317   8.1141056  39.8390503  93.6895192
   7.6935579  41.2505765  94.0396778   9.6776458  36.5454182  91.4600767
   9.9301979  36.0235703  90.6984230   8.7401017  36.3820328  91.5627450
  14.7219741  35.5489960  99.2675510  15.5082830  35.1309384  98.9165927
  14.9858445  36.4536053  99.4357158  14.8929818  40.9862811  93.9664167
  14.2575651  41.0597437  94.6785071  14.5627225  41.5756410  93.2883246
  20.1228168  35.4865194 100.1708488  20.8553340  34.9164410 100.4046318
  19.3667524  35.0986794 100.6114994   9.3972747  38.4482288  93.6625141
   9.2809005  37.7727191  94.3306226   9.5075007  37.9614662  92.8457295
  11.7404288  37.9092435  97.3671831  11.3762495  37.3823056  98.0784752
  12.5971404  37.5190904  97.1938316  11.3809775  32.9382335  92.3633179
  11.5484177  33.8062571  92.7303650  11.1906944  33.1009617  91.4394468
  11.3598995  35.3939992  93.3479846  11.2398621  35.8397043  94.1865326
  10.6651584  35.7425310  92.7893384   9.1205888  48.1643634  96.9969977
   9.0429917  49.1151459  97.0758458   8.5167531  47.8189507  97.6544904
  17.0584062  35.8661466  94.1760180  17.9701918  36.0988852  94.0007878
  16.5493709  36.4498510  93.6135259  15.6653644  40.8487284 101.5673762
  15.0362506  41.0132998 100.8649829  15.2779306  41.2628894 102.3384726
  19.5442876  41.7841722  98.9218125  18.8593914  42.1640623  98.3715159
  19.6286725  42.3937049  99.6550073  11.2181606  40.5861692  98.8323847
  11.6819951  40.8649395  98.0428469  10.9538404  39.6845137  98.6496937
  10.1550492  36.7084844  95.6413412  10.8574535  37.1605888  96.1087338
   9.8231120  36.0668663  96.2693305  17.9139635  42.3073636 103.6935826
  18.7357079  41.9053824 103.4118508  17.9102038  42.2041870 104.6451942
  26.0045628  38.6512385 100.0420798  25.2509337  38.0819783  99.8864802
  26.1393170  38.6175049 100.9891432  11.3944256  43.5225787  95.7175517
  11.2589931  44.3677323  96.1460365  11.9354069  43.7245065  94.9541451
   4.8473654  41.0401225  96.2903442   5.3598174  41.8344475  96.4409007
   5.4996367  40.3427516  96.2237044   6.6568539  44.1566981  98.3726195
   6.8335167  45.0784946  98.1847179   7.4525372  43.8425401  98.8020575
   7.7799854  45.6745155 104.3736538   8.3307279  45.5462219 103.6013532
   6.9411330  45.9740044 104.0231430   2.8122571  39.3689879  97.0663013
   3.6497793  39.7786888  96.8496720   2.9900838  38.4289322  97.0363207
  14.7087003  37.0364960  92.7546846  14.1933626  37.8069565  92.9935233
  14.4364311  36.3630096  93.3779907  12.2934114  31.8814661  97.8132084
  11.4375710  31.4921511  97.6337723  12.7061066  31.9606622  96.9531870
  19.6821277  39.7897315  94.6900019  18.9050720  39.4508474  94.2455181
  20.3612758  39.7949938  94.0154984  14.4973306  34.9092052  94.5806627
  14.1923442  35.2238201  95.4316770  15.4503748  34.9873472  94.6233960
  12.9419738  41.0682275  96.2299581  12.4141099  40.3335035  95.9172818
  12.4407241  41.8456952  95.9839549  17.9212584  39.2631296 101.3466627
  17.2636258  39.9530557 101.4346756  18.7252983  39.6527728 101.6900613
  16.7318043  37.6175669  99.3970569  17.2449924  38.2505661  99.8992279
  17.3819267  37.0176864  99.0313929   8.0008053  33.7606403  92.6102078
   7.1645365  34.0981089  92.9311352   7.8612822  33.6255383  91.6729215
  11.0872338  38.8862486  89.2334554  10.1799400  38.6551739  89.4325703
  11.5843370  38.0900105  89.4208535  13.9940417  47.5959993  92.1531240
  13.3202116  47.8991690  92.7616198  14.3806239  48.3989073  91.8036697
  13.9933921  36.4916540  96.7731590  14.7405740  37.0037937  96.4638712
  14.2625511  36.1700593  97.6335983  12.2660571  38.9875081  93.7558544
  11.3571791  38.7034113  93.8531014  12.2955655  39.4074159  92.8961851
  17.4979839  42.5981670  97.5249711  17.0442166  41.7572580  97.5814902
  16.8673806  43.2343068  97.8624492  16.4412758  33.5273656  98.7550379
  15.7035515  33.0151042  99.0860621  16.6939532  33.0874038  97.9433656
  15.9412778  44.4358167  98.4599530  16.2335752  44.9963224  97.7411895
  16.4511399  44.7286728  99.2152689  10.8145465  36.6003701  99.8568339
  10.8694075  35.6477538  99.7810816  10.0036667  36.7563140 100.3409638
  11.9636659  40.5283824  91.0946622  11.5256089  39.8119683  90.6352260
  12.7047100  40.7559939  90.5331714   8.7537825  35.2180761  97.6158718
   7.9405691  35.5174932  98.0223910   9.2496820  34.8236450  98.3333200
  10.9046403  45.2138518  99.5492983  10.8622582  45.4399364  98.6201515
  11.8209102  44.9801892  99.6978784  20.0809774  38.8041021  97.1522941
  19.9427673  38.9942617  96.2244130  19.7245993  39.5660404  97.6090992
  20.1079154  40.8717548 102.1634213  20.5415660  40.7792837 103.0117267
  20.8210734  40.8475049 101.5254229   9.0212204  42.0901547  99.3454946
   9.8152803  41.5951867  99.1437520   8.3103896  41.5619410  98.9822651
  13.8407049  44.4719642 103.6967313  13.8944071  45.0410579 104.4645029
  12.9721830  44.6421527 103.3321350   5.3294968  36.2344629  95.4214698
   4.3992556  36.1729084  95.6384660   5.4252440  35.7120581  94.6251339
  20.9694703  40.9141249 104.6967098  21.1630593  41.8187059 104.9426373
  20.8695321  40.4548668 105.5305683  11.5983480  42.6630569 103.0252783
  11.4594566  42.2949353 103.8978721  10.8098076  43.1778208 102.8536740
  12.1931632  47.7639665  94.3678319  12.3683388  47.2927709  95.1823942
  11.5064420  48.3905432  94.5959580  13.1488695  42.0412172 100.4141620
  12.8138528  42.0012942 101.3099270  12.6492641  41.3756888  99.9412031
  16.0847887  39.3868206  90.6878680  15.4677057  38.6615034  90.5911733
  15.6164375  40.1477566  90.3445754   6.7592717  50.9129028 101.1418179
   6.9989316  51.5447552 101.8197198   5.9161914  50.5617068 101.4283539
   7.8746433  33.6053630  89.8099984   6.9975899  33.4842431  89.4462231
   8.3504186  32.8139709  89.5578873  11.2720579  46.7208151 103.5459683
  11.1990751  47.5263122 104.0578988  10.8297972  46.9200116 102.7207705
  11.0610359  45.9579921  97.0562505  10.2777881  46.5001601  97.1500729
  11.7603104  46.4753900  97.4556746  22.2236766  37.4714916 101.3415002
  22.2126643  38.3539631 100.9708935  21.3554146  37.1186466 101.1469539
  13.7319263  46.6194985 105.7017842  14.4447235  47.2542449 105.6293743
  13.2409291  46.7158851 104.8857844  15.4536790  40.5246237  97.2735134
  14.5193068  40.6447700  97.1039838  15.6313458  39.6218704  97.0095143
  18.8409341  36.3663557  97.8085168  19.3069793  37.1991548  97.7345470
  19.2916841  35.9008538  98.5130426  16.9085572  42.7107378  94.8071320
  17.1845416  42.5963972  95.7165194  16.0390071  42.3124863  94.7683493
  13.5439636  46.9593729  98.4504133  13.7262031  46.1415385  98.9131886
  14.3672622  47.1761421  98.0129023  13.8781802  45.8861914  95.7119182
  14.4069568  45.3754368  95.0989344  14.1410021  45.5704444  96.5764715
   7.2337549  46.9377031  98.4716958   6.5647925  47.4223158  97.9880998
   7.0950419  47.1846251  99.3860336  11.3742818  48.9720774 105.0699616
  11.9261126  49.1352396 105.8348701  11.7149012  49.5625212 104.3979641
   2.6025127  35.1995485  95.2512890   2.8978568  34.2906164  95.1979944
   1.7013162  35.1783225  94.9293892  14.5111205  46.9202750 102.0563298
  14.3862345  46.1192489 101.5474244  15.1690296  47.4148943 101.5677268
  16.5746114  44.7211770 103.6842848  15.6276449  44.6017121 103.6121175
  16.9228887  43.8334268 103.7669110  13.5792547  44.5164486  99.8847201
  13.4317509  43.5881193 100.0654771  14.4046041  44.5384577  99.4004276
   7.4454791  33.1682553  95.7427693   7.7850864  33.6968474  95.0206301
   7.8926912  33.5062959  96.5186259  17.1826669  45.3393045 100.9712073
  18.1073216  45.1335906 100.8336525  17.0141972  45.0909446 101.8801415
   9.4322938  31.6657175  93.9420986  10.1531301  32.0438427  93.4384702
   8.8088243  32.3846051  94.0455964  13.5754061  32.3702324  94.8779318
  13.7917676  33.2526961  94.5768146  13.0948129  31.9788537  94.1484960
  16.9721985  45.8578712  96.3274165  17.1458863  45.2925135  95.5748017
  17.4650876  46.6579607  96.1453655  22.8261376  38.6215135  97.9464465
  23.2692522  37.8722460  97.5483588  21.9487887  38.6125271  97.5638197
  17.9597158  45.1745476  93.4271063  18.6548062  45.7952169  93.6458378
  18.3020308  44.3240828  93.7023441  19.8588581  42.6245182  94.9558394
  20.3839905  42.9632455  94.2307714  19.7710933  41.6892197  94.7721529
  11.5429241  48.6917165  99.3153647  11.1034232  48.1993544 100.0086504
  12.2937358  48.1490133  99.0745722   4.0221580  44.8828706  99.3178275
   4.8479600  44.5832478  98.9376919   3.6715632  44.1136329  99.7668064
   8.9903114  44.2355174 101.3875949   8.3683123  43.5725879 101.0878177
   9.6607981  44.2616306 100.7049597   8.5516621  42.7859098  94.8634409
   8.7004741  43.4694562  94.2101082   9.3583064  42.7664188  95.3783865
  22.3694241  40.0920373 100.3386912  23.2041132  40.5310177 100.5024473
  22.5053370  39.6159026  99.5195158   6.3069253  38.8124275  95.8695478
   6.0615295  37.9086605  96.0675688   6.4765168  38.8141426  94.9274956
   5.5764901  34.5452633  93.3681640   4.8834146  34.6196988  92.7121676
   5.3316653  33.7812977  93.8903157  12.0512026  45.2807228  92.3346157
  11.4785993  45.8997415  91.8816629  12.6244820  45.8306590  92.8686079
  15.2709286  45.5644378  93.4654739  16.2039959  45.4989940  93.6687615
  15.1832499  46.4000645  93.0069272  17.8997302  44.8810249  90.4258687
  17.8210934  44.5470112  91.3194445  18.7206969  45.3732017  90.4250159
  20.5975494  37.7471988 103.6335005  20.5651814  36.8087989 103.8194689
  21.2076117  37.8256025 102.9000830  12.4358825  36.6168041  89.6762209
  13.3817929  36.4874249  89.7450627  12.0573069  35.8782703  90.1531637
  26.4152044  38.8087995 102.7741042  27.1455432  38.5473283 103.3348745
  25.8058989  38.0716717 102.8143110  24.4967341  36.9495857 103.3715493
  23.7700504  36.8151822 102.7631985  24.0814628  37.2572686 104.1772211
  10.6201742  34.5418017  89.6117094   9.7133197  34.2451130  89.6879808
  10.8977723  34.2447835  88.7451381  12.2363807  29.0854907  95.7661336
  11.4264536  28.7401992  96.1416582  12.9248224  28.7762451  96.3548947
   9.3900526  31.4004952  89.7529074  10.2519690  31.7259851  90.0124891
   9.5750870  30.6136448  89.2402139  17.5433163  30.2733479  96.8964297
  16.9631832  30.9318283  96.5142349  17.2769095  29.4510824  96.4851714
  16.3258041  32.4333569  95.9520645  15.4383896  32.7183220  95.7340840
  16.7412030  32.2727333  95.1047922  19.6772577  32.4580090  99.6674984
  20.4532967  32.9476543  99.9399601  18.9520711  32.8838145 100.1246854
  22.1145136  33.1707710 100.7248925  22.7089626  32.9303445 100.0142233
  22.1871719  32.4514840 101.3522461   4.3342291  47.0141320 101.0392090
   4.1996759  46.2541721 100.4730088   3.9174354  47.7382220 100.5720879
  15.4701254  42.1978244  90.0468665  16.1737104  42.4028246  90.6626321
  14.7463903  42.7655006  90.3117748  16.2999065  37.9488105  96.1670935
  16.2434266  38.4056657  95.3278567  16.8527407  37.1878790  95.9893778
  20.1103870  33.7377837  96.9921055  19.8540805  33.3374473  97.8229262
  19.4856739  34.4521631  96.8671194  24.4216208  36.4773910  99.4992346
  23.8615766  36.5467100 100.2723908  23.8159712  36.3014895  98.7791842
   7.4911417  47.9110637 101.2510532   7.3743801  48.8556070 101.1489223
   6.6703863  47.6084199 101.6396331  17.3787952  42.6360773  92.0967125
  18.2133556  42.2041972  91.9144600  17.2172295  42.4642787  93.0244019
  17.0333844  39.1392887  93.4623464  16.9782648  38.9737158  92.5211908
  16.4079899  39.8468919  93.6185654  10.3429969  28.6400996  93.0408783
  10.3308639  29.5842835  93.1977054  11.2353391  28.4571141  92.7468244
   8.5165931  48.5638899 104.4666461   9.4193178  48.5962510 104.7832956
   8.2903301  47.6339350 104.4812796  10.2719533  47.3169886 101.1276539
   9.3215164  47.3171748 101.0140912  10.5752019  46.5702620 100.6112574
  26.0072227  53.1530424 102.1922302  26.6450637  53.0337172 101.4885642
  25.8893070  54.1011268 102.2510254  22.8161933  53.1057852 102.1283826
  22.4780445  52.9898917 101.2404361  23.6851701  52.7049018 102.1084833
  18.6748749  54.9593329  98.1180717  18.1113614  54.8683266  97.3497005
  18.5601144  54.1393233  98.5983210  23.2981716  54.2592704 108.0870032
  23.2870357  53.8645502 107.2150536  23.4602356  53.5258777 108.6803803
  16.2213181  56.4544520 100.9564938  17.0134473  56.1135345 100.5411237
  16.4609831  56.5639495 101.8767091  24.2548307  58.6264297  93.4295182
  23.6036287  59.2118377  93.0429196  25.0492670  59.1570491  93.4890220
  18.1803935  55.7153434  93.8282317  18.9534811  55.1682421  93.6895192
  18.5329333  56.5797683  94.0396778  20.0188977  57.0429816 107.0349216
  19.7278843  57.9475447 106.9195882  20.6545962  57.0846344 107.7493285
  20.9445184  54.4206664 103.6250576  21.5408756  54.1962687 102.9107538
  21.0020156  53.6791410 104.2276023  20.5170212  51.8746100  91.4600767
  20.7695733  51.3527621  90.6984230  19.5794772  51.7112245  91.5627450
  25.5613495  50.8781878  99.2675510  26.3476584  50.4601301  98.9165927
  25.8252200  51.7827970  99.4357158  25.7323573  56.3154728  93.9664167
  25.0969406  56.3889355  94.6785071  25.4020979  56.9048327  93.2883246
  20.2366501  53.7774206  93.6625141  20.1202759  53.1019109  94.3306226
  20.3468761  53.2906580  92.8457295  22.5798042  53.2384353  97.3671831
  22.2156249  52.7114974  98.0784752  23.4365158  52.8482822  97.1938316
  28.4847343  44.5278685 104.6303097  28.1530668  45.3974096 104.4064312
  27.8892956  44.2114969 105.3097127  22.2203529  48.2674253  92.3633179
  22.3877931  49.1354489  92.7303650  22.0300698  48.4301534  91.4394468
  24.9778862  56.7291231 104.0299010  24.6779585  57.6316270 103.9214817
  24.6329922  56.4623415 104.8820162  18.4291344  53.1805028 100.0635714
  17.5041840  53.0481242 100.2713406  18.6775757  53.9599248 100.5605656
  28.3776006  49.2473772 101.7096447  27.4692883  49.1789180 101.4155208
  28.3263602  49.7245717 102.5378272  22.1992750  50.7231910  93.3479846
  22.0792375  51.1688961  94.1865326  21.5045338  51.0717228  92.7893384
  15.7900155  52.8238302 100.8979503  15.9192536  53.0772781 101.8118915
  15.1097606  53.4166010 100.5784158  19.9599642  63.4935552  96.9969977
  19.8823672  64.4443377  97.0758458  19.3561286  63.1481424  97.6544904
  22.4516872  50.6663417 109.6531344  21.6750206  51.2257337 109.6434209
  23.0907435  51.1520200 110.1746214  30.2437652  47.4490210 103.4874321
  29.6012033  47.7422743 102.8414115  29.7392581  47.3343130 104.2927518
  27.8977816  51.1953383  94.1760180  28.8095672  51.4280770  94.0007878
  27.3887463  51.7790427  93.6135259  20.7063244  53.4748871 109.2149311
  21.4477929  54.0133915 108.9384135  20.0000230  54.1015159 109.3720863
  26.1818584  55.6178011 107.8121473  26.5901940  55.1760422 107.0676105
  25.4595845  55.0430639 108.0655666  22.5349654  50.5550618 105.1855030
  23.3810849  50.9790031 105.3289679  22.4748292  49.8984242 105.8793593
  26.5047398  56.1779202 101.5673762  25.8756261  56.3424916 100.8649829
  26.1173061  56.5920811 102.3384726  30.3836630  57.1133640  98.9218125
  29.6987668  57.4932541  98.3715159  30.4680480  57.7228966  99.6550073
  25.6849099  48.2154986 106.8436203  25.4410031  48.9697047 106.3070479
  25.9609030  48.5940334 107.6783450  27.6387562  54.7593599 105.5213469
  27.8504457  55.4025358 104.8447850  27.5917310  53.9255915 105.0535399
  25.2413791  47.3711419 102.4250041  24.3798270  47.6692673 102.7166779
  25.2676226  47.5881818 101.4931074  22.0575360  55.9153610  98.8323847
  22.5213706  56.1941313  98.0428469  21.7932158  55.0137054  98.6496937
  18.9499441  55.4625091 101.7703610  19.5200798  55.8912360 101.1321094
  19.5407553  55.1807676 102.4687796  20.9944246  52.0376762  95.6413412
  21.6968290  52.4897806  96.1087338  20.6624875  51.3960581  96.2693305
  19.4424608  50.6288519 110.0164621  18.8123268  51.3104800 110.2500018
  19.3360696  50.5171600 109.0717759  14.7369580  50.2960315 100.9430545
  13.9468634  50.5517843 100.4670656  15.2280828  51.1108653 101.0482586
  28.7533390  57.6365554 103.6935826  29.5750834  57.2345741 103.4118508
  28.7495793  57.5333788 104.6451942  16.6884326  50.6604894  97.9014022
  15.8915489  50.7723588  98.4197518  16.4609918  50.9991546  97.0354913
  22.5189993  57.1849597 105.8496537  22.5834426  57.6470005 106.6854709
  21.8100917  56.5546962 105.9778847  13.0207283  50.5490805 103.3745536
  13.2715322  51.4337815 103.6403112  13.5566832  50.3695407 102.6020628
  22.2338011  58.8517705  95.7175517  22.0983686  59.6969240  96.1460365
  22.7747823  59.0536982  94.9541451  15.6867408  56.3693143  96.2903442
  16.1991929  57.1636393  96.4409007  16.3390121  55.6719433  96.2237044
  17.4962293  59.4858899  98.3726195  17.6728921  60.4076864  98.1847179
  18.2919127  59.1717318  98.8020575  21.6373312  46.3467164 109.9710129
  22.3783025  46.9474317 109.8914591  21.8691234  45.6044801 109.4128171
  16.7814650  51.5323531 108.2488358  16.6668165  50.6308788 108.5495457
  15.9259167  51.7787228 107.8973175  23.8606487  59.4741271 109.8475859
  23.4170342  58.6877650 109.5296764  24.5223701  59.6620422 109.1819750
  18.6193609  61.0037073 104.3736538  19.1701034  60.8754136 103.6013532
  17.7805084  61.3031962 104.0231430  25.9587725  59.7544071 107.8757260
  25.9406201  60.5752952 107.3837530  26.8807645  59.6298146 108.1007402
  22.4160780  57.2688201 108.7180769  22.9489116  56.5076489 108.4880077
  21.8874861  56.9761852 109.4604923  25.5830475  42.3748267 104.2474410
  25.2394744  43.2649908 104.1713521  25.9509437  42.1849924 103.3843996
  13.6516325  54.6981797  97.0663013  14.4891547  55.1078805  96.8496720
  13.8294593  53.7581239  97.0363207  25.5480757  52.3656878  92.7546846
  25.0327381  53.1361482  92.9935233  25.2758066  51.6922014  93.3779907
  23.1327868  47.2106579  97.8132084  22.2769465  46.8213429  97.6337723
  23.5454820  47.2898539  96.9531870  24.6627015  44.7452922 102.2123644
  24.1591811  44.7083057 101.3991449  24.9557622  45.6545665 102.2720300
  20.9069901  44.8291652 101.2189825  21.7722898  44.6334460 100.8595715
  20.9747410  44.6002003 102.1459182  25.3367060  50.2383970  94.5806627
  25.0317196  50.5530119  95.4316770  26.2897503  50.3165390  94.6233960
  23.7813492  56.3974193  96.2299581  23.2534854  55.6626953  95.9172818
  23.2800995  57.1748870  95.9839549  28.7606338  54.5923214 101.3466627
  28.1030013  55.2822475 101.4346756  29.5646738  54.9819646 101.6900613
  18.5132220  47.0593859  98.5906192  19.0875972  46.8369041  97.8579385
  19.1003202  47.1282554  99.3434794  27.5711797  52.9467586  99.3970569
  28.0843679  53.5797578  99.8992279  28.2213021  52.3468782  99.0313929
  18.8401807  49.0898320  92.6102078  18.0039119  49.4273007  92.9311352
  18.7006577  48.9547300  91.6729215  20.8154888  43.9335108  97.3181262
  20.1619300  43.6184126  96.6937876  20.7735362  43.3110849  98.0441085
  21.9266092  54.2154403  89.2334554  21.0193154  53.9843657  89.4325703
  22.4237124  53.4192023  89.4208535  24.8334171  62.9251911  92.1531240
  24.1595870  63.2283607  92.7616198  25.2199993  63.7280991  91.8036697
  24.0492628  50.4217042 101.6428909  23.1315189  50.6431989 101.4850597
  24.4652772  50.4963352 100.7840617  24.8327676  51.8208458  96.7731590
  25.5799495  52.3329855  96.4638712  25.1019265  51.4992510  97.6335983
  23.1054326  54.3166998  93.7558544  22.1965545  54.0326031  93.8531014
  23.1349410  54.7366077  92.8961851  28.3373593  57.9273588  97.5249711
  27.8835920  57.0864498  97.5814902  27.7067560  58.5634986  97.8624492
  27.2806513  48.8565574  98.7550379  26.5429270  48.3442960  99.0860621
  27.5333286  48.4165955  97.9433656  26.7806533  59.7650084  98.4599530
  27.0729507  60.3255142  97.7411895  27.2905153  60.0578645  99.2152689
  27.3818140  41.6341826  99.3492148  27.6877017  40.7739189  99.0618063
  28.1070745  42.2259446  99.1491142  13.6742496  52.0372512  97.7373746
  13.4766896  51.4441873  97.0124813  13.1189160  51.7324723  98.4549685
  21.6539220  51.9295619  99.8568339  21.7087830  50.9769455  99.7810816
  20.8430422  52.0855058 100.3409638  22.8030414  55.8575742  91.0946622
  22.3649844  55.1411601  90.6352260  23.5440855  56.0851857  90.5331714
  19.5931580  50.5472679  97.6158718  18.7799445  50.8466849  98.0223910
  20.0890574  50.1528367  98.3333200  21.7440158  60.5430436  99.5492983
  21.7016337  60.7691282  98.6201515  22.6602857  60.3093810  99.6978784
  25.1905792  51.0114503 106.4473612  25.5455179  51.2385976 107.3068078
  25.8377923  51.3432880 105.8250867  19.0845655  48.1191034 103.2319953
  19.7245034  47.9779793 102.5342916  18.2523185  47.8325548 102.8558555
  30.9472908  56.2009466 102.1634213  31.3809415  56.1084755 103.0117267
  31.6604489  56.1766966 101.5254229  19.8605959  57.4193465  99.3454946
  20.6546557  56.9243785  99.1437520  19.1497651  56.8911328  98.9822651
  24.6800803  59.8011560 103.6967313  24.7337825  60.3702496 104.4645029
  23.8115584  59.9713445 103.3321350  16.1688722  51.5636546  95.4214698
  15.2386310  51.5021002  95.6384660  16.2646194  51.0412499  94.6251339
  16.0874271  48.0891359  98.0092940  16.3481088  49.0036692  97.9002100
  16.9091443  47.6215802  98.1589553  17.5599196  49.5029116 105.1791764
  18.2322250  49.2946478 104.5304413  16.7328983  49.3051202 104.7396997
  31.8088458  56.2433167 104.6967098  32.0024348  57.1478977 104.9426373
  31.7089076  55.7840586 105.5305683  23.4624768  46.1291057 107.1957425
  22.8152683  46.8281007 107.1021902  24.2325784  46.5627201 107.5633673
  26.8703566  56.3939909 110.2707979  26.7189073  56.1650461 109.3538062
  26.8608246  57.3510511 110.2839324  23.6388903  53.9671822 105.2554245
  24.5680963  54.1182982 105.0823212  23.2179933  54.0555843 104.4002892
  22.4377235  57.9922487 103.0252783  22.2988320  57.6241271 103.8978721
  21.6491831  58.5070126 102.8536740  23.0325387  63.0931583  94.3678319
  23.2077142  62.6219626  95.1823942  22.3458175  63.7197349  94.5959580
  23.9882450  57.3704089 100.4141620  23.6532282  57.3304859 101.3099270
  23.4886395  56.7048805  99.9412031  17.9626694  52.7771719 105.9394202
  17.8246492  52.0451958 106.5405741  18.8731617  52.6880619 105.6578389
  20.5908994  52.4891679 105.4277881  21.3008613  51.8484871 105.3864500
  20.5478302  52.7404573 106.3504062  28.5795773  59.4259032 108.3484460
  28.5208319  58.7418252 107.6815043  28.9815291  60.1678022 107.8965086
  19.3037928  49.4756897 107.2473521  18.7675285  49.0247635 107.8995117
  18.7154637  49.6102805 106.5043985  17.5986472  66.2420946 101.1418179
  17.8383070  66.8739470 101.8197198  16.7555668  65.8908986 101.4283539
  18.7140187  48.9345548  89.8099984  17.8369654  48.8134349  89.4462231
  19.1897940  48.1431626  89.5578873  28.5813180  57.3898616 106.5798440
  27.6939959  57.0524538 106.7024839  29.1511731  56.6581647 106.8167205
  10.2342327  53.7222708  99.9041491  10.9213367  53.4084438  99.3162507
  10.0790456  54.6264072  99.6308743  15.0377050  48.6112904 104.3326515
  14.9535238  48.0038574 103.5976925  14.2159756  49.1021923 104.3336012
  22.1114334  62.0500068 103.5459683  22.0384505  62.8555040 104.0578988
  21.6691727  62.2492034 102.7207705  21.9004113  61.2871838  97.0562505
  21.1171635  61.8293518  97.1500729  22.5996858  61.8045818  97.4556746
  25.2100763  47.0966468  99.6996710  25.7069463  46.3436430  99.3797780
  24.4387745  47.1330784  99.1339920  33.0630521  52.8006833 101.3415002
  33.0520397  53.6831549 100.9708935  32.1947900  52.4478384 101.1469539
  24.5713017  61.9486902 105.7017842  25.2840989  62.5834367 105.6293743
  24.0803046  62.0450768 104.8857844  26.2930544  55.8538155  97.2735134
  25.3586823  55.9739617  97.1039838  26.4707213  54.9510622  97.0095143
  21.7935732  49.2383851  99.4268395  21.4233520  48.6854891 100.1149300
  22.2894825  48.6341984  98.8743395  19.6224931  59.6981346 106.5223413
  20.3234390  60.3317829 106.6752807  19.1520046  60.0396077 105.7619052
  27.6519758  44.0636061 101.8476069  26.7382838  44.2940288 102.0158276
  28.0812860  44.1474505 102.6990101  27.4226217  52.2525953 104.3475963
  26.7697667  52.5001861 103.6928416  27.8006597  51.4390091 104.0138440
  24.3833391  62.2885646  98.4504133  24.5655785  61.4707302  98.9131886
  25.2066377  62.5053339  98.0129023  24.7175556  61.2153832  95.7119182
  25.2463322  60.7046286  95.0989344  24.9803776  60.8996362  96.5764715
  23.4713790  52.9945764 110.8342000  22.7954427  52.8939894 111.5044375
  24.2941424  52.8384978 111.2977997  15.2192649  59.2317701 103.4554515
  15.8046086  58.4861389 103.5882420  15.0217487  59.5421658 104.3391179
  18.0731304  62.2668948  98.4716958  17.4041679  62.7515076  97.9880998
  17.9344174  62.5138169  99.3860336   9.8110304  51.8023301 102.1758959
   9.8494403  51.2686892 102.9696077   9.3050596  51.2758507 101.5569936
  22.2136573  64.3012692 105.0699616  22.7654881  64.4644313 105.8348701
  22.5542766  64.8917130 104.3979641  17.1901066  46.6487842 105.6721501
  17.2542392  47.5102672 105.2598899  17.1268186  46.0361843 104.9393859
  27.0647447  59.1273949 110.9248271  27.6087351  59.7403907 110.4303225
  26.4834292  59.6853528 111.4415284  13.4418881  50.5287403  95.2512890
  13.7372322  49.6198082  95.1979944  12.5406917  50.5075143  94.9293892
  25.3504960  62.2494667 102.0563298  25.2256099  61.4484407 101.5474244
  26.0084051  62.7440861 101.5677268  16.9713128  48.6043400 101.2340439
  16.2499714  49.2179367 101.0947912  17.7606384  49.1401165 101.1557085
  19.7739442  45.9397826 107.5081090  20.2973843  46.1860123 108.2707400
  19.5551775  46.7717861 107.0884228  15.1706723  48.2101501  95.3752215
  14.8419429  47.3298880  95.1927321  15.5246093  48.1549170  96.2628604
  24.4186302  59.8456404  99.8847201  24.2711264  58.9173111 100.0654771
  25.2439795  59.8676494  99.4004276  18.2848546  48.4974471  95.7427693
  18.6244618  49.0260392  95.0206301  18.7320666  48.8354877  96.5186259
  28.0220423  60.6684962 100.9712073  28.9466971  60.4627824 100.8336525
  27.8535727  60.4201363 101.8801415  20.9791987  46.8811521 105.1930761
  20.6388807  46.0819334 105.5951441  20.2730993  47.1813232 104.6207594
  21.6308458  43.9660834 103.6458084  22.4534528  43.4921312 103.5236974
  21.8746522  44.7451318 104.1456770  20.2716693  46.9949092  93.9420986
  20.9925055  47.3730345  93.4384702  19.6481997  47.7137969  94.0455964
  24.4147816  47.6994241  94.8779318  24.6311430  48.5818879  94.5768146
  23.9341883  47.3080455  94.1484960  19.1547037  50.6579954 101.4550063
  19.0091618  50.9720257 102.3474344  18.6772241  51.2764855 100.9020961
  21.0143420  47.6482502 101.5030952  21.0004989  46.7523596 101.1663250
  21.7315848  47.6553166 102.1369238  22.8669551  48.0819843 103.5484079
  22.6087329  49.0036913 103.5468410  22.3354591  47.6850277 104.2384544
  27.8115740  61.1870630  96.3274165  27.9852617  60.6217052  95.5748017
  28.3044631  61.9871525  96.1453655  13.6292699  53.1985299 104.3937724
  13.0846167  53.9745107 104.5257998  14.5072049  53.5456103 104.2356845
  20.4180316  46.5296883  96.7718522  20.5396227  45.6013529  96.9709410
  20.1282358  46.5435569  95.8596838  23.2871506  44.2151793  99.9085242
  23.3093203  44.2791126  98.9537222  23.7039565  43.3756302 100.1025748
  14.4158721  52.3255195 107.2867881  13.6740457  52.4737830 107.8732511
  14.0951466  52.5863461 106.4234630  22.3602384  61.8671173 107.0848271
  22.6689510  61.6220320 107.9570970  23.1577866  62.0717812 106.5967141
  22.3822996  64.0209083  99.3153647  21.9427986  63.5285462 100.0086504
  23.1331113  63.4782051  99.0745722  14.8615335  60.2120624  99.3178275
  15.6873355  59.9124396  98.9376919  14.5109387  59.4428246  99.7668064
  19.8296868  59.5647092 101.3875949  19.2076877  58.9017797 101.0878177
  20.5001735  59.5908224 100.7049597  13.0623940  58.1306950 100.2767209
  12.2255848  57.7029125 100.0951210  13.0347585  58.3239394 101.2138000
  30.3876241  58.5870003 110.2609592  29.5971785  58.5694142 109.7214091
  30.1509596  59.1258297 111.0158628  30.5074116  55.4362470 107.5742320
  30.5572121  55.2712477 108.5157843  30.3988040  54.5689729 107.1840201
  19.3910375  58.1151015  94.8634409  19.5398495  58.7986480  94.2101082
  20.1976818  58.0956105  95.3783865  27.7977879  51.4193398 108.8901627
  28.6987741  51.2799863 108.5985625  27.8725853  51.5847853 109.8299805
  22.1320684  48.7960252 107.7354813  21.2623993  49.0893818 107.4637402
  22.3680164  49.3800697 108.4562077  32.0092313  57.8559411 107.8184342
  31.7177121  58.2189392 108.6547803  31.3964444  57.1426419 107.6397674
  30.2579501  52.9792026 106.2864400  30.7333623  53.1719672 105.4783251
  29.3345067  53.0351212 106.0407784  17.1463008  54.1416193  95.8695478
  16.9009050  53.2378523  96.0675688  17.3158923  54.1433343  94.9274956
  24.8359718  45.0139869 105.2520234  25.3541662  45.7500896 104.9266722
  24.4814851  45.3203863 106.0866993  16.4158656  49.8744551  93.3681640
  15.7227900  49.9488906  92.7121676  16.1710407  49.1104894  93.8903157
  25.0872312  41.4340152 100.7721130  25.3674066  40.7663341 101.3981557
  25.8722919  41.6269248 100.2595794  22.8905781  60.6099146  92.3346157
  22.3179748  61.2289333  91.8816629  23.4638574  61.1598507  92.8686079
  28.9581170  49.8557786 104.5192706  29.9098593  49.9555884 104.5404930
  28.7884621  49.0636054 105.0290790  26.9795550  46.9413369 104.7052106
  26.3845482  47.2218382 104.0098595  26.6945247  47.4307270 105.4768848
  26.1103040  60.8936296  93.4654739  27.0433713  60.8281858  93.6687615
  26.0226253  61.7292563  93.0069272  28.7391057  60.2102166  90.4258687
  28.6604689  59.8762030  91.3194445  29.5600724  60.7023934  90.4250159
  31.4369248  53.0763906 103.6335005  31.4045568  52.1379906 103.8194689
  32.0469872  53.1547942 102.9000830  23.2752579  51.9459959  89.6762209
  24.2211684  51.8166167  89.7450627  22.8966824  51.2074620  90.1531637
  31.5863737  49.8674949 103.6793288  31.0702785  49.0833406 103.4923217
  32.4703685  49.5393666 103.8439808  29.2474464  43.6115965  99.6389101
  29.0499285  43.3031053 100.5232433  29.8574169  44.3377603  99.7687031
  35.3361095  52.2787775 103.3715493  34.6094259  52.1443740 102.7631985
  34.9208382  52.5864604 104.1772211  23.1591272  55.9977705 111.1362866
  24.0794281  56.1756304 111.3302913  23.1240855  55.0533750 110.9842565
  21.4595496  49.8709935  89.6117094  20.5526952  49.5743048  89.6879808
  21.7371477  49.5739753  88.7451381  12.3773437  51.1916298 100.0616141
  12.0576221  50.3381607  99.7690515  11.8306865  51.4064876 100.8174108
  16.1553344  53.9078739 103.7785647  16.3739354  54.8395847 103.7973681
  16.5679118  53.5486714 104.5640451  23.0757562  44.4146825  95.7661336
  22.2658290  44.0693910  96.1416582  23.7641979  44.1054368  96.3548947
  25.0048110  43.4924871  97.3885632  25.5579149  43.9120325  98.0475656
  25.2418197  42.5660620  97.4308588  20.2294281  46.7296870  89.7529074
  21.0913445  47.0551768  90.0124891  20.4144625  45.9428366  89.2402139
  12.2461697  54.8119210 102.0309262  11.5525168  54.3973163 101.5179217
  12.9934688  54.8539746 101.4342681  28.3826917  45.6025397  96.8964297
  27.8025586  46.2610201  96.5142349  28.1162850  44.7802741  96.4851714
  26.8330484  45.0030454  99.0985617  27.3330262  45.1146989  98.2899936
  27.4766092  44.6991507  99.7386425  20.8912479  52.9109084 111.9853458
  20.4079561  53.7109444 112.1917347  20.9773419  52.9217029 111.0320902
  14.1598439  54.7437464  99.9075277  14.1369127  54.8425151  98.9557160
  14.4699076  55.5902614 100.2292443  16.8185817  56.8013619 104.0221892
  17.7729071  56.7697561 103.9551823  16.6198341  56.3404242 104.8372118
  17.4085199  55.3714735 106.5892689  18.2278088  55.8658813 106.6127527
  17.6822007  54.4546703 106.5610257  27.1651795  47.7625487  95.9520645
  26.2777650  48.0475138  95.7340840  27.5805784  47.6019250  95.1047922
  15.1736046  62.3433238 101.0392090  15.0390514  61.5833639 100.4730088
  14.7568108  63.0674138 100.5720879  27.1392819  53.2780023  96.1670935
  27.0828020  53.7348574  95.3278567  27.6921162  52.5170708  95.9893778
  18.3305172  63.2402555 101.2510532  18.2137556  64.1847988 101.1489223
  17.5097618  62.9376117 101.6396331  27.8727598  54.4684804  93.4623464
  27.8176402  54.3029076  92.5211908  27.2473654  55.1760837  93.6185654
  12.6620113  49.7052869 107.2884886  13.3078977  49.1951823 107.7772112
  12.4537264  50.4421550 107.8628312  25.1873506  56.7733716 112.7877027
  26.0564665  56.9474368 112.4263662  24.7080257  57.5928133 112.6652756
  21.1823724  43.9692913  93.0408783  21.1702394  44.9134753  93.1977054
  22.0747146  43.7863059  92.7468244  19.3559686  63.8930817 104.4666461
  20.2586932  63.9254427 104.7832956  19.1297056  62.9631268 104.4812796
  21.1113288  62.6461804 101.1276539  20.1608919  62.6463665 101.0140912
  21.4145774  61.8994538 100.6112574  24.9975843  40.5635690  97.2954719
  24.2308239  40.0094177  97.4411402  25.4086548  40.6357559  98.1568871
  27.0606935  71.7836438 100.9564938  27.8528227  71.4427263 100.5411237
  27.3003585  71.8931413 101.8767091  26.6293909  68.1530220 100.8979503
  26.7586290  68.4064698 101.8118915  25.9491361  68.7457928 100.5784158
  33.2910626  65.9955335 109.6531344  32.5143960  66.5549255 109.6434209
  33.9301189  66.4812118 110.1746214  31.5456999  68.8040788 109.2149311
  32.2871683  69.3425832 108.9384135  30.8393984  69.4307077 109.3720863
  36.5242854  63.5446904 106.8436203  36.2803786  64.2988964 106.3070479
  36.8002784  63.9232251 107.6783450  30.2818362  65.9580436 110.0164621
  29.6517023  66.6396717 110.2500018  30.1754450  65.8463518 109.0717759
  25.5763335  65.6252232 100.9430545  24.7862389  65.8809761 100.4670656
  26.0674582  66.4400570 101.0482586  23.8601038  65.8782723 103.3745536
  24.1109076  66.7629733 103.6403112  24.3960586  65.6987324 102.6020628
  29.5599105  60.2601202 112.3789872  29.1666051  59.7067401 113.0537516
  30.3765245  60.5711781 112.7696390  28.3356048  74.8150817  98.3726195
  28.5122676  75.7368781  98.1847179  29.1312881  74.5009236  98.8020575
  32.4767066  61.6759081 109.9710129  33.2176779  62.2766235 109.8914591
  32.7084989  60.9336719 109.4128171  27.6208404  66.8615449 108.2488358
  27.5061919  65.9600706 108.5495457  26.7652922  67.1079145 107.8973175
  33.2554534  72.5980118 108.7180769  33.7882871  71.8368407 108.4880077
  32.7268615  72.3053770 109.4604923  24.4910080  70.0273715  97.0663013
  25.3285302  70.4370723  96.8496720  24.6688347  69.0873157  97.0363207
  24.5136251  67.3664430  97.7373746  24.3160651  66.7733791  97.0124813
  23.9582915  67.0616640  98.4549685  27.0082476  66.8928464  95.4214698
  26.0780065  66.8312919  95.6384660  27.1039948  66.3704417  94.6251339
  26.9268026  63.4183277  98.0092940  27.1874843  64.3328610  97.9002100
  27.7485198  62.9507719  98.1589553  28.3992951  64.8321034 105.1791764
  29.0716004  64.6238396 104.5304413  27.5722737  64.6343120 104.7396997
  34.3018523  61.4582975 107.1957425  33.6546438  62.1572925 107.1021902
  35.0719538  61.8919119 107.5633673  28.8020448  68.1063637 105.9394202
  28.6640246  67.3743876 106.5405741  29.7125372  68.0172537 105.6578389
  30.1431683  64.8048814 107.2473521  29.6069040  64.3539553 107.8995117
  29.5548391  64.9394723 106.5043985  28.4380226  81.5712863 101.1418179
  28.6776825  82.2031388 101.8197198  27.5949423  81.2200904 101.4283539
  29.5533942  64.2637466  89.8099984  28.6763408  64.1426266  89.4462231
  30.0291695  63.4723544  89.5578873  21.0736082  69.0514625  99.9041491
  21.7607122  68.7376355  99.3162507  20.9184211  69.9555990  99.6308743
  25.8770804  63.9404822 104.3326515  25.7928993  63.3330491 103.5976925
  25.0553510  64.4313840 104.3336012  34.3107544  68.3237682 110.8342000
  33.6348181  68.2231811 111.5044375  35.1335178  68.1676896 111.2977997
  26.0586403  74.5609618 103.4554515  26.6439840  73.8153306 103.5882420
  25.8611242  74.8713575 104.3391179  20.6504058  67.1315219 102.1758959
  20.6888158  66.5978809 102.9696077  20.1444351  66.6050424 101.5569936
  27.5047093  64.0502892 109.3194535  28.1319132  63.6679969 109.9332059
  26.6475012  63.8317094 109.6850228  24.2812636  65.8579321  95.2512890
  24.5766077  64.9489999  95.1979944  23.3800671  65.8367060  94.9293892
  30.6133196  61.2689744 107.5081090  31.1367598  61.5152040 108.2707400
  30.3945529  62.1009779 107.0884228  26.0100477  63.5393418  95.3752215
  25.6813183  62.6590797  95.1927321  26.3639848  63.4841087  96.2628604
  24.4686454  68.5277216 104.3937724  23.9239922  69.3037024 104.5257998
  25.3465804  68.8748021 104.2356845  25.2552476  67.6547113 107.2867881
  24.5134212  67.8029748 107.8732511  24.9345220  67.9155378 106.4234630
  25.7009089  75.5412541  99.3178275  26.5267109  75.2416313  98.9376919
  25.3503141  74.7720164  99.7668064  23.9017694  73.4598868 100.2767209
  23.0649603  73.0321042 100.0951210  23.8741340  73.6531311 101.2138000
  30.7415150  63.3720798 110.9808455  30.7903306  64.2482921 110.5986224
  31.2837664  62.8298191 110.4080098  32.9714439  64.1252170 107.7354813
  32.1017748  64.4185736 107.4637402  33.2073919  64.7092615 108.4562077
  35.6753472  60.3431787 105.2520234  36.1935416  61.0792814 104.9266722
  35.3208605  60.6495780 106.0866993  27.2552410  65.2036468  93.3681640
  26.5621655  65.2780823  92.7121676  27.0104162  64.4396812  93.8903157
  33.9985026  71.3269622 111.1362866  34.9188036  71.5048221 111.3302913
  33.9634609  70.3825668 110.9842565  23.2167191  66.5208216 100.0616141
  22.8969975  65.6673524  99.7690515  22.6700619  66.7356794 100.8174108
  26.9947099  69.2370657 103.7785647  27.2133108  70.1687765 103.7973681
  27.4072872  68.8778631 104.5640451  31.8674964  64.8103863 113.1688396
  31.7671691  65.7598220 113.1000487  31.6496506  64.4822102 112.2964466
  31.0688035  62.0588788  89.7529074  31.9307199  62.3843686  90.0124891
  31.2538379  61.2720284  89.2402139  23.0855451  70.1411128 102.0309262
  22.3918922  69.7265080 101.5179217  23.8328442  70.1831664 101.4342681
  31.7306234  68.2401002 111.9853458  31.2473316  69.0401362 112.1917347
  31.8167173  68.2508946 111.0320902  24.9992194  70.0729381  99.9075277
  24.9762882  70.1717069  98.9557160  25.3092830  70.9194532 100.2292443
  27.6579571  72.1305536 104.0221892  28.6122825  72.0989479 103.9551823
  27.4592095  71.6696160 104.8372118  28.2478954  70.7006652 106.5892689
  29.0671843  71.1950731 106.6127527  28.5215761  69.7838621 106.5610257
  26.0129800  77.6725156 101.0392090  25.8784268  76.9125557 100.4730088
  25.5961863  78.3966056 100.5720879  29.1698926  78.5694473 101.2510532
  29.0531310  79.5139905 101.1489223  28.3491372  78.2668034 101.6396331
  23.5013868  65.0344786 107.2884886  24.1472731  64.5243740 107.7772112
  23.2931019  65.7713468 107.8628312  36.0267260  72.1025634 112.7877027
  36.8958420  72.2766286 112.4263662  35.5474012  72.9220051 112.6652756
  30.1953440  79.2222735 104.4666461  31.0980687  79.2546345 104.7832956
  29.9690810  78.2923186 104.4812796  27.8411359  62.1812403 111.3859901
  28.7042820  61.8249208 111.5963225  27.2676769  61.8426298 112.0735305
  47.6859736  83.8114260 102.1922302  48.3238146  83.6921007 101.4885642
  47.5680579  84.7595104 102.2510254  44.4949442  83.7641688 102.1283826
  44.1567954  83.6482752 101.2404361  45.3639210  83.3632853 102.1084833
  40.3536258  85.6177164  98.1180717  39.7901123  85.5267101  97.3497005
  40.2388653  84.7977069  98.5983210  44.9769225  84.9176539 108.0870032
  44.9657866  84.5229338 107.2150536  45.1389865  84.1842612 108.6803803
  37.9000690  87.1128356 100.9564938  38.6921982  86.7719180 100.5411237
  38.1397340  87.2223331 101.8767091  45.9335816  89.2848132  93.4295182
  45.2823796  89.8702212  93.0429196  46.7280179  89.8154327  93.4890220
  39.8591444  86.3737269  93.8282317  40.6322320  85.8266256  93.6895192
  40.2116842  87.2381518  94.0396778  41.6976486  87.7013651 107.0349216
  41.4066352  88.6059282 106.9195882  42.3333471  87.7430179 107.7493285
  42.6232693  85.0790500 103.6250576  43.2196265  84.8546522 102.9107538
  42.6807665  84.3375245 104.2276023  42.1957721  82.5329935  91.4600767
  42.4483242  82.0111456  90.6984230  41.2582281  82.3696081  91.5627450
  47.2401004  81.5365714  99.2675510  48.0264093  81.1185137  98.9165927
  47.5039709  82.4411806  99.4357158  47.4111082  86.9738564  93.9664167
  46.7756915  87.0473190  94.6785071  47.0808488  87.5632163  93.2883246
  52.6409431  81.4740947 100.1708488  53.3734603  80.9040164 100.4046318
  51.8848787  81.0862547 100.6114994  41.9154010  84.4358041  93.6625141
  41.7990268  83.7602944  94.3306226  42.0256270  83.9490415  92.8457295
  44.2585551  83.8968188  97.3671831  43.8943758  83.3698809  98.0784752
  45.1152667  83.5066657  97.1938316  50.1634852  75.1862521 104.6303097
  49.8318177  76.0557932 104.4064312  49.5680465  74.8698805 105.3097127
  43.8991038  78.9258088  92.3633179  44.0665440  79.7938324  92.7303650
  43.7088207  79.0885370  91.4394468  46.6566371  87.3875067 104.0299010
  46.3567094  88.2900106 103.9214817  46.3117431  87.1207250 104.8820162
  40.1078853  83.8388864 100.0635714  39.1829349  83.7065078 100.2713406
  40.3563266  84.6183083 100.5605656  50.0563515  79.9057607 101.7096447
  49.1480392  79.8373015 101.4155208  50.0051111  80.3829552 102.5378272
  43.8780259  81.3815745  93.3479846  43.7579884  81.8272796  94.1865326
  43.1832847  81.7301063  92.7893384  37.4687664  83.4822137 100.8979503
  37.5980045  83.7356616 101.8118915  36.7885115  84.0749845 100.5784158
  41.6387151  94.1519387  96.9969977  41.5611181  95.1027212  97.0758458
  41.0348795  93.8065260  97.6544904  44.1304381  81.3247253 109.6531344
  43.3537715  81.8841173 109.6434209  44.7694944  81.8104036 110.1746214
  51.9225161  78.1074045 103.4874321  51.2799542  78.4006579 102.8414115
  51.4180090  77.9926966 104.2927518  49.5765325  81.8537219  94.1760180
  50.4883181  82.0864605  94.0007878  49.0674972  82.4374263  93.6135259
  42.3850753  84.1332706 109.2149311  43.1265438  84.6717750 108.9384135
  41.6787739  84.7598995 109.3720863  47.8606093  86.2761846 107.8121473
  48.2689449  85.8344257 107.0676105  47.1383354  85.7014474 108.0655666
  44.2137163  81.2134453 105.1855030  45.0598358  81.6373867 105.3289679
  44.1535800  80.5568077 105.8793593  48.1834907  86.8363037 101.5673762
  47.5543770  87.0008751 100.8649829  47.7960570  87.2504647 102.3384726
  52.0624139  87.7717475  98.9218125  51.3775177  88.1516376  98.3715159
  52.1467989  88.3812802  99.6550073  47.3636608  78.8738822 106.8436203
  47.1197540  79.6280882 106.3070479  47.6396539  79.2524169 107.6783450
  49.3175071  85.4177434 105.5213469  49.5291966  86.0609194 104.8447850
  49.2704819  84.5839750 105.0535399  43.7362869  86.5737445  98.8323847
  44.2001215  86.8525148  98.0428469  43.4719667  85.6720890  98.6496937
  40.6286950  86.1208927 101.7703610  41.1988307  86.5496195 101.1321094
  41.2195062  85.8391511 102.4687796  42.6731755  82.6960597  95.6413412
  43.3755799  83.1481641  96.1087338  42.3412384  82.0544416  96.2693305
  41.1212117  81.2872354 110.0164621  40.4910777  81.9688635 110.2500018
  41.0148205  81.1755436 109.0717759  50.4320899  88.2949389 103.6935826
  51.2538343  87.8929577 103.4118508  50.4283302  88.1917623 104.6451942
  38.3671835  81.3188729  97.9014022  37.5702998  81.4307424  98.4197518
  38.1397427  81.6575382  97.0354913  44.1977502  87.8433433 105.8496537
  44.2621935  88.3053840 106.6854709  43.4888426  87.2130798 105.9778847
  58.5226892  84.6388138 100.0420798  57.7690600  84.0695536  99.8864802
  58.6574433  84.6050802 100.9891432  43.9125520  89.5101540  95.7175517
  43.7771195  90.3553076  96.1460365  44.4535332  89.7120818  94.9541451
  37.3654917  87.0276978  96.2903442  37.8779438  87.8220228  96.4409007
  38.0177630  86.3303269  96.2237044  39.1749802  90.1442734  98.3726195
  39.3516430  91.0660699  98.1847179  39.9706636  89.8301154  98.8020575
  43.3160821  77.0050999 109.9710129  44.0570534  77.6058152 109.8914591
  43.5478743  76.2628637 109.4128171  38.4602159  82.1907366 108.2488358
  38.3455674  81.2892624 108.5495457  37.6046676  82.4371063 107.8973175
  45.5393996  90.1325107 109.8475859  45.0957851  89.3461485 109.5296764
  46.2011210  90.3204257 109.1819750  40.2981118  91.6620908 104.3736538
  40.8488543  91.5337972 103.6013532  39.4592593  91.9615797 104.0231430
  47.6375234  90.4127907 107.8757260  47.6193710  91.2336788 107.3837530
  48.5595154  90.2881982 108.1007402  44.0948289  87.9272036 108.7180769
  44.6276625  87.1660324 108.4880077  43.5662370  87.6345688 109.4604923
  35.3303834  85.3565632  97.0663013  36.1679056  85.7662641  96.8496720
  35.5082102  84.4165075  97.0363207  47.2268266  83.0240713  92.7546846
  46.7114890  83.7945318  92.9935233  46.9545575  82.3505849  93.3779907
  52.2002540  85.7773068  94.6900019  51.4231983  85.4384227  94.2455181
  52.8794021  85.7825691  94.0154984  47.0154569  80.8967805  94.5806627
  46.7104705  81.2113954  95.4316770  47.9685012  80.9749225  94.6233960
  45.4601001  87.0558029  96.2299581  44.9322363  86.3210788  95.9172818
  44.9588504  87.8332705  95.9839549  50.4393847  85.2507049 101.3466627
  49.7817522  85.9406310 101.4346756  51.2434247  85.6403481 101.6900613
  49.2499306  83.6051422  99.3970569  49.7631188  84.2381414  99.8992279
  49.9000530  83.0052617  99.0313929  40.5189316  79.7482156  92.6102078
  39.6826628  80.0856842  92.9311352  40.3794086  79.6131136  91.6729215
  43.6053601  84.8738239  89.2334554  42.6980663  84.6427492  89.4325703
  44.1024633  84.0775858  89.4208535  46.5121680  93.5835746  92.1531240
  45.8383379  93.8867443  92.7616198  46.8987502  94.3864826  91.8036697
  46.5115185  82.4792293  96.7731590  47.2587004  82.9913690  96.4638712
  46.7806774  82.1576346  97.6335983  44.7841835  84.9750834  93.7558544
  43.8753054  84.6909866  93.8531014  44.8136919  85.3949912  92.8961851
  50.0161102  88.5857423  97.5249711  49.5623429  87.7448333  97.5814902
  49.3855069  89.2218822  97.8624492  48.9594022  79.5149409  98.7550379
  48.2216779  79.0026795  99.0860621  49.2120795  79.0749791  97.9433656
  48.4594042  90.4233920  98.4599530  48.7517016  90.9838977  97.7411895
  48.9692662  90.7162481  99.2152689  44.4817923  86.5159577  91.0946622
  44.0437353  85.7995436  90.6352260  45.2228364  86.7435692  90.5331714
  41.2719089  81.2056514  97.6158718  40.4586954  81.5050685  98.0223910
  41.7678083  80.8112203  98.3333200  43.4227667  91.2014271  99.5492983
  43.3803846  91.4275117  98.6201515  44.3390366  90.9677646  99.6978784
  46.8693301  81.6698338 106.4473612  47.2242688  81.8969812 107.3068078
  47.5165432  82.0016715 105.8250867  52.5991037  84.7916774  97.1522941
  52.4608936  84.9818370  96.2244130  52.2427256  85.5536157  97.6090992
  52.6260417  86.8593301 102.1634213  53.0596924  86.7668590 103.0117267
  53.3391998  86.8350802 101.5254229  41.5393468  88.0777300  99.3454946
  42.3334066  87.5827620  99.1437520  40.8285160  87.5495163  98.9822651
  46.3588312  90.4595395 103.6967313  46.4125334  91.0286332 104.4645029
  45.4903093  90.6297281 103.3321350  37.8476231  82.2220382  95.4214698
  36.9173819  82.1604837  95.6384660  37.9433703  81.6996334  94.6251339
  53.4875967  86.9017002 104.6967098  53.6811857  87.8062813 104.9426373
  53.3876585  86.4424421 105.5305683  48.5491075  87.0523745 110.2707979
  48.3976582  86.8234296 109.3538062  48.5395755  88.0094346 110.2839324
  45.3176412  84.6255658 105.2554245  46.2468472  84.7766817 105.0823212
  44.8967442  84.7139678 104.4002892  44.1164744  88.6506322 103.0252783
  43.9775829  88.2825106 103.8978721  43.3279340  89.1653961 102.8536740
  44.7112895  93.7515418  94.3678319  44.8864651  93.2803462  95.1823942
  44.0245684  94.3781185  94.5959580  45.6669959  88.0287925 100.4141620
  45.3319791  87.9888695 101.3099270  45.1673904  87.3632641  99.9412031
  39.6414203  83.4355555 105.9394202  39.5034001  82.7035793 106.5405741
  40.5519126  83.3464455 105.6578389  48.6029150  85.3743959  90.6878680
  47.9858321  84.6490787  90.5911733  48.1345639  86.1353319  90.3445754
  42.2696503  83.1475514 105.4277881  42.9796122  82.5068706 105.3864500
  42.2265811  83.3988409 106.3504062  50.2583282  90.0842867 108.3484460
  50.1995828  89.4002087 107.6815043  50.6602800  90.8261857 107.8965086
  40.9825437  80.1340732 107.2473521  40.4462794  79.6831470 107.8995117
  40.3942146  80.2686641 106.5043985  39.2773981  96.9004781 101.1418179
  39.5170579  97.5323305 101.8197198  38.4343177  96.5492821 101.4283539
  40.3927696  79.5929383  89.8099984  39.5157163  79.4718184  89.4462231
  40.8685449  78.8015462  89.5578873  50.2600689  88.0482451 106.5798440
  49.3727468  87.7108373 106.7024839  50.8299240  87.3165482 106.8167205
  31.9129836  84.3806543  99.9041491  32.6000876  84.0668273  99.3162507
  31.7577965  85.2847908  99.6308743  43.7901843  92.7083904 103.5459683
  43.7172014  93.5138875 104.0578988  43.3479236  92.9075869 102.7207705
  43.5791622  91.9455674  97.0562505  42.7959144  92.4877354  97.1500729
  44.2784367  92.4629653  97.4556746  54.7418030  83.4590669 101.3415002
  54.7307906  84.3415384 100.9708935  53.8735409  83.1062219 101.1469539
  46.2500526  92.6070738 105.7017842  46.9628498  93.2418202 105.6293743
  45.7590555  92.7034604 104.8857844  47.9718053  86.5121990  97.2735134
  47.0374332  86.6323453  97.1039838  48.1494722  85.6094457  97.0095143
  51.3590604  82.3539310  97.8085168  51.8251057  83.1867301  97.7345470
  51.8098105  81.8884291  98.5130426  41.3012440  90.3565181 106.5223413
  42.0021899  90.9901664 106.6752807  40.8307555  90.6979913 105.7619052
  49.4266836  88.6983131  94.8071320  49.7026679  88.5839725  95.7165194
  48.5571334  88.3000616  94.7683493  49.1013726  82.9109789 104.3475963
  48.4485176  83.1585696 103.6928416  49.4794106  82.0973927 104.0138440
  46.0620900  92.9469482  98.4504133  46.2443294  92.1291138  98.9131886
  46.8853886  93.1637174  98.0129023  46.3963065  91.8737667  95.7119182
  46.9250831  91.3630121  95.0989344  46.6591285  91.5580197  96.5764715
  45.1501299  83.6529600 110.8342000  44.4741936  83.5523729 111.5044375
  45.9728933  83.4968813 111.2977997  36.8980158  89.8901536 103.4554515
  37.4833595  89.1445224 103.5882420  36.7004996  90.2005493 104.3391179
  39.7518813  92.9252784  98.4716958  39.0829188  93.4098911  97.9880998
  39.6131683  93.1722004  99.3860336  31.4897812  82.4607136 102.1758959
  31.5281912  81.9270727 102.9696077  30.9838105  81.9342342 101.5569936
  43.8924082  94.9596527 105.0699616  44.4442390  95.1228149 105.8348701
  44.2330275  95.5500965 104.3979641  38.3440847  79.3794809 109.3194535
  38.9712886  78.9971887 109.9332059  37.4868766  79.1609011 109.6850228
  48.7434956  89.7857785 110.9248271  49.2874860  90.3987743 110.4303225
  48.1621801  90.3437363 111.4415284  47.0292469  92.9078503 102.0563298
  46.9043608  92.1068242 101.5474244  47.6871560  93.4024696 101.5677268
  49.0927377  90.7087523 103.6842848  48.1457713  90.5892874 103.6121175
  49.4410150  89.8210021 103.7669110  46.0973811  90.5040239  99.8847201
  45.9498773  89.5756946 100.0654771  46.9227304  90.5260330  99.4004276
  39.9636055  79.1558306  95.7427693  40.3032127  79.6844227  95.0206301
  40.4108175  79.4938712  96.5186259  49.7007932  91.3268798 100.9712073
  50.6254480  91.1211659 100.8336525  49.5323236  91.0785199 101.8801415
  46.0935325  78.3578077  94.8779318  46.3098939  79.2402714  94.5768146
  45.6129392  77.9664290  94.1484960  49.4903249  91.8454465  96.3274165
  49.6640126  91.2800888  95.5748017  49.9832140  92.6455360  96.1453655
  35.3080208  83.8569134 104.3937724  34.7633676  84.6328942 104.5257998
  36.1859558  84.2039939 104.2356845  55.3442640  84.6090888  97.9464465
  55.7873786  83.8598213  97.5483588  54.4669150  84.6001024  97.5638197
  50.4778421  91.1621229  93.4271063  51.1729326  91.7827922  93.6458378
  50.8201571  90.3116581  93.7023441  36.0946230  82.9839030 107.2867881
  35.3527966  83.1321666 107.8732511  35.7738975  83.2447296 106.4234630
  52.3769844  88.6120935  94.9558394  52.9021168  88.9508208  94.2307714
  52.2892197  87.6767950  94.7721529  44.0389893  92.5255009 107.0848271
  44.3477019  92.2804155 107.9570970  44.8365375  92.7301647 106.5967141
  44.0610505  94.6792918  99.3153647  43.6215495  94.1869297 100.0086504
  44.8118622  94.1365886  99.0745722  36.5402844  90.8704459  99.3178275
  37.3660864  90.5708231  98.9376919  36.1896896  90.1012082  99.7668064
  41.5084377  90.2230927 101.3875949  40.8864386  89.5601632 101.0878177
  42.1789244  90.2492059 100.7049597  34.7411449  88.7890786 100.2767209
  33.9043357  88.3612960 100.0951210  34.7135094  88.9823229 101.2138000
  41.5808905  78.7012715 110.9808455  41.6297060  79.5774838 110.5986224
  42.1231419  78.1590108 110.4080098  52.0663750  89.2453839 110.2609592
  51.2759294  89.2277977 109.7214091  51.8297105  89.7842132 111.0158628
  52.1861625  86.0946305 107.5742320  52.2359630  85.9296312 108.5157843
  52.0775549  85.2273564 107.1840201  41.0697884  88.7734851  94.8634409
  41.2186004  89.4570315  94.2101082  41.8764327  88.7539941  95.3783865
  49.4765388  82.0777233 108.8901627  50.3775250  81.9383698 108.5985625
  49.5513362  82.2431688 109.8299805  43.8108193  79.4544088 107.7354813
  42.9411502  79.7477654 107.4637402  44.0467673  80.0384533 108.4562077
  53.6879822  88.5143247 107.8184342  53.3964630  88.8773227 108.6547803
  53.0751953  87.8010255 107.6397674  54.8875504  86.0796126 100.3386912
  55.7222396  86.5185930 100.5024473  55.0234633  85.6034780  99.5195158
  51.9367010  83.6375861 106.2864400  52.4121132  83.8303507 105.4783251
  51.0132576  83.6935047 106.0407784  38.8250517  84.8000028  95.8695478
  38.5796559  83.8962358  96.0675688  38.9946432  84.8017179  94.9274956
  44.5693290  91.2682981  92.3346157  43.9967257  91.8873168  91.8816629
  45.1426083  91.8182343  92.8686079  50.6368679  80.5141621 104.5192706
  51.5886102  80.6139719 104.5404930  50.4672130  79.7219890 105.0290790
  48.6583059  77.5997204 104.7052106  48.0632991  77.8802217 104.0098595
  48.3732756  78.0891105 105.4768848  47.7890549  91.5520131  93.4654739
  48.7221222  91.4865693  93.6687615  47.7013762  92.3876398  93.0069272
  50.4178566  90.8686002  90.4258687  50.3392197  90.5345865  91.3194445
  51.2388233  91.3607770  90.4250159  53.1156757  83.7347741 103.6335005
  53.0833077  82.7963742 103.8194689  53.7257381  83.8131778 102.9000830
  44.9540088  82.6043794  89.6762209  45.8999193  82.4750002  89.7450627
  44.5754333  81.8658456  90.1531637  53.2651246  80.5258784 103.6793288
  52.7490294  79.7417241 103.4923217  54.1491194  80.1977501 103.8439808
  58.9333307  84.7963748 102.7741042  59.6636695  84.5349036 103.3348745
  58.3240252  84.0592470 102.8143110  57.0148604  82.9371610 103.3715493
  56.2881768  82.8027575 102.7631985  56.5995891  83.2448439 104.1772211
  44.8378781  86.6561540 111.1362866  45.7581790  86.8340139 111.3302913
  44.8028364  85.7117585 110.9842565  43.1383005  80.5293770  89.6117094
  42.2314461  80.2326883  89.6879808  43.4158986  80.2323588  88.7451381
  37.8340853  84.5662575 103.7785647  38.0526863  85.4979683 103.7973681
  38.2466627  84.2070549 104.5640451  42.7068718  80.1395780 113.1688396
  42.6065445  81.0890137 113.1000487  42.4890260  79.8114019 112.2964466
  41.9081790  77.3880706  89.7529074  42.7700954  77.7135604  90.0124891
  42.0932134  76.6012201  89.2402139  33.9249206  85.4703045 102.0309262
  33.2312677  85.0556998 101.5179217  34.6722197  85.5123582 101.4342681
  42.5699988  83.5692919 111.9853458  42.0867070  84.3693279 112.1917347
  42.6560928  83.5800864 111.0320902  35.8385948  85.4021299  99.9075277
  35.8156636  85.5008986  98.9557160  36.1486585  86.2486450 100.2292443
  38.4973326  87.4597454 104.0221892  39.4516580  87.4281396 103.9551823
  38.2985850  86.9988078 104.8372118  39.0872708  86.0298570 106.5892689
  39.9065597  86.5242649 106.6127527  39.3609516  85.1130538 106.5610257
  52.1953840  78.4455843  99.6674984  52.9714231  78.9352296  99.9399601
  51.4701975  78.8713898 100.1246854  54.6326399  79.1583463 100.7248925
  55.2270890  78.9179199 100.0142233  54.7052983  78.4390593 101.3522461
  36.8523555  93.0017073 101.0392090  36.7178023  92.2417474 100.4730088
  36.4355617  93.7257973 100.5720879  47.9882518  88.1853997  90.0468665
  48.6918368  88.3904000  90.6626321  47.2645167  88.7530759  90.3117748
  48.8180328  83.9363858  96.1670935  48.7615529  84.3932410  95.3278567
  49.3708670  83.1754543  95.9893778  52.6285134  79.7253590  96.9921055
  52.3722068  79.3250226  97.8229262  52.0038002  80.4397384  96.8671194
  56.9397472  82.4649663  99.4992346  56.3797030  82.5342853 100.2723908
  56.3340975  82.2890648  98.7791842  40.0092681  93.8986391 101.2510532
  39.8925065  94.8431823 101.1489223  39.1885127  93.5959952 101.6396331
  49.8969215  88.6236526  92.0967125  50.7314819  88.1917725  91.9144600
  49.7353558  88.4518540  93.0244019  49.5515107  85.1268640  93.4623464
  49.4963911  84.9612911  92.5211908  48.9261163  85.8344672  93.6185654
  34.3407622  80.3636704 107.2884886  34.9866486  79.8535658 107.7772112
  34.1324773  81.1005386 107.8628312  46.8661015  87.4317551 112.7877027
  47.7352174  87.6058204 112.4263662  46.3867766  88.2511968 112.6652756
  41.0347195  94.5514652 104.4666461  41.9374441  94.5838263 104.7832956
  40.8084565  93.6215103 104.4812796  42.7900797  93.3045639 101.1276539
  41.8396428  93.3047501 101.0140912  43.0933283  92.5578374 100.6112574
  58.5253490  99.1406177 102.1922302  59.1631900  99.0212925 101.4885642
  58.4074333 100.0887021 102.2510254  55.3343197  99.0933605 102.1283826
  54.9961708  98.9774670 101.2404361  56.2032965  98.6924771 102.1084833
  51.1930012 100.9469082  98.1180717  50.6294877 100.8559019  97.3497005
  51.0782407 100.1268986  98.5983210  55.8162980 100.2468457 108.0870032
  55.8051620  99.8521255 107.2150536  55.9783619  99.5134530 108.6803803
  48.7394444 102.4420273 100.9564938  49.5315736 102.1011098 100.5411237
  48.9791094 102.5515249 101.8767091  56.7729571 104.6140050  93.4295182
  56.1217551 105.1994130  93.0429196  57.5673934 105.1446244  93.4890220
  50.6985198 101.7029187  93.8282317  51.4716074 101.1558174  93.6895192
  51.0510597 102.5673436  94.0396778  52.5370241 103.0305569 107.0349216
  52.2460107 103.9351200 106.9195882  53.1727225 103.0722097 107.7493285
  53.4626448 100.4082417 103.6250576  54.0590020 100.1838440 102.9107538
  53.5201419  99.6667163 104.2276023  53.0351476  97.8621853  91.4600767
  53.2876997  97.3403374  90.6984230  52.0976035  97.6987998  91.5627450
  58.0794759  96.8657631  99.2675510  58.8657848  96.4477054  98.9165927
  58.3433463  97.7703723  99.4357158  58.2504836 102.3030481  93.9664167
  57.6150669 102.3765108  94.6785071  57.9202243 102.8924080  93.2883246
  63.4803186  96.8032864 100.1708488  64.2128358  96.2332081 100.4046318
  62.7242542  96.4154465 100.6114994  52.7547765  99.7649959  93.6625141
  52.6384023  99.0894862  94.3306226  52.8650025  99.2782333  92.8457295
  55.0979306  99.2260106  97.3671831  54.7337513  98.6990727  98.0784752
  55.9546422  98.8358575  97.1938316  61.0028606  90.5154438 104.6303097
  60.6711931  91.3849849 104.4064312  60.4074220  90.1990722 105.3097127
  54.7384793  94.2550006  92.3633179  54.9059195  95.1230242  92.7303650
  54.5481962  94.4177287  91.4394468  57.4960126 102.7166984 104.0299010
  57.1960849 103.6192023 103.9214817  57.1511185 102.4499168 104.8820162
  50.9472607  99.1680781 100.0635714  50.0223104  99.0356995 100.2713406
  51.1957020  99.9475001 100.5605656  60.8957270  95.2349525 101.7096447
  59.9874147  95.1664933 101.4155208  60.8444865  95.7121470 102.5378272
  54.7174013  96.7107663  93.3479846  54.5973639  97.1564714  94.1865326
  54.0226602  97.0592981  92.7893384  48.3081418  98.8114055 100.8979503
  48.4373799  99.0648534 101.8118915  47.6278870  99.4041763 100.5784158
  52.4780906 109.4811305  96.9969977  52.4004935 110.4319130  97.0758458
  51.8742549 109.1357177  97.6544904  54.9698135  96.6539170 109.6531344
  54.1931469  97.2133090 109.6434209  55.6088698  97.1395953 110.1746214
  62.7618916  93.4365963 103.4874321  62.1193296  93.7298496 102.8414115
  62.2573844  93.3218883 104.2927518  60.4159080  97.1829136  94.1760180
  61.3276936  97.4156523  94.0007878  59.9068727  97.7666180  93.6135259
  53.2244508  99.4624624 109.2149311  53.9659192 100.0009668 108.9384135
  52.5181493 100.0890912 109.3720863  58.6999847 101.6053764 107.8121473
  59.1083203 101.1636175 107.0676105  57.9777109 101.0306392 108.0655666
  55.0530917  96.5426371 105.1855030  55.8992113  96.9665784 105.3289679
  54.9929555  95.8859995 105.8793593  59.0228662 102.1654955 101.5673762
  58.3937524 102.3300669 100.8649829  58.6354324 102.5796564 102.3384726
  62.9017894 103.1009393  98.9218125  62.2168932 103.4808294  98.3715159
  62.9861743 103.7104719  99.6550073  58.2030363  94.2030739 106.8436203
  57.9591295  94.9572800 106.3070479  58.4790293  94.5816087 107.6783450
  60.1568825 100.7469352 105.5213469  60.3685721 101.3901111 104.8447850
  60.1098574  99.9131668 105.0535399  57.7595054  93.3587172 102.4250041
  56.8979533  93.6568426 102.7166779  57.7857489  93.5757571 101.4931074
  54.5756624 101.9029363  98.8323847  55.0394969 102.1817066  98.0428469
  54.3113422 101.0012807  98.6496937  51.4680705 101.4500844 101.7703610
  52.0382062 101.8788113 101.1321094  52.0588817 101.1683429 102.4687796
  53.5125510  98.0252515  95.6413412  54.2149553  98.4773559  96.1087338
  53.1806138  97.3836334  96.2693305  51.9605871  96.6164272 110.0164621
  51.3304532  97.2980553 110.2500018  51.8541959  96.5047353 109.0717759
  47.2550844  96.2836068 100.9430545  46.4649898  96.5393596 100.4670656
  47.7462091  97.0984406 101.0482586  61.2714653 103.6241307 103.6935826
  62.0932097 103.2221494 103.4118508  61.2677056 103.5209541 104.6451942
  49.2065589  96.6480647  97.9014022  48.4096752  96.7599341  98.4197518
  48.9791181  96.9867299  97.0354913  55.0371257 103.1725350 105.8496537
  55.1015689 103.6345758 106.6854709  54.3282181 102.5422715 105.9778847
  45.5388547  96.5366558 103.3745536  45.7896585  97.4213568 103.6403112
  46.0748095  96.3571160 102.6020628  69.3620646  99.9680055 100.0420798
  68.6084355  99.3987454  99.8864802  69.4968188  99.9342720 100.9891432
  54.7519274 104.8393458  95.7175517  54.6164949 105.6844994  96.1460365
  55.2929087 105.0412735  94.9541451  51.2386614  90.9185038 112.3789872
  50.8453560  90.3651236 113.0537516  52.0552754  91.2295616 112.7696390
  48.2048672 102.3568896  96.2903442  48.7173192 103.1512146  96.4409007
  48.8571385 101.6595186  96.2237044  50.0143557 105.4734652  98.3726195
  50.1910185 106.3952617  98.1847179  50.8100390 105.1593071  98.8020575
  54.1554575  92.3342917 109.9710129  54.8964288  92.9350070 109.8914591
  54.3872498  91.5920555 109.4128171  49.2995913  97.5199284 108.2488358
  49.1849428  96.6184541 108.5495457  48.4440431  97.7662981 107.8973175
  56.3787751 105.4617024 109.8475859  55.9351605 104.6753403 109.5296764
  57.0404964 105.6496175 109.1819750  51.1374872 106.9912826 104.3736538
  51.6882297 106.8629889 103.6013532  50.2986348 107.2907715 104.0231430
  58.4768989 105.7419824 107.8757260  58.4587464 106.5628705 107.3837530
  59.3988909 105.6173899 108.1007402  54.9342043 103.2563954 108.7180769
  55.4670380 102.4952242 108.4880077  54.4056124 102.9637606 109.4604923
  58.1011738  88.3624020 104.2474410  57.7576007  89.2525661 104.1713521
  58.4690701  88.1725677 103.3843996  46.1697589 100.6857550  97.0663013
  47.0072811 101.0954558  96.8496720  46.3475856  99.7456992  97.0363207
  58.0662021  98.3532631  92.7546846  57.5508644  99.1237235  92.9935233
  57.7939329  97.6797767  93.3779907  55.6509132  93.1982332  97.8132084
  54.7950728  92.8089182  97.6337723  56.0636084  93.2774292  96.9531870
  57.1808278  90.7328675 102.2123644  56.6773074  90.6958810 101.3991449
  57.4738885  91.6421418 102.2720300  53.4251164  90.8167405 101.2189825
  54.2904161  90.6210213 100.8595715  53.4928673  90.5877756 102.1459182
  63.0396295 101.1064985  94.6900019  62.2625738 100.7676145  94.2455181
  63.7187776 101.1117609  94.0154984  57.8548324  96.2259723  94.5806627
  57.5498459  96.5405872  95.4316770  58.8078766  96.3041143  94.6233960
  56.2994756 102.3849946  96.2299581  55.7716117 101.6502706  95.9172818
  55.7982258 103.1624623  95.9839549  61.2787602 100.5798967 101.3466627
  60.6211276 101.2698228 101.4346756  62.0828001 100.9695399 101.6900613
  51.0313483  93.0469612  98.5906192  51.6057235  92.8244794  97.8579385
  51.6184466  93.1158307  99.3434794  60.0893061  98.9343339  99.3970569
  60.6024942  99.5673331  99.8992279  60.7394284  98.3344535  99.0313929
  51.3583070  95.0774074  92.6102078  50.5220383  95.4148760  92.9311352
  51.2187840  94.9423053  91.6729215  53.3336151  89.9210861  97.3181262
  52.6800563  89.6059879  96.6937876  53.2916625  89.2986602  98.0441085
  54.4447356 100.2030156  89.2334554  53.5374418  99.9719410  89.4325703
  54.9418388  99.4067776  89.4208535  57.3515435 108.9127664  92.1531240
  56.6777134 109.2159360  92.7616198  57.7381257 109.7156744  91.8036697
  56.5673891  96.4092795 101.6428909  55.6496453  96.6307742 101.4850597
  56.9834035  96.4839105 100.7840617  57.3508939  97.8084211  96.7731590
  58.0980758  98.3205608  96.4638712  57.6200529  97.4868263  97.6335983
  55.6235589 100.3042751  93.7558544  54.7146809 100.0201784  93.8531014
  55.6530673 100.7241830  92.8961851  60.8554857 103.9149341  97.5249711
  60.4017184 103.0740251  97.5814902  60.2248824 104.5510739  97.8624492
  59.7987776  94.8441327  98.7550379  59.0610533  94.3318713  99.0860621
  60.0514550  94.4041708  97.9433656  59.2987796 105.7525838  98.4599530
  59.5910770 106.3130895  97.7411895  59.8086417 106.0454399  99.2152689
  59.8999404  87.6217579  99.3492148  60.2058280  86.7614942  99.0618063
  60.6252009  88.2135199  99.1491142  46.1923760  98.0248265  97.7373746
  45.9948160  97.4317626  97.0124813  45.6370424  97.7200476  98.4549685
  54.1720483  97.9171372  99.8568339  54.2269093  96.9645208  99.7810816
  53.3611685  98.0730811 100.3409638  55.3211677 101.8451495  91.0946622
  54.8831107 101.1287354  90.6352260  56.0622118 102.0727610  90.5331714
  52.1112843  96.5348432  97.6158718  51.2980709  96.8342602  98.0223910
  52.6071838  96.1404120  98.3333200  54.2621421 106.5306189  99.5492983
  54.2197600 106.7567035  98.6201515  55.1784120 106.2969563  99.6978784
  57.7087055  96.9990256 106.4473612  58.0636443  97.2261729 107.3068078
  58.3559186  97.3308633 105.8250867  63.4384792 100.1208692  97.1522941
  63.3002691 100.3110288  96.2244130  63.0821011 100.8828075  97.6090992
  51.6026918  94.1066787 103.2319953  52.2426297  93.9655546 102.5342916
  50.7704449  93.8201301 102.8558555  63.4654172 102.1885219 102.1634213
  63.8990678 102.0960508 103.0117267  64.1785752 102.1642720 101.5254229
  52.3787222 103.4069218  99.3454946  53.1727821 102.9119538  99.1437520
  51.6678914 102.8787081  98.9822651  57.1982066 105.7887313 103.6967313
  57.2519089 106.3578249 104.4645029  56.3296848 105.9589198 103.3321350
  48.6869985  97.5512299  95.4214698  47.7567574  97.4896755  95.6384660
  48.7827457  97.0288252  94.6251339  48.6055535  94.0767112  98.0092940
  48.8662352  94.9912445  97.9002100  49.4272707  93.6091555  98.1589553
  50.0780460  95.4904869 105.1791764  50.7503513  95.2822231 104.5304413
  49.2510246  95.2926955 104.7396997  64.3269721 102.2308920 104.6967098
  64.5205611 103.1354730 104.9426373  64.2270339 101.7716339 105.5305683
  55.9806032  92.1166810 107.1957425  55.3333947  92.8156760 107.1021902
  56.7507047  92.5502954 107.5633673  59.3884830 102.3815662 110.2707979
  59.2370336 102.1526214 109.3538062  59.3789509 103.3386264 110.2839324
  56.1570166  99.9547575 105.2554245  57.0862226 100.1058735 105.0823212
  55.7361196 100.0431596 104.4002892  54.9558498 103.9798240 103.0252783
  54.8169584 103.6117024 103.8978721  54.1673094 104.4945879 102.8536740
  55.5506650 109.0807336  94.3678319  55.7258406 108.6095379  95.1823942
  54.8639438 109.7073102  94.5959580  56.5063713 103.3579842 100.4141620
  56.1713546 103.3180612 101.3099270  56.0067659 102.6924558  99.9412031
  50.4807957  98.7647472 105.9394202  50.3427755  98.0327711 106.5405741
  51.3912881  98.6756372 105.6578389  59.4422905 100.7035877  90.6878680
  58.8252075  99.9782705  90.5911733  58.9739393 101.4645237  90.3445754
  53.1090258  98.4767432 105.4277881  53.8189876  97.8360624 105.3864500
  53.0659566  98.7280327 106.3504062  61.0977036 105.4134785 108.3484460
  61.0389583 104.7294005 107.6815043  61.4996555 106.1553775 107.8965086
  51.8219192  95.4632650 107.2473521  51.2856549  95.0123388 107.8995117
  51.2335900  95.5978558 106.5043985  50.1167735 112.2296699 101.1418179
  50.3564333 112.8615223 101.8197198  49.2736932 111.8784739 101.4283539
  51.2321451  94.9221301  89.8099984  50.3550917  94.8010102  89.4462231
  51.7079204  94.1307379  89.5578873  61.0994444 103.3774369 106.5798440
  60.2121222 103.0400291 106.7024839  61.6692995 102.6457400 106.8167205
  42.7523591  99.7098461  99.9041491  43.4394631  99.3960191  99.3162507
  42.5971720 100.6139825  99.6308743  47.5558313  94.5988657 104.3326515
  47.4716502  93.9914327 103.5976925  46.7341019  95.0897676 104.3336012
  54.6295597 108.0375821 103.5459683  54.5565769 108.8430793 104.0578988
  54.1872990 108.2367787 102.7207705  54.4185377 107.2747591  97.0562505
  53.6352899 107.8169271  97.1500729  55.1178122 107.7921571  97.4556746
  57.7282027  93.0842221  99.6996710  58.2250726  92.3312183  99.3797780
  56.9569008  93.1206537  99.1339920  65.5811784  98.7882586 101.3415002
  65.5701661  99.6707302 100.9708935  64.7129164  98.4354137 101.1469539
  57.0894281 107.9362655 105.7017842  57.8022253 108.5710120 105.6293743
  56.5984309 108.0326521 104.8857844  58.8111808 101.8413908  97.2735134
  57.8768086 101.9615370  97.1039838  58.9888476 100.9386375  97.0095143
  54.3116996  95.2259604  99.4268395  53.9414783  94.6730644 100.1149300
  54.8076088  94.6217737  98.8743395  62.1984359  97.6831227  97.8085168
  62.6644811  98.5159219  97.7345470  62.6491859  97.2176209  98.5130426
  52.1406194 105.6857099 106.5223413  52.8415654 106.3193582 106.6752807
  51.6701309 106.0271830 105.7619052  60.2660590 104.0275049  94.8071320
  60.5420434 103.9131643  95.7165194  59.3965089 103.6292533  94.7683493
  60.1701022  90.0511814 101.8476069  59.2564101  90.2816041 102.0158276
  60.5994123  90.1350258 102.6990101  59.9407480  98.2401706 104.3475963
  59.2878930  98.4877614 103.6928416  60.3187860  97.4265844 104.0138440
  56.9014654 108.2761399  98.4504133  57.0837049 107.4583055  98.9131886
  57.7247640 108.4929092  98.0129023  57.2356820 107.2029585  95.7119182
  57.7644586 106.6922039  95.0989344  57.4985039 106.8872115  96.5764715
  55.9895053  98.9821517 110.8342000  55.3135690  98.8815647 111.5044375
  56.8122687  98.8260731 111.2977997  47.7373912 105.2193454 103.4554515
  48.3227349 104.4737142 103.5882420  47.5398751 105.5297411 104.3391179
  50.5912567 108.2544701  98.4716958  49.9222943 108.7390829  97.9880998
  50.4525437 108.5013922  99.3860336  42.3291567  97.7899054 102.1758959
  42.3675666  97.2562645 102.9696077  41.8231860  97.2634260 101.5569936
  54.7317836 110.2888445 105.0699616  55.2836144 110.4520066 105.8348701
  55.0724030 110.8792883 104.3979641  49.7082329  92.6363595 105.6721501
  49.7723656  93.4978425 105.2598899  49.6449450  92.0237596 104.9393859
  49.1834602  94.7086727 109.3194535  49.8106641  94.3263804 109.9332059
  48.3262521  94.4900929 109.6850228  45.9600145  96.5163156  95.2512890
  46.2553586  95.6073835  95.1979944  45.0588180  96.4950896  94.9293892
  57.8686223 108.2370420 102.0563298  57.7437363 107.4360160 101.5474244
  58.5265314 108.7316614 101.5677268  49.4894392  94.5919153 101.2340439
  48.7680977  95.2055120 101.0947912  50.2787647  95.1276918 101.1557085
  59.9321132 106.0379440 103.6842848  58.9851467 105.9184792 103.6121175
  60.2803905 105.1501938 103.7669110  52.2920705  91.9273579 107.5081090
  52.8155107  92.1735876 108.2707400  52.0733038  92.7593614 107.0884228
  47.6887986  94.1977254  95.3752215  47.3600692  93.3174633  95.1927321
  48.0427357  94.1424923  96.2628604  56.9367565 105.8332157  99.8847201
  56.7892527 104.9048864 100.0654771  57.7621059 105.8552247  99.4004276
  50.8029809  94.4850224  95.7427693  51.1425882  95.0136145  95.0206301
  51.2501930  94.8230630  96.5186259  60.5401687 106.6560715 100.9712073
  61.4648234 106.4503577 100.8336525  60.3716990 106.4077116 101.8801415
  53.4973250  92.8687274 105.1930761  53.1570070  92.0695087 105.5951441
  52.7912256  93.1688985 104.6207594  54.1489722  89.9536587 103.6458084
  54.9715791  89.4797065 103.5236974  54.3927785  90.7327071 104.1456770
  52.7897956  92.9824845  93.9420986  53.5106319  93.3606098  93.4384702
  52.1663261  93.7013722  94.0455964  56.9329079  93.6869994  94.8779318
  57.1492694  94.5694632  94.5768146  56.4523146  93.2956208  94.1484960
  51.6728301  96.6455707 101.4550063  51.5272881  96.9596010 102.3474344
  51.1953504  97.2640608 100.9020961  53.5324684  93.6358255 101.5030952
  53.5186252  92.7399349 101.1663250  54.2497112  93.6428919 102.1369238
  55.3850814  94.0695596 103.5484079  55.1268592  94.9912666 103.5468410
  54.8535855  93.6726030 104.2384544  60.3297003 107.1746383  96.3274165
  60.5033881 106.6092805  95.5748017  60.8225894 107.9747278  96.1453655
  46.1473963  99.1861052 104.3937724  45.6027431  99.9620860 104.5257998
  47.0253313  99.5331856 104.2356845  52.9361580  92.5172636  96.7718522
  53.0577491  91.5889282  96.9709410  52.6463622  92.5311322  95.8596838
  55.8052770  90.2027546  99.9085242  55.8274467  90.2666879  98.9537222
  56.2220829  89.3632055 100.1025748  66.1836394  99.9382806  97.9464465
  66.6267540  99.1890131  97.5483588  65.3062905  99.9292942  97.5638197
  61.3172176 106.4913147  93.4271063  62.0123080 107.1119840  93.6458378
  61.6595326 105.6408498  93.7023441  46.9339985  98.3130948 107.2867881
  46.1921721  98.4613583 107.8732511  46.6132729  98.5739214 106.4234630
  63.2163599 103.9412853  94.9558394  63.7414923 104.2800125  94.2307714
  63.1285951 103.0059868  94.7721529  54.8783647 107.8546926 107.0848271
  55.1870774 107.6096073 107.9570970  55.6759129 108.0593565 106.5967141
  54.9004259 110.0084836  99.3153647  54.4609250 109.5161215 100.0086504
  55.6512376 109.4657804  99.0745722  47.3796598 106.1996377  99.3178275
  48.2054618 105.9000149  98.9376919  47.0290650 105.4303999  99.7668064
  52.3478132 105.5522845 101.3875949  51.7258141 104.8893550 101.0878177
  53.0182998 105.5783977 100.7049597  45.5805203 104.1182703 100.2767209
  44.7437112 103.6904878 100.0951210  45.5528849 104.3115147 101.2138000
  52.4202659  94.0304633 110.9808455  52.4690815  94.9066756 110.5986224
  52.9625173  93.4882026 110.4080098  63.0255380 101.4238223 107.5742320
  63.0753385 101.2588230 108.5157843  62.9169303 100.5565482 107.1840201
  51.9091638 104.1026768  94.8634409  52.0579759 104.7862233  94.2101082
  52.7158082 104.0831858  95.3783865  60.3159142  97.4069151 108.8901627
  61.2169005  97.2675616 108.5985625  60.3907117  97.5723606 109.8299805
  54.6501948  94.7836005 107.7354813  53.7805257  95.0769572 107.4637402
  54.8861428  95.3676450 108.4562077  64.5273577 103.8435164 107.8184342
  64.2358385 104.2065145 108.6547803  63.9145708 103.1302172 107.6397674
  65.7269259 101.4088044 100.3386912  66.5616150 101.8477848 100.5024473
  65.8628388 100.9326697  99.5195158  62.7760765  98.9667779 106.2864400
  63.2514886  99.1595425 105.4783251  61.8526330  99.0226965 106.0407784
  49.6644271 100.1291946  95.8695478  49.4190313  99.2254276  96.0675688
  49.8340186 100.1309096  94.9274956  57.3540981  91.0015622 105.2520234
  57.8722925  91.7376649 104.9266722  56.9996114  91.3079616 106.0866993
  48.9339919  95.8620304  93.3681640  48.2409164  95.9364659  92.7121676
  48.6891671  95.0980647  93.8903157  57.6053576  87.4215905 100.7721130
  57.8855329  86.7539094 101.3981557  58.3904182  87.6145001 100.2595794
  55.4087044 106.5974899  92.3346157  54.8361011 107.2165086  91.8816629
  55.9819838 107.1474261  92.8686079  61.4762434  95.8433539 104.5192706
  62.4279857  95.9431637 104.5404930  61.3065884  95.0511807 105.0290790
  59.4976813  92.9289122 104.7052106  58.9026745  93.2094135 104.0098595
  59.2126510  93.4183023 105.4768848  58.6284304 106.8812049  93.4654739
  59.5614977 106.8157611  93.6687615  58.5407517 107.7168316  93.0069272
  61.2572320 106.1977919  90.4258687  61.1785952 105.8637783  91.3194445
  62.0781987 106.6899687  90.4250159  63.9550512  99.0639659 103.6335005
  63.9226832  98.1255659 103.8194689  64.5651135  99.1423695 102.9000830
  55.7933842  97.9335712  89.6762209  56.7392947  97.8041920  89.7450627
  55.4148087  97.1950373  90.1531637  64.1045000  95.8550702 103.6793288
  63.5884049  95.0709159 103.4923217  64.9884949  95.5269419 103.8439808
  61.7655727  89.5991718  99.6389101  61.5680548  89.2906806 100.5232433
  62.3755433  90.3253357  99.7687031  69.7727061 100.1255665 102.7741042
  70.5030450  99.8640954 103.3348745  69.1634007  99.3884387 102.8143110
  67.8542359  98.2663528 103.3715493  67.1275522  98.1319493 102.7631985
  67.4389645  98.5740357 104.1772211  55.6772535 101.9853458 111.1362866
  56.5975545 102.1632057 111.3302913  55.6422118 101.0409503 110.9842565
  53.9776760  95.8585688  89.6117094  53.0708215  95.5618801  89.6879808
  54.2552741  95.5615506  88.7451381  44.8954700  97.1792051 100.0616141
  44.5757484  96.3257360  99.7690515  44.3488128  97.3940630 100.8174108
  48.6734608  99.8954492 103.7785647  48.8920617 100.8271600 103.7973681
  49.0860381  99.5362467 104.5640451  55.5938825  90.4022578  95.7661336
  54.7839554  90.0569663  96.1416582  56.2823242  90.0930121  96.3548947
  57.5229374  89.4800624  97.3885632  58.0760412  89.8996078  98.0475656
  57.7599460  88.5536373  97.4308588  53.5462473  95.4687698 113.1688396
  53.4459200  96.4182055 113.1000487  53.3284015  95.1405937 112.2964466
  52.7475544  92.7172623  89.7529074  53.6094708  93.0427522  90.0124891
  52.9325888  91.9304119  89.2402139  44.7642960 100.7994963 102.0309262
  44.0706431 100.3848916 101.5179217  45.5115951 100.8415499 101.4342681
  60.9008181  91.5901150  96.8964297  60.3206850  92.2485954  96.5142349
  60.6344113  90.7678494  96.4851714  59.3511747  90.9906207  99.0985617
  59.8511525  91.1022742  98.2899936  59.9947355  90.6867260  99.7386425
  53.4093743  98.8984837 111.9853458  52.9260825  99.6985197 112.1917347
  53.4954682  98.9092782 111.0320902  46.6779703 100.7313217  99.9075277
  46.6550391 100.8300904  98.9557160  46.9880339 101.5778367 100.2292443
  49.3367080 102.7889372 104.0221892  50.2910334 102.7573314 103.9551823
  49.1379604 102.3279995 104.8372118  49.9266463 101.3590488 106.5892689
  50.7459352 101.8534566 106.6127527  50.2003270 100.4422456 106.5610257
  59.6833059  93.7501240  95.9520645  58.7958914  94.0350891  95.7340840
  60.0987048  93.5895003  95.1047922  63.0347595  93.7747761  99.6674984
  63.8107985  94.2644213  99.9399601  62.3095729  94.2005815 100.1246854
  65.4720154  94.4875380 100.7248925  66.0664644  94.2471116 100.0142233
  65.5446737  93.7682511 101.3522461  47.6917309 108.3308991 101.0392090
  47.5571777 107.5709392 100.4730088  47.2749371 109.0549891 100.5720879
  58.8276272 103.5145915  90.0468665  59.5312122 103.7195917  90.6626321
  58.1038921 104.0822677  90.3117748  59.6574083  99.2655776  96.1670935
  59.6009284  99.7224327  95.3278567  60.2102425  98.5046461  95.9893778
  63.4678888  95.0545508  96.9921055  63.2115823  94.6542144  97.8229262
  62.8431756  95.7689302  96.8671194  67.7791226  97.7941581  99.4992346
  67.2190784  97.8634770 100.2723908  67.1734730  97.6182566  98.7791842
  50.8486435 109.2278308 101.2510532  50.7318819 110.1723741 101.1489223
  50.0278881 108.9251870 101.6396331  60.7362970 103.9528444  92.0967125
  61.5708574 103.5209642  91.9144600  60.5747313 103.7810458  93.0244019
  60.3908862 100.4560557  93.4623464  60.3357666 100.2904829  92.5211908
  59.7654917 101.1636590  93.6185654  45.1801377  95.6928622 107.2884886
  45.8260240  95.1827576 107.7772112  44.9718528  96.4297303 107.8628312
  53.7004987  89.9568666  93.0408783  53.6883657  90.9010506  93.1977054
  54.5928409  89.7738812  92.7468244  51.8740949 109.8806570 104.4666461
  52.7768196 109.9130180 104.7832956  51.6478319 108.9507021 104.4812796
  53.6294551 108.6337557 101.1276539  52.6790182 108.6339418 101.0140912
  53.9327037 107.8870291 100.6112574  57.5157107  86.5511443  97.2954719
  56.7489503  85.9969930  97.4411402  57.9267812  86.6233312  98.1568871
  49.5198868  92.8396239 111.3859901  50.3830329  92.4833044 111.5963225
  48.9464278  92.5010133 112.0735305  62.0323767 116.2761000  98.1180717
  61.4688632 116.1850936  97.3497005  61.9176162 115.4560904  98.5983210
  59.5788199 117.7712191 100.9564938  60.3709491 117.4303016 100.5411237
  59.8184849 117.8807166 101.8767091  67.6123325 119.9431967  93.4295182
  66.9611305 120.5286048  93.0429196  68.4067688 120.4738162  93.4890220
  61.5378953 117.0321104  93.8282317  62.3109829 116.4850091  93.6895192
  61.8904351 117.8965354  94.0396778  63.8745230 113.1913771  91.4600767
  64.1270751 112.6695292  90.6984230  62.9369789 113.0279916  91.5627450
  68.9188513 112.1949549  99.2675510  69.7051602 111.7768972  98.9165927
  69.1827218 113.0995641  99.4357158  69.0898591 117.6322399  93.9664167
  68.4544424 117.7057026  94.6785071  68.7595997 118.2215998  93.2883246
  63.5941519 115.0941876  93.6625141  63.4777777 114.4186780  94.3306226
  63.7043779 114.6074250  92.8457295  65.9373060 114.5552024  97.3671831
  65.5731267 114.0282645  98.0784752  66.7940176 114.1650493  97.1938316
  65.5778547 109.5841923  92.3633179  65.7452949 110.4522160  92.7303650
  65.3875716 109.7469205  91.4394468  61.7866362 114.4972699 100.0635714
  60.8616858 114.3648913 100.2713406  62.0350775 115.2766918 100.5605656
  65.5567768 112.0399581  93.3479846  65.4367393 112.4856632  94.1865326
  64.8620356 112.3884898  92.7893384  59.1475173 114.1405973 100.8979503
  59.2767554 114.3940451 101.8118915  58.4672624 114.7333681 100.5784158
  71.2552834 112.5121054  94.1760180  72.1670690 112.7448441  94.0007878
  70.7462481 113.0958098  93.6135259  68.5988809 108.6879090 102.4250041
  67.7373288 108.9860343 102.7166779  68.6251244 108.9049489 101.4931074
  65.4150378 117.2321280  98.8323847  65.8788724 117.5108983  98.0428469
  65.1507176 116.3304725  98.6496937  64.3519264 113.3544433  95.6413412
  65.0543308 113.8065477  96.1087338  64.0199893 112.7128252  96.2693305
  58.0944598 111.6127986 100.9430545  57.3043652 111.8685514 100.4670656
  58.5855846 112.4276323 101.0482586  60.0459344 111.9772565  97.9014022
  59.2490507 112.0891259  98.4197518  59.8184936 112.3159217  97.0354913
  56.3782301 111.8658476 103.3745536  56.6290340 112.7505486 103.6403112
  56.9141850 111.6863077 102.6020628  65.5913029 120.1685375  95.7175517
  65.4558704 121.0136911  96.1460365  66.1322841 120.3704653  94.9541451
  59.0442426 117.6860814  96.2903442  59.5566947 118.4804064  96.4409007
  59.6965139 116.9887104  96.2237044  60.8537311 120.8026570  98.3726195
  61.0303939 121.7244534  98.1847179  61.6494145 120.4884989  98.8020575
  68.9405493 103.6915937 104.2474410  68.5969762 104.5817579 104.1713521
  69.3084455 103.5017595 103.3843996  57.0091343 116.0149468  97.0663013
  57.8466565 116.4246476  96.8496720  57.1869611 115.0748910  97.0363207
  68.9055775 113.6824548  92.7546846  68.3902399 114.4529153  92.9935233
  68.6333084 113.0089685  93.3779907  66.4902886 108.5274249  97.8132084
  65.6344483 108.1381100  97.6337723  66.9029838 108.6066210  96.9531870
  68.0202033 106.0620593 102.2123644  67.5166828 106.0250728 101.3991449
  68.3132640 106.9713335 102.2720300  64.2644919 106.1459322 101.2189825
  65.1297916 105.9502131 100.8595715  64.3322428 105.9169674 102.1459182
  73.8790049 116.4356903  94.6900019  73.1019492 116.0968063  94.2455181
  74.5581530 116.4409526  94.0154984  68.6942078 111.5551641  94.5806627
  68.3892214 111.8697790  95.4316770  69.6472521 111.6333060  94.6233960
  67.1388510 117.7141864  96.2299581  66.6109872 116.9794623  95.9172818
  66.6376013 118.4916540  95.9839549  61.8707238 108.3761530  98.5906192
  62.4450990 108.1536712  97.8579385  62.4578220 108.4450225  99.3434794
  62.1976825 110.4065991  92.6102078  61.3614137 110.7440678  92.9311352
  62.0581595 110.2714971  91.6729215  64.1729906 105.2502779  97.3181262
  63.5194318 104.9351796  96.6937876  64.1310380 104.6278520  98.0441085
  65.2841110 115.5322074  89.2334554  64.3768172 115.3011328  89.4325703
  65.7812142 114.7359693  89.4208535  68.1909189 124.2419581  92.1531240
  67.5170888 124.5451278  92.7616198  68.5775011 125.0448662  91.8036697
  67.4067646 111.7384713 101.6428909  66.4890207 111.9599660 101.4850597
  67.8227790 111.8131023 100.7840617  68.1902694 113.1376128  96.7731590
  68.9374513 113.6497525  96.4638712  68.4594283 112.8160181  97.6335983
  66.4629344 115.6334669  93.7558544  65.5540563 115.3493702  93.8531014
  66.4924428 116.0533748  92.8961851  70.6381531 110.1733245  98.7550379
  69.9004288 109.6610631  99.0860621  70.8908304 109.7333626  97.9433656
  70.7393158 102.9509497  99.3492148  71.0452035 102.0906860  99.0618063
  71.4645763 103.5427117  99.1491142  57.0317514 113.3540183  97.7373746
  56.8341914 112.7609544  97.0124813  56.4764178 113.0492393  98.4549685
  65.0114238 113.2463290  99.8568339  65.0662848 112.2937126  99.7810816
  64.2005440 113.4022729 100.3409638  66.1605432 117.1743413  91.0946622
  65.7224862 116.4579272  90.6352260  66.9015873 117.4019527  90.5331714
  62.9506598 111.8640349  97.6158718  62.1374463 112.1634520  98.0223910
  63.4465592 111.4696038  98.3333200  74.2778546 115.4500610  97.1522941
  74.1396445 115.6402206  96.2244130  73.9214765 116.2119993  97.6090992
  62.4420673 109.4358705 103.2319953  63.0820052 109.2947464 102.5342916
  61.6098203 109.1493218 102.8558555  63.2180977 118.7361135  99.3454946
  64.0121575 118.2411455  99.1437520  62.5072669 118.2078998  98.9822651
  59.5263740 112.8804217  95.4214698  58.5961328 112.8188673  95.6384660
  59.6221212 112.3580170  94.6251339  59.4449289 109.4059030  98.0092940
  59.7056106 110.3204363  97.9002100  60.2666461 108.9383472  98.1589553
  60.9174214 110.8196787 105.1791764  61.5897268 110.6114149 104.5304413
  60.0904001 110.6218873 104.7396997  66.3900404 124.4099254  94.3678319
  66.5652160 123.9387297  95.1823942  65.7033192 125.0365020  94.5959580
  70.2816659 116.0327794  90.6878680  69.6645830 115.3074622  90.5911733
  69.8133148 116.7937155  90.3445754  62.0715205 110.2513219  89.8099984
  61.1944672 110.1302019  89.4462231  62.5472958 109.4599297  89.5578873
  53.5917345 115.0390378  99.9041491  54.2788385 114.7252108  99.3162507
  53.4365474 115.9431743  99.6308743  58.3952067 109.9280575 104.3326515
  58.3110256 109.3206244 103.5976925  57.5734774 110.4189593 104.3336012
  68.5675781 108.4134138  99.6996710  69.0644481 107.6604101  99.3797780
  67.7962763 108.4498455  99.1339920  69.6505562 117.1705826  97.2735134
  68.7161841 117.2907288  97.1039838  69.8282231 116.2678292  97.0095143
  65.1510750 110.5551521  99.4268395  64.7808538 110.0022562 100.1149300
  65.6469843 109.9509655  98.8743395  73.0378113 113.0123145  97.8085168
  73.5038566 113.8451137  97.7345470  73.4885614 112.5468127  98.5130426
  71.1054345 119.3566966  94.8071320  71.3814188 119.2423561  95.7165194
  70.2358843 118.9584451  94.7683493  71.0094776 105.3803732 101.8476069
  70.0957856 105.6107959 102.0158276  71.4387878 105.4642176 102.6990101
  68.0750574 122.5321502  95.7119182  68.6038340 122.0213957  95.0989344
  68.3378794 122.2164032  96.5764715  53.1685321 113.1190972 102.1758959
  53.2069421 112.5854562 102.9696077  52.6625614 112.5926177 101.5569936
  60.5476084 107.9655512 105.6721501  60.6117410 108.8270343 105.2598899
  60.4843204 107.3529514 104.9393859  56.7993899 111.8455074  95.2512890
  57.0947340 110.9365752  95.1979944  55.8981935 111.8242813  94.9293892
  60.3288146 109.9211070 101.2340439  59.6074732 110.5347038 101.0947912
  61.1181402 110.4568835 101.1557085  58.5281741 109.5269172  95.3752215
  58.1994447 108.6466550  95.1927321  58.8821111 109.4716840  96.2628604
  61.6423564 109.8142141  95.7427693  61.9819636 110.3428063  95.0206301
  62.0895684 110.1522547  96.5186259  64.3367005 108.1979192 105.1930761
  63.9963825 107.3987005 105.5951441  63.6306011 108.4980903 104.6207594
  64.9883476 105.2828504 103.6458084  65.8109546 104.8088983 103.5236974
  65.2321540 106.0618988 104.1456770  63.6291711 108.3116763  93.9420986
  64.3500073 108.6898016  93.4384702  63.0057015 109.0305640  94.0455964
  67.7722834 109.0161912  94.8779318  67.9886448 109.8986550  94.5768146
  67.2916901 108.6248125  94.1484960  62.5122055 111.9747625 101.4550063
  62.3666636 112.2887928 102.3474344  62.0347259 112.5932525 100.9020961
  64.3718438 108.9650173 101.5030952  64.3580007 108.0691266 101.1663250
  65.0890866 108.9720837 102.1369238  66.2244569 109.3987513 103.5484079
  65.9662347 110.3204584 103.5468410  65.6929609 109.0017948 104.2384544
  56.9867717 114.5152969 104.3937724  56.4421185 115.2912777 104.5257998
  57.8647067 114.8623774 104.2356845  63.7755334 107.8464553  96.7718522
  63.8971245 106.9181200  96.9709410  63.4857376 107.8603239  95.8596838
  66.6446524 105.5319464  99.9085242  66.6668221 105.5958797  98.9537222
  67.0614583 104.6923972 100.1025748  72.1565930 121.8205065  93.4271063
  72.8516835 122.4411757  93.6458378  72.4989080 120.9700416  93.7023441
  74.0557353 119.2704770  94.9558394  74.5808677 119.6092043  94.2307714
  73.9679706 118.3351786  94.7721529  58.2190353 121.5288294  99.3178275
  59.0448373 121.2292066  98.9376919  57.8684405 120.7595917  99.7668064
  56.4198958 119.4474621 100.2767209  55.5830866 119.0196795 100.0951210
  56.3922603 119.6407064 101.2138000  62.7485393 119.4318686  94.8634409
  62.8973513 120.1154150  94.2101082  63.5551836 119.4123776  95.3783865
  60.5038026 115.4583864  95.8695478  60.2584068 114.5546194  96.0675688
  60.6733940 115.4601014  94.9274956  59.7733673 111.1912221  93.3681640
  59.0802918 111.2656576  92.7121676  59.5285425 110.4272565  93.8903157
  68.4447330 102.7507823 100.7721130  68.7249084 102.0831012 101.3981557
  69.2297937 102.9436918 100.2595794  66.2480798 121.9266816  92.3346157
  65.6754766 122.5457004  91.8816629  66.8213592 122.4766178  92.8686079
  69.4678058 122.2103967  93.4654739  70.4008731 122.1449528  93.6687615
  69.3801271 123.0460233  93.0069272  72.0966075 121.5269837  90.4258687
  72.0179706 121.1929701  91.3194445  72.9175742 122.0191605  90.4250159
  66.6327597 113.2627629  89.6762209  67.5786702 113.1333837  89.7450627
  66.2541842 112.5242291  90.1531637  72.6049482 104.9283635  99.6389101
  72.4074303 104.6198723 100.5232433  73.2149187 105.6545274  99.7687031
  64.8170514 111.1877606  89.6117094  63.9101970 110.8910718  89.6879808
  65.0946495 110.8907424  88.7451381  55.7348455 112.5083969 100.0616141
  55.4151239 111.6549277  99.7690515  55.1881883 112.7232547 100.8174108
  66.4332580 105.7314495  95.7661336  65.6233308 105.3861580  96.1416582
  67.1216997 105.4222039  96.3548947  68.3623128 104.8092542  97.3885632
  68.9154167 105.2287996  98.0475656  68.5993215 103.8828290  97.4308588
  63.5869299 108.0464541  89.7529074  64.4488463 108.3719439  90.0124891
  63.7719643 107.2596037  89.2402139  55.6036715 116.1286881 102.0309262
  54.9100186 115.7140833 101.5179217  56.3509706 116.1707417 101.4342681
  71.7401935 106.9193067  96.8964297  71.1600604 107.5777871  96.5142349
  71.4737868 106.0970412  96.4851714  70.1905502 106.3198125  99.0985617
  70.6905280 106.4314660  98.2899936  70.8341110 106.0159178  99.7386425
  57.5173457 116.0605134  99.9075277  57.4944145 116.1592822  98.9557160
  57.8274094 116.9070285 100.2292443  70.5226813 109.0793158  95.9520645
  69.6352668 109.3642808  95.7340840  70.9380802 108.9186921  95.1047922
  73.8741349 109.1039679  99.6674984  74.6501740 109.5936131  99.9399601
  73.1489484 109.5297733 100.1246854  69.6670027 118.8437832  90.0468665
  70.3705877 119.0487835  90.6626321  68.9432676 119.4114594  90.3117748
  70.4967837 114.5947694  96.1670935  70.4403038 115.0516245  95.3278567
  71.0496179 113.8338378  95.9893778  74.3072643 110.3837426  96.9921055
  74.0509577 109.9834061  97.8229262  73.6825511 111.0981219  96.8671194
  71.5756724 119.2820362  92.0967125  72.4102328 118.8501560  91.9144600
  71.4141067 119.1102375  93.0244019  71.2302616 115.7852475  93.4623464
  71.1751420 115.6196746  92.5211908  70.6048672 116.4928508  93.6185654
  56.0195131 111.0220539 107.2884886  56.6653995 110.5119493 107.7772112
  55.8112282 111.7589221 107.8628312  64.5398742 105.2860584  93.0408783
  64.5277412 106.2302424  93.1977054  65.4322164 105.1030729  92.7468244
  68.3550861 101.8803361  97.2954719  67.5883257 101.3261847  97.4411402
  68.7661566 101.9525229  98.1568871  73.0370579 125.7357909  92.6102078
  72.2007892 126.0732595  92.9311352  72.8975349 125.6006889  91.6729215
  72.9108960 125.5805136  89.8099984  72.0338426 125.4593937  89.4462231
  73.3866713 124.7891215  89.5578873  75.6564269 126.5169523  89.6117094
  74.7495724 126.2202636  89.6879808  75.9340250 126.2199341  88.7451381
  74.4263053 123.3756459  89.7529074  75.2882217 123.7011357  90.0124891
  74.6113397 122.5887954  89.2402139  75.3792496 120.6152502  93.0408783
  75.3671166 121.5594341  93.1977054  76.2715918 120.4322647  92.7468244
  15.1678474  14.8300629  88.9167608  15.8056884  14.7107377  88.2130948
  15.0499316  15.7781473  88.9755560   7.8354996  16.6363534  84.8426024
   7.2719861  16.5453471  84.0742312   7.7207391  15.8163438  85.3228517
  13.4154554  20.3034501  80.1540489  12.7642534  20.8888582  79.7674503
  14.2098917  20.8340696  80.2135526   7.3410181  17.3923639  80.5527623
   8.1141057  16.8452626  80.4140499   7.6935580  18.2567888  80.7642085
   9.6776459  13.5516305  78.1846073   9.9301980  13.0297826  77.4229536
   8.7401018  13.3882450  78.2872757  14.7219742  12.5552083  85.9920816
  15.5082831  12.1371506  85.6411233  14.9858446  13.4598175  86.1602465
  14.8929819  17.9924933  80.6909473  14.2575652  18.0659560  81.4030378
  14.5627226  18.5818532  80.0128552  20.1228169  12.4927316  86.8953795
  20.8553341  11.9226533  87.1291624  19.3667525  12.1048917  87.3360300
   9.3972748  15.4544411  80.3870448   9.2809006  14.7789314  81.0551532
   9.5075008  14.9676785  79.5702601  11.7404289  14.9154558  84.0917137
  11.3762496  14.3885179  84.8030059  12.5971405  14.5253027  83.9183623
  11.3598997  12.4002115  80.0725153  11.2398622  12.8459166  80.9110633
  10.6651585  12.7487433  79.5138691   9.1205889  25.1705757  83.7215284
   9.0429919  26.1213582  83.8003764   8.5167532  24.8251629  84.3790210
  17.0584063  12.8723588  80.9005487  17.9701919  13.1050975  80.7253184
  16.5493710  13.4560632  80.3380565  15.6653645  17.8549407  88.2919068
  15.0362508  18.0195121  87.5895136  15.2779307  18.2691016  89.0630032
  19.5442877  18.7903844  85.6463432  18.8593915  19.1702746  85.0960465
  19.6286726  19.3999171  86.3795380  11.2181607  17.5923815  85.5569153
  11.6819953  17.8711518  84.7673776  10.9538405  16.6907259  85.3742244
  10.1550493  13.7146967  82.3658718  10.8574536  14.1668011  82.8332645
   9.8231122  13.0730786  82.9938612  17.9139637  19.3135759  90.4181133
  18.7357080  18.9115946  90.1363814  17.9102040  19.2103993  91.3697249
  26.0045630  15.6574507  86.7666104  25.2509338  15.0881905  86.6110109
  26.1393171  15.6237172  87.7136739  11.3944258  20.5287910  82.4420824
  11.2589933  21.3739445  82.8705671  11.9354070  20.7307187  81.6786757
   4.8473655  18.0463348  83.0148749   5.3598176  18.8406598  83.1654313
   5.4996368  17.3489638  82.9482350   6.6568540  21.1629104  85.0971502
   6.8335168  22.0847069  84.9092486   7.4525373  20.8487523  85.5265882
   7.7799855  22.6807278  91.0981844   8.3307280  22.5524341  90.3258838
   6.9411331  22.9802167  90.7476737  14.7087004  14.0427083  79.4792152
  14.1933627  14.8131687  79.7180540  14.4364312  13.3692219  80.1025214
  19.6821278  16.7959437  81.4145326  18.9050721  16.4570597  80.9700488
  20.3612759  16.8012060  80.7400291  14.4973307  11.9154175  81.3051933
  14.1923443  12.2300324  82.1562077  15.4503749  11.9935595  81.3479266
  12.9419739  18.0744398  82.9544887  12.4141101  17.3397158  82.6418125
  12.4407242  18.8519074  82.7084856  17.9212585  16.2693419  88.0711934
  17.2636260  16.9592680  88.1592062  18.7252984  16.6589851  88.4145920
  16.7318044  14.6237791  86.1215875  17.2449926  15.2567783  86.6237585
  17.3819268  14.0238987  85.7559235  11.0872339  15.8924608  75.9579860
  10.1799401  15.6613862  76.1571009  11.5843371  15.0962228  76.1453842
  13.9940418  24.6022116  78.8776547  13.3202117  24.9053812  79.4861504
  14.3806240  25.4051196  78.5282004  13.9933923  13.4978662  83.4976896
  14.7405741  14.0100060  83.1884018  14.2625512  13.1762715  84.3581290
  12.2660573  15.9937203  80.4803851  11.3571792  15.7096236  80.5776320
  12.2955656  16.4136282  79.6207157  17.4979840  19.6043793  84.2495018
  17.0442167  18.7634703  84.3060209  16.8673807  20.2405191  84.5869798
  16.4412760  10.5335779  85.4795686  15.7035516  10.0213165  85.8105928
  16.6939533  10.0936160  84.6678962  15.9412779  21.4420289  85.1844836
  16.2335754  22.0025347  84.4657202  16.4511400  21.7348850  85.9397995
  10.8145467  13.6065824  86.5813646  10.8694077  12.6539660  86.5056122
  10.0036669  13.7625263  87.0654944  11.9636660  17.5345947  77.8191929
  11.5256090  16.8181806  77.3597566  12.7047101  17.7622062  77.2577020
  10.9046405  22.2200640  86.2738289  10.8622583  22.4461487  85.3446821
  11.8209103  21.9864015  86.4224091  20.0809775  15.8103144  83.8768248
  19.9427674  16.0004740  82.9489437  19.7245994  16.5722527  84.3336299
  20.1079155  17.8779671  88.8879519  20.5415662  17.7854960  89.7362573
  20.8210736  17.8537171  88.2499535   9.0212205  19.0963670  86.0700252
   9.8152804  18.6013990  85.8682827   8.3103898  18.5681533  85.7067958
  13.8407050  21.4781765  90.4212620  13.8944072  22.0472701  91.1890336
  12.9721831  21.6483650  90.0566657  20.9694704  17.9203372  91.4212405
  21.1630595  18.8249182  91.6671679  20.8695323  17.4610791  92.2550990
  11.5983481  19.6692691  89.7498089  11.4594567  19.3011476  90.6224027
  10.8098078  20.1840331  89.5782047  12.1931633  24.7701788  81.0923626
  12.3683389  24.2989831  81.9069248  11.5064421  25.3967554  81.3204886
  13.1488696  19.0474294  87.1386927  12.8138529  19.0075064  88.0344577
  12.6492642  18.3819010  86.6657337  16.0847888  16.3930329  77.4123987
  15.4677059  15.6677157  77.3157039  15.6164377  17.1539689  77.0691061
   6.7592719  27.9191151  87.8663486   6.9989317  28.5509675  88.5442505
   5.9161915  27.5679191  88.1528845  11.2720580  23.7270273  90.2704990
  11.1990752  24.5325245  90.7824294  10.8297974  23.9262239  89.4453011
  11.0610360  22.9642043  83.7807811  10.2777882  23.5063723  83.8746036
  11.7603105  23.4816023  84.1802053  22.2236768  14.4777038  88.0660308
  22.2126644  15.3601754  87.6954241  21.3554147  14.1248589  87.8714845
  13.7319264  23.6257107  92.4263149  14.4447236  24.2604572  92.3539050
  13.2409293  23.7220973  91.6103150  15.4536791  17.5308360  83.9980440
  14.5193070  17.6509822  83.8285145  15.6313459  16.6280827  83.7340450
  18.8409342  13.3725679  84.5330474  19.3069794  14.2053671  84.4590777
  19.2916843  12.9070661  85.2375733  16.9085573  19.7169500  81.5316626
  17.1845417  19.6026095  82.4410501  16.0390072  19.3186985  81.4928800
  13.5439637  23.9655851  85.1749440  13.7262032  23.1477507  85.6377192
  14.3672623  24.1823544  84.7374330  13.8781803  22.8924036  82.4364489
  14.4069569  22.3816491  81.8234651  14.1410022  22.5766567  83.3010022
   7.2337551  23.9439153  85.1962264   6.5647926  24.4285281  84.7126305
   7.0950420  24.1908374  86.1105643  11.3742819  25.9782897  91.7944923
  11.9261127  26.1414518  92.5594008  11.7149013  26.5687334  91.1224948
  14.5111207  23.9264872  88.7808605  14.3862346  23.1254612  88.2719550
  15.1690298  24.4211066  88.2922575  16.5746115  21.7273892  90.4088155
  15.6276451  21.6079243  90.3366482  16.9228888  20.8396390  90.4914417
  13.5792548  21.5226608  86.6092507  13.4317511  20.5943316  86.7900077
  14.4046042  21.5446699  86.1249583  17.1826670  22.3455167  87.6957380
  18.1073218  22.1398029  87.5581831  17.0141974  22.0971568  88.6046722
  16.9721986  22.8640835  83.0519472  17.1458864  22.2987257  82.2993324
  17.4650878  23.6641730  82.8698961  22.8261378  15.6277258  84.6709771
  23.2692524  14.8784583  84.2728895  21.9487888  15.6187394  84.2883503
  17.9597159  22.1807599  80.1516370  18.6548063  22.8014292  80.3703684
  18.3020309  21.3302950  80.4268748  19.8588582  19.6307305  81.6803701
  20.3839906  19.9694577  80.9553021  19.7710935  18.6954320  81.4966835
  11.5429243  25.6979288  86.0398954  11.1034233  25.2055667  86.7331810
  12.2937360  25.1552256  85.7991029   4.0221582  21.8890829  86.0423582
   4.8479602  21.5894601  85.6622225   3.6715634  21.1198451  86.4913370
   8.9903115  21.2417297  88.1121255   8.3683124  20.5788002  87.8123483
   9.6607982  21.2678429  87.4294903   8.5516622  19.7921220  81.5879716
   8.7004742  20.4756685  80.9346389   9.3583065  19.7726310  82.1029172
  22.3694242  17.0982496  87.0632219  23.2041134  17.5372300  87.2269779
  22.5053371  16.6221149  86.2440465   6.3069255  15.8186398  82.5940785
   6.0615297  14.9148728  82.7920995   6.4765169  15.8203548  81.6520263
  12.0512027  22.2869351  79.0591463  11.4785994  22.9059538  78.6061935
  12.6244821  22.8368712  79.5931385  15.2709287  22.5706501  80.1900046
  16.2039960  22.5052063  80.3932921  15.1832500  23.4062768  79.7314578
  17.8997304  21.8872371  77.1503993  17.8210935  21.5532235  78.0439751
  18.7206971  22.3794139  77.1495466  20.5975495  14.7534111  90.3580312
  20.5651815  13.8150111  90.5439996  21.2076119  14.8318147  89.6246137
  12.4358826  13.6230163  76.4007516  13.3817931  13.4936372  76.4695934
  12.0573071  12.8844825  76.8776944  26.4152045  15.8150117  89.4986349
  27.1455433  15.5535405  90.0594052  25.8058990  15.0778839  89.5388417
  24.4967342  13.9557980  90.0960800  23.7700505  13.8213945  89.4877291
  24.0814629  14.2634809  90.9017518  17.5433164   7.2795602  83.6209603
  16.9631833   7.9380406  83.2387656  17.2769097   6.4572946  83.2097021
  16.3258042   9.4395692  82.6765952  15.4383897   9.7245343  82.4586146
  16.7412031   9.2789455  81.8293228  19.6772578   9.4642213  86.3920291
  20.4532968   9.9538665  86.6644908  18.9520712   9.8900267  86.8492160
  22.1145137  10.1769832  87.4494231  22.7089628   9.9365568  86.7387540
  22.1871721   9.4576963  88.0767768   4.3342293  24.0203443  87.7637396
   4.1996760  23.2603844  87.1975394   3.9174355  24.7444343  87.2966185
  15.4701256  19.2040367  76.7713972  16.1737106  19.4090369  77.3871627
  14.7463904  19.7717128  77.0363055  16.2999066  14.9550228  82.8916242
  16.2434267  15.4118779  82.0523874  16.8527408  14.1940912  82.7139084
  20.1103872  10.7439960  83.7166361  19.8540806  10.3436595  84.5474569
  19.4856740  11.4583754  83.5916500  24.4216210  13.4836033  86.2237653
  23.8615768  13.5529222  86.9969215  23.8159713  13.3077018  85.5037149
   7.4911418  24.9172760  87.9755839   7.3743803  25.8618193  87.8734529
   6.6703865  24.6146322  88.3641638  17.3787953  19.6422896  78.8212432
  18.2133557  19.2104094  78.6389906  17.2172296  19.4704909  79.7489326
  17.0333845  16.1455009  80.1868771  16.9782649  15.9799281  79.2457215
  16.4079900  16.8531042  80.3430961   8.5165933  25.5701022  91.1911767
   9.4193179  25.6024632  91.5078262   8.2903303  24.6401473  91.2058103
  10.2719535  24.3232009  87.8521846   9.3215166  24.3233870  87.7386218
  10.5752021  23.5764743  87.3357881  26.0072228  30.1592547  88.9167608
  26.6450638  30.0399294  88.2130948  25.8893071  31.1073391  88.9755560
  22.8161934  30.1119975  88.8529133  22.4780446  29.9961040  87.9649668
  23.6851703  29.7111140  88.8330139  18.6748750  31.9655451  84.8426024
  18.1113615  31.8745388  84.0742312  18.5601145  31.1455356  85.3228517
  23.2981717  31.2654827  94.8115339  23.2870358  30.8707625  93.9395842
  23.4602357  30.5320899  95.4049110  16.2213182  33.4606643  87.6810244
  17.0134474  33.1197468  87.2656544  16.4609832  33.5701618  88.6012398
  24.2548309  35.6326419  80.1540489  23.6036288  36.2180500  79.7674503
  25.0492672  36.1632614  80.2135526  18.1803936  32.7215556  80.5527623
  18.9534812  32.1744543  80.4140499  18.5329335  33.5859806  80.7642085
  20.0188978  34.0491939  93.7594523  19.7278844  34.9537569  93.6441189
  20.6545963  34.0908466  94.4738592  20.9445185  31.4268787  90.3495882
  21.5408758  31.2024809  89.6352845  21.0020157  30.6853533  90.9521330
  20.5170214  28.8808222  78.1846073  20.7695734  28.3589744  77.4229536
  19.5794773  28.7174368  78.2872757  25.5613497  27.8844001  85.9920816
  26.3476586  27.4663424  85.6411233  25.8252201  28.7890093  86.1602465
  25.7323574  33.3216851  80.6909473  25.0969407  33.3951478  81.4030378
  25.4020980  33.9110450  80.0128552  30.9621924  27.8219234  86.8953795
  31.6947096  27.2518451  87.1291624  30.2061279  27.4340834  87.3360300
  20.2366502  30.7836328  80.3870448  20.1202761  30.1081232  81.0551532
  20.3468762  30.2968702  79.5702601  22.5798043  30.2446475  84.0917137
  22.2156251  29.7177096  84.8030059  23.4365159  29.8544945  83.9183623
  28.4847344  21.5340808  91.3548403  28.1530669  22.4036219  91.1309618
  27.8892957  21.2177092  92.0342434  22.2203530  25.2736375  79.0878486
  22.3877933  26.1416612  79.4548957  22.0300699  25.4363657  78.1639775
  24.9778864  33.7353354  90.7544316  24.6779587  34.6378393  90.6460123
  24.6329923  33.4685537  91.6065469  18.4291345  30.1867151  86.7881021
  17.5041841  30.0543365  86.9958712  18.6775758  30.9661370  87.2850963
  28.3776007  26.2535894  88.4341754  27.4692885  26.1851303  88.1400515
  28.3263603  26.7307839  89.2623579  22.1992751  27.7294033  80.0725153
  22.0792376  28.1751083  80.9110633  21.5045340  28.0779350  79.5138691
  15.7900156  29.8300424  87.6224810  15.9192537  30.0834903  88.5364221
  15.1097607  30.4228132  87.3029465  19.9599643  40.4997674  83.7215284
  19.8823673  41.4505499  83.8003764  19.3561287  40.1543547  84.3790210
  22.4516873  27.6725540  96.3776651  21.6750207  28.2319460  96.3679515
  23.0907436  28.1582323  96.8991521  30.2437654  24.4552333  90.2119627
  29.6012034  24.7484866  89.5659422  29.7392582  24.3405253  91.0172824
  27.8977817  28.2015506  80.9005487  28.8095673  28.4342893  80.7253184
  27.3887464  28.7852550  80.3380565  20.7063245  30.4810993  95.9394618
  21.4477930  31.0196037  95.6629441  20.0000231  31.1077282  96.0966170
  26.1818585  32.6240134  94.5366779  26.5901941  32.1822544  93.7921412
  25.4595847  32.0492761  94.7900972  22.5349655  27.5612740  91.9100336
  23.3810850  27.9852154  92.0534985  22.4748293  26.9046365  92.6038899
  26.5047400  33.1841324  88.2919068  25.8756262  33.3487038  87.5895136
  26.1173062  33.5982934  89.0630032  30.3836632  34.1195762  85.6463432
  29.6987670  34.4994663  85.0960465  30.4680481  34.7291089  86.3795380
  25.6849100  25.2217109  93.5681510  25.4410032  25.9759169  93.0315786
  25.9609031  25.6002456  94.4028757  27.6387563  31.7655721  92.2458775
  27.8504458  32.4087481  91.5693157  27.5917311  30.9318038  91.7780706
  25.2413792  24.3773542  89.1495348  24.3798271  24.6754795  89.4412085
  25.2676227  24.5943941  88.2176380  22.0575362  32.9215732  85.5569153
  22.5213707  33.2003435  84.7673776  21.7932160  32.0199177  85.3742244
  18.9499443  32.4687214  88.4948917  19.5200800  32.8974482  87.8566401
  19.5407554  32.1869799  89.1933102  20.9944248  29.0438885  82.3658718
  21.6968291  29.4959928  82.8332645  20.6624876  28.4022704  82.9938612
  19.4424609  27.6350641  96.7409928  18.8123270  28.3166922  96.9745325
  19.3360697  27.5233723  95.7963066  14.7369582  27.3022437  87.6675852
  13.9468636  27.5579966  87.1915963  15.2280829  28.1170775  87.7727893
  28.7533391  34.6427677  90.4181133  29.5750835  34.2407864  90.1363814
  28.7495794  34.5395911  91.3697249  16.6884327  27.6667017  84.6259329
  15.8915490  27.7785711  85.1442824  16.4609919  28.0053669  83.7600219
  22.5189995  34.1911720  92.5741843  22.5834427  34.6532127  93.4100015
  21.8100918  33.5609085  92.7024153  13.0207285  27.5552928  90.0990843
  13.2715323  28.4399938  90.3648419  13.5566833  27.3757529  89.3265935
  36.8439384  30.9866425  86.7666104  36.0903093  30.4173823  86.6110109
  36.9786925  30.9529090  87.7136739  22.2338012  35.8579827  82.4420824
  22.0983687  36.7031363  82.8705671  22.7747825  36.0599105  81.6786757
  15.6867410  33.3755265  83.0148749  16.1991930  34.1698516  83.1654313
  16.3390122  32.6781556  82.9482350  17.4962294  36.4921022  85.0971502
  17.6728923  37.4138986  84.9092486  18.2919128  36.1779441  85.5265882
  21.6373313  23.3529286  96.6955435  22.3783026  23.9536439  96.6159898
  21.8691236  22.6106924  96.1373478  16.7814651  28.5385654  94.9733665
  16.6668166  27.6370911  95.2740764  15.9259169  28.7849350  94.6218482
  23.8606489  36.4803394  96.5721166  23.4170343  35.6939772  96.2542070
  24.5223702  36.6682544  95.9065057  18.6193610  38.0099195  91.0981844
  19.1701035  37.8816259  90.3258838  17.7805086  38.3094084  90.7476737
  25.9587727  36.7606194  94.6002567  25.9406202  37.5815075  94.1082836
  26.8807647  36.6360269  94.8252708  22.4160781  34.2750323  95.4426075
  22.9489118  33.5138611  95.2125383  21.8874862  33.9823975  96.1850230
  25.5830476  19.3810389  90.9719717  25.2394745  20.2712031  90.8958828
  25.9509438  19.1912047  90.1089302  13.6516326  31.7043920  83.7908319
  14.4891548  32.1140928  83.5742027  13.8294594  30.7643362  83.7608513
  25.5480759  29.3719000  79.4792152  25.0327382  30.1423605  79.7180540
  25.2758067  28.6984137  80.1025214  23.1327870  24.2168701  84.5377391
  22.2769466  23.8275552  84.3583029  23.5454821  24.2960662  83.6777176
  24.6627016  21.7515044  88.9368950  24.1591812  21.7145180  88.1236756
  24.9557623  22.6607787  88.9965607  20.9069902  21.8353774  87.9435132
  21.7722899  21.6396583  87.5841022  20.9747411  21.6064126  88.8704489
  30.5215033  32.1251355  81.4145326  29.7444475  31.7862514  80.9700488
  31.2006514  32.1303978  80.7400291  25.3367062  27.2446092  81.3051933
  25.0317197  27.5592242  82.1562077  26.2897504  27.3227512  81.3479266
  23.7813494  33.4036316  82.9544887  23.2534855  32.6689075  82.6418125
  23.2800996  34.1810992  82.7084856  28.7606340  31.5985336  88.0711934
  28.1030014  32.2884598  88.1592062  29.5646739  31.9881768  88.4145920
  18.5132221  24.0655982  85.3151499  19.0875973  23.8431164  84.5824692
  19.1003204  24.1344677  86.0680100  27.5711798  29.9529709  86.1215875
  28.0843680  30.5859701  86.6237585  28.2213022  29.3530904  85.7559235
  18.8401808  26.0960443  79.3347384  18.0039121  26.4335130  79.6556659
  18.7006578  25.9609423  78.3974521  20.8154889  20.9397231  84.0426568
  20.1619301  20.6246248  83.4183183  20.7735363  20.3172971  84.7686391
  21.9266094  31.2216526  75.9579860  21.0193155  30.9905779  76.1571009
  22.4237126  30.4254145  76.1453842  24.8334173  39.9314033  78.8776547
  24.1595871  40.2345730  79.4861504  25.2199995  40.7343114  78.5282004
  24.0492629  27.4279164  88.3674216  23.1315191  27.6494111  88.2095904
  24.4652773  27.5025475  87.5085923  24.8327677  28.8270580  83.4976896
  25.5799496  29.3391977  83.1884018  25.1019267  28.5054633  84.3581290
  23.1054327  31.3229121  80.4803851  22.1965546  31.0388154  80.5776320
  23.1349411  31.7428199  79.6207157  28.3373595  34.9335710  84.2495018
  27.8835922  34.0926620  84.3060209  27.7067561  35.5697109  84.5869798
  27.2806514  25.8627696  85.4795686  26.5429271  25.3505083  85.8105928
  27.5333288  25.4228078  84.6678962  26.7806534  36.7712207  85.1844836
  27.0729508  37.3317264  84.4657202  27.2905154  37.0640768  85.9397995
  27.3818141  18.6403948  86.0737455  27.6877018  17.7801312  85.7863370
  28.1070746  19.2321569  85.8736449  13.6742498  29.0434635  84.4619053
  13.4766897  28.4503996  83.7370119  13.1189162  28.7386845  85.1794992
  21.6539221  28.9357741  86.5813646  21.7087831  27.9831578  86.5056122
  20.8430423  29.0917181  87.0654944  22.8030415  32.8637865  77.8191929
  22.3649845  32.1473723  77.3597566  23.5440856  33.0913979  77.2577020
  19.5931581  27.5534801  84.3404025  18.7799447  27.8528972  84.7469217
  20.0890575  27.1590490  85.0578507  21.7440159  37.5492558  86.2738289
  21.7016338  37.7753404  85.3446821  22.6602858  37.3155933  86.4224091
  25.1905793  28.0176626  93.1718919  25.5455181  28.2448099  94.0313384
  25.8377924  28.3495002  92.5496174  30.9203530  31.1395062  83.8768248
  30.7821428  31.3296658  82.9489437  30.5639749  31.9014444  84.3336299
  19.0845656  25.1253157  89.9565260  19.7245035  24.9841916  89.2588223
  18.2523186  24.8387670  89.5803862  30.9472909  33.2071589  88.8879519
  31.3809416  33.1146878  89.7362573  31.6604490  33.1829089  88.2499535
  19.8605960  34.4255587  86.0700252  20.6546558  33.9305907  85.8682827
  19.1497652  33.8973450  85.7067958  24.6800804  36.8073683  90.4212620
  24.7337827  37.3764619  91.1890336  23.8115586  36.9775568  90.0566657
  16.1688723  28.5698669  82.1460005  15.2386311  28.5083124  82.3629967
  16.2646195  28.0474622  81.3496646  16.0874272  25.0953482  84.7338246
  16.3481090  26.0098815  84.6247407  16.9091445  24.6277924  84.8834859
  17.5599198  26.5091239  91.9037071  18.2322251  26.3008601  91.2549720
  16.7328984  26.3113325  91.4642303  31.8088459  33.2495289  91.4212405
  32.0024349  34.1541100  91.6671679  31.7089077  32.7902708  92.2550990
  23.4624770  23.1353180  93.9202732  22.8152685  23.8343129  93.8267208
  24.2325785  23.5689324  94.2878980  26.8703568  33.4002032  96.9953285
  26.7189074  33.1712584  96.0783369  26.8608247  34.3572633  97.0084630
  23.6388904  30.9733945  91.9799552  24.5680964  31.1245104  91.8068519
  23.2179934  31.0617966  91.1248198  22.4377236  34.9984609  89.7498089
  22.2988321  34.6303394  90.6224027  21.6491832  35.5132249  89.5782047
  23.0325388  40.0993706  81.0923626  23.2077143  39.6281749  81.9069248
  22.3458176  40.7259472  81.3204886  23.9882451  34.3766212  87.1386927
  23.6532284  34.3366982  88.0344577  23.4886397  33.7110928  86.6657337
  17.9626695  29.7833842  92.6639508  17.8246493  29.0514081  93.2651047
  18.8731618  29.6942742  92.3823696  26.9241643  31.7222246  77.4123987
  26.3070813  30.9969074  77.3157039  26.4558131  32.4831606  77.0691061
  20.5908996  29.4953801  92.1523188  21.3008614  28.8546993  92.1109806
  20.5478304  29.7466696  93.0749369  28.5795774  36.4321155  95.0729767
  28.5208320  35.7480375  94.4060350  28.9815293  37.1740145  94.6210393
  19.3037930  26.4819019  93.9718827  18.7675287  26.0309758  94.6240424
  18.7154638  26.6164928  93.2289292  17.5986473  43.2483068  87.8663486
  17.8383071  43.8801593  88.5442505  16.7555670  42.8971108  88.1528845
  18.7140189  25.9407671  76.5345291  17.8369655  25.8196471  76.1707538
  19.1897942  25.1493749  76.2824180  28.5813182  34.3960739  93.3043747
  27.6939960  34.0586660  93.4270146  29.1511733  33.6643770  93.5412512
  10.2342329  30.7284830  86.6286798  10.9213368  30.4146560  86.0407813
  10.0790457  31.6326195  86.3554050  15.0377051  25.6175027  91.0571822
  14.9535240  25.0100696  90.3222232  14.2159757  26.1084045  91.0581318
  22.1114335  39.0562191  90.2704990  22.0384506  39.8617162  90.7824294
  21.6691728  39.2554157  89.4453011  21.9004115  38.2933961  83.7807811
  21.1171636  38.8355641  83.8746036  22.5996860  38.8107941  84.1802053
  25.2100765  24.1028590  86.4242017  25.7069464  23.3498553  86.1043087
  24.4387746  24.1392907  85.8585226  33.0630522  29.8068956  88.0660308
  33.0520398  30.6893671  87.6954241  32.1947901  29.4540507  87.8714845
  24.5713018  38.9549025  92.4263149  25.2840991  39.5896490  92.3539050
  24.0803047  39.0512891  91.6103150  26.2930545  32.8600278  83.9980440
  25.3586824  32.9801740  83.8285145  26.4707214  31.9572744  83.7340450
  21.7935733  26.2445973  86.1513701  21.4233521  25.6917014  86.8394607
  22.2894826  25.6404107  85.5988701  29.6803097  28.7017597  84.5330474
  30.1463549  29.5345588  84.4590777  30.1310597  28.2362578  85.2375733
  19.6224932  36.7043468  93.2468719  20.3234391  37.3379951  93.3998114
  19.1520047  37.0458200  92.4864359  27.7479328  35.0461418  81.5316626
  28.0239172  34.9318013  82.4410501  26.8783827  34.6478903  81.4928800
  27.6519759  21.0698184  88.5721376  26.7382839  21.3002411  88.7403583
  28.0812861  21.1536628  89.4235408  27.4226218  29.2588076  91.0721270
  26.7697668  29.5063983  90.4173723  27.8006598  28.4452214  90.7383747
  24.3833392  39.2947769  85.1749440  24.5655786  38.4769425  85.6377192
  25.2066378  39.5115461  84.7374330  24.7175557  38.2215954  82.4364489
  25.2463324  37.7108409  81.8234651  24.9803777  37.9058484  83.3010022
  23.4713791  30.0007887  97.5587307  22.7954428  29.9002016  98.2289682
  24.2941425  29.8447101  98.0223304  15.2192650  36.2379823  90.1799822
  15.8046087  35.4923511  90.3127726  15.0217488  36.5483780  91.0636486
  18.0731305  39.2731071  85.1962264  17.4041681  39.7577198  84.7126305
  17.9344175  39.5200291  86.1105643   9.8110305  28.8085424  88.9004265
   9.8494404  28.2749014  89.6941383   9.3050598  28.2820629  88.2815242
  22.2136574  41.3074814  91.7944923  22.7654882  41.4706436  92.5594008
  22.5542767  41.8979252  91.1224948  17.1901067  23.6549964  92.3966808
  17.2542394  24.5164795  91.9844205  17.1268187  23.0423966  91.6639166
  27.0647448  36.1336072  97.6493577  27.6087352  36.7466030  97.1548532
  26.4834293  36.6915650  98.1660590  13.4418882  27.5349526  81.9758197
  13.7372323  26.6260204  81.9225250  12.5406918  27.5137265  81.6539199
  25.3504961  39.2556790  88.7808605  25.2256101  38.4546530  88.2719550
  26.0084052  39.7502983  88.2922575  16.9713129  25.6105522  87.9585745
  16.2499715  26.2241490  87.8193219  17.7606385  26.1463287  87.8802391
  27.4139869  37.0565810  90.4088155  26.4670205  36.9371161  90.3366482
  27.7622643  36.1688308  90.4914417  19.7739443  22.9459949  94.2326397
  20.2973845  23.1922245  94.9952706  19.5551776  23.7779984  93.8129534
  15.1706724  25.2163623  82.0997522  14.8419430  24.3361002  81.9172628
  15.5246095  25.1611292  82.9873911  24.4186303  36.8518526  86.6092507
  24.2711265  35.9235234  86.7900077  25.2439796  36.8738617  86.1249583
  18.2848547  25.5036593  82.4672999  18.6244620  26.0322514  81.7451608
  18.7320668  25.8416999  83.2431566  28.0220425  37.6747085  87.6957380
  28.9466972  37.4689946  87.5581831  27.8535728  37.4263486  88.6046722
  20.9791988  23.8873644  91.9176068  20.6388808  23.0881457  92.3196747
  20.2730994  24.1875355  91.3452901  21.6308460  20.9722956  90.3703391
  22.4534529  20.4983435  90.2482281  21.8746523  21.7513440  90.8702077
  20.2716694  24.0011215  80.6666292  20.9925057  24.3792468  80.1630009
  19.6481998  24.7200092  80.7701270  24.4147817  24.7056364  81.6024625
  24.6311432  25.5881002  81.3013453  23.9341884  24.3142577  80.8730267
  19.1547038  27.6642077  88.1795369  19.0091619  27.9782380  89.0719651
  18.6772242  28.2826977  87.6266268  21.0143421  24.6544625  88.2276259
  21.0004990  23.7585718  87.8908557  21.7315849  24.6615289  88.8614545
  22.8669552  25.0881965  90.2729386  22.6087330  26.0099036  90.2713717
  22.3354592  24.6912400  90.9629850  27.8115741  38.1932752  83.0519472
  27.9852618  37.6279175  82.2993324  28.3044632  38.9933647  82.8698961
  13.6292701  30.2047421  91.1183030  13.0846169  30.9807229  91.2503305
  14.5072051  30.5518226  90.9602152  20.4180317  23.5359005  83.4963829
  20.5396229  22.6075651  83.6954716  20.1282360  23.5497691  82.5842144
  23.2871508  21.2213916  86.6330549  23.3093205  21.2853249  85.6782528
  23.7039567  20.3818424  86.8271055  33.6655132  30.9569175  84.6709771
  34.1086278  30.2076500  84.2728895  32.7881642  30.9479312  84.2883503
  28.7990913  37.5099517  80.1516370  29.4941818  38.1306209  80.3703684
  29.1414063  36.6594868  80.4268748  14.4158723  29.3317318  94.0113187
  13.6740459  29.4799953  94.5977818  14.0951467  29.5925583  93.1479937
  30.6982336  34.9599222  81.6803701  31.2233661  35.2986495  80.9553021
  30.6104689  34.0246238  81.4966835  22.3602385  38.8733296  93.8093577
  22.6689512  38.6282443  94.6816277  23.1577867  39.0779934  93.3212447
  22.3822997  41.0271206  86.0398954  21.9427987  40.5347584  86.7331810
  23.1331114  40.4844173  85.7991029  14.8615336  37.2182746  86.0423582
  15.6873356  36.9186518  85.6622225  14.5109388  36.4490369  86.4913370
  19.8296869  36.5709215  88.1121255  19.2076879  35.9079920  87.8123483
  20.5001736  36.5970346  87.4294903  13.0623941  35.1369073  87.0012515
  12.2255850  34.7091247  86.8196517  13.0347587  35.3301516  87.9383307
  30.3876243  35.5932126  96.9854899  29.5971786  35.5756265  96.4459398
  30.1509597  36.1320420  97.7403935  30.5074118  32.4424592  94.2987627
  30.5572123  32.2774600  95.2403150  30.3988041  31.5751851  93.9085508
  19.3910376  35.1213138  81.5879716  19.5398497  35.8048602  80.9346389
  20.1976820  35.1018228  82.1029172  27.7977880  28.4255520  95.6146934
  28.6987743  28.2861985  95.3230932  27.8725854  28.5909975  96.5545111
  22.1320685  25.8022375  94.4600120  21.2623995  26.0955941  94.1882709
  22.3680166  26.3862820  95.1807384  32.0092314  34.8621534  94.5429649
  31.7177123  35.2251514  95.3793110  31.3964446  34.1488542  94.3642981
  33.2087997  32.4274414  87.0632219  34.0434888  32.8664218  87.2269779
  33.3447126  31.9513067  86.2440465  30.2579503  29.9854148  93.0109707
  30.7333624  30.1781795  92.2028558  29.3345068  30.0413334  92.7653090
  17.1463009  31.1478316  82.5940785  16.9009051  30.2440646  82.7920995
  17.3158924  31.1495466  81.6520263  24.8359719  22.0201992  91.9765540
  25.3541663  22.7563019  91.6512029  24.4814852  22.3265985  92.8112300
  16.4158657  26.8806673  80.0926946  15.7227902  26.9551028  79.4366982
  16.1710409  26.1167017  80.6148463  25.0872313  18.4402274  87.4966437
  25.3674067  17.7725464  88.1226864  25.8722920  18.6331370  86.9841101
  22.8905782  37.6161268  79.0591463  22.3179749  38.2351456  78.6061935
  23.4638575  38.1660630  79.5931385  28.9581172  26.8619908  91.2438012
  29.9098595  26.9618006  91.2650236  28.7884622  26.0698177  91.7536097
  26.9795551  23.9475492  91.4297413  26.3845483  24.2280504  90.7343902
  26.6945248  24.4369393  92.2014154  26.1103042  37.8998419  80.1900046
  27.0433715  37.8343980  80.3932921  26.0226254  38.7354685  79.7314578
  28.7391058  37.2164289  77.1503993  28.6604690  36.8824152  78.0439751
  29.5600725  37.7086057  77.1495466  31.4369249  30.0826028  90.3580312
  31.4045570  29.1442029  90.5439996  32.0469873  30.1610065  89.6246137
  23.2752580  28.9522081  76.4007516  24.2211685  28.8228289  76.4695934
  22.8966825  28.2136743  76.8776944  31.5863738  26.8737072  90.4038595
  31.0702787  26.0895528  90.2168524  32.4703686  26.5455788  90.5685115
  29.2474465  20.6178087  86.3634408  29.0499286  20.3093175  87.2477740
  29.8574170  21.3439726  86.4932338  37.2545799  31.1442035  89.4986349
  37.9849188  30.8827323  90.0594052  36.6452745  30.4070757  89.5388417
  35.3361096  29.2849898  90.0960800  34.6094260  29.1505863  89.4877291
  34.9208383  29.5926726  90.9017518  23.1591273  33.0039827  97.8608173
  24.0794282  33.1818426  98.0548219  23.1240856  32.0595873  97.7087872
  21.4595497  26.8772058  76.3362401  20.5526953  26.5805170  76.4125115
  21.7371478  26.5801876  75.4696687  12.3773438  28.1978421  86.7861448
  12.0576222  27.3443729  86.4935822  11.8306866  28.4126999  87.5419415
  16.1553345  30.9140862  90.5030954  16.3739355  31.8457970  90.5218988
  16.5679119  30.5548836  91.2885758  23.0757563  21.4208947  82.4906642
  22.2658291  21.0756032  82.8661888  23.7641980  21.1116491  83.0794254
  25.0048111  20.4986994  84.1130939  25.5579150  20.9182447  84.7720962
  25.2418198  19.5722742  84.1553895  20.2294282  23.7358993  76.4774380
  21.0913446  24.0613891  76.7370198  20.4144626  22.9490489  75.9647446
  12.2461698  31.8181332  88.7554569  11.5525169  31.4035285  88.2424524
  12.9934689  31.8601869  88.1587988  28.3826919  22.6087519  83.6209603
  27.8025588  23.2672323  83.2387656  28.1162851  21.7864864  83.2097021
  26.8330485  22.0092577  85.8230924  27.3330263  22.1209111  85.0145242
  27.4766093  21.7053630  86.4631732  20.8912481  29.9171207  98.7098765
  20.4079562  30.7171567  98.9162654  20.9773420  29.9279151  97.7566209
  14.1598440  31.7499586  86.6320584  14.1369128  31.8487273  85.6802467
  14.4699077  32.5964737  86.9537750  16.8185818  33.8075741  90.7467198
  17.7729072  33.7759684  90.6797130  16.6198342  33.3466365  91.5617424
  17.4085200  32.3776857  93.3137996  18.2278089  32.8720936  93.3372833
  17.6822008  31.4608825  93.2855564  27.1651797  24.7687610  82.6765952
  26.2777652  25.0537260  82.4586146  27.5805786  24.6081373  81.8293228
  30.5166333  24.7934131  86.3920291  31.2926723  25.2830583  86.6644908
  29.7914467  25.2192185  86.8492160  32.9538891  25.5061750  87.4494231
  33.5483382  25.2657486  86.7387540  33.0265475  24.7868880  88.0767768
  15.1736047  39.3495361  87.7637396  15.0390515  38.5895762  87.1975394
  14.7568109  40.0736261  87.2966185  26.3095010  34.5332284  76.7713972
  27.0130860  34.7382287  77.3871627  25.5857659  35.1009046  77.0363055
  27.1392820  30.2842146  82.8916242  27.0828022  30.7410697  82.0523874
  27.6921163  29.5232830  82.7139084  30.9497626  26.0731877  83.7166361
  30.6934560  25.6728513  84.5474569  30.3250494  26.7875671  83.5916500
  35.2609964  28.8127951  86.2237653  34.7009522  28.8821140  86.9969215
  34.6553467  28.6368935  85.5037149  18.3305173  40.2464678  87.9755839
  18.2137557  41.1910110  87.8734529  17.5097619  39.9438239  88.3641638
  28.2181707  34.9714813  78.8212432  29.0527311  34.5396012  78.6389906
  28.0566050  34.7996827  79.7489326  27.8727600  31.4746927  80.1868771
  27.8176403  31.3091198  79.2457215  27.2473655  32.1822960  80.3430961
  12.6620115  26.7114991  94.0130193  13.3078978  26.2013945  94.5017418
  12.4537266  27.4483673  94.5873618  25.1873507  33.7795839  99.5122334
  26.0564666  33.9536491  99.1508969  24.7080258  34.5990255  99.3898063
  21.1823725  20.9755036  79.7654089  21.1702395  21.9196876  79.9222360
  22.0747147  20.7925181  79.4713551  19.3559687  40.8992940  91.1911767
  20.2586934  40.9316550  91.5078262  19.1297057  39.9693391  91.2058103
  21.1113289  39.6523926  87.8521846  20.1608920  39.6525788  87.7386218
  21.4145775  38.9056661  87.3357881  24.9975845  17.5697812  84.0200026
  24.2308240  17.0156299  84.1656708  25.4086550  17.6419681  84.8814178
  36.8465983  45.4884465  88.9167608  37.4844392  45.3691212  88.2130948
  36.7286825  46.4365309  88.9755560  33.6555689  45.4411893  88.8529133
  33.3174200  45.3252957  87.9649668  34.5245457  45.0403058  88.8330139
  29.5142504  47.2947369  84.8426024  28.9507370  47.2037306  84.0742312
  29.3994900  46.4747274  85.3228517  34.1375472  46.5946744  94.8115339
  34.1264113  46.1999543  93.9395842  34.2996111  45.8612817  95.4049110
  27.0606936  48.7898561  87.6810244  27.8528228  48.4489385  87.2656544
  27.3003587  48.8993536  88.6012398  35.0942063  50.9618337  80.1540489
  34.4430043  51.5472417  79.7674503  35.8886426  51.4924532  80.2135526
  29.0197690  48.0507474  80.5527623  29.7928566  47.5036461  80.4140499
  29.3723089  48.9151723  80.7642085  31.7838940  46.7560705  90.3495882
  32.3802512  46.5316727  89.6352845  31.8413911  46.0145450  90.9521330
  31.3563968  44.2100140  78.1846073  31.6089489  43.6881661  77.4229536
  30.4188527  44.0466286  78.2872757  36.4007251  43.2135918  85.9920816
  37.1870340  42.7955342  85.6411233  36.6645955  44.1182011  86.1602465
  36.5717328  48.6508769  80.6909473  35.9363161  48.7243395  81.4030378
  36.2414735  49.2402368  80.0128552  41.8015678  43.1511152  86.8953795
  42.5340850  42.5810368  87.1291624  41.0455034  42.7632752  87.3360300
  31.0760257  46.1128246  80.3870448  30.9596515  45.4373149  81.0551532
  31.1862517  45.6260620  79.5702601  33.4191798  45.5738393  84.0917137
  33.0550005  45.0469014  84.8030059  34.2758914  45.1836862  83.9183623
  39.3241098  36.8632726  91.3548403  38.9924423  37.7328137  91.1309618
  38.7286712  36.5469010  92.0342434  33.0597285  40.6028293  79.0878486
  33.2271687  41.4708529  79.4548957  32.8694454  40.7655575  78.1639775
  29.2685099  45.5159069  86.7881021  28.3435596  45.3835283  86.9958712
  29.5169513  46.2953288  87.2850963  39.2169762  41.5827812  88.4341754
  38.3086639  41.5143220  88.1400515  39.1657358  42.0599757  89.2623579
  33.0386506  43.0585950  80.0725153  32.9186131  43.5043001  80.9110633
  32.3439094  43.4071268  79.5138691  26.6293911  45.1592342  87.6224810
  26.7586292  45.4126821  88.5364221  25.9491362  45.7520050  87.3029465
  30.7993398  55.8289592  83.7215284  30.7217428  56.7797417  83.8003764
  30.1955041  55.4835465  84.3790210  33.2910628  43.0017458  96.3776651
  32.5143962  43.5611378  96.3679515  33.9301191  43.4874240  96.8991521
  41.0831408  39.7844250  90.2119627  40.4405788  40.0776783  89.5659422
  40.5786337  39.6697171  91.0172824  38.7371572  43.5307424  80.9005487
  39.6489428  43.7634810  80.7253184  38.2281219  44.1144468  80.3380565
  31.5457000  45.8102911  95.9394618  32.2871684  46.3487955  95.6629441
  30.8393985  46.4369200  96.0966170  33.3743410  42.8904658  91.9100336
  34.2204605  43.3144072  92.0534985  33.3142047  42.2338282  92.6038899
  41.2230386  49.4487680  85.6463432  40.5381424  49.8286581  85.0960465
  41.3074235  50.0583006  86.3795380  36.5242855  40.5509026  93.5681510
  36.2803787  41.3051087  93.0315786  36.8002785  40.9294374  94.4028757
  36.0807547  39.7065459  89.1495348  35.2192026  40.0046713  89.4412085
  36.1069981  39.9235858  88.2176380  32.8969116  48.2507650  85.5569153
  33.3607462  48.5295353  84.7673776  32.6325914  47.3491095  85.3742244
  29.7893197  47.7979132  88.4948917  30.3594554  48.2266400  87.8566401
  30.3801309  47.5161716  89.1933102  31.8338002  44.3730802  82.3658718
  32.5362045  44.8251846  82.8332645  31.5018631  43.7314621  82.9938612
  30.2818364  42.9642559  96.7409928  29.6517024  43.6458840  96.9745325
  30.1754452  42.8525641  95.7963066  25.5763336  42.6314355  87.6675852
  24.7862390  42.8871884  87.1915963  26.0674583  43.4462693  87.7727893
  27.5278081  42.9958934  84.6259329  26.7309245  43.1077629  85.1442824
  27.3003674  43.3345587  83.7600219  23.8601039  42.8844846  90.0990843
  24.1109077  43.7691855  90.3648419  24.3960587  42.7049447  89.3265935
  33.0731767  51.1871745  82.4420824  32.9377442  52.0323281  82.8705671
  33.6141579  51.3891023  81.6786757  29.5599106  37.2663325  99.1035179
  29.1666052  36.7129523  99.7782823  30.3765247  37.5773903  99.4941696
  26.5261164  48.7047183  83.0148749  27.0385685  49.4990433  83.1654313
  27.1783877  48.0073474  82.9482350  28.3356049  51.8212939  85.0971502
  28.5122677  52.7430904  84.9092486  29.1312882  51.5071359  85.5265882
  32.4767067  38.6821204  96.6955435  33.2176781  39.2828357  96.6159898
  32.7084990  37.9398842  96.1373478  27.6208405  43.8677571  94.9733665
  27.5061921  42.9662828  95.2740764  26.7652923  44.1141268  94.6218482
  36.4224230  34.7102307  90.9719717  36.0788500  35.6003949  90.8958828
  36.7903193  34.5203965  90.1089302  24.4910081  47.0335837  83.7908319
  25.3285303  47.4432846  83.5742027  24.6688349  46.0935280  83.7608513
  36.3874513  44.7010918  79.4792152  35.8721136  45.4715523  79.7180540
  36.1151821  44.0276054  80.1025214  33.9721624  39.5460619  84.5377391
  33.1163220  39.1567469  84.3583029  34.3848576  39.6252580  83.6777176
  35.5020771  37.0806962  88.9368950  34.9985566  37.0437097  88.1236756
  35.7951378  37.9899705  88.9965607  31.7463657  37.1645692  87.9435132
  32.6116653  36.9688500  87.5841022  31.8141165  36.9356044  88.8704489
  36.1760816  42.5738010  81.3051933  35.8710952  42.8884159  82.1562077
  37.1291258  42.6519430  81.3479266  34.6207248  48.7328233  82.9544887
  34.0928610  47.9980993  82.6418125  34.1194751  49.5102910  82.7084856
  29.3525976  39.3947900  85.3151499  29.9269728  39.1723081  84.5824692
  29.9396958  39.4636594  86.0680100  38.4105553  45.2821627  86.1215875
  38.9237435  45.9151618  86.6237585  39.0606777  44.6822822  85.7559235
  29.6795563  41.4252361  79.3347384  28.8432875  41.7627047  79.6556659
  29.5400332  41.2901341  78.3974521  31.6548643  36.2689149  84.0426568
  31.0013056  35.9538166  83.4183183  31.6129118  35.6464889  84.7686391
  32.7659848  46.5508444  75.9579860  31.8586910  46.3197697  76.1571009
  33.2630880  45.7546063  76.1453842  34.8886384  42.7571082  88.3674216
  33.9708945  42.9786029  88.2095904  35.3046527  42.8317393  87.5085923
  35.6721431  44.1562498  83.4976896  36.4193250  44.6683895  83.1884018
  35.9413021  43.8346551  84.3581290  33.9448082  46.6521039  80.4803851
  33.0359301  46.3680071  80.5776320  33.9743165  47.0720117  79.6207157
  39.1767349  50.2627628  84.2495018  38.7229676  49.4218538  84.3060209
  38.5461316  50.8989026  84.5869798  38.1200269  41.1919614  85.4795686
  37.3823025  40.6797000  85.8105928  38.3727042  40.7519996  84.6678962
  37.6200288  52.1004125  85.1844836  37.9123263  52.6609182  84.4657202
  38.1298909  52.3932686  85.9397995  38.2211896  33.9695866  86.0737455
  38.5270773  33.1093230  85.7863370  38.9464501  34.5613486  85.8736449
  24.5136252  44.3726553  84.4619053  24.3160652  43.7795913  83.7370119
  23.9582916  44.0678763  85.1794992  32.4932976  44.2649659  86.5813646
  32.5481585  43.3123496  86.5056122  31.6824178  44.4209098  87.0654944
  33.6424169  48.1929782  77.8191929  33.2043599  47.4765641  77.3597566
  34.3834610  48.4205897  77.2577020  30.4325336  42.8826719  84.3404025
  29.6193201  43.1820889  84.7469217  30.9284330  42.4882408  85.0578507
  36.0299547  43.3468543  93.1718919  36.3848935  43.5740017  94.0313384
  36.6771679  43.6786920  92.5496174  41.7597284  46.4686979  83.8768248
  41.6215183  46.6588575  82.9489437  41.4033503  47.2306362  84.3336299
  29.9239410  40.4545074  89.9565260  30.5638790  40.3133834  89.2588223
  29.0916941  40.1679588  89.5803862  30.6999714  49.7547505  86.0700252
  31.4940313  49.2597825  85.8682827  29.9891407  49.2265368  85.7067958
  27.0082478  43.8990587  82.1460005  26.0780066  43.8375042  82.3629967
  27.1039950  43.3766539  81.3496646  26.9268027  40.4245399  84.7338246
  27.1874844  41.3390733  84.6247407  27.7485199  39.9569842  84.8834859
  28.3992952  41.8383157  91.9037071  29.0716006  41.6300519  91.2549720
  27.5722739  41.6405243  91.4642303  34.3018524  38.4645098  93.9202732
  33.6546439  39.1635047  93.8267208  35.0719540  38.8981241  94.2878980
  37.7097322  48.7293950  96.9953285  37.5582829  48.5004501  96.0783369
  37.7002002  49.6864551  97.0084630  34.4782659  46.3025862  91.9799552
  35.4074719  46.4537022  91.8068519  34.0573689  46.3909883  91.1248198
  28.8020449  45.1125760  92.6639508  28.6640247  44.3805998  93.2651047
  29.7125373  45.0234660  92.3823696  37.7635397  47.0514164  77.4123987
  37.1464568  46.3260992  77.3157039  37.2951886  47.8123524  77.0691061
  31.4302750  44.8245719  92.1523188  32.1402369  44.1838911  92.1109806
  31.3872058  45.0758614  93.0749369  30.1431684  41.8110937  93.9718827
  29.6069041  41.3601675  94.6240424  29.5548392  41.9456846  93.2289292
  28.4380228  58.5774986  87.8663486  28.6776826  59.2093510  88.5442505
  27.5949424  58.2263026  88.1528845  29.5533943  41.2699588  76.5345291
  28.6763409  41.1488389  76.1707538  30.0291696  40.4785666  76.2824180
  21.0736083  46.0576748  86.6286798  21.7607123  45.7438478  86.0407813
  20.9184212  46.9618113  86.3554050  25.8770805  40.9466944  91.0571822
  25.7928994  40.3392614  90.3222232  25.0553512  41.4375963  91.0581318
  32.7397869  53.6225879  83.7807811  31.9565391  54.1647559  83.8746036
  33.4390614  54.1399858  84.1802053  36.0494519  39.4320508  86.4242017
  36.5463219  38.6790470  86.1043087  35.2781501  39.4684825  85.8585226
  37.1324300  48.1892195  83.9980440  36.1980579  48.3093658  83.8285145
  37.3100968  47.2864662  83.7340450  32.6329488  41.5737891  86.1513701
  32.2627275  41.0208931  86.8394607  33.1288580  40.9696024  85.5988701
  40.5196851  44.0309515  84.5330474  40.9857303  44.8637506  84.4590777
  40.9704352  43.5654496  85.2375733  38.4913514  36.3990102  88.5721376
  37.5776594  36.6294328  88.7403583  38.9206615  36.4828546  89.4235408
  38.2619972  44.5879993  91.0721270  37.6091423  44.8355901  90.4173723
  38.6400352  43.7744132  90.7383747  34.3107545  45.3299805  97.5587307
  33.6348182  45.2293934  98.2289682  35.1335179  45.1739018  98.0223304
  26.0586405  51.5671741  90.1799822  26.6439841  50.8215429  90.3127726
  25.8611243  51.8775698  91.0636486  28.9125060  54.6022988  85.1962264
  28.2435435  55.0869116  84.7126305  28.7737929  54.8492209  86.1105643
  20.6504059  44.1377341  88.9004265  20.6888159  43.6040932  89.6941383
  20.1444352  43.6112547  88.2815242  28.0294822  38.9841882  92.3966808
  28.0936148  39.8456713  91.9844205  27.9661942  38.3715883  91.6639166
  27.5047094  41.0565014  96.0439842  28.1319133  40.6742092  96.6577366
  26.6475013  40.8379216  96.4095534  24.2812637  42.8641443  81.9758197
  24.5766078  41.9552122  81.9225250  23.3800673  42.8429183  81.6539199
  27.8106884  40.9397440  87.9585745  27.0893470  41.5533408  87.8193219
  28.6000140  41.4755205  87.8802391  30.6133197  38.2751867  94.2326397
  31.1367599  38.5214163  94.9952706  30.3945531  39.1071901  93.8129534
  26.0100478  40.5455541  82.0997522  25.6813185  39.6652920  81.9172628
  26.3639849  40.4903210  82.9873911  29.1242302  40.8328511  82.4672999
  29.4638374  41.3614432  81.7451608  29.5714422  41.1708917  83.2431566
  31.8185742  39.2165562  91.9176068  31.4782563  38.4173375  92.3196747
  31.1124749  39.5167272  91.3452901  32.4702214  36.3014874  90.3703391
  33.2928284  35.8275352  90.2482281  32.7140278  37.0805358  90.8702077
  31.1110449  39.3303132  80.6666292  31.8318811  39.7084385  80.1630009
  30.4875753  40.0492009  80.7701270  35.2541572  40.0348281  81.6024625
  35.4705186  40.9172919  81.3013453  34.7735639  39.6434495  80.8730267
  29.9940793  42.9933995  88.1795369  29.8485374  43.3074298  89.0719651
  29.5165997  43.6118895  87.6266268  31.8537176  39.9836543  88.2276259
  31.8398745  39.0877636  87.8908557  32.5709604  39.9907206  88.8614545
  33.7063307  40.4173883  90.2729386  33.4481084  41.3390954  90.2713717
  33.1748347  40.0204317  90.9629850  24.4686455  45.5339339  91.1183030
  23.9239923  46.3099147  91.2503305  25.3465805  45.8810144  90.9602152
  31.2574072  38.8650923  83.4963829  31.3789983  37.9367569  83.6954716
  30.9676114  38.8789609  82.5842144  34.1265262  36.5505833  86.6330549
  34.1486959  36.6145166  85.6782528  34.5433321  35.7110342  86.8271055
  44.5048887  46.2861093  84.6709771  44.9480033  45.5368418  84.2728895
  43.6275397  46.2771229  84.2883503  25.2552477  44.6609235  94.0113187
  24.5134213  44.8091871  94.5977818  24.9345221  44.9217501  93.1479937
  25.7009091  52.5474664  86.0423582  26.5267111  52.2478436  85.6622225
  25.3503143  51.7782286  86.4913370  23.9017696  50.4660991  87.0012515
  23.0649604  50.0383165  86.8196517  23.8741341  50.6593434  87.9383307
  30.7415151  40.3782920  97.7053761  30.7903307  41.2545043  97.3231531
  31.2837666  39.8360313  97.1325405  30.2304131  50.4505056  81.5879716
  30.3792251  51.1340520  80.9346389  31.0370574  50.4310146  82.1029172
  38.6371634  43.7547438  95.6146934  39.5381497  43.6153903  95.3230932
  38.7119609  43.9201893  96.5545111  32.9714440  41.1314293  94.4600120
  32.1017749  41.4247859  94.1882709  33.2073920  41.7154738  95.1807384
  27.9856764  46.4770233  82.5940785  27.7402806  45.5732563  82.7920995
  28.1552678  46.4787384  81.6520263  35.6753474  37.3493910  91.9765540
  36.1935417  38.0854937  91.6512029  35.3208606  37.6557903  92.8112300
  27.2552411  42.2098591  80.0926946  26.5621656  42.2842946  79.4366982
  27.0104163  41.4458934  80.6148463  35.9266068  33.7694192  87.4966437
  36.2067822  33.1017381  88.1226864  36.7116675  33.9623288  86.9841101
  33.7299536  52.9453186  79.0591463  33.1573503  53.5643373  78.6061935
  34.3032330  53.4952548  79.5931385  39.7974926  42.1911826  91.2438012
  40.7492349  42.2909924  91.2650236  39.6278377  41.3990095  91.7536097
  37.8189306  39.2767409  91.4297413  37.2239238  39.5572422  90.7343902
  37.5339002  39.7661310  92.2014154  34.1146335  44.2813999  76.4007516
  35.0605440  44.1520207  76.4695934  33.7360580  43.5428661  76.8776944
  42.4257492  42.2028989  90.4038595  41.9096541  41.4187446  90.2168524
  43.3097441  41.8747706  90.5685115  40.0868219  35.9470005  86.3634408
  39.8893040  35.6385093  87.2477740  40.6967925  36.6731644  86.4932338
  32.2989252  42.2063975  76.3362401  31.3920707  41.9097088  76.4125115
  32.5765233  41.9093793  75.4696687  23.2167192  43.5270339  86.7861448
  22.8969977  42.6735647  86.4935822  22.6700621  43.7418917  87.5419415
  26.9947100  46.2432780  90.5030954  27.2133110  47.1749887  90.5218988
  27.4072874  45.8840754  91.2885758  33.9151318  36.7500865  82.4906642
  33.1052046  36.4047950  82.8661888  34.6035735  36.4408409  83.0794254
  35.8441866  35.8278912  84.1130939  36.3972905  36.2474365  84.7720962
  36.0811952  34.9014660  84.1553895  31.8674965  41.8165985  99.8933703
  31.7671692  42.7660342  99.8245794  31.6496507  41.4884224  99.0209773
  31.0688037  39.0650910  76.4774380  31.9307201  39.3905809  76.7370198
  31.2538381  38.2782406  75.9647446  23.0855452  47.1473250  88.7554569
  22.3918924  46.7327203  88.2424524  23.8328443  47.1893787  88.1587988
  39.2220673  37.9379437  83.6209603  38.6419342  38.5964241  83.2387656
  38.9556606  37.1156781  83.2097021  37.6724239  37.3384495  85.8230924
  38.1724018  37.4501029  85.0145242  38.3159847  37.0345547  86.4631732
  31.7306235  45.2463124  98.7098765  31.2473317  46.0463484  98.9162654
  31.8167174  45.2571069  97.7566209  24.9992195  47.0791504  86.6320584
  24.9762883  47.1779191  85.6802467  25.3092831  47.9256655  86.9537750
  27.6579573  49.1367659  90.7467198  28.6122826  49.1051601  90.6797130
  27.4592096  48.6758283  91.5617424  28.2478955  47.7068775  93.3137996
  29.0671844  48.2012854  93.3372833  28.5215763  46.7900743  93.2855564
  38.0045551  40.0979527  82.6765952  37.1171406  40.3829178  82.4586146
  38.4199540  39.9373291  81.8293228  41.3560087  40.1226048  86.3920291
  42.1320477  40.6122501  86.6644908  40.6308221  40.5484102  86.8492160
  43.7932646  40.8353667  87.4494231  44.3877137  40.5949403  86.7387540
  43.8659230  40.1160798  88.0767768  37.1488765  49.8624202  76.7713972
  37.8524615  50.0674204  77.3871627  36.4251413  50.4300964  77.0363055
  37.9786575  45.6134063  82.8916242  37.9221776  46.0702615  82.0523874
  38.5314917  44.8524748  82.7139084  41.7891381  41.4023795  83.7166361
  41.5328315  41.0020431  84.5474569  41.1644249  42.1167589  83.5916500
  46.1003719  44.1419868  86.2237653  45.5403277  44.2113058  86.9969215
  45.4947222  43.9660853  85.5037149  38.7121354  46.8038844  80.1868771
  38.6570158  46.6383116  79.2457215  38.0867409  47.5114877  80.3430961
  23.5013869  42.0406909  94.0130193  24.1472733  41.5305863  94.5017418
  23.2931020  42.7775590  94.5873618  32.0217480  36.3046953  79.7654089
  32.0096149  37.2488793  79.9222360  32.9140901  36.1217099  79.4713551
  35.8369599  32.8989730  84.0200026  35.0701995  32.3448217  84.1656708
  36.2480304  32.9711599  84.8814178  27.8411360  39.1874526  98.1105207
  28.7042822  38.8311331  98.3208532  27.2676771  38.8488421  98.7980612
  50.1634853  52.1924643  91.3548403  49.8318178  53.0620054  91.1309618
  49.5680466  51.8760927  92.0342434  50.0563516  56.9119730  88.4341754
  49.1480394  56.8435138  88.1400515  50.0051112  57.3891675  89.2623579
  51.9225163  55.1136168  90.2119627  51.2799543  55.4068701  89.5659422
  51.4180091  54.9989088  91.0172824  58.5226893  61.6450260  86.7666104
  57.7690602  61.0757658  86.6110109  58.6574434  61.6112925  87.7136739
  42.5857411  52.4937609  87.9435132  43.4510408  52.2980418  87.5841022
  42.6534920  52.2647961  88.8704489  49.0605650  49.2987784  86.0737455
  49.3664527  48.4385147  85.7863370  49.7858255  49.8905404  85.8736449
  46.8693302  58.6760461  93.1718919  47.2242690  58.9031934  94.0313384
  47.5165433  59.0078838  92.5496174  53.4875968  63.9079125  91.4212405
  53.6811858  64.8124935  91.6671679  53.3876586  63.4486544  92.2550990
  48.5491077  64.0585867  96.9953285  48.3976583  63.8296419  96.0783369
  48.5395756  65.0156469  97.0084630  50.2583283  67.0904990  95.0729767
  50.1995829  66.4064210  94.4060350  50.6602802  67.8323980  94.6210393
  31.9129838  61.3868666  86.6286798  32.6000877  61.0730396  86.0407813
  31.7577966  62.2910030  86.3554050  49.3307268  51.7282019  88.5721376
  48.4170348  51.9586246  88.7403583  49.7600370  51.8120463  89.4235408
  48.7434957  66.7919907  97.6493577  49.2874861  67.4049865  97.1548532
  48.1621802  67.3499486  98.1660590  44.9659017  51.8797751  86.6330549
  44.9880713  51.9437084  85.6782528  45.3827076  51.0402260  86.8271055
  52.0663752  66.2515961  96.9854899  51.2759295  66.2340100  96.4459398
  51.8297106  66.7904255  97.7403935  52.1861627  63.1008428  94.2987627
  52.2359631  62.9358435  95.2403150  52.0775550  62.2335687  93.9085508
  49.4765389  59.0839356  95.6146934  50.3775252  58.9445820  95.3230932
  49.5513363  59.2493810  96.5545111  53.6879823  65.5205369  94.5429649
  53.3964632  65.8835350  95.3793110  53.0751955  64.8072377  94.3642981
  51.9367012  60.6437984  93.0109707  52.4121133  60.8365630  92.2028558
  51.0132577  60.6997170  92.7653090  50.6368681  57.5203744  91.2438012
  51.5886104  57.6201842  91.2650236  50.4672131  56.7282012  91.7536097
  58.9333308  61.8025870  89.4986349  59.6636697  61.5411159  90.0594052
  58.3240254  61.0654592  89.5388417  57.0148605  59.9433733  90.0960800
  56.2881769  59.8089698  89.4877291  56.5995892  60.2510562  90.9017518
  46.6835620  51.1570829  84.1130939  47.2366659  51.5766283  84.7720962
  46.9205707  50.2306578  84.1553895  33.9249207  62.4765168  88.7554569
  33.2312678  62.0619121  88.2424524  34.6722198  62.5185704  88.1587988
  46.6763354  48.2281648  84.0200026  45.9095749  47.6740134  84.1656708
  47.0874058  48.3003517  84.8814178  55.8162981  77.2530580  94.8115339
  55.8051622  76.8583378  93.9395842  55.9783620  76.5196652  95.4049110
  52.5370242  80.0367692  93.7594523  52.2460108  80.9413322  93.6441189
  53.1727226  80.0784219  94.4738592  61.0028607  67.5216561  91.3548403
  60.6711932  68.3911972  91.1309618  60.4074221  67.2052845  92.0342434
  57.4960127  79.7229107  90.7544316  57.1960850  80.6254146  90.6460123
  57.1511187  79.4561290  91.6065469  60.8957271  72.2411647  88.4341754
  59.9874148  72.1727056  88.1400515  60.8444867  72.7183592  89.2623579
  52.4780907  86.4873427  83.7215284  52.4004936  87.4381253  83.8003764
  51.8742550  86.1419300  84.3790210  54.9698137  73.6601293  96.3776651
  54.1931471  74.2195213  96.3679515  55.6088700  74.1458076  96.8991521
  62.7618917  70.4428086  90.2119627  62.1193297  70.7360619  89.5659422
  62.2573846  70.3281006  91.0172824  58.6999849  78.6115887  94.5366779
  59.1083205  78.1698297  93.7921412  57.9777110  78.0368514  94.7900972
  59.0228663  79.1717077  88.2919068  58.3937526  79.3362791  87.5895136
  58.6354325  79.5858687  89.0630032  58.2030364  71.2092862  93.5681510
  57.9591296  71.9634922  93.0315786  58.4790294  71.5878209  94.4028757
  60.1568827  77.7531474  92.2458775  60.3685722  78.3963234  91.5693157
  60.1098575  76.9193791  91.7780706  61.2714655  80.6303430  90.4181133
  62.0932098  80.2283617  90.1363814  61.2677057  80.5271664  91.3697249
  55.0371258  80.1787473  92.5741843  55.1015691  80.6407880  93.4100015
  54.3282182  79.5484838  92.7024153  54.7519276  81.8455580  82.4420824
  54.6164951  82.6907116  82.8705671  55.2929088  82.0474858  81.6786757
  51.2386615  67.9247160  99.1035179  50.8453561  67.3713359  99.7782823
  52.0552756  68.2357739  99.4941696  50.0143558  82.4796775  85.0971502
  50.1910186  83.4014739  84.9092486  50.8100391  82.1655194  85.5265882
  54.1554576  69.3405039  96.6955435  54.8964290  69.9412192  96.6159898
  54.3872499  68.5982677  96.1373478  56.3787752  82.4679147  96.5721166
  55.9351606  81.6815525  96.2542070  57.0404966  82.6558297  95.9065057
  51.1374873  83.9974948  91.0981844  51.6882298  83.8692012  90.3258838
  50.2986349  84.2969838  90.7476737  58.4768990  82.7481947  94.6002567
  58.4587466  83.5690828  94.1082836  59.3988910  82.6236022  94.8252708
  54.9342044  80.2626076  95.4426075  55.4670381  79.5014364  95.2125383
  54.4056125  79.9699728  96.1850230  58.1011739  65.3686142  90.9719717
  57.7576009  66.2587784  90.8958828  58.4690702  65.1787800  90.1089302
  59.8999405  64.6279701  86.0737455  60.2058282  63.7677065  85.7863370
  60.6252010  65.2197322  85.8736449  54.2621422  83.5368311  86.2738289
  54.2197601  83.7629158  85.3446821  55.1784121  83.3031686  86.4224091
  57.7087056  74.0052379  93.1718919  58.0636444  74.2323852  94.0313384
  58.3559188  74.3370756  92.5496174  63.4654173  79.1947342  88.8879519
  63.8990680  79.1022631  89.7362573  64.1785754  79.1704842  88.2499535
  57.1982068  82.7949436  90.4212620  57.2519090  83.3640372  91.1890336
  56.3296849  82.9651321  90.0566657  64.3269722  79.2371042  91.4212405
  64.5205612  80.1416853  91.6671679  64.2270341  78.7778461  92.2550990
  55.9806033  69.1228933  93.9202732  55.3333948  69.8218883  93.8267208
  56.7507049  69.5565077  94.2878980  59.3884831  79.3877785  96.9953285
  59.2370337  79.1588337  96.0783369  59.3789511  80.3448386  97.0084630
  54.9558499  80.9860362  89.7498089  54.8169585  80.6179147  90.6224027
  54.1673095  81.5008002  89.5782047  55.5506651  86.0869459  81.0923626
  55.7258407  85.6157502  81.9069248  54.8639439  86.7135225  81.3204886
  56.5063714  80.3641965  87.1386927  56.1713547  80.3242735  88.0344577
  56.0067660  79.6986681  86.6657337  61.0977038  82.4196908  95.0729767
  61.0389584  81.7356128  94.4060350  61.4996556  83.1615898  94.6210393
  50.1167737  89.2358821  87.8663486  50.3564335  89.8677346  88.5442505
  49.2736933  88.8846861  88.1528845  61.0994445  80.3836492  93.3043747
  60.2121224  80.0462413  93.4270146  61.6692996  79.6519523  93.5412512
  54.6295598  85.0437944  90.2704990  54.5565770  85.8492915  90.7824294
  54.1872991  85.2429910  89.4453011  54.4185378  84.2809714  83.7807811
  53.6352900  84.8231394  83.8746036  55.1178123  84.7983694  84.1802053
  57.0894282  84.9424778  92.4263149  57.8022254  85.5772243  92.3539050
  56.5984311  85.0388644  91.6103150  52.1406195  82.6919221  93.2468719
  52.8415655  83.3255704  93.3998114  51.6701310  83.0333953  92.4864359
  60.1701023  67.0573937  88.5721376  59.2564103  67.2878164  88.7403583
  60.5994124  67.1412381  89.4235408  59.9407481  75.2463829  91.0721270
  59.2878932  75.4939736  90.4173723  60.3187861  74.4327967  90.7383747
  56.9014655  85.2823522  85.1749440  57.0837050  84.4645178  85.6377192
  57.7247641  85.4991214  84.7374330  57.2356821  84.2091707  82.4364489
  57.7644587  83.6984162  81.8234651  57.4985040  83.8934237  83.3010022
  55.9895054  75.9883640  97.5587307  55.3135691  75.8877769  98.2289682
  56.8122688  75.8322854  98.0223304  47.7373913  82.2255576  90.1799822
  48.3227350  81.4799264  90.3127726  47.5398752  82.5359533  91.0636486
  50.5912569  85.2606824  85.1962264  49.9222944  85.7452951  84.7126305
  50.4525438  85.5076044  86.1105643  54.7317837  87.2950567  91.7944923
  55.2836145  87.4582189  92.5594008  55.0724031  87.8855005  91.1224948
  59.5828712  82.1211825  97.6493577  60.1268616  82.7341783  97.1548532
  59.0015556  82.6791403  98.1660590  57.8686225  85.2432543  88.7808605
  57.7437364  84.4422283  88.2719550  58.5265316  85.7378736  88.2922575
  59.9321133  83.0441563  90.4088155  58.9851468  82.9246914  90.3366482
  60.2803906  82.1564061  90.4914417  52.2920706  68.9335702  94.2326397
  52.8155108  69.1797998  94.9952706  52.0733040  69.7655737  93.8129534
  56.9367566  82.8394279  86.6092507  56.7892529  81.9110987  86.7900077
  57.7621060  82.8614370  86.1249583  53.4973251  69.8749397  91.9176068
  53.1570072  69.0757210  92.3196747  52.7912258  70.1751108  91.3452901
  54.1489723  66.9598709  90.3703391  54.9715793  66.4859188  90.2482281
  54.3927787  67.7389193  90.8702077  54.8783649  84.8609049  93.8093577
  55.1870775  84.6158196  94.6816277  55.6759131  85.0655687  93.3212447
  54.9004261  87.0146959  86.0398954  54.4609251  86.5223337  86.7331810
  55.6512378  86.4719926  85.7991029  47.3796600  83.2058499  86.0423582
  48.2054620  82.9062271  85.6622225  47.0290652  82.4366122  86.4913370
  52.3478133  82.5584968  88.1121255  51.7258142  81.8955673  87.8123483
  53.0183000  82.5846100  87.4294903  45.5805205  81.1244826  87.0012515
  44.7437113  80.6967000  86.8196517  45.5528850  81.3177269  87.9383307
  52.4202660  71.0366756  97.7053761  52.4690816  71.9128878  97.3231531
  52.9625175  70.4944149  97.1325405  62.9057506  81.5807879  96.9854899
  62.1153050  81.5632018  96.4459398  62.6690861  82.1196173  97.7403935
  63.0255381  78.4300345  94.2987627  63.0753386  78.2650353  95.2403150
  62.9169304  77.5627604  93.9085508  51.9091640  81.1088891  81.5879716
  52.0579760  81.7924355  80.9346389  52.7158083  81.0893981  82.1029172
  60.3159143  74.4131273  95.6146934  61.2169006  74.2737738  95.3230932
  60.3907118  74.5785728  96.5545111  54.6501949  71.7898128  94.4600120
  53.7805258  72.0831694  94.1882709  54.8861429  72.3738573  95.1807384
  64.5273578  80.8497287  94.5429649  64.2358386  81.2127267  95.3793110
  63.9145709  80.1364295  94.3642981  62.7760766  75.9729901  93.0109707
  63.2514888  76.1657548  92.2028558  61.8526331  76.0289087  92.7653090
  57.3540983  68.0077745  91.9765540  57.8722926  68.7438772  91.6512029
  56.9996115  68.3141738  92.8112300  61.4762435  72.8495662  91.2438012
  62.4279858  72.9493759  91.2650236  61.3065886  72.0573930  91.7536097
  59.4976815  69.9351245  91.4297413  58.9026747  70.2156257  90.7343902
  59.2126511  70.4245146  92.2014154  63.9550513  76.0701781  90.3580312
  63.9226833  75.1317782  90.5439996  64.5651137  76.1485818  89.6246137
  64.1045001  72.8612825  90.4038595  63.5884050  72.0771281  90.2168524
  64.9884950  72.5331541  90.5685115  61.7655728  66.6053840  86.3634408
  61.5680549  66.2968928  87.2477740  62.3755434  67.3315479  86.4932338
  69.7727063  77.1317788  89.4986349  70.5030451  76.8703076  90.0594052
  69.1634008  76.3946510  89.5388417  55.6772536  78.9915580  97.8608173
  56.5975546  79.1694179  98.0548219  55.6422119  78.0471626  97.7087872
  53.5462474  72.4749821  99.8933703  53.4459201  73.4244178  99.8245794
  53.3284016  72.1468060  99.0209773  60.9008182  68.5963272  83.6209603
  60.3206851  69.2548076  83.2387656  60.6344115  67.7740617  83.2097021
  59.3511748  67.9968330  85.8230924  59.8511527  68.1084864  85.0145242
  59.9947356  67.6929383  86.4631732  53.4093744  75.9046960  98.7098765
  52.9260826  76.7047320  98.9162654  53.4954683  75.9154904  97.7566209
  59.6833060  70.7563363  82.6765952  58.7958915  71.0413013  82.4586146
  60.0987049  70.5957126  81.8293228  63.0347596  70.7809884  86.3920291
  63.8107986  71.2706336  86.6644908  62.3095730  71.2067938  86.8492160
  47.6917310  85.3371114  87.7637396  47.5571778  84.5771515  87.1975394
  47.2749373  86.0612014  87.2966185  50.8486436  86.2340431  87.9755839
  50.7318821  87.1785863  87.8734529  50.0278883  85.9313992  88.3641638
  57.7054770  79.7671592  99.5122334  58.5745930  79.9412244  99.1508969
  57.2261522  80.5866008  99.3898063  51.8740950  86.8868693  91.1911767
  52.7768197  86.9192303  91.5078262  51.6478321  85.9569144  91.2058103
  53.6294553  85.6399679  87.8521846  52.6790184  85.6401541  87.7386218
  53.9327039  84.8932414  87.3357881  69.3647246  91.4760218  88.9167608
  70.0025656  91.3566965  88.2130948  69.2468089  92.4241062  88.9755560
  66.1736952  91.4287646  88.8529133  65.8355464  91.3128710  87.9649668
  67.0426720  91.0278811  88.8330139  62.0323768  93.2823122  84.8426024
  61.4688633  93.1913059  84.0742312  61.9176163  92.4623027  85.3228517
  66.6556735  92.5822497  94.8115339  66.6445376  92.1875296  93.9395842
  66.8177375  91.8488570  95.4049110  59.5788200  94.7774314  87.6810244
  60.3709492  94.4365138  87.2656544  59.8184850  94.8869289  88.6012398
  67.6123327  96.9494090  80.1540489  66.9611306  97.5348170  79.7674503
  68.4067689  97.4800285  80.2135526  61.5378954  94.0383227  80.5527623
  62.3109830  93.4912214  80.4140499  61.8904353  94.9027476  80.7642085
  63.3763996  95.3659609  93.7594523  63.0853862  96.2705240  93.6441189
  64.0120981  95.4076137  94.4738592  64.3020203  92.7436458  90.3495882
  64.8983776  92.5192480  89.6352845  64.3595175  92.0021203  90.9521330
  63.8745232  90.1975893  78.1846073  64.1270752  89.6757414  77.4229536
  62.9369791  90.0342039  78.2872757  68.9188514  89.2011671  85.9920816
  69.7051604  88.7831095  85.6411233  69.1827219  90.1057764  86.1602465
  69.0898592  94.6384522  80.6909473  68.4544425  94.7119148  81.4030378
  68.7595998  95.2278121  80.0128552  74.3196942  89.1386905  86.8953795
  75.0522114  88.5686121  87.1291624  73.5636297  88.7508505  87.3360300
  63.5941520  92.1003999  80.3870448  63.4777779  91.4248902  81.0551532
  63.7043780  91.6136373  79.5702601  65.9373061  91.5614146  84.0917137
  65.5731269  91.0344767  84.8030059  66.7940177  91.1712615  83.9183623
  71.8422362  82.8508479  91.3548403  71.5105687  83.7203890  91.1309618
  71.2467975  82.5344763  92.0342434  68.3353881  95.0521025  90.7544316
  68.0354605  95.9546064  90.6460123  67.9904941  94.7853208  91.6065469
  61.7866363  91.5034822  86.7881021  60.8616859  91.3711036  86.9958712
  62.0350776  92.2829041  87.2850963  71.7351025  87.5703565  88.4341754
  70.8267903  87.5018973  88.1400515  71.6838621  88.0475510  89.2623579
  65.5567769  89.0461703  80.0725153  65.4367394  89.4918754  80.9110633
  64.8620358  89.3947021  79.5138691  59.1475174  91.1468095  87.6224810
  59.2767555  91.4002574  88.5364221  58.4672625  91.7395803  87.3029465
  63.3174661 101.8165345  83.7215284  63.2398691 102.7673170  83.8003764
  62.7136305 101.4711218  84.3790210  65.8091891  88.9893211  96.3776651
  65.0325225  89.5487131  96.3679515  66.4482454  89.4749994  96.8991521
  73.6012672  85.7720003  90.2119627  72.9587052  86.0652537  89.5659422
  73.0967600  85.6572924  91.0172824  71.2552835  89.5183177  80.9005487
  72.1670691  89.7510563  80.7253184  70.7462482  90.1020221  80.3380565
  64.0638263  91.7978664  95.9394618  64.8052948  92.3363708  95.6629441
  63.3575249  92.4244953  96.0966170  69.5393603  93.9407804  94.5366779
  69.9476959  93.4990215  93.7921412  68.8170865  93.3660432  94.7900972
  65.8924673  88.8780411  91.9100336  66.7385868  89.3019825  92.0534985
  65.8323311  88.2214035  92.6038899  69.8622418  94.5008995  88.2919068
  69.2331280  94.6654709  87.5895136  69.4748080  94.9150605  89.0630032
  73.7411650  95.4363433  85.6463432  73.0562688  95.8162334  85.0960465
  73.8255499  96.0458759  86.3795380  69.0424118  86.5384779  93.5681510
  68.7985050  87.2926840  93.0315786  69.3184049  86.9170127  94.4028757
  70.9962581  93.0823392  92.2458775  71.2079476  93.7255152  91.5693157
  70.9492329  92.2485708  91.7780706  68.5988810  85.6941213  89.1495348
  67.7373289  85.9922466  89.4412085  68.6251245  85.9111611  88.2176380
  65.4150380  94.2383403  85.5569153  65.8788725  94.5171106  84.7673776
  65.1507178  93.3366848  85.3742244  62.3074461  93.7854885  88.4948917
  62.8775818  94.2142153  87.8566401  62.8982572  93.5037469  89.1933102
  64.3519266  90.3606555  82.3658718  65.0543309  90.8127599  82.8332645
  64.0199894  89.7190374  82.9938612  62.7999627  88.9518312  96.7409928
  62.1698288  89.6334593  96.9745325  62.6935715  88.8401394  95.7963066
  58.0944600  88.6190108  87.6675852  57.3043654  88.8747637  87.1915963
  58.5855847  89.4338446  87.7727893  72.1108409  95.9595347  90.4181133
  72.9325853  95.5575535  90.1363814  72.1070812  95.8563581  91.3697249
  60.0459345  88.9834687  84.6259329  59.2490508  89.0953382  85.1442824
  59.8184937  89.3221340  83.7600219  65.8765013  95.5079391  92.5741843
  65.9409445  95.9699798  93.4100015  65.1675936  94.8776755  92.7024153
  56.3782303  88.8720599  90.0990843  56.6290341  89.7567608  90.3648419
  56.9141851  88.6925200  89.3265935  80.2014402  92.3034096  86.7666104
  79.4478111  91.7341494  86.6110109  80.3361943  92.2696760  87.7136739
  65.5913030  97.1747498  82.4420824  65.4558705  98.0199034  82.8705671
  66.1322843  97.3766776  81.6786757  62.0780370  83.2539078  99.1035179
  61.6847315  82.7005276  99.7782823  62.8946510  83.5649656  99.4941696
  59.0442428  94.6922936  83.0148749  59.5566948  95.4866186  83.1654313
  59.6965140  93.9949227  82.9482350  60.8537312  97.8088692  85.0971502
  61.0303941  98.7306657  84.9092486  61.6494146  97.4947112  85.5265882
  64.9948331  84.6696957  96.6955435  65.7358044  85.2704110  96.6159898
  65.2266254  83.9274595  96.1373478  60.1389669  89.8553324  94.9733665
  60.0243184  88.9538582  95.2740764  59.2834187  90.1017021  94.6218482
  67.2181507  97.7971065  96.5721166  66.7745361  97.0107443  96.2542070
  67.8798720  97.9850215  95.9065057  61.9768628  99.3266866  91.0981844
  62.5276053  99.1983930  90.3258838  61.1380104  99.6261755  90.7476737
  69.3162745  98.0773865  94.6002567  69.2981220  98.8982746  94.1082836
  70.2382665  97.9527940  94.8252708  65.7735799  95.5917994  95.4426075
  66.3064136  94.8306282  95.2125383  65.2449880  95.2991646  96.1850230
  68.9405494  80.6978060  90.9719717  68.5969763  81.5879702  90.8958828
  69.3084456  80.5079718  90.1089302  57.0091344  93.0211590  83.7908319
  57.8466566  93.4308599  83.5742027  57.1869612  92.0811033  83.7608513
  68.9055776  90.6886671  79.4792152  68.3902400  91.4591276  79.7180540
  68.6333085  90.0151807  80.1025214  66.4902888  85.5336372  84.5377391
  65.6344484  85.1443222  84.3583029  66.9029839  85.6128333  83.6777176
  68.0202034  83.0682715  88.9368950  67.5166830  83.0312850  88.1236756
  68.3132641  83.9775458  88.9965607  64.2644920  83.1521445  87.9435132
  65.1297917  82.9564254  87.5841022  64.3322429  82.9231797  88.8704489
  73.8790051  93.4419026  81.4145326  73.1019493  93.1030185  80.9700488
  74.5581532  93.4471649  80.7400291  68.6942080  88.5613763  81.3051933
  68.3892215  88.8759912  82.1562077  69.6472522  88.6395183  81.3479266
  67.1388512  94.7203986  82.9544887  66.6109873  93.9856746  82.6418125
  66.6376014  95.4978663  82.7084856  72.1181358  92.9153007  88.0711934
  71.4605032  93.6052268  88.1592062  72.9221757  93.3049439  88.4145920
  70.9286816  91.2697380  86.1215875  71.4418698  91.9027371  86.6237585
  71.5788040  90.6698575  85.7559235  65.2841112  92.5384197  75.9579860
  64.3768173  92.3073450  76.1571009  65.7812144  91.7421816  76.1453842
  68.1909191 101.2481704  78.8776547  67.5170889 101.5513401  79.4861504
  68.5775013 102.0510784  78.5282004  67.4067647  88.7446835  88.3674216
  66.4890209  88.9661782  88.2095904  67.8227791  88.8193146  87.5085923
  68.1902695  90.1438251  83.4976896  68.9374514  90.6559648  83.1884018
  68.4594285  89.8222304  84.3581290  66.4629345  92.6396792  80.4803851
  65.5540564  92.3555824  80.5776320  66.4924429  93.0595870  79.6207157
  71.6948613  96.2503381  84.2495018  71.2410940  95.4094291  84.3060209
  71.0642579  96.8864779  84.5869798  70.6381532  87.1795367  85.4795686
  69.9004289  86.6672753  85.8105928  70.8908306  86.7395749  84.6678962
  70.1381552  98.0879878  85.1844836  70.4304526  98.6484935  84.4657202
  70.6480172  98.3808439  85.9397995  70.7393159  79.9571619  86.0737455
  71.0452036  79.0968983  85.7863370  71.4645764  80.5489239  85.8736449
  57.0317516  90.3602306  84.4619053  56.8341915  89.7671666  83.7370119
  56.4764180  90.0554516  85.1794992  65.0114239  90.2525412  86.5813646
  65.0662849  89.2999249  86.5056122  64.2005441  90.4084851  87.0654944
  66.1605433  94.1805535  77.8191929  65.7224863  93.4641394  77.3597566
  66.9015874  94.4081650  77.2577020  62.9506599  88.8702472  84.3404025
  62.1374465  89.1696642  84.7469217  63.4465593  88.4758161  85.0578507
  65.1015177  98.8660229  86.2738289  65.0591356  99.0921075  85.3446821
  66.0177876  98.6323603  86.4224091  68.5480811  89.3344296  93.1718919
  68.9030199  89.5615770  94.0313384  69.1952942  89.6662673  92.5496174
  74.2778548  92.4562732  83.8768248  74.1396446  92.6464328  82.9489437
  73.9214767  93.2182115  84.3336299  62.4420674  86.4420827  89.9565260
  63.0820053  86.3009587  89.2588223  61.6098204  86.1555341  89.5803862
  74.3047927  94.5239259  88.8879519  74.7384434  94.4314548  89.7362573
  75.0179508  94.4996760  88.2499535  63.2180978  95.7423258  86.0700252
  64.0121576  95.2473578  85.8682827  62.5072670  95.2141121  85.7067958
  68.0375822  98.1241353  90.4212620  68.0912845  98.6932290  91.1890336
  67.1690604  98.2943238  90.0566657  59.5263741  89.8866340  82.1460005
  58.5961329  89.8250795  82.3629967  59.6221213  89.3642292  81.3496646
  59.4449290  86.4121152  84.7338246  59.7056108  87.3266486  84.6247407
  60.2666463  85.9445595  84.8834859  60.9174216  87.8258910  91.9037071
  61.5897269  87.6176272  91.2549720  60.0904002  87.6280996  91.4642303
  75.1663477  94.5662960  91.4212405  75.3599367  95.4708770  91.6671679
  75.0664095  94.1070379  92.2550990  66.8199788  84.4520851  93.9202732
  66.1727703  85.1510800  93.8267208  67.5900803  84.8856994  94.2878980
  70.2278586  94.7169703  96.9953285  70.0764092  94.4880254  96.0783369
  70.2183265  95.6740304  97.0084630  66.9963922  92.2901615  91.9799552
  67.9255982  92.4412775  91.8068519  66.5754952  92.3785636  91.1248198
  65.7952254  96.3152280  89.7498089  65.6563339  95.9471064  90.6224027
  65.0066850  96.8299919  89.5782047  66.3900406 101.4161376  81.0923626
  66.5652161 100.9449420  81.9069248  65.7033194 102.0427143  81.3204886
  67.3457469  95.6933883  87.1386927  67.0107302  95.6534653  88.0344577
  66.8461415  95.0278598  86.6657337  61.3201713  91.1001513  92.6639508
  61.1821511  90.3681751  93.2651047  62.2306636  91.0110413  92.3823696
  70.2816661  93.0389917  77.4123987  69.6645831  92.3136745  77.3157039
  69.8133149  93.7999277  77.0691061  63.9484014  90.8121472  92.1523188
  64.6583632  90.1714664  92.1109806  63.9053322  91.0634367  93.0749369
  71.9370792  97.7488825  95.0729767  71.8783338  97.0648045  94.4060350
  72.3390311  98.4907815  94.6210393  62.6612948  87.7986690  93.9718827
  62.1250305  87.3477428  94.6240424  62.0729656  87.9332599  93.2289292
  60.9561491 104.5650739  87.8663486  61.1958089 105.1969263  88.5442505
  60.1130687 104.2138779  88.1528845  71.9388199  95.7128409  93.3043747
  71.0514978  95.3754331  93.4270146  72.5086751  94.9811440  93.5412512
  53.5917347  92.0452501  86.6286798  54.2788386  91.7314231  86.0407813
  53.4365475  92.9493866  86.3554050  58.3952069  86.9342698  91.0571822
  58.3110257  86.3268367  90.3222232  57.5734775  87.4251716  91.0581318
  65.4689353 100.3729862  90.2704990  65.3959524 101.1784833  90.7824294
  65.0266746 100.5721827  89.4453011  65.2579132  99.6101632  83.7807811
  64.4746654 100.1523312  83.8746036  65.9571878 100.1275611  84.1802053
  68.5675783  85.4196261  86.4242017  69.0644482  84.6666223  86.1043087
  67.7962764  85.4560578  85.8585226  76.4205540  91.1236627  88.0660308
  76.4095416  92.0061342  87.6954241  75.5522919  90.7708177  87.8714845
  67.9288036 100.2716696  92.4263149  68.6416009 100.9064160  92.3539050
  67.4378065 100.3680562  91.6103150  69.6505563  94.1767948  83.9980440
  68.7161842  94.2969411  83.8285145  69.8282232  93.2740415  83.7340450
  65.1510751  87.5613644  86.1513701  64.7808539  87.0084684  86.8394607
  65.6469844  86.9571778  85.5988701  73.0378115  90.0185268  84.5330474
  73.5038567  90.8513259  84.4590777  73.4885615  89.5530249  85.2375733
  62.9799950  98.0211139  93.2468719  63.6809409  98.6547622  93.3998114
  62.5095065  98.3625871  92.4864359  71.1054346  96.3629089  81.5316626
  71.3814190  96.2485683  82.4410501  70.2358844  95.9646574  81.4928800
  71.0094777  82.3865855  88.5721376  70.0957857  82.6170081  88.7403583
  71.4387879  82.4704299  89.4235408  70.7801236  90.5755746  91.0721270
  70.1272686  90.8231654  90.4173723  71.1581616  89.7619885  90.7383747
  67.7408410 100.6115440  85.1749440  67.9230804  99.7937096  85.6377192
  68.5641396 100.8283132  84.7374330  68.0750575  99.5383625  82.4364489
  68.6038342  99.0276079  81.8234651  68.3378795  99.2226155  83.3010022
  66.8288809  91.3175558  97.5587307  66.1529446  91.2169687  98.2289682
  67.6516443  91.1614771  98.0223304  58.5767668  97.5547494  90.1799822
  59.1621105  96.8091182  90.3127726  58.3792506  97.8651451  91.0636486
  61.4306323 100.5898741  85.1962264  60.7616698 101.0744869  84.7126305
  61.2919193 100.8367962  86.1105643  53.1685323  90.1253094  88.9004265
  53.2069422  89.5916685  89.6941383  52.6625616  89.5988300  88.2815242
  65.5711592 102.6242485  91.7944923  66.1229900 102.7874107  92.5594008
  65.9117785 103.2146923  91.1224948  60.5476085  84.9717635  92.3966808
  60.6117412  85.8332466  91.9844205  60.4843205  84.3591636  91.6639166
  60.0228358  87.0440767  96.0439842  60.6500396  86.6617845  96.6577366
  59.1656276  86.8254969  96.4095534  70.4222466  97.4503743  97.6493577
  70.9662370  98.0633701  97.1548532  69.8409311  98.0083321  98.1660590
  56.7993900  88.8517196  81.9758197  57.0947341  87.9427875  81.9225250
  55.8981936  88.8304936  81.6539199  68.7079979 100.5724461  88.7808605
  68.5831119  99.7714200  88.2719550  69.3659070 101.0670654  88.2922575
  60.3288147  86.9273193  87.9585745  59.6074733  87.5409161  87.8193219
  61.1181403  87.4630958  87.8802391  70.7714887  98.3733481  90.4088155
  69.8245223  98.2538832  90.3366482  71.1197661  97.4855979  90.4914417
  63.1314461  84.2627620  94.2326397  63.6548863  84.5089916  94.9952706
  62.9126794  85.0947654  93.8129534  58.5281742  86.5331294  82.0997522
  58.1994448  85.6528673  81.9172628  58.8821113  86.4778963  82.9873911
  67.7761321  98.1686197  86.6092507  67.6286283  97.2402904  86.7900077
  68.6014814  98.1906288  86.1249583  61.6423565  86.8204264  82.4672999
  61.9819638  87.3490185  81.7451608  62.0895686  87.1584670  83.2431566
  71.3795443  98.9914756  87.6957380  72.3041990  98.7857617  87.5581831
  71.2110746  98.7431157  88.6046722  64.3367006  85.2041315  91.9176068
  63.9963826  84.4049128  92.3196747  63.6306012  85.5043025  91.3452901
  64.9883478  82.2890627  90.3703391  65.8109547  81.8151105  90.2482281
  65.2321541  83.0681111  90.8702077  62.5122056  88.9809748  88.1795369
  62.3666637  89.2950051  89.0719651  62.0347260  89.5994648  87.6266268
  64.3718439  85.9712296  88.2276259  64.3580008  85.0753389  87.8908557
  65.0890867  85.9782959  88.8614545  66.2244570  86.4049636  90.2729386
  65.9662348  87.3266707  90.2713717  65.6929610  86.0080070  90.9629850
  71.1690759  99.5100423  83.0519472  71.3427636  98.9446845  82.2993324
  71.6619650 100.3101318  82.8698961  56.9867719  91.5215092  91.1183030
  56.4421187  92.2974900  91.2503305  57.8647068  91.8685897  90.9602152
  66.6446526  82.5381586  86.6330549  66.6668222  82.6020919  85.6782528
  67.0614585  81.6986095  86.8271055  77.0230150  92.2736846  84.6709771
  77.4661296  91.5244171  84.2728895  76.1456660  92.2646982  84.2883503
  72.1565931  98.8267187  80.1516370  72.8516836  99.4473880  80.3703684
  72.4989081  97.9762539  80.4268748  57.7733740  90.6484988  94.0113187
  57.0315477  90.7967624  94.5977818  57.4526485  90.9093254  93.1479937
  74.0557354  96.2766893  81.6803701  74.5808679  96.6154166  80.9553021
  73.9679707  95.3413908  81.4966835  65.7177403 100.1900967  93.8093577
  66.0264530  99.9450113  94.6816277  66.5152885 100.3947605  93.3212447
  65.7398015 102.3438876  86.0398954  65.3003005 101.8515255  86.7331810
  66.4906132 101.8011844  85.7991029  58.2190354  98.5350417  86.0423582
  59.0448374  98.2354189  85.6622225  57.8684406  97.7658040  86.4913370
  63.1871887  97.8876885  88.1121255  62.5651897  97.2247590  87.8123483
  63.8576754  97.9138017  87.4294903  56.4198959  96.4536744  87.0012515
  55.5830868  96.0258918  86.8196517  56.3922605  96.6469187  87.9383307
  63.2596415  86.3658673  97.7053761  63.3084570  87.2420796  97.3231531
  63.8018929  85.8236066  97.1325405  73.7451260  96.9099797  96.9854899
  72.9546804  96.8923935  96.4459398  73.5084615  97.4488090  97.7403935
  73.8649136  93.7592263  94.2987627  73.9147140  93.5942270  95.2403150
  73.7563059  92.8919522  93.9085508  62.7485394  96.4380809  81.5879716
  62.8973515  97.1216273  80.9346389  63.5551838  96.4185899  82.1029172
  71.1552898  89.7423191  95.6146934  72.0562761  89.6029656  95.3230932
  71.2300872  89.9077646  96.5545111  65.4895703  87.1190046  94.4600120
  64.6199013  87.4123612  94.1882709  65.7255184  87.7030491  95.1807384
  75.3667332  96.1789204  94.5429649  75.0752141  96.5419185  95.3793110
  74.7539464  95.4656213  94.3642981  76.5663015  93.7442084  87.0632219
  77.4009906  94.1831888  87.2269779  76.7022143  93.2680737  86.2440465
  73.6154521  91.3021819  93.0109707  74.0908642  91.4949465  92.2028558
  72.6920086  91.3581005  92.7653090  60.5038027  92.4645986  82.5940785
  60.2584069  91.5608316  82.7920995  60.6733942  92.4663137  81.6520263
  68.1934737  83.3369663  91.9765540  68.7116681  84.0730690  91.6512029
  67.8389870  83.6433656  92.8112300  59.7733675  88.1974344  80.0926946
  59.0802920  88.2718699  79.4366982  59.5285427  87.4334688  80.6148463
  68.4447331  79.7569945  87.4966437  68.7249085  79.0893134  88.1226864
  69.2297938  79.9499041  86.9841101  66.2480800  98.9328939  79.0591463
  65.6754767  99.5519126  78.6061935  66.8213593  99.4828301  79.5931385
  72.3156190  88.1787579  91.2438012  73.2673612  88.2785677  91.2650236
  72.1459640  87.3865848  91.7536097  70.3370569  85.2643162  91.4297413
  69.7420501  85.5448175  90.7343902  70.0520266  85.7537063  92.2014154
  69.4678060  99.2166089  80.1900046  70.4008733  99.1511651  80.3932921
  69.3801272 100.0522356  79.7314578  72.0966076  98.5331960  77.1503993
  72.0179708  98.1991823  78.0439751  72.9175743  99.0253727  77.1495466
  74.7944267  91.3993699  90.3580312  74.7620587  90.4609700  90.5439996
  75.4044891  91.4777736  89.6246137  66.6327598  90.2689752  76.4007516
  67.5786703  90.1395960  76.4695934  66.2541843  89.5304414  76.8776944
  74.9438756  88.1904742  90.4038595  74.4277805  87.4063199  90.2168524
  75.8278704  87.8623459  90.5685115  72.6049483  81.9345758  86.3634408
  72.4074304  81.6260846  87.2477740  73.2149188  82.6607397  86.4932338
  80.6120817  92.4609706  89.4986349  81.3424206  92.1994994  90.0594052
  80.0027763  91.7238428  89.5388417  78.6936114  90.6017568  90.0960800
  77.9669278  90.4673533  89.4877291  78.2783401  90.9094397  90.9017518
  66.5166291  94.3207498  97.8608173  67.4369300  94.4986097  98.0548219
  66.4815874  93.3763543  97.7087872  55.7348456  89.5146092  86.7861448
  55.4151240  88.6611400  86.4935822  55.1881884  89.7294670  87.5419415
  59.5128363  92.2308533  90.5030954  59.7314373  93.1625640  90.5218988
  59.9254137  91.8716507  91.2885758  64.3856229  87.8041738  99.8933703
  64.2852956  88.7536095  99.8245794  64.1677771  87.4759977  99.0209773
  55.6036716  93.1349003  88.7554569  54.9100187  92.7202956  88.2424524
  56.3509707  93.1769540  88.1587988  71.7401936  83.9255190  83.6209603
  71.1600606  84.5839994  83.2387656  71.4737869  83.1032535  83.2097021
  70.1905503  83.3260248  85.8230924  70.6905281  83.4376782  85.0145242
  70.8341111  83.0221300  86.4631732  64.2487499  91.2338877  98.7098765
  63.7654580  92.0339237  98.9162654  64.3348438  91.2446822  97.7566209
  57.5173458  93.0667257  86.6320584  57.4944146  93.1654944  85.6802467
  57.8274095  93.9132408  86.9537750  60.1760836  95.1243412  90.7467198
  61.1304090  95.0927354  90.6797130  59.9773360  94.6634036  91.5617424
  60.7660218  93.6944528  93.3137996  61.5853107  94.1888607  93.3372833
  61.0397026  92.7776496  93.2855564  70.5226815  86.0855280  82.6765952
  69.6352670  86.3704931  82.4586146  70.9380804  85.9249044  81.8293228
  73.8741351  86.1101801  86.3920291  74.6501741  86.5998254  86.6644908
  73.1489485  86.5359855  86.8492160  76.3113909  86.8229421  87.4494231
  76.9058400  86.5825156  86.7387540  76.3840493  86.1036551  88.0767768
  58.5311065 100.6663031  87.7637396  58.3965533  99.9063432  87.1975394
  58.1143127 101.3903931  87.2966185  69.6670028  95.8499955  76.7713972
  70.3705878  96.0549957  77.3871627  68.9432677  96.4176717  77.0363055
  70.4967838  91.6009816  82.8916242  70.4403040  92.0578368  82.0523874
  71.0496181  90.8400501  82.7139084  74.3072644  87.3899548  83.7166361
  74.0509578  86.9896184  84.5474569  73.6825512  88.1043342  83.5916500
  78.6184982  90.1295621  86.2237653  78.0584540  90.1988811  86.9969215
  78.0128485  89.9536606  85.5037149  61.6880191 101.5632348  87.9755839
  61.5712575 102.5077781  87.8734529  60.8672637 101.2605910  88.3641638
  71.5756725  96.2882484  78.8212432  72.4102329  95.8563683  78.6389906
  71.4141068  96.1164498  79.7489326  71.2302618  92.7914597  80.1868771
  71.1751421  92.6258869  79.2457215  70.6048673  93.4990630  80.3430961
  56.0195133  88.0282662  94.0130193  56.6653996  87.5181616  94.5017418
  55.8112284  88.7651344  94.5873618  68.5448525  95.0963509  99.5122334
  69.4139684  95.2704162  99.1508969  68.0655276  95.9157926  99.3898063
  62.7134705 102.2160610  91.1911767  63.6161952 102.2484221  91.5078262
  62.4872075 101.2861061  91.2058103  64.4688307 100.9691597  87.8521846
  63.5183938 100.9693459  87.7386218  64.7720793 100.2224331  87.3357881
  60.3592624  85.1750279  98.1105207  61.2224085  84.8187084  98.3208532
  59.7858034  84.8364174  98.7980612  80.2041000 106.8052135  88.9167608
  80.8419410 106.6858883  88.2130948  80.0861843 107.7532979  88.9755560
  77.0130707 106.7579563  88.8529133  76.6749218 106.6420628  87.9649668
  77.8820475 106.3570728  88.8330139  72.8717522 108.6115040  84.8426024
  72.3082388 108.5204977  84.0742312  72.7569918 107.7914944  85.3228517
  77.4950490 107.9114415  94.8115339  77.4839131 107.5167213  93.9395842
  77.6571129 107.1780488  95.4049110  70.4181954 110.1066231  87.6810244
  71.2103246 109.7657056  87.2656544  70.6578605 110.2161206  88.6012398
  78.4517081 112.2786008  80.1540489  77.8005061 112.8640088  79.7674503
  79.2461444 112.8092202  80.2135526  72.3772708 109.3675145  80.5527623
  73.1503584 108.8204132  80.4140499  72.7298107 110.2319394  80.7642085
  74.2157751 110.6951527  93.7594523  73.9247617 111.5997158  93.6441189
  74.8514735 110.7368055  94.4738592  75.1413958 108.0728375  90.3495882
  75.7377530 107.8484398  89.6352845  75.1988929 107.3313121  90.9521330
  74.7138986 105.5267811  78.1846073  74.9664507 105.0049332  77.4229536
  73.7763545 105.3633956  78.2872757  79.7582269 104.5303589  85.9920816
  80.5445358 104.1123012  85.6411233  80.0220973 105.4349681  86.1602465
  79.9292346 109.9676439  80.6909473  79.2938179 110.0411066  81.4030378
  79.5989753 110.5570038  80.0128552  85.1590696 104.4678822  86.8953795
  85.8915868 103.8978039  87.1291624  84.4030052 104.0800423  87.3360300
  74.4335275 107.4295917  80.3870448  74.3171533 106.7540820  81.0551532
  74.5437535 106.9428291  79.5702601  76.7766816 106.8906064  84.0917137
  76.4125023 106.3636685  84.8030059  77.6333932 106.5004533  83.9183623
  82.6816116  98.1800396  91.3548403  82.3499441  99.0495807  91.1309618
  82.0861730  97.8636680  92.0342434  76.4172303 101.9195964  79.0878486
  76.5846705 102.7876200  79.4548957  76.2269472 102.0823245  78.1639775
  79.1747636 110.3812942  90.7544316  78.8748359 111.2837981  90.6460123
  78.8298696 110.1145126  91.6065469  72.6260117 106.8326739  86.7881021
  71.7010614 106.7002953  86.9958712  72.8744531 107.6120959  87.2850963
  82.5744780 102.8995483  88.4341754  81.6661657 102.8310891  88.1400515
  82.5232376 103.3767428  89.2623579  76.3961524 104.3753621  80.0725153
  76.2761149 104.8210672  80.9110633  75.7014112 104.7238939  79.5138691
  69.9868929 106.4760013  87.6224810  70.1161310 106.7294492  88.5364221
  69.3066380 107.0687721  87.3029465  74.1568416 117.1457263  83.7215284
  74.0792445 118.0965088  83.8003764  73.5530059 116.8003135  84.3790210
  76.6485646 104.3185128  96.3776651  75.8718980 104.8779048  96.3679515
  77.2876209 104.8041911  96.8991521  84.4406426 101.1011921  90.2119627
  83.7980806 101.3944454  89.5659422  83.9361355 100.9864841  91.0172824
  82.0946590 104.8475094  80.9005487  83.0064446 105.0802481  80.7253184
  81.5856237 105.4312138  80.3380565  74.9032018 107.1270582  95.9394618
  75.6446702 107.6655626  95.6629441  74.1969003 107.7536870  96.0966170
  80.3787358 109.2699722  94.5366779  80.7870714 108.8282133  93.7921412
  79.6564619 108.6952350  94.7900972  76.7318428 104.2072329  91.9100336
  77.5779623 104.6311742  92.0534985  76.6717065 103.5505953  92.6038899
  80.7016172 109.8300913  88.2919068  80.0725035 109.9946627  87.5895136
  80.3141834 110.2442522  89.0630032  84.5805404 110.7655351  85.6463432
  83.8956442 111.1454252  85.0960465  84.6649253 111.3750677  86.3795380
  79.8817873 101.8676697  93.5681510  79.6378805 102.6218758  93.0315786
  80.1577803 102.2462045  94.4028757  81.8356336 108.4115310  92.2458775
  82.0473231 109.0547069  91.5693157  81.7886084 107.5777626  91.7780706
  79.4382565 101.0233130  89.1495348  78.5767044 101.3214384  89.4412085
  79.4644999 101.2403529  88.2176380  76.2544134 109.5675321  85.5569153
  76.7182480 109.8463024  84.7673776  75.9900932 108.6658765  85.3742244
  73.1468215 109.1146802  88.4948917  73.7169572 109.5434071  87.8566401
  73.7376327 108.8329387  89.1933102  75.1913020 105.6898473  82.3658718
  75.8937063 106.1419517  82.8332645  74.8593649 105.0482292  82.9938612
  73.6393382 104.2810230  96.7409928  73.0092042 104.9626511  96.9745325
  73.5329469 104.1693311  95.7963066  68.9338354 103.9482026  87.6675852
  68.1437408 104.2039554  87.1915963  69.4249601 104.7630364  87.7727893
  82.9502164 111.2887265  90.4181133  83.7719607 110.8867452  90.1363814
  82.9464566 111.1855499  91.3697249  70.8853099 104.3126605  84.6259329
  70.0884263 104.4245299  85.1442824  70.6578692 104.6513257  83.7600219
  76.7158767 110.8371308  92.5741843  76.7803200 111.2991715  93.4100015
  76.0069691 110.2068673  92.7024153  67.2176057 104.2012516  90.0990843
  67.4684095 105.0859526  90.3648419  67.7535605 104.0217118  89.3265935
  91.0408157 107.6326013  86.7666104  90.2871865 107.0633412  86.6110109
  91.1755698 107.5988678  87.7136739  76.4306785 112.5039416  82.4420824
  76.2952459 113.3490951  82.8705671  76.9716597 112.7058693  81.6786757
  72.9174124  98.5830996  99.1035179  72.5241070  98.0297194  99.7782823
  73.7340265  98.8941574  99.4941696  69.8836182 110.0214854  83.0148749
  70.3960703 110.8158104  83.1654313  70.5358895 109.3241144  82.9482350
  71.6931067 113.1380610  85.0971502  71.8697695 114.0598575  84.9092486
  72.4887900 112.8239029  85.5265882  75.8342085  99.9988875  96.6955435
  76.5751799 100.5996028  96.6159898  76.0660008  99.2566512  96.1373478
  70.9783423 105.1845242  94.9733665  70.8636938 104.2830499  95.2740764
  70.1227941 105.4308939  94.6218482  78.0575261 113.1262982  96.5721166
  77.6139115 112.3399361  96.2542070  78.7192475 113.3142133  95.9065057
  72.8162382 114.6558784  91.0981844  73.3669807 114.5275847  90.3258838
  71.9773858 114.9553673  90.7476737  80.1556499 113.4065782  94.6002567
  80.1374974 114.2274663  94.1082836  81.0776419 113.2819857  94.8252708
  76.6129553 110.9209912  95.4426075  77.1457890 110.1598200  95.2125383
  76.0843634 110.6283563  96.1850230  79.7799248  96.0269978  90.9719717
  79.4363518  96.9171619  90.8958828  80.1478211  95.8371635  90.1089302
  67.8485099 108.3503508  83.7908319  68.6860321 108.7600516  83.5742027
  68.0263367 107.4102950  83.7608513  79.7449531 106.0178589  79.4792152
  79.2296154 106.7883193  79.7180540  79.4726839 105.3443725  80.1025214
  77.3296642 100.8628290  84.5377391  76.4738238 100.4735140  84.3583029
  77.7423594 100.9420250  83.6777176  78.8595789  98.3974633  88.9368950
  78.3560584  98.3604768  88.1236756  79.1526396  99.3067375  88.9965607
  75.1038675  98.4813362  87.9435132  75.9691671  98.2856171  87.5841022
  75.1716183  98.2523714  88.8704489  84.7183805 108.7710943  81.4145326
  83.9413248 108.4322103  80.9700488  85.3975286 108.7763567  80.7400291
  79.5335834 103.8905681  81.3051933  79.2285970 104.2051830  82.1562077
  80.4866276 103.9687101  81.3479266  77.9782266 110.0495904  82.9544887
  77.4503628 109.3148664  82.6418125  77.4769769 110.8270580  82.7084856
  82.9575112 108.2444925  88.0711934  82.2998786 108.9344186  88.1592062
  83.7615511 108.6341357  88.4145920  72.7100994 100.7115570  85.3151499
  73.2844746 100.4890752  84.5824692  73.2971976 100.7804265  86.0680100
  81.7680571 106.5989297  86.1215875  82.2812453 107.2319289  86.6237585
  82.4181795 105.9990493  85.7559235  73.0370581 102.7420031  79.3347384
  72.2007893 103.0794718  79.6556659  72.8975350 102.6069011  78.3974521
  75.0123661  97.5856819  84.0426568  74.3588074  97.2705837  83.4183183
  74.9704135  96.9632560  84.7686391  76.1234866 107.8676114  75.9579860
  75.2161928 107.6365368  76.1571009  76.6205898 107.0713734  76.1453842
  79.0302945 116.5773622  78.8776547  78.3564644 116.8805318  79.4861504
  79.4168767 117.3802702  78.5282004  78.2461402 104.0738753  88.3674216
  77.3283963 104.2953700  88.2095904  78.6621545 104.1485063  87.5085923
  79.0296449 105.4730169  83.4976896  79.7768268 105.9851566  83.1884018
  79.2988039 105.1514221  84.3581290  77.3023100 107.9688709  80.4803851
  76.3934319 107.6847742  80.5776320  77.3318183 108.3887788  79.6207157
  82.5342367 111.5795299  84.2495018  82.0804694 110.7386209  84.3060209
  81.9036334 112.2156697  84.5869798  81.4775287 102.5087285  85.4795686
  80.7398043 101.9964671  85.8105928  81.7302060 102.0687666  84.6678962
  80.9775306 113.4171795  85.1844836  81.2698281 113.9776853  84.4657202
  81.4873927 113.7100356  85.9397995  81.5786914  95.2863537  86.0737455
  81.8845791  94.4260900  85.7863370  82.3039519  95.8781157  85.8736449
  67.8711270 105.6894223  84.4619053  67.6735670 105.0963584  83.7370119
  67.3157934 105.3846434  85.1794992  75.8507994 105.5817330  86.5813646
  75.9056603 104.6291166  86.5056122  75.0399196 105.7376769  87.0654944
  76.9999187 109.5097453  77.8191929  76.5618617 108.7933312  77.3597566
  77.7409628 109.7373568  77.2577020  73.7900354 104.1994390  84.3404025
  72.9768219 104.4988560  84.7469217  74.2859348 103.8050078  85.0578507
  75.9408931 114.1952147  86.2738289  75.8985110 114.4212993  85.3446821
  76.8571630 113.9615521  86.4224091  79.3874565 104.6636214  93.1718919
  79.7423953 104.8907687  94.0313384  80.0346696 104.9954591  92.5496174
  85.1172302 107.7854650  83.8768248  84.9790201 107.9756246  82.9489437
  84.7608521 108.5474033  84.3336299  73.2814428 101.7712745  89.9565260
  73.9213808 101.6301504  89.2588223  72.4491959 101.4847259  89.5803862
  85.1441682 109.8531177  88.8879519  85.5778188 109.7606466  89.7362573
  85.8573263 109.8288677  88.2499535  74.0574732 111.0715176  86.0700252
  74.8515331 110.5765496  85.8682827  73.3466425 110.5433039  85.7067958
  78.8769577 113.4533271  90.4212620  78.9306599 114.0224207  91.1890336
  78.0084358 113.6235156  90.0566657  70.3657496 105.2158257  82.1460005
  69.4355084 105.1542713  82.3629967  70.4614968 104.6934210  81.3496646
  70.2843045 101.7413070  84.7338246  70.5449862 102.6558403  84.6247407
  71.1060217 101.2737513  84.8834859  71.7567970 103.1550827  91.9037071
  72.4291024 102.9468189  91.2549720  70.9297757 102.9572913  91.4642303
  86.0057231 109.8954878  91.4212405  86.1993121 110.8000688  91.6671679
  85.9057850 109.4362297  92.2550990  77.6593542  99.7812768  93.9202732
  77.0121457 100.4802718  93.8267208  78.4294558 100.2148912  94.2878980
  81.0672340 110.0461620  96.9953285  80.9157846 109.8172172  96.0783369
  81.0577020 111.0032222  97.0084630  77.8357676 107.6193533  91.9799552
  78.7649736 107.7704693  91.8068519  77.4148706 107.7077554  91.1248198
  76.6346008 111.6444198  89.7498089  76.4957094 111.2762982  90.6224027
  75.8460604 112.1591837  89.5782047  77.2294160 116.7453294  81.0923626
  77.4045916 116.2741337  81.9069248  76.5426948 117.3719060  81.3204886
  78.1851223 111.0225800  87.1386927  77.8501056 110.9826570  88.0344577
  77.6855169 110.3570516  86.6657337  72.1595467 106.4293430  92.6639508
  72.0215265 105.6973669  93.2651047  73.0700391 106.3402330  92.3823696
  81.1210415 108.3681835  77.4123987  80.5039586 107.6428663  77.3157039
  80.6526904 109.1291195  77.0691061  74.7877768 106.1413390  92.1523188
  75.4977387 105.5006582  92.1109806  74.7447076 106.3926284  93.0749369
  82.7764547 113.0780743  95.0729767  82.7177093 112.3939963  94.4060350
  83.1784065 113.8199733  94.6210393  73.5006702 103.1278607  93.9718827
  72.9644059 102.6769346  94.6240424  72.9123410 103.2624516  93.2289292
  71.7955245 119.8942657  87.8663486  72.0351844 120.5261181  88.5442505
  70.9524442 119.5430697  88.1528845  72.9108961 102.5867259  76.5345291
  72.0338427 102.4656060  76.1707538  73.3866714 101.7953337  76.2824180
  82.7781954 111.0420327  93.3043747  81.8908733 110.7046249  93.4270146
  83.3480505 110.3103358  93.5412512  64.4311101 107.3744419  86.6286798
  65.1182141 107.0606149  86.0407813  64.2759230 108.2785783  86.3554050
  69.2345823 102.2634615  91.0571822  69.1504012 101.6560285  90.3222232
  68.4128530 102.7543633  91.0581318  76.3083107 115.7021779  90.2704990
  76.2353279 116.5076751  90.7824294  75.8660500 115.9013745  89.4453011
  76.0972887 114.9393549  83.7807811  75.3140409 115.4815229  83.8746036
  76.7965632 115.4567529  84.1802053  79.4069537 100.7488179  86.4242017
  79.9038237  99.9958141  86.1043087  78.6356519 100.7852495  85.8585226
  87.2599295 106.4528544  88.0660308  87.2489171 107.3353260  87.6954241
  86.3916674 106.1000095  87.8714845  78.7681791 115.6008613  92.4263149
  79.4809763 116.2356078  92.3539050  78.2771820 115.6972479  91.6103150
  80.4899318 109.5059866  83.9980440  79.5555597 109.6261328  83.8285145
  80.6675986 108.6032333  83.7340450  75.9904506 102.8905562  86.1513701
  75.6202293 102.3376602  86.8394607  76.4863598 102.2863695  85.5988701
  83.8771869 105.3477185  84.5330474  84.3432321 106.1805177  84.4590777
  84.3279370 104.8822167  85.2375733  73.8193704 113.3503057  93.2468719
  74.5203164 113.9839540  93.3998114  73.3488819 113.6917788  92.4864359
  81.9448100 111.6921007  81.5316626  82.2207944 111.5777601  82.4410501
  81.0752599 111.2938491  81.4928800  81.8488532  97.7157772  88.5721376
  80.9351612  97.9461999  88.7403583  82.2781633  97.7996216  89.4235408
  81.6194990 105.9047664  91.0721270  80.9666441 106.1523572  90.4173723
  81.9975370 105.0911802  90.7383747  78.5802164 115.9407357  85.1749440
  78.7624559 115.1229013  85.6377192  79.4035150 116.1575050  84.7374330
  78.9144330 114.8675542  82.4364489  79.4432096 114.3567997  81.8234651
  79.1772549 114.5518073  83.3010022  77.6682563 106.6467475  97.5587307
  76.9923200 106.5461605  98.2289682  78.4910197 106.4906689  98.0223304
  69.4161422 112.8839412  90.1799822  70.0014859 112.1383100  90.3127726
  69.2186261 113.1943368  91.0636486  72.2700078 115.9190659  85.1962264
  71.6010453 116.4036787  84.7126305  72.1312947 116.1659880  86.1105643
  64.0079077 105.4545012  88.9004265  64.0463177 104.9208603  89.6941383
  63.5019370 104.9280217  88.2815242  76.4105346 117.9534403  91.7944923
  76.9623654 118.1166024  92.5594008  76.7511540 118.5438841  91.1224948
  71.3869840 100.3009552  92.3966808  71.4511166 101.1624383  91.9844205
  71.3236960  99.6883554  91.6639166  70.8622112 102.3732685  96.0439842
  71.4894151 101.9909762  96.6577366  70.0050031 102.1546887  96.4095534
  67.6387655 104.1809114  81.9758197  67.9341096 103.2719793  81.9225250
  66.7375691 104.1596854  81.6539199  79.5473734 115.9016378  88.7808605
  79.4224873 115.1006118  88.2719550  80.2052825 116.3962572  88.2922575
  71.1681902 102.2565111  87.9585745  70.4468488 102.8701078  87.8193219
  71.9575158 102.7922876  87.8802391  81.6108642 113.7025398  90.4088155
  80.6638977 113.5830749  90.3366482  81.9591415 112.8147896  90.4914417
  73.9708215  99.5919537  94.2326397  74.4942617  99.8381834  94.9952706
  73.7520549 100.4239572  93.8129534  69.3675496 101.8623212  82.0997522
  69.0388203 100.9820591  81.9172628  69.7214867 101.8070880  82.9873911
  78.6155075 113.4978115  86.6092507  78.4680038 112.5694822  86.7900077
  79.4408569 113.5198205  86.1249583  72.4817320 102.1496182  82.4672999
  72.8213392 102.6782103  81.7451608  72.9289440 102.4876588  83.2431566
  82.2189197 114.3206673  87.6957380  83.1435745 114.1149535  87.5581831
  82.0504500 114.0723074  88.6046722  75.1760760 100.5333232  91.9176068
  74.8357581  99.7341045  92.3196747  74.4699767 100.8334943  91.3452901
  75.8277232  97.6182545  90.3703391  76.6503302  97.1443023  90.2482281
  76.0715296  98.3973028  90.8702077  74.4685467 100.6470803  80.6666292
  75.1893829 101.0252056  80.1630009  73.8450771 101.3659680  80.7701270
  78.6116590 101.3515952  81.6024625  78.8280204 102.2340590  81.3013453
  78.1310657 100.9602166  80.8730267  73.3515811 104.3101665  88.1795369
  73.2060392 104.6241968  89.0719651  72.8741015 104.9286566  87.6266268
  75.2112194 101.3004213  88.2276259  75.1973763 100.4045307  87.8908557
  75.9284622 101.3074877  88.8614545  77.0638325 101.7341554  90.2729386
  76.8056102 102.6558624  90.2713717  76.5323365 101.3371988  90.9629850
  82.0084513 114.8392341  83.0519472  82.1821391 114.2738763  82.2993324
  82.5013405 115.6393236  82.8698961  67.8261473 106.8507010  91.1183030
  67.2814941 107.6266818  91.2503305  68.7040823 107.1977814  90.9602152
  74.6149090 100.1818594  83.4963829  74.7365001  99.2535240  83.6954716
  74.3251132 100.1957280  82.5842144  87.8623904 107.6028764  84.6709771
  88.3055051 106.8536089  84.2728895  86.9850415 107.5938900  84.2883503
  82.9959686 114.1559105  80.1516370  83.6910590 114.7765798  80.3703684
  83.3382836 113.3054456  80.4268748  68.6127495 105.9776906  94.0113187
  67.8709231 106.1259541  94.5977818  68.2920239 106.2385172  93.1479937
  84.8951109 111.6058811  81.6803701  85.4202433 111.9446083  80.9553021
  84.8073461 110.6705826  81.4966835  76.5571158 115.5192884  93.8093577
  76.8658284 115.2742031  94.6816277  77.3546640 115.7239523  93.3212447
  76.5791770 117.6730794  86.0398954  76.1396760 117.1807173  86.7331810
  77.3299887 117.1303762  85.7991029  69.0584109 113.8642335  86.0423582
  69.8842129 113.5646107  85.6622225  68.7078161 113.0949957  86.4913370
  74.0265642 113.2168803  88.1121255  73.4045651 112.5539508  87.8123483
  74.6970509 113.2429935  87.4294903  67.2592714 111.7828661  87.0012515
  66.4224622 111.3550836  86.8196517  67.2316359 111.9761105  87.9383307
  74.0990169 101.6950591  97.7053761  74.1478325 102.5712714  97.3231531
  74.6412684 101.1527984  97.1325405  84.7042890 109.0884181  94.2987627
  84.7540895 108.9234188  95.2403150  84.5956813 108.2211440  93.9085508
  73.5879149 111.7672726  81.5879716  73.7367269 112.4508191  80.9346389
  74.3945592 111.7477816  82.1029172  81.9946652 105.0715109  95.6146934
  82.8956515 104.9321574  95.3230932  82.0694627 105.2369563  96.5545111
  76.3289458 102.4481963  94.4600120  75.4592767 102.7415529  94.1882709
  76.5648938 103.0322408  95.1807384  86.2061087 111.5081122  94.5429649
  85.9145895 111.8711103  95.3793110  85.5933218 110.7948130  94.3642981
  87.4056769 109.0734002  87.0632219  88.2403661 109.5123806  87.2269779
  87.5415898 108.5972655  86.2440465  84.4548275 106.6313737  93.0109707
  84.9302397 106.8241383  92.2028558  83.5313840 106.6872923  92.7653090
  71.3431782 107.7937904  82.5940785  71.0977824 106.8900234  82.7920995
  71.5127696 107.7955054  81.6520263  79.0328492  98.6661580  91.9765540
  79.5510435  99.4022607  91.6512029  78.6783624  98.9725574  92.8112300
  70.6127429 103.5266262  80.0926946  69.9196674 103.6010617  79.4366982
  70.3679181 102.7626605  80.6148463  79.2841086  95.0861863  87.4966437
  79.5642840  94.4185052  88.1226864  80.0691693  95.2790958  86.9841101
  77.0874554 114.2620857  79.0591463  76.5148521 114.8811044  78.6061935
  77.6607348 114.8120218  79.5931385  83.1549944 103.5079497  91.2438012
  84.1067367 103.6077595  91.2650236  82.9853395 102.7157765  91.7536097
  81.1764324 100.5935080  91.4297413  80.5814256 100.8740093  90.7343902
  80.8914020 101.0828981  92.2014154  80.3071814 114.5458007  80.1900046
  81.2402487 114.4803569  80.3932921  80.2195027 115.3814274  79.7314578
  82.9359831 113.8623877  77.1503993  82.8573462 113.5283741  78.0439751
  83.7569497 114.3545645  77.1495466  85.6338022 106.7285617  90.3580312
  85.6014342 105.7901617  90.5439996  86.2438646 106.8069653  89.6246137
  77.4721353 105.5981670  76.4007516  78.4180457 105.4687878  76.4695934
  77.0935598 104.8596331  76.8776944  85.7832510 103.5196660  90.4038595
  85.2671559 102.7355117  90.2168524  86.6672459 103.1915377  90.5685115
  83.4443237  97.2637676  86.3634408  83.2468058  96.9552764  87.2477740
  84.0542943  97.9899314  86.4932338  91.4514572 107.7901623  89.4986349
  92.1817960 107.5286912  90.0594052  90.8421517 107.0530345  89.5388417
  89.5329869 105.9309486  90.0960800  88.8063032 105.7965451  89.4877291
  89.1177156 106.2386315  90.9017518  77.3560045 109.6499416  97.8608173
  78.2763055 109.8278015  98.0548219  77.3209628 108.7055461  97.7087872
  75.6564270 103.5231646  76.3362401  74.7495725 103.2264759  76.4125115
  75.9340251 103.2261464  75.4696687  66.5742210 104.8438009  86.7861448
  66.2544995 103.9903318  86.4935822  66.0275638 105.0586587  87.5419415
  70.3522118 107.5600450  90.5030954  70.5708128 108.4917558  90.5218988
  70.7647892 107.2008425  91.2885758  79.2016884  97.1446582  84.1130939
  79.7547923  97.5642036  84.7720962  79.4386970  96.2182331  84.1553895
  75.2249983 103.1333656  99.8933703  75.1246710 104.0828013  99.8245794
  75.0071525 102.8051895  99.0209773  74.4263055 100.3818581  76.4774380
  75.2882219 100.7073479  76.7370198  74.6113399  99.5950077  75.9647446
  66.4430470 108.4640921  88.7554569  65.7493942 108.0494874  88.2424524
  67.1903461 108.5061457  88.1587988  82.5795691  99.2547108  83.6209603
  81.9994360  99.9131912  83.2387656  82.3131624  98.4324452  83.2097021
  81.0299257  98.6552165  85.8230924  81.5299036  98.7668700  85.0145242
  81.6734865  98.3513218  86.4631732  75.0881253 106.5630795  98.7098765
  74.6048335 107.3631155  98.9162654  75.1742192 106.5738740  97.7566209
  68.3567213 108.3959175  86.6320584  68.3337901 108.4946862  85.6802467
  68.6667849 109.2424325  86.9537750  71.0154591 110.4535330  90.7467198
  71.9697844 110.4219272  90.6797130  70.8167114 109.9925953  91.5617424
  71.6053973 109.0236446  93.3137996  72.4246862 109.5180524  93.3372833
  71.8790781 108.1068414  93.2855564  81.3620569 101.4147198  82.6765952
  80.4746424 101.6996849  82.4586146  81.7774558 101.2540961  81.8293228
  84.7135105 101.4393719  86.3920291  85.4895495 101.9290171  86.6644908
  83.9883239 101.8651773  86.8492160  87.1507664 102.1521338  87.4494231
  87.7452155 101.9117074  86.7387540  87.2234247 101.4328469  88.0767768
  69.3704819 115.9954949  87.7637396  69.2359287 115.2355350  87.1975394
  68.9536882 116.7195849  87.2966185  80.5063782 111.1791873  76.7713972
  81.2099633 111.3841875  77.3871627  79.7826431 111.7468635  77.0363055
  81.3361593 106.9301734  82.8916242  81.2796794 107.3870285  82.0523874
  81.8889935 106.1692419  82.7139084  85.1466399 102.7191466  83.7166361
  84.8903333 102.3188101  84.5474569  84.5219267 103.4335260  83.5916500
  89.4578737 105.4587539  86.2237653  88.8978295 105.5280728  86.9969215
  88.8522240 105.2828524  85.5037149  72.5273945 116.8924266  87.9755839
  72.4106329 117.8369699  87.8734529  71.7066392 116.5897828  88.3641638
  82.4150480 111.6174402  78.8212432  83.2496084 111.1855600  78.6389906
  82.2534823 111.4456416  79.7489326  82.0696372 108.1206515  80.1868771
  82.0145176 107.9550787  79.2457215  81.4442427 108.8282548  80.3430961
  66.8588887 103.3574580  94.0130193  67.5047751 102.8473534  94.5017418
  66.6506038 104.0943261  94.5873618  75.3792498  97.6214624  79.7654089
  75.3671167  98.5656464  79.9222360  76.2715919  97.4384770  79.4713551
  73.5528459 117.5452528  91.1911767  74.4555706 117.5776138  91.5078262
  73.3265830 116.6152979  91.2058103  75.3082061 116.2983515  87.8521846
  74.3577693 116.2985376  87.7386218  75.6114548 115.5516249  87.3357881
  71.1986378 100.5042197  98.1105207  72.0617840 100.1479001  98.3208532
  70.6251789 100.1656091  98.7980612  83.7111277 123.9406957  84.8426024
  83.1476142 123.8496894  84.0742312  83.5963672 123.1206862  85.3228517
  81.2575709 125.4358149  87.6810244  82.0497001 125.0948974  87.2656544
  81.4972359 125.5453124  88.6012398  83.2166463 124.6967062  80.5527623
  83.9897339 124.1496049  80.4140499  83.5691862 125.5611312  80.7642085
  85.5532741 120.8559728  78.1846073  85.8058261 120.3341250  77.4229536
  84.6157300 120.6925874  78.2872757  90.5976023 119.8595507  85.9920816
  91.3839113 119.4414930  85.6411233  90.8614728 120.7641599  86.1602465
  85.2729029 122.7587834  80.3870448  85.1565287 122.0832738  81.0551532
  85.3831289 122.2720208  79.5702601  87.6160570 122.2197982  84.0917137
  87.2518778 121.6928602  84.8030059  88.4727686 121.8296451  83.9183623
  87.2566057 117.2487881  79.0878486  87.4240460 118.1168118  79.4548957
  87.0663226 117.4115163  78.1639775  83.4653872 122.1618657  86.7881021
  82.5404368 122.0294871  86.9958712  83.7138285 122.9412876  87.2850963
  87.2355278 119.7045539  80.0725153  87.1154903 120.1502589  80.9110633
  86.5407867 120.0530856  79.5138691  80.8262683 121.8051931  87.6224810
  80.9555064 122.0586409  88.5364221  80.1460134 122.3979639  87.3029465
  92.9340344 120.1767012  80.9005487  93.8458200 120.4094399  80.7253184
  92.4249991 120.7604056  80.3380565  90.2776319 116.3525048  89.1495348
  89.4160798 116.6506301  89.4412085  90.3038754 116.5695447  88.2176380
  87.0937889 124.8967238  85.5569153  87.5576234 125.1754941  84.7673776
  86.8294687 123.9950683  85.3742244  86.0306775 121.0190391  82.3658718
  86.7330818 121.4711434  82.8332645  85.6987403 120.3774210  82.9938612
  79.7732109 119.2773943  87.6675852  78.9831163 119.5331472  87.1915963
  80.2643356 120.0922281  87.7727893  81.7246854 119.6418523  84.6259329
  80.9278017 119.7537217  85.1442824  81.4972446 119.9805175  83.7600219
  78.0569812 119.5304434  90.0990843  78.3077850 120.4151444  90.3648419
  78.5929360 119.3509035  89.3265935  80.7229937 125.3506771  83.0148749
  81.2354457 126.1450022  83.1654313  81.3752649 124.6533062  82.9482350
  82.5324821 128.4672528  85.0971502  82.7091450 129.3890492  84.9092486
  83.3281655 128.1530947  85.5265882  90.6193003 111.3561895  90.9719717
  90.2757272 112.2463537  90.8958828  90.9871965 111.1663553  90.1089302
  78.6878853 123.6795426  83.7908319  79.5254075 124.0892434  83.5742027
  78.8657121 122.7394868  83.7608513  90.5843285 121.3470506  79.4792152
  90.0689909 122.1175111  79.7180540  90.3120594 120.6735643  80.1025214
  88.1690397 116.1920207  84.5377391  87.3131993 115.8027058  84.3583029
  88.5817348 116.2712168  83.6777176  89.6989543 113.7266550  88.9368950
  89.1954339 113.6896686  88.1236756  89.9920150 114.6359293  88.9965607
  85.9432429 113.8105280  87.9435132  86.8085426 113.6148089  87.5841022
  86.0109938 113.5815632  88.8704489  90.3729589 119.2197599  81.3051933
  90.0679724 119.5343748  82.1562077  91.3260031 119.2979018  81.3479266
  88.8176021 125.3787822  82.9544887  88.2897382 124.6440581  82.6418125
  88.3163523 126.1562498  82.7084856  83.5494748 116.0407488  85.3151499
  84.1238500 115.8182670  84.5824692  84.1365731 116.1096183  86.0680100
  83.8764335 118.0711949  79.3347384  83.0401647 118.4086636  79.6556659
  83.7369105 117.9360929  78.3974521  85.8517416 112.9148737  84.0426568
  85.1981828 112.5997754  83.4183183  85.8097890 112.2924477  84.7686391
  86.9628621 123.1968032  75.9579860  86.0555682 122.9657286  76.1571009
  87.4599653 122.4005651  76.1453842  89.0855156 119.4030671  88.3674216
  88.1677718 119.6245618  88.2095904  89.5015300 119.4776981  87.5085923
  89.8690204 120.8022086  83.4976896  90.6162023 121.3143483  83.1884018
  90.1381793 120.4806139  84.3581290  88.1416854 123.2980627  80.4803851
  87.2328073 123.0139660  80.5776320  88.1711938 123.7179706  79.6207157
  92.3169041 117.8379202  85.4795686  91.5791798 117.3256589  85.8105928
  92.5695815 117.3979584  84.6678962  92.4180668 110.6155454  86.0737455
  92.7239545 109.7552818  85.7863370  93.1433273 111.2073075  85.8736449
  78.7105024 121.0186141  84.4619053  78.5129424 120.4255502  83.7370119
  78.1551688 120.7138351  85.1794992  86.6901748 120.9109248  86.5813646
  86.7450358 119.9583084  86.5056122  85.8792950 121.0668687  87.0654944
  87.8392942 124.8389371  77.8191929  87.4012372 124.1225230  77.3597566
  88.5803383 125.0665485  77.2577020  84.6294108 119.5286307  84.3404025
  83.8161974 119.8280478  84.7469217  85.1253102 119.1341996  85.0578507
  84.1208183 117.1004663  89.9565260  84.7607562 116.9593422  89.2588223
  83.2885713 116.8139176  89.5803862  84.8968487 126.4007093  86.0700252
  85.6909085 125.9057413  85.8682827  84.1860179 125.8724956  85.7067958
  81.2051250 120.5450175  82.1460005  80.2748838 120.4834630  82.3629967
  81.3008722 120.0226128  81.3496646  81.1236799 117.0704988  84.7338246
  81.3843617 117.9850321  84.6247407  81.9453972 116.6029430  84.8834859
  82.5961725 118.4842745  91.9037071  83.2684778 118.2760107  91.2549720
  81.7691511 118.2864831  91.4642303  91.9604170 123.6973752  77.4123987
  91.3433340 122.9720580  77.3157039  91.4920658 124.4583113  77.0691061
  83.7502715 117.9159177  76.5345291  82.8732182 117.7947977  76.1707538
  84.2260469 117.1245255  76.2824180  75.2704856 122.7036336  86.6286798
  75.9575895 122.3898066  86.0407813  75.1152984 123.6077701  86.3554050
  80.0739578 117.5926533  91.0571822  79.9897766 116.9852202  90.3222232
  79.2522284 118.0835551  91.0581318  90.2463292 116.0780096  86.4242017
  90.7431991 115.3250059  86.1043087  89.4750273 116.1144413  85.8585226
  91.3293072 124.8351784  83.9980440  90.3949351 124.9553246  83.8285145
  91.5069741 123.9324250  83.7340450  86.8298260 118.2197479  86.1513701
  86.4596048 117.6668520  86.8394607  87.3257353 117.6155613  85.5988701
  94.7165624 120.6769103  84.5330474  95.1826076 121.5097094  84.4590777
  95.1673124 120.2114084  85.2375733  92.6882286 113.0449690  88.5721376
  91.7745366 113.2753917  88.7403583  93.1175388 113.1288134  89.4235408
  74.8472832 120.7836930  88.9004265  74.8856931 120.2500520  89.6941383
  74.3413125 120.2572135  88.2815242  82.2263594 115.6301470  92.3966808
  82.2904920 116.4916301  91.9844205  82.1630714 115.0175472  91.6639166
  78.4781409 119.5101032  81.9758197  78.7734850 118.6011710  81.9225250
  77.5769445 119.4888771  81.6539199  82.0075656 117.5857028  87.9585745
  81.2862242 118.1992996  87.8193219  82.7968912 118.1214793  87.8802391
  80.2069251 117.1915129  82.0997522  79.8781957 116.3112508  81.9172628
  80.5608622 117.1362798  82.9873911  83.3211074 117.4788099  82.4672999
  83.6607147 118.0074021  81.7451608  83.7683195 117.8168505  83.2431566
  86.0154515 115.8625150  91.9176068  85.6751335 115.0632963  92.3196747
  85.3093521 116.1626861  91.3452901  86.6670987 112.9474462  90.3703391
  87.4897056 112.4734941  90.2482281  86.9109050 113.7264946  90.8702077
  85.3079221 115.9762721  80.6666292  86.0287584 116.3543974  80.1630009
  84.6844525 116.6951598  80.7701270  89.4510344 116.6807870  81.6024625
  89.6673958 117.5632508  81.3013453  88.9704411 116.2894083  80.8730267
  84.1909565 119.6393583  88.1795369  84.0454146 119.9533886  89.0719651
  83.7134769 120.2578483  87.6266268  86.0505948 116.6296131  88.2276259
  86.0367517 115.7337224  87.8908557  86.7678376 116.6366795  88.8614545
  87.9032079 117.0633471  90.2729386  87.6449857 117.9850542  90.2713717
  87.3717119 116.6663906  90.9629850  78.6655228 122.1798927  91.1183030
  78.1208696 122.9558735  91.2503305  79.5434577 122.5269732  90.9602152
  85.4542844 115.5110511  83.4963829  85.5758755 114.5827158  83.6954716
  85.1644887 115.5249197  82.5842144  88.3234035 113.1965422  86.6330549
  88.3455731 113.2604755  85.6782528  88.7402094 112.3569930  86.8271055
  79.8977863 129.1934252  86.0423582  80.7235883 128.8938024  85.6622225
  79.5471915 128.4241875  86.4913370  78.0986468 127.1120579  87.0012515
  77.2618376 126.6842753  86.8196517  78.0710114 127.3053022  87.9383307
  84.4272903 127.0964644  81.5879716  84.5761024 127.7800108  80.9346389
  85.2339347 127.0769734  82.1029172  82.1825536 123.1229822  82.5940785
  81.9371578 122.2192152  82.7920995  82.3521451 123.1246972  81.6520263
  81.4521184 118.8558179  80.0926946  80.7590429 118.9302534  79.4366982
  81.2072936 118.0918523  80.6148463  90.1234840 110.4153781  87.4966437
  90.4036594 109.7476970  88.1226864  90.9085447 110.6082876  86.9841101
  88.3115107 120.9273587  76.4007516  89.2574212 120.7979795  76.4695934
  87.9329352 120.1888249  76.8776944  94.2836992 112.5929593  86.3634408
  94.0861813 112.2844681  87.2477740  94.8936697 113.3191232  86.4932338
  86.4958024 118.8523564  76.3362401  85.5889480 118.5556676  76.4125115
  86.7734005 118.5553382  75.4696687  77.4135965 120.1729927  86.7861448
  77.0938749 119.3195235  86.4935822  76.8669393 120.3878505  87.5419415
  88.1120090 113.3960453  82.4906642  87.3020818 113.0507538  82.8661888
  88.8004507 113.0867997  83.0794254  90.0410638 112.4738500  84.1130939
  90.5941677 112.8933954  84.7720962  90.2780725 111.5474248  84.1553895
  85.2656809 115.7110499  76.4774380  86.1275973 116.0365397  76.7370198
  85.4507153 114.9241995  75.9647446  77.2824225 123.7932838  88.7554569
  76.5887696 123.3786791  88.2424524  78.0297216 123.8353375  88.1587988
  93.4189445 114.5839025  83.6209603  92.8388115 115.2423829  83.2387656
  93.1525378 113.7616370  83.2097021  91.8693012 113.9844083  85.8230924
  92.3692790 114.0960618  85.0145242  92.5128620 113.6805136  86.4631732
  79.1960967 123.7251092  86.6320584  79.1731655 123.8238780  85.6802467
  79.5061604 124.5716243  86.9537750  92.2014324 116.7439116  82.6765952
  91.3140179 117.0288766  82.4586146  92.6168313 116.5832879  81.8293228
  95.5528860 116.7685637  86.3920291  96.3289250 117.2582089  86.6644908
  94.8276994 117.1943691  86.8492160  92.1755347 122.2593652  82.8916242
  92.1190549 122.7162203  82.0523874  92.7283690 121.4984336  82.7139084
  95.9860153 118.0483383  83.7166361  95.7297087 117.6480019  84.5474569
  95.3613021 118.7627177  83.5916500  92.9090127 123.4498433  80.1868771
  92.8538930 123.2842704  79.2457215  92.2836182 124.1574466  80.3430961
  77.6982642 118.6866497  94.0130193  78.3441505 118.1765451  94.5017418
  77.4899793 119.4235179  94.5873618  86.2186252 112.9506542  79.7654089
  86.2064922 113.8948382  79.9222360  87.1109674 112.7676687  79.4713551
  90.0338371 109.5449318  84.0200026  89.2670767 108.9907805  84.1656708
  90.4449076 109.6171187  84.8814178  26.0072229   7.1654670  75.6412915
  26.6450639   7.0461417  74.9376255  25.8893072   8.1135513  75.7000867
  22.8161936   7.1182098  75.5774440  22.4780447   7.0023162  74.6894975
  23.6851704   6.7173263  75.5575446  18.6748751   8.9717574  71.5671331
  18.1113616   8.8807511  70.7987618  18.5601146   8.1517478  72.0473823
  23.2981719   8.2716949  81.5360645  23.2870359   7.8769748  80.6641149
  23.4602358   7.5383022  82.1294417  16.2213183  10.4668766  74.4055551
  17.0134475  10.1259590  73.9901850  16.4609833  10.5763741  75.3257704
  24.2548310  12.6388542  66.8785796  23.6036290  13.2242622  66.4919809
  25.0492673  13.1694737  66.9380833  18.1803937   9.7277679  67.2772930
  18.9534813   9.1806666  67.1385806  18.5329336  10.5921928  67.4887391
  20.0188980  11.0554061  80.4839829  19.7278846  11.9599692  80.3686496
  20.6545964  11.0970589  81.1983899  20.9445187   8.4330910  77.0741189
  21.5408759   8.2086932  76.3598152  21.0020158   7.6915655  77.6766637
  20.5170215   5.8870345  64.9091380  20.7695736   5.3651866  64.1474843
  19.5794774   5.7236490  65.0118063  25.5613498   4.8906123  72.7166123
  26.3476587   4.4725547  72.3656540  25.8252202   5.7952216  72.8847771
  25.7323575  10.3278974  67.4154780  25.0969408  10.4013600  68.1275684
  25.4020982  10.9172572  66.7373859  30.9621925   4.8281357  73.6199102
  31.6947097   4.2580573  73.8536931  30.2061281   4.4402957  74.0605607
  20.2366504   7.7898451  67.1115755  20.1202762   7.1143354  67.7796839
  20.3468764   7.3030825  66.2947908  22.5798045   7.2508598  70.8162444
  22.2156252   6.7239219  71.5275365  23.4365161   6.8607067  70.6428929
  24.9778865  10.7415477  77.4789623  24.6779588  11.6440515  77.3705430
  24.6329924  10.4747660  78.3310776  18.4291346   7.1929273  73.5126327
  17.5041843   7.0605488  73.7204019  18.6775759   7.9723493  74.0096270
  28.3776009   3.2598017  75.1587060  27.4692886   3.1913425  74.8645821
  28.3263604   3.7369962  75.9868886  22.1992752   4.7356155  66.7970459
  22.0792378   5.1813206  67.6355940  21.5045341   5.0841473  66.2383997
  19.9599645  17.5059797  70.4460591  19.8823674  18.4567622  70.5249071
  19.3561288  17.1605669  71.1035517  22.4516874   4.6787662  83.1021957
  21.6750208   5.2381583  83.0924822  23.0907437   5.1644445  83.6236828
  30.2437655   1.4614455  76.9364934  29.6012035   1.7546988  76.2904729
  29.7392584   1.3467376  77.7418131  27.8977819   5.2077628  67.6250793
  28.8095675   5.4405015  67.4498491  27.3887466   5.7914673  67.0625872
  20.7063247   7.4873116  82.6639924  21.4477931   8.0258160  82.3874748
  20.0000232   8.1139405  82.8211476  26.1818586   9.6302256  81.2612086
  26.5901942   9.1884667  80.5166718  25.4595848   9.0554884  81.5146279
  22.5349656   4.5674863  78.6345643  23.3810852   4.9914277  78.7780292
  22.4748294   3.9108487  79.3284206  26.5047401  10.1903447  75.0164375
  25.8756263  10.3549161  74.3140443  26.1173063  10.6045056  75.7875339
  30.3836633  11.1257885  72.3708739  29.6987671  11.5056786  71.8205772
  30.4680482  11.7353211  73.1040686  25.6849102   2.2279231  80.2926817
  25.4410034   2.9821292  79.7561092  25.9609032   2.6064579  81.1274064
  27.6387564   8.7717844  78.9704082  27.8504460   9.4149604  78.2938463
  27.5917313   7.9380160  78.5026012  25.2413793   1.3835664  75.8740654
  24.3798272   1.6816918  76.1657392  25.2676228   1.6006063  74.9421687
  22.0575363   9.9277855  72.2814460  22.5213708  10.2065558  71.4919082
  21.7932161   9.0261300  72.0987551  18.9499444   9.4749337  75.2194223
  19.5200801   9.9036605  74.5811708  19.5407556   9.1931921  75.9178409
  20.9944249   6.0501007  69.0904025  21.6968292   6.5022051  69.5577951
  20.6624877   5.4084826  69.7183918  28.7533392  11.6489799  77.1426439
  29.5750836  11.2469986  76.8609121  28.7495795  11.5458033  78.0942555
  22.5189996  11.1973842  79.2987150  22.5834428  11.6594250  80.1345322
  21.8100920  10.5671207  79.4269460  36.8439385   7.9928548  73.4911411
  36.0903094   7.4235946  73.3355415  36.9786927   7.9591212  74.4382046
  22.2338013  12.8641950  69.1666130  22.0983688  13.7093486  69.5950978
  22.7747826  13.0661228  68.4032064  15.6867411  10.3817388  69.7394055
  16.1991931  11.1760638  69.8899620  16.3390124   9.6843678  69.6727657
  17.4962296  13.4983144  71.8216809  17.6728924  14.4201109  71.6337792
  18.2919129  13.1841563  72.2511188  23.8606490  13.4865516  83.2966472
  23.4170344  12.7001895  82.9787377  24.5223703  13.6744667  82.6310363
  18.6193611  15.0161318  77.8227151  19.1701036  14.8878381  77.0504145
  17.7805087  15.3156207  77.4722044  25.9587728  13.7668316  81.3247874
  25.9406203  14.5877197  80.8328143  26.8807648  13.6422392  81.5498015
  22.4160782  11.2812446  82.1671382  22.9489119  10.5200734  81.9370690
  21.8874863  10.9886098  82.9095537  25.5480760   6.3781123  66.2037459
  25.0327383   7.1485728  66.4425846  25.2758068   5.7046259  66.8270520
  30.5215034   9.1313478  68.1390632  29.7444477   8.7924637  67.6945794
  31.2006515   9.1366101  67.4645597  25.3367063   4.2508215  68.0297240
  25.0317199   4.5654364  68.8807383  26.2897505   4.3289635  68.0724573
  23.7813495  10.4098438  69.6790194  23.2534856   9.6751198  69.3663431
  23.2800998  11.1873115  69.4330162  28.7606341   8.6047459  74.7957240
  28.1030015   9.2946720  74.8837369  29.5646740   8.9943891  75.1391227
  27.5711800   6.9591832  72.8461182  28.0843681   7.5921823  73.3482892
  28.2213024   6.3593027  72.4804542  21.9266095   8.2278649  62.6825167
  21.0193157   7.9967902  62.8816316  22.4237127   7.4316268  62.8699149
  24.8334174  16.9376156  65.6021853  24.1595873  17.2407853  66.2106811
  25.2199996  17.7405236  65.2527310  24.0492630   4.4341287  75.0919523
  23.1315192   4.6556234  74.9341211  24.4652774   4.5087598  74.2331230
  24.8327678   5.8332703  70.2222203  25.5799497   6.3454100  69.9129325
  25.1019268   5.5116755  71.0826596  23.1054328   8.3291243  67.2049157
  22.1965548   8.0450276  67.3021627  23.1349412   8.7490322  66.3452464
  28.3373596  11.9397833  70.9740325  27.8835923  11.0988743  71.0305515
  27.7067563  12.5759231  71.3115105  27.2806515   2.8689819  72.2040992
  26.5429272   2.3567205  72.5351235  27.5333289   2.4290201  71.3924269
  26.7806535  13.7774330  71.9090143  27.0729509  14.3379387  71.1902508
  27.2905156  14.0702891  72.6643302  21.6539222   5.9419864  73.3058953
  21.7087832   4.9893700  73.2301429  20.8430424   6.0979303  73.7900251
  22.8030416   9.8699987  64.5437236  22.3649846   9.1535846  64.0842873
  23.5440857  10.0976102  63.9822327  21.7440160  14.5554681  72.9983596
  21.7016339  14.7815527  72.0692128  22.6602859  14.3218055  73.1469397
  25.1905794   5.0238748  79.8964225  25.5455182   5.2510221  80.7558691
  25.8377925   5.3557125  79.2741481  30.9203531   8.1457184  70.6013554
  30.7821430   8.3358780  69.6734744  30.5639750   8.9076567  71.0581605
  30.9472911  10.2133711  75.6124826  31.3809417  10.1209000  76.4607880
  31.6604491  10.1891212  74.9744842  19.8605961  11.4317710  72.7945559
  20.6546560  10.9368030  72.5928134  19.1497653  10.9035573  72.4313264
  24.6800806  13.8135805  77.1457926  24.7337828  14.3826742  77.9135642
  23.8115587  13.9837690  76.7811964  31.8088460  10.2557412  78.1457711
  32.0024350  11.1603222  78.3916986  31.7089078   9.7964831  78.9796296
  26.8703569  10.4064155  83.7198592  26.7189075  10.1774706  82.8028676
  26.8608248  11.3634756  83.7329937  23.6388905   7.9796067  78.7044858
  24.5680965   8.1307227  78.5313826  23.2179935   8.0680088  77.8493505
  22.4377237  12.0046732  76.4743396  22.2988323  11.6365516  77.3469334
  21.6491833  12.5194371  76.3027354  23.0325389  17.1055828  67.8168932
  23.2077145  16.6343871  68.6314555  22.3458177  17.7321594  68.0450193
  23.9882452  11.3828334  73.8632234  23.6532285  11.3429104  74.7589884
  23.4886398  10.7173050  73.3902644  17.9626696   6.7895964  79.3884815
  17.8246494   6.0576203  79.9896354  18.8731620   6.7004865  79.1069003
  26.9241644   8.7284369  64.1369293  26.3070814   8.0031197  64.0402346
  26.4558132   9.4893729  63.7936368  20.5908997   6.5015924  78.8768494
  21.3008615   5.8609116  78.8355113  20.5478305   6.7528819  79.7994675
  28.5795776  13.4383277  81.7975074  28.5208322  12.7542497  81.1305657
  28.9815294  14.1802267  81.3455700  17.5986474  20.2545191  74.5908793
  17.8383073  20.8863715  75.2687811  16.7555671  19.9033231  74.8774152
  28.5813183  11.4022861  80.0289053  27.6939962  11.0648783  80.1515452
  29.1511734  10.6705892  80.2657819  22.1114336  16.0624313  76.9950297
  22.0384508  16.8679285  77.5069601  21.6691729  16.2616279  76.1698318
  21.9004116  15.2996083  70.5053118  21.1171638  15.8417764  70.5991343
  22.5996861  15.8170063  70.9047359  33.0630523   6.8131078  74.7905615
  33.0520400   7.6955794  74.4199548  32.1947903   6.4602629  74.5960152
  24.5713020  15.9611147  79.1508455  25.2840992  16.5958612  79.0784357
  24.0803048  16.0575013  78.3348457  26.2930547   9.8662400  70.7225747
  25.3586825   9.9863863  70.5530451  26.4707215   8.9634867  70.4585757
  29.6803098   5.7079719  71.2575781  30.1463550   6.5407711  71.1836084
  30.1310598   5.2424701  71.9621040  19.6224933  13.7105591  79.9714026
  20.3234393  14.3442074  80.1243420  19.1520048  14.0520322  79.2109665
  27.7479329  12.0523541  68.2561933  28.0239173  11.9380135  69.1655807
  26.8783828  11.6541026  68.2174106  27.4226219   6.2650198  77.7966576
  26.7697669   6.5126106  77.1419029  27.8006599   5.4514337  77.4629054
  24.3833393  16.3009892  71.8994747  24.5655788  15.4831547  72.3622499
  25.2066379  16.5177584  71.4619637  24.7175559  15.2278077  69.1609795
  25.2463325  14.7170531  68.5479957  24.9803778  14.9120607  70.0255328
  23.4713792   7.0070009  84.2832613  22.7954429   6.9064139  84.9534989
  24.2941426   6.8509223  84.7468611  15.2192651  13.2441946  76.9045129
  15.8046088  12.4985634  77.0373033  15.0217490  13.5545903  77.7881793
  18.0731307  16.2793193  71.9207571  17.4041682  16.7639321  71.4371611
  17.9344176  16.5262414  72.8350950  22.2136575  18.3136937  78.5190229
  22.7654883  18.4768558  79.2839315  22.5542769  18.9041375  77.8470254
  27.0647449  13.1398194  84.3738884  27.6087353  13.7528153  83.8793839
  26.4834294  13.6977773  84.8905897  25.3504962  16.2618912  75.5053912
  25.2256102  15.4608652  74.9964857  26.0084053  16.7565106  75.0167882
  27.4139871  14.0627933  77.1333462  26.4670206  13.9433284  77.0611788
  27.7622644  13.1750431  77.2159723  24.4186304  13.8580649  73.3337814
  24.2711266  12.9297356  73.5145384  25.2439798  13.8800739  72.8494889
  28.0220426  14.6809207  74.4202687  28.9466973  14.4752069  74.2827138
  27.8535729  14.4325609  75.3292028  27.8115742  15.1994875  69.7764778
  27.9852620  14.6341297  69.0238631  28.3044633  15.9995770  69.5944268
  33.6655133   7.9631298  71.3955078  34.1086279   7.2138623  70.9974201
  32.7881644   7.9541434  71.0128810  28.7990915  14.5161639  66.8761676
  29.4941819  15.1368332  67.0948991  29.1414065  13.6656991  67.1514054
  30.6982338  11.9661345  68.4049007  31.2233662  12.3048618  67.6798327
  30.6104690  11.0308360  68.2212142  22.3602386  15.8795418  80.5338884
  22.6689513  15.6344565  81.4061583  23.1577868  16.0842057  80.0457754
  22.3822998  18.0333328  72.7644260  21.9427989  17.5409707  73.4577117
  23.1331115  17.4906296  72.5236336  14.8615337  14.2244869  72.7668888
  15.6873357  13.9248641  72.3867532  14.5109389  13.4552491  73.2158677
  19.8296871  13.5771337  74.8366562  19.2076880  12.9142042  74.5368790
  20.5001738  13.6032469  74.1540210  13.0623942  12.1431195  73.7257822
  12.2255851  11.7153370  73.5441823  13.0347588  12.3363639  74.6628613
  30.3876244  12.5994248  83.7100205  29.5971787  12.5818387  83.1704705
  30.1509598  13.1382542  84.4649242  30.5074119   9.4486715  81.0232934
  30.5572124   9.2836722  81.9648456  30.3988042   8.5813974  80.6330814
  19.3910378  12.1275261  68.3125023  19.5398498  12.8110725  67.6591695
  20.1976821  12.1080351  68.8274478  27.7977881   5.4317643  82.3392240
  28.6987744   5.2924108  82.0476238  27.8725856   5.5972098  83.2790418
  32.0092316  11.8683656  81.2674955  31.7177124  12.2313637  82.1038416
  31.3964447  11.1550665  81.0888287  33.2087998   9.4336536  73.7877525
  34.0434889   9.8726340  73.9515086  33.3447127   8.9575189  72.9685771
  30.2579504   6.9916271  79.7355013  30.7333625   7.1843917  78.9273865
  29.3345069   7.0475457  79.4898397  17.1463011   8.1540438  69.3186092
  16.9009052   7.2502768  69.5166302  17.3158925   8.1557589  68.3765570
  22.8905783  14.6223391  65.7836770  22.3179750  15.2413578  65.3307242
  23.4638577  15.1722753  66.3176692  28.9581173   3.8682031  77.9683319
  29.9098596   3.9680129  77.9895543  28.7884623   3.0760300  78.4781403
  26.9795552   0.9537614  78.1542720  26.3845484   1.2342627  77.4589208
  26.6945249   1.4431515  78.9259461  26.1103043  14.9060541  66.9145352
  27.0433716  14.8406103  67.1178228  26.0226256  15.7416808  66.4559885
  28.7391060  14.2226411  63.8749300  28.6604691  13.8886275  64.7685058
  29.5600726  14.7148179  63.8740772  31.4369251   7.0888151  77.0825618
  31.4045571   6.1504152  77.2685302  32.0469874   7.1672187  76.3491443
  23.2752582   5.9584204  63.1252823  24.2211686   5.8290412  63.1941241
  22.8966827   5.2198866  63.6022251  31.5863739   3.8799194  77.1283902
  31.0702788   3.0957651  76.9413831  32.4703688   3.5517911  77.2930421
  37.2545801   8.1504158  76.2231655  37.9849189   7.8889446  76.7839359
  36.6452746   7.4132880  76.2633723  35.3361098   6.2912020  76.8206106
  34.6094261   6.1567985  76.2122598  34.9208385   6.5988849  77.6262825
  23.1591274  10.0101950  84.5853479  24.0794284  10.1880549  84.7793526
  23.1240857   9.0657995  84.4333179  16.1553347   7.9202985  77.2276261
  16.3739356   8.8520092  77.2464294  16.5679120   7.5610959  78.0131064
  28.3826920  -0.3850358  70.3454910  27.8025589   0.2734446  69.9632962
  28.1162852  -1.2073014  69.9342327  20.8912482   6.9233329  85.4344071
  20.4079564   7.7233689  85.6407960  20.9773421   6.9341274  84.4811515
  14.1598442   8.7561709  73.3565891  14.1369130   8.8549396  72.4047774
  14.4699078   9.6026860  73.6783057  16.8185819  10.8137864  77.4712505
  17.7729073  10.7821806  77.4042437  16.6198343  10.3528488  78.2862731
  17.4085202   9.3838980  80.0383303  18.2278091   9.8783059  80.0618140
  17.6822009   8.4670948  80.0100870  27.1651798   1.7749732  69.4011258
  26.2777653   2.0599383  69.1831453  27.5805787   1.6143496  68.5538535
  30.5166334   1.7996253  73.1165597  31.2926724   2.2892706  73.3890214
  29.7914468   2.2254307  73.5737467  32.9538893   2.5123872  74.1739538
  33.5483383   2.2719608  73.4632846  33.0265476   1.7931003  74.8013074
  15.1736048  16.3557483  74.4882703  15.0390516  15.5957884  73.9220701
  14.7568111  17.0798383  74.0211492  26.3095011  11.5394407  63.4959278
  27.0130861  11.7444409  64.1116934  25.5857660  12.1071169  63.7608362
  27.1392822   7.2904268  69.6161548  27.0828023   7.7472820  68.7769181
  27.6921164   6.5294953  69.4384391  30.9497627   3.0794000  70.4411668
  30.6934562   2.6790636  71.2719876  30.3250496   3.7937794  70.3161807
  35.2609965   5.8190073  72.9482959  34.7009523   5.8883263  73.7214521
  34.6553469   5.6431058  72.2282456  18.3305174  17.2526800  74.7001146
  18.2137558  18.1972233  74.5979836  17.5097620  16.9500362  75.0886945
  28.2181709  11.9776936  65.5457738  29.0527313  11.5458135  65.3635213
  28.0566052  11.8058950  66.4734633  27.8727601   8.4809049  66.9114078
  27.8176405   8.3153321  65.9702522  27.2473656   9.1885082  67.0676267
  25.1873508  10.7857961  86.2367640  26.0564668  10.9598614  85.8754275
  24.7080260  11.6052378  86.1143370  19.3559688  17.9055062  77.9157074
  20.2586935  17.9378673  78.2323569  19.1297058  16.9755513  77.9303410
  21.1113290  16.6586049  74.5767153  20.1608921  16.6587910  74.4631525
  21.4145776  15.9118783  74.0603187  36.8465984  22.4946587  75.6412915
  37.4844394  22.3753335  74.9376255  36.7286827  23.4427431  75.7000867
  33.6555690  22.4474015  75.5774440  33.3174202  22.3315080  74.6894975
  34.5245458  22.0465180  75.5575446  29.5142506  24.3009492  71.5671331
  28.9507371  24.2099429  70.7987618  29.3994901  23.4809396  72.0473823
  34.1375473  23.6008867  81.5360645  34.1264114  23.2061665  80.6641149
  34.2996113  22.8674940  82.1294417  27.0606938  25.7960683  74.4055551
  27.8528230  25.4551508  73.9901850  27.3003588  25.9055658  75.3257704
  35.0942064  27.9680459  66.8785796  34.4430044  28.5534540  66.4919809
  35.8886427  28.4986654  66.9380833  29.0197692  25.0569597  67.2772930
  29.7928568  24.5098584  67.1385806  29.3723091  25.9213846  67.4887391
  30.8582734  26.3845979  80.4839829  30.5672600  27.2891610  80.3686496
  31.4939719  26.4262506  81.1983899  31.7838941  23.7622827  77.0741189
  32.3802513  23.5378850  76.3598152  31.8413913  23.0207573  77.6766637
  31.3563969  21.2162263  64.9091380  31.6089490  20.6943784  64.1474843
  30.4188529  21.0528408  65.0118063  36.4007252  20.2198041  72.7166123
  37.1870342  19.8017464  72.3656540  36.6645957  21.1244133  72.8847771
  36.5717330  25.6570891  67.4154780  35.9363163  25.7305518  68.1275684
  36.2414736  26.2464490  66.7373859  41.8015679  20.1573274  73.6199102
  42.5340851  19.5872491  73.8536931  41.0455035  19.7694875  74.0605607
  31.0760258  23.1190369  67.1115755  30.9596516  22.4435272  67.7796839
  31.1862518  22.6322743  66.2947908  33.4191799  22.5800516  70.8162444
  33.0550006  22.0531137  71.5275365  34.2758915  22.1898985  70.6428929
  39.3241100  13.8694848  78.0793710  38.9924425  14.7390259  77.8554925
  38.7286713  13.5531132  78.7587741  33.0597286  17.6090415  65.8123793
  33.2271688  18.4770652  66.1794264  32.8694455  17.7717697  64.8885082
  35.8172619  26.0707394  77.4789623  35.5173342  26.9732433  77.3705430
  35.4723679  25.8039578  78.3310776  29.2685101  22.5221191  73.5126327
  28.3435597  22.3897405  73.7204019  29.5169514  23.3015410  74.0096270
  39.2169763  18.5889935  75.1587060  38.3086640  18.5205343  74.8645821
  39.1657359  19.0661879  75.9868886  33.0386507  20.0648073  66.7970459
  32.9186132  20.5105124  67.6355940  32.3439095  20.4133391  66.2383997
  26.6293912  22.1654465  74.3470116  26.7586293  22.4188944  75.2609528
  25.9491363  22.7582173  74.0274771  30.7993399  32.8351715  70.4460591
  30.7217429  33.7859540  70.5249071  30.1955043  32.4897587  71.1035517
  33.2910629  20.0079580  83.1021957  32.5143963  20.5673500  83.0924822
  33.9301192  20.4936363  83.6236828  41.0831409  16.7906373  76.9364934
  40.4405790  17.0838906  76.2904729  40.5786338  16.6759293  77.7418131
  38.7371573  20.5369546  67.6250793  39.6489429  20.7696933  67.4498491
  38.2281220  21.1206590  67.0625872  31.5457001  22.8165033  82.6639924
  32.2871686  23.3550077  82.3874748  30.8393987  23.4431322  82.8211476
  37.0212341  24.9594174  81.2612086  37.4295697  24.5176584  80.5166718
  36.2989602  24.3846801  81.5146279  33.3743411  19.8966781  78.6345643
  34.2204606  20.3206194  78.7780292  33.3142049  19.2400405  79.3284206
  37.3441155  25.5195365  75.0164375  36.7150018  25.6841079  74.3140443
  36.9566818  25.9336974  75.7875339  41.2230387  26.4549802  72.3708739
  40.5381425  26.8348704  71.8205772  41.3074237  27.0645129  73.1040686
  36.5242856  17.5571149  80.2926817  36.2803788  18.3113210  79.7561092
  36.8002787  17.9356497  81.1274064  38.4781319  24.1009761  78.9704082
  38.6898214  24.7441521  78.2938463  38.4311067  23.2672078  78.5026012
  36.0807548  16.7127582  75.8740654  35.2192027  17.0108836  76.1657392
  36.1069983  16.9297981  74.9421687  32.8969117  25.2569773  72.2814460
  33.3607463  25.5357476  71.4919082  32.6325915  24.3553217  72.0987551
  29.7893198  24.8041254  75.2194223  30.3594555  25.2328523  74.5811708
  30.3801310  24.5223839  75.9178409  31.8338003  21.3792925  69.0904025
  32.5362047  21.8313969  69.5577951  31.5018632  20.7376744  69.7183918
  30.2818365  19.9704682  83.4655234  29.6517025  20.6520962  83.6990631
  30.1754453  19.8587763  82.5208373  25.5763337  19.6376478  74.3921159
  24.7862391  19.8934006  73.9161269  26.0674585  20.4524816  74.4973199
  39.5927147  26.9781717  77.1426439  40.4144591  26.5761904  76.8609121
  39.5889550  26.8749951  78.0942555  27.5278083  20.0021057  71.3504635
  26.7309246  20.1139751  71.8688131  27.3003675  20.3407709  70.4845526
  33.3583750  26.5265760  79.2987150  33.4228183  26.9886167  80.1345322
  32.6494674  25.8963125  79.4269460  23.8601040  19.8906968  76.8236149
  24.1109079  20.7753978  77.0893725  24.3960589  19.7111570  76.0511241
  47.6833140  23.3220465  73.4911411  46.9296848  22.7527863  73.3355415
  47.8180681  23.2883130  74.4382046  33.0731768  28.1933868  69.1666130
  32.9377443  29.0385403  69.5950978  33.6141580  28.3953145  68.4032064
  29.5599108  14.2725447  85.8280486  29.1666053  13.7191646  86.5028130
  30.3765248  14.5836026  86.2187003  26.5261165  25.7109306  69.7394055
  27.0385686  26.5052556  69.8899620  27.1783878  25.0135596  69.6727657
  28.3356050  28.8275062  71.8216809  28.5122678  29.7493027  71.6337792
  29.1312884  28.5133481  72.2511188  32.4767069  15.6883327  83.4200742
  33.2176782  16.2890480  83.3405205  32.7084991  14.9460964  82.8618785
  27.6208407  20.8739694  81.6978972  27.5061922  19.9724951  81.9986071
  26.7652924  21.1203391  81.3463788  34.7000244  28.8157434  83.2966472
  34.2564099  28.0293813  82.9787377  35.3617458  29.0036585  82.6310363
  29.4587366  30.3453236  77.8227151  30.0094791  30.2170299  77.0504145
  28.6198841  30.6448125  77.4722044  36.7981482  29.0960234  81.3247874
  36.7799958  29.9169115  80.8328143  37.7201402  28.9714309  81.5498015
  33.2554537  26.6104364  82.1671382  33.7882873  25.8492652  81.9370690
  32.7268618  26.3178015  82.9095537  36.4224232  11.7164430  77.6965024
  36.0788501  12.6066071  77.6204134  36.7903194  11.5266087  76.8334609
  24.4910082  24.0397960  70.5153626  25.3285304  24.4494968  70.2987334
  24.6688350  23.0997402  70.4853820  36.3874514  21.7073041  66.2037459
  35.8721138  22.4777645  66.4425846  36.1151823  21.0338177  66.8270520
  33.9721625  16.5522741  71.2622697  33.1163222  16.1629592  71.0828336
  34.3848577  16.6314702  70.4022483  35.5020772  14.0869085  75.6614257
  34.9985568  14.0499220  74.8482062  35.7951379  14.9961827  75.7210914
  31.7463658  14.1707814  74.6680439  32.6116655  13.9750623  74.3086328
  31.8141167  13.9418166  75.5949796  41.3608788  24.4605395  68.1390632
  40.5838231  24.1216555  67.6945794  42.0400269  24.4658018  67.4645597
  36.1760817  19.5800133  68.0297240  35.8710953  19.8946282  68.8807383
  37.1291260  19.6581553  68.0724573  34.6207249  25.7390356  69.6790194
  34.0928611  25.0043116  69.3663431  34.1194752  26.5165032  69.4330162
  39.6000095  23.9339377  74.7957240  38.9423770  24.6238638  74.8837369
  40.4040495  24.3235808  75.1391227  29.3525977  16.4010022  72.0396806
  29.9269729  16.1785204  71.3069999  29.9396959  16.4698717  72.7925407
  38.4105554  22.2883749  72.8461182  38.9237436  22.9213741  73.3482892
  39.0606778  21.6884945  72.4804542  29.6795564  18.4314483  66.0592691
  28.8432876  18.7689170  66.3801966  29.5400334  18.2963463  65.1219828
  31.6548645  13.2751271  70.7671875  31.0013057  12.9600288  70.1428490
  31.6129119  12.6527012  71.4931698  32.7659849  23.5570566  62.6825167
  31.8586911  23.3259820  62.8816316  33.2630881  22.7608186  62.8699149
  35.6727928  32.2668073  65.6021853  34.9989627  32.5699770  66.2106811
  36.0593750  33.0697154  65.2527310  34.8886385  19.7633205  75.0919523
  33.9708946  19.9848152  74.9341211  35.3046529  19.8379515  74.2331230
  35.6721433  21.1624620  70.2222203  36.4193252  21.6746018  69.9129325
  35.9413022  20.8408673  71.0826596  33.9448083  23.6583161  67.2049157
  33.0359302  23.3742194  67.3021627  33.9743167  24.0782240  66.3452464
  39.1767350  27.2689751  70.9740325  38.7229677  26.4280661  71.0305515
  38.5461317  27.9051149  71.3115105  38.1200270  18.1981737  72.2040992
  37.3823027  17.6859123  72.5351235  38.3727043  17.7582118  71.3924269
  37.6200290  29.1066247  71.9090143  37.9123264  29.6671304  71.1902508
  38.1298910  29.3994808  72.6643302  38.2211897  10.9757989  72.7982761
  38.5270774  10.1155352  72.5108677  38.9464502  11.5675609  72.5981755
  24.5136253  21.3788675  71.1864359  24.3160653  20.7858036  70.4615426
  23.9582917  21.0740885  71.9040298  32.4932977  21.2711782  73.3058953
  32.5481587  20.3185618  73.2301429  31.6824179  21.4271221  73.7900251
  33.6424171  25.1991905  64.5437236  33.2043601  24.4827764  64.0842873
  34.3834612  25.4268020  63.9822327  30.4325337  19.8888842  71.0649331
  29.6193202  20.1883012  71.4714524  30.9284331  19.4944530  71.7823814
  32.5833915  29.8846598  72.9983596  32.5410094  30.1107445  72.0692128
  33.4996614  29.6509973  73.1469397  36.0299549  20.3530666  79.8964225
  36.3848936  20.5802139  80.7558691  36.6771680  20.6849043  79.2741481
  41.7597286  23.4749102  70.6013554  41.6215184  23.6650698  69.6734744
  41.4033504  24.2368485  71.0581605  29.9239412  17.4607197  76.6810566
  30.5638791  17.3195956  75.9833530  29.0916942  17.1741710  76.3049168
  41.7866665  25.5425629  75.6124826  42.2203172  25.4500918  76.4607880
  42.4998246  25.5183129  74.9744842  30.6999716  26.7609627  72.7945559
  31.4940314  26.2659948  72.5928134  29.9891408  26.2327491  72.4313264
  35.5194560  29.1427723  77.1457926  35.5731582  29.7118659  77.9135642
  34.6509341  29.3129608  76.7811964  27.0082479  20.9052709  68.8705311
  26.0780067  20.8437165  69.0875274  27.1039951  20.3828662  68.0741953
  26.9268028  17.4307522  71.4583553  27.1874845  18.3452855  71.3492714
  27.7485200  16.9631965  71.6080166  28.3992953  18.8445279  78.6282378
  29.0716007  18.6362641  77.9795027  27.5722740  18.6467365  78.1887610
  42.6482215  25.5849330  78.1457711  42.8418105  26.4895140  78.3916986
  42.5482833  25.1256749  78.9796296  34.3018525  15.4707220  80.6448039
  33.6546440  16.1697170  80.5512515  35.0719541  15.9043364  81.0124287
  37.7097323  25.7356072  83.7198592  37.5582830  25.5066624  82.8028676
  37.7002003  26.6926674  83.7329937  34.4782660  23.3087985  78.7044858
  35.4074720  23.4599145  78.5313826  34.0573690  23.3972006  77.8493505
  33.2770992  27.3338649  76.4743396  33.1382077  26.9657434  77.3469334
  32.4885588  27.8486289  76.3027354  33.8719144  32.4347746  67.8168932
  34.0470899  31.9635789  68.6314555  33.1851932  33.0613512  68.0450193
  34.8276207  26.7120252  73.8632234  34.4926039  26.6721022  74.7589884
  34.3280152  26.0464968  73.3902644  28.8020451  22.1187882  79.3884815
  28.6640249  21.3868121  79.9896354  29.7125374  22.0296782  79.1069003
  37.7635398  24.0576286  64.1369293  37.1464569  23.3323115  64.0402346
  37.2951887  24.8185647  63.7936368  31.4302751  21.8307841  78.8768494
  32.1402370  21.1901034  78.8355113  31.3872059  22.0820736  79.7994675
  39.4189530  28.7675195  81.7975074  39.3602076  28.0834415  81.1305657
  39.8209048  29.5094185  81.3455700  30.1431685  18.8173059  80.6964134
  29.6069042  18.3663798  81.3485730  29.5548394  18.9518968  79.9534598
  28.4380229  35.5837109  74.5908793  28.6776827  36.2155633  75.2687811
  27.5949425  35.2325149  74.8774152  29.5533944  18.2761711  63.2590598
  28.6763411  18.1550512  62.8952844  30.0291697  17.4847789  63.0069486
  39.4206937  26.7314779  80.0289053  38.5333716  26.3940701  80.1515452
  39.9905488  25.9997810  80.2657819  21.0736084  23.0638871  73.3532105
  21.7607124  22.7500601  72.7653120  20.9184213  23.9680235  73.0799356
  25.8770807  17.9529067  77.7817128  25.7928995  17.3454737  77.0467538
  25.0553513  18.4438085  77.7826625  32.9508091  31.3916231  76.9950297
  32.8778262  32.1971203  77.5069601  32.5085484  31.5908197  76.1698318
  32.7397870  30.6288001  70.5053118  31.9565392  31.1709681  70.5991343
  33.4390615  31.1461981  70.9047359  36.0494520  16.4382631  73.1487324
  36.5463220  15.6852593  72.8288394  35.2781502  16.4746947  72.5830533
  43.9024278  22.1422996  74.7905615  43.8914154  23.0247712  74.4199548
  43.0341657  21.7894547  74.5960152  35.4106774  31.2903065  79.1508455
  36.1234746  31.9250530  79.0784357  34.9196803  31.3866931  78.3348457
  37.1324301  25.1954318  70.7225747  36.1980580  25.3155780  70.5530451
  37.3100970  24.2926785  70.4585757  32.6329489  18.5800014  72.8759008
  32.2627277  18.0271054  73.5639914  33.1288582  17.9758147  72.3234008
  40.5196852  21.0371637  71.2575781  40.9857305  21.8699629  71.1836084
  40.9704353  20.5716619  71.9621040  30.4618688  29.0397509  79.9714026
  31.1628147  29.6733992  80.1243420  29.9913803  29.3812240  79.2109665
  38.5873084  27.3815458  68.2561933  38.8632927  27.2672053  69.1655807
  37.7177582  26.9832943  68.2174106  38.4913515  13.4052224  75.2966682
  37.5776595  13.6356451  75.4648889  38.9206617  13.4890668  76.1480715
  38.2619974  21.5942116  77.7966576  37.6091424  21.8418024  77.1419029
  38.6400354  20.7806254  77.4629054  35.2227148  31.6301809  71.8994747
  35.4049542  30.8123465  72.3622499  36.0460134  31.8469501  71.4619637
  35.5569313  30.5569994  69.1609795  36.0857079  30.0462449  68.5479957
  35.8197533  30.2412525  70.0255328  34.3107547  22.3361927  84.2832613
  33.6348184  22.2356056  84.9534989  35.1335181  22.1801141  84.7468611
  26.0586406  28.5733864  76.9045129  26.6439843  27.8277552  77.0373033
  25.8611244  28.8837820  77.7881793  28.9125061  31.6085111  71.9207571
  28.2435436  32.0931239  71.4371611  28.7737931  31.8554331  72.8350950
  20.6504061  21.1439464  75.6249572  20.6888160  20.6103055  76.4186690
  20.1444353  20.6174669  75.0060549  33.0530330  33.6428855  78.5190229
  33.6048638  33.8060476  79.2839315  33.3936523  34.2333292  77.8470254
  28.0294823  15.9904004  79.1212114  28.0936149  16.8518835  78.7089512
  27.9661943  15.3778006  78.3884473  27.5047095  18.0627137  82.7685148
  28.1319134  17.6804214  83.3822673  26.6475014  17.8441339  83.1340841
  37.9041204  28.4690112  84.3738884  38.4481108  29.0820070  83.8793839
  37.3228049  29.0269690  84.8905897  24.2812638  19.8703566  68.7003503
  24.5766079  18.9614244  68.6470557  23.3800674  19.8491305  68.3784506
  36.1898717  31.5910830  75.5053912  36.0649856  30.7900570  74.9964857
  36.8477808  32.0857023  75.0167882  27.8106885  17.9459563  74.6831052
  27.0893471  18.5595530  74.5438525  28.6000141  18.4817327  74.6047698
  38.2533625  29.3919850  77.1333462  37.3063961  29.2725201  77.0611788
  38.6016398  28.5042348  77.2159723  30.6133199  15.2813989  80.9571704
  31.1367600  15.5276286  81.7198013  30.3945532  16.1134024  80.5374841
  26.0100480  17.5517664  68.8242828  25.6813186  16.6715043  68.6417934
  26.3639850  17.4965332  69.7119218  35.2580059  29.1872566  73.3337814
  35.1105021  28.2589274  73.5145384  36.0833552  29.2092657  72.8494889
  29.1242303  17.8390633  69.1918306  29.4638375  18.3676555  68.4696914
  29.5714423  18.1771040  69.9676873  38.8614180  30.0101125  74.4202687
  39.7860728  29.8043986  74.2827138  38.6929484  29.7617526  75.3292028
  31.8185744  16.2227684  78.6421374  31.4782564  15.4235497  79.0442054
  31.1124750  16.5229395  78.0698207  32.4702215  13.3076997  77.0948697
  33.2928285  12.8337475  76.9727588  32.7140279  14.0867480  77.5947383
  31.1110450  16.3365255  67.3911599  31.8318812  16.7146508  66.8875316
  30.4875754  17.0554132  67.4946577  35.2541573  17.0410404  68.3269931
  35.4705187  17.9235042  68.0258759  34.7735640  16.6496617  67.5975573
  29.9940794  19.9996117  74.9040676  29.8485375  20.3136420  75.7964957
  29.5165998  20.6181018  74.3511574  31.8537177  16.9898665  74.9521565
  31.8398746  16.0939759  74.6153863  32.5709605  16.9969329  75.5859851
  33.7063308  17.4236005  76.9974693  33.4481086  18.3453076  76.9959023
  33.1748348  17.0266440  77.6875157  38.6509497  30.5286793  69.7764778
  38.8246374  29.9633215  69.0238631  39.1438388  31.3287687  69.5944268
  24.4686456  22.5401462  77.8428337  23.9239924  23.3161270  77.9748611
  25.3465806  22.8872266  77.6847458  31.2574073  15.8713046  70.2209135
  31.3789984  14.9429692  70.4200023  30.9676115  15.8851732  69.3087451
  34.1265263  13.5567956  73.3575855  34.1486960  13.6207289  72.4027835
  34.5433322  12.7172465  73.5516361  44.5048888  23.2923216  71.3955078
  44.9480034  22.5430541  70.9974201  43.6275398  23.2833352  71.0128810
  39.6384669  29.8453557  66.8761676  40.3335574  30.4660250  67.0948991
  39.9807819  28.9948908  67.1514054  25.2552478  21.6671358  80.7358494
  24.5134214  21.8153993  81.3223124  24.9345223  21.9279624  79.8725243
  41.5376092  27.2953263  68.4049007  42.0627416  27.6340535  67.6798327
  41.4498445  26.3600278  68.2212142  33.1996141  31.2087336  80.5338884
  33.5083267  30.9636483  81.4061583  33.9971623  31.4133975  80.0457754
  33.2216753  33.3625246  72.7644260  32.7821743  32.8701624  73.4577117
  33.9724870  32.8198213  72.5236336  25.7009092  29.5536787  72.7668888
  26.5267112  29.2540559  72.3867532  25.3503144  28.7844409  73.2158677
  30.6690625  28.9063255  74.8366562  30.0470634  28.2433960  74.5368790
  31.3395492  28.9324387  74.1540210  23.9017697  27.4723113  73.7257822
  23.0649605  27.0445287  73.5441823  23.8741342  27.6655556  74.6628613
  30.7415153  17.3845043  84.4299068  30.7903308  18.2607166  84.0476838
  31.2837667  16.8422436  83.8570711  41.2269998  27.9286166  83.7100205
  40.4365542  27.9110305  83.1704705  40.9903353  28.4674460  84.4649242
  41.3467873  24.7778633  81.0232934  41.3965878  24.6128640  81.9648456
  41.2381797  23.9105892  80.6330814  30.2304132  27.4567178  68.3125023
  30.3792252  28.1402643  67.6591695  31.0370575  27.4372268  68.8274478
  38.6371636  20.7609561  82.3392240  39.5381498  20.6216025  82.0476238
  38.7119610  20.9264015  83.2790418  32.9714441  18.1376415  81.1845427
  32.1017750  18.4309981  80.9128015  33.2073921  18.7216860  81.9052690
  42.8486070  27.1975574  81.2674955  42.5570878  27.5605555  82.1038416
  42.2358201  26.4842582  81.0888287  44.0481752  24.7628454  73.7877525
  44.8828644  25.2018258  73.9515086  44.1840881  24.2867107  72.9685771
  41.0973258  22.3208189  79.7355013  41.5727380  22.5135835  78.9273865
  40.1738824  22.3767375  79.4898397  27.9856765  23.4832356  69.3186092
  27.7402807  22.5794686  69.5166302  28.1552680  23.4849506  68.3765570
  35.6753475  14.3556032  78.7010847  36.1935419  15.0917059  78.3757336
  35.3208608  14.6620026  79.5357606  27.2552413  19.2160713  66.8172253
  26.5621657  19.2905068  66.1612289  27.0104164  18.4521057  67.3393770
  35.9266069  10.7756315  74.2211744  36.2067823  10.1079504  74.8472170
  36.7116676  10.9685410  73.7086408  33.7299538  29.9515309  65.7836770
  33.1573505  30.5705496  65.3307242  34.3032331  30.5014670  66.3176692
  39.7974927  19.1973949  77.9683319  40.7492350  19.2972046  77.9895543
  39.6278378  18.4052217  78.4781403  37.8189307  16.2829532  78.1542720
  37.2239239  16.5634545  77.4589208  37.5339004  16.7723433  78.9259461
  36.9496797  30.2352459  66.9145352  37.8827470  30.1698020  67.1178228
  36.8620010  31.0708726  66.4559885  39.5784814  29.5518329  63.8749300
  39.4998446  29.2178193  64.7685058  40.3994481  30.0440097  63.8740772
  42.2763005  22.4180068  77.0825618  42.2439325  21.4796069  77.2685302
  42.8863629  22.4964105  76.3491443  34.1146336  21.2876121  63.1252823
  35.0605441  21.1582330  63.1941241  33.7360581  20.5490783  63.6022251
  42.4257494  19.2091112  77.1283902  41.9096542  18.4249569  76.9413831
  43.3097442  18.8809829  77.2930421  40.0868221  12.9532127  73.0879714
  39.8893042  12.6447216  73.9723046  40.6967926  13.6793766  73.2177644
  48.0939555  23.4796075  76.2231655  48.8242944  23.2181363  76.7839359
  47.4846501  22.7424797  76.2633723  46.1754852  21.6203938  76.8206106
  45.4488016  21.4859903  76.2122598  45.7602139  21.9280766  77.6262825
  33.9985029  25.3393868  84.5853479  34.9188038  25.5172467  84.7793526
  33.9634612  24.3949913  84.4333179  32.2989253  19.2126098  63.0607708
  31.3920709  18.9159211  63.1370421  32.5765234  18.9155916  62.1941994
  23.2167194  20.5332461  73.5106754  22.8969978  19.6797769  73.2181128
  22.6700622  20.7481039  74.2664721  26.9947101  23.2494902  77.2276261
  27.2133111  24.1812010  77.2464294  27.4072875  22.8902877  78.0131064
  33.9151319  13.7562988  69.2151949  33.1052047  13.4110072  69.5907195
  34.6035736  13.4470531  69.8039561  35.8441867  12.8341034  70.8376246
  36.3972906  13.2536488  71.4966269  36.0811954  11.9076782  70.8799202
  31.8674966  18.8228108  86.6179010  31.7671693  19.7722465  86.5491101
  31.6496508  18.4946347  85.7455080  31.0688038  16.0713033  63.2019687
  31.9307202  16.3967931  63.4615504  31.2538382  15.2844529  62.6892753
  23.0855454  24.1535373  75.4799876  22.3918925  23.7389326  74.9669830
  23.8328445  24.1955909  74.8833295  39.2220674  14.9441559  70.3454910
  38.6419343  15.6026364  69.9632962  38.9556607  14.1218904  69.9342327
  37.6724241  14.3446617  72.5476230  38.1724019  14.4563152  71.7390549
  38.3159849  14.0407670  73.1877039  31.7306236  22.2525247  85.4344071
  31.2473318  23.0525607  85.6407960  31.8167176  22.2633192  84.4811515
  24.9992196  24.0853626  73.3565891  24.9762884  24.1841314  72.4047774
  25.3092833  24.9318777  73.6783057  27.6579574  26.1429782  77.4712505
  28.6122828  26.1113724  77.4042437  27.4592098  25.6820405  78.2862731
  28.2478956  24.7130898  80.0383303  29.0671845  25.2074976  80.0618140
  28.5215764  23.7962866  80.0100870  38.0045552  17.1041650  69.4011258
  37.1171407  17.3891300  69.1831453  38.4199541  16.9435413  68.5538535
  41.3560088  17.1288171  73.1165597  42.1320479  17.6184623  73.3890214
  40.6308223  17.5546225  73.5737467  43.7932647  17.8415790  74.1739538
  44.3877138  17.6011526  73.4632846  43.8659231  17.1222921  74.8013074
  26.0129803  31.6849401  74.4882703  25.8784271  30.9249802  73.9220701
  25.5961865  32.4090301  74.0211492  37.1488766  26.8686325  63.4959278
  37.8524616  27.0736327  64.1116934  36.4251415  27.4363086  63.7608362
  37.9786576  22.6196186  69.6161548  37.9221777  23.0764737  68.7769181
  38.5314919  21.8586870  69.4384391  41.7891382  18.4085918  70.4411668
  41.5328316  18.0082553  71.2719876  41.1644250  19.1229712  70.3161807
  46.1003720  21.1481991  72.9482959  45.5403278  21.2175180  73.7214521
  45.4947223  20.9722976  72.2282456  29.1698929  32.5818718  74.7001146
  29.0531313  33.5264151  74.5979836  28.3491375  32.2792280  75.0886945
  39.0575463  27.3068854  65.5457738  39.8921067  26.8750052  65.3635213
  38.8959806  27.1350867  66.4734633  38.7121355  23.8100967  66.9114078
  38.6570159  23.6445238  65.9702522  38.0867411  24.5177000  67.0676267
  23.5013870  19.0469031  80.7375500  24.1472734  18.5367985  81.2262725
  23.2931021  19.7837713  81.3118925  36.0267263  26.1149879  86.2367640
  36.8958422  26.2890531  85.8754275  35.5474014  26.9344296  86.1143370
  32.0217481  13.3109076  66.4899396  32.0096151  14.2550916  66.6467667
  32.9140903  13.1279221  66.1958857  30.1953443  33.2346980  77.9157074
  31.0980689  33.2670590  78.2323569  29.9690813  32.3047431  77.9303410
  31.9507045  31.9877966  74.5767153  31.0002676  31.9879828  74.4631525
  32.2539531  31.2410701  74.0603187  35.8369600   9.9051853  70.7445333
  35.0701996   9.3510339  70.8902015  36.2480305   9.9773721  71.6059484
  27.8411361  16.1936649  84.8350514  28.7042823  15.8373453  85.0453839
  27.2676772  15.8550543  85.5225918  47.6859738  37.8238505  75.6412915
  48.3238148  37.7045252  74.9376255  47.5680581  38.7719349  75.7000867
  44.4949445  37.7765933  75.5774440  44.1567956  37.6606998  74.6894975
  45.3639213  37.3757098  75.5575446  40.3536260  39.6301409  71.5671331
  39.7901125  39.5391346  70.7987618  40.2388655  38.8101314  72.0473823
  44.9769228  38.9300785  81.5360645  44.9657868  38.5353583  80.6641149
  45.1389867  38.1966857  82.1294417  37.9000692  41.1252601  74.4055551
  38.6921984  40.7843426  73.9901850  38.1397342  41.2347576  75.3257704
  39.8591446  40.3861514  67.2772930  40.6322322  39.8390501  67.1385806
  40.2116845  41.2505764  67.4887391  41.6976489  41.7137896  80.4839829
  41.4066355  42.6183527  80.3686496  42.3333473  41.7554424  81.1983899
  42.6232696  39.0914745  77.0741189  43.2196268  38.8670767  76.3598152
  42.6807667  38.3499490  77.6766637  42.1957724  36.5454180  64.9091380
  42.4483245  36.0235702  64.1474843  41.2582283  36.3820326  65.0118063
  47.2401007  35.5489959  72.7166123  48.0264096  35.1309382  72.3656540
  47.5039711  36.4536051  72.8847771  52.6409434  35.4865192  73.6199102
  53.3734606  34.9164409  73.8536931  51.8848790  35.0986792  74.0605607
  41.9154013  38.4482286  67.1115755  41.7990271  37.7727190  67.7796839
  42.0256273  37.9614660  66.2947908  44.2585554  37.9092433  70.8162444
  43.8943761  37.3823054  71.5275365  45.1152670  37.5190902  70.6428929
  50.1634854  29.1986766  78.0793710  49.8318179  30.0682177  77.8554925
  49.5680468  28.8823050  78.7587741  43.8991041  32.9382333  65.8123793
  44.0665443  33.8062570  66.1794264  43.7088210  33.1009615  64.8885082
  46.6566374  41.3999312  77.4789623  46.3567097  42.3024351  77.3705430
  46.3117433  41.1331495  78.3310776  40.1078855  37.8513109  73.5126327
  39.1829352  37.7189323  73.7204019  40.3563268  38.6307328  74.0096270
  50.0563518  33.9181852  75.1587060  49.1480395  33.8497261  74.8645821
  50.0051113  34.3953797  75.9868886  43.8780261  35.3939991  66.7970459
  43.7579887  35.8397041  67.6355940  43.1832850  35.7425308  66.2383997
  37.4687666  37.4946382  74.3470116  37.5980047  37.7480861  75.2609528
  36.7885118  38.0874090  74.0274771  44.1304383  35.3371498  83.1021957
  43.3537717  35.8965418  83.0924822  44.7694946  35.8228281  83.6236828
  51.9225164  32.1198291  76.9364934  51.2799544  32.4130824  76.2904729
  51.4180092  32.0051211  77.7418131  49.5765328  35.8661464  67.6250793
  50.4883184  36.0988851  67.4498491  49.0674975  36.4498508  67.0625872
  42.3850756  38.1456951  82.6639924  43.1265440  38.6841995  82.3874748
  41.6787741  38.7723240  82.8211476  47.8606095  40.2886092  81.2612086
  48.2689451  39.8468502  80.5166718  47.1383357  39.7138719  81.5146279
  44.2137165  35.2258698  78.6345643  45.0598361  35.6498112  78.7780292
  44.1535803  34.5692323  79.3284206  48.1834910  40.8487282  75.0164375
  47.5543772  41.0132996  74.3140443  47.7960572  41.2628892  75.7875339
  52.0624142  41.7841720  72.3708739  51.3775180  42.1640621  71.8205772
  52.1467991  42.3937047  73.1040686  47.3636611  32.8863067  80.2926817
  47.1197543  33.6405127  79.7561092  47.6396541  33.2648414  81.1274064
  49.3175073  39.4301679  78.9704082  49.5291969  40.0733439  78.2938463
  49.2704822  38.5963996  78.5026012  46.9201302  32.0419500  75.8740654
  46.0585781  32.3400753  76.1657392  46.9463737  32.2589899  74.9421687
  43.7362872  40.5861690  72.2814460  44.2001217  40.8649393  71.4919082
  43.4719670  39.6845135  72.0987551  40.6286953  40.1333172  75.2194223
  41.1988310  40.5620440  74.5811708  41.2195065  39.8515757  75.9178409
  42.6731758  36.7084843  69.0904025  43.3755801  37.1605886  69.5577951
  42.3412386  36.0668662  69.7183918  41.1212119  35.2996599  83.4655234
  40.4910780  35.9812880  83.6990631  41.0148207  35.1879681  82.5208373
  36.4157092  34.9668395  74.3921159  35.6256146  35.2225924  73.9161269
  36.9068339  35.7816733  74.4973199  50.4320901  42.3073635  77.1426439
  51.2538345  41.9053822  76.8609121  50.4283304  42.2041869  78.0942555
  38.3671837  35.3312975  71.3504635  37.5703000  35.4431669  71.8688131
  38.1397429  35.6699627  70.4845526  44.1977505  41.8557678  79.2987150
  44.2621937  42.3178085  80.1345322  43.4888429  41.2255043  79.4269460
  34.6994795  35.2198886  76.8236149  34.9502833  36.1045896  77.0893725
  35.2354343  35.0403487  76.0511241  58.5226894  38.6512383  73.4911411
  57.7690603  38.0819781  73.3355415  58.6574436  38.6175048  74.4382046
  40.3992862  29.6017365  85.8280486  40.0059808  29.0483564  86.5028130
  41.2159002  29.9127944  86.2187003  37.3654920  41.0401223  69.7394055
  37.8779440  41.8344474  69.8899620  38.0177633  40.3427514  69.6727657
  39.1749805  44.1566980  71.8216809  39.3516433  45.0784944  71.6337792
  39.9706638  43.8425399  72.2511188  43.3160823  31.0175244  83.4200742
  44.0570536  31.6182397  83.3405205  43.5478746  30.2752882  82.8618785
  38.4602161  36.2031612  81.6978972  38.3455676  35.3016869  81.9986071
  37.6046679  36.4495308  81.3463788  45.5393999  44.1449352  83.2966472
  45.0957853  43.3585730  82.9787377  46.2011212  44.3328502  82.6310363
  40.2981120  45.6745153  77.8227151  40.8488545  45.5462217  77.0504145
  39.4592596  45.9740042  77.4722044  47.6375237  44.4252152  81.3247874
  47.6193712  45.2461033  80.8328143  48.5595157  44.3006227  81.5498015
  44.0948291  41.9396281  82.1671382  44.6276628  41.1784569  81.9370690
  43.5662372  41.6469933  82.9095537  47.2617986  27.0456347  77.6965024
  46.9182255  27.9357989  77.6204134  47.6296949  26.8558005  76.8334609
  35.3303837  39.3689878  70.5153626  36.1679059  39.7786886  70.2987334
  35.5082104  38.4289320  70.4853820  44.8115380  31.8814659  71.2622697
  43.9556976  31.4921509  71.0828336  45.2242332  31.9606620  70.4022483
  46.3414526  29.4161002  75.6614257  45.8379322  29.3791138  74.8482062
  46.6345133  30.3253745  75.7210914  42.5857412  29.4999732  74.6680439
  43.4510409  29.3042541  74.3086328  42.6534921  29.2710084  75.5949796
  47.0154572  34.9092050  68.0297240  46.7104708  35.2238200  68.8807383
  47.9685014  34.9873470  68.0724573  50.4393850  39.2631294  74.7957240
  49.7817524  39.9530556  74.8837369  51.2434249  39.6527726  75.1391227
  40.1919731  31.7301940  72.0396806  40.7663483  31.5077121  71.3069999
  40.7790714  31.7990635  72.7925407  49.2499309  37.6175667  72.8461182
  49.7631190  38.2505659  73.3482892  49.9000532  37.0176862  72.4804542
  40.5189319  33.7606401  66.0592691  39.6826631  34.0981088  66.3801966
  40.3794088  33.6255381  65.1219828  42.4942399  28.6043189  70.7671875
  41.8406811  28.2892206  70.1428490  42.4522873  27.9818929  71.4931698
  45.7280139  35.0925122  75.0919523  44.8102701  35.3140069  74.9341211
  46.1440283  35.1671433  74.2331230  46.5115187  36.4916538  70.2222203
  47.2587006  37.0037935  69.9129325  46.7806777  36.1700591  71.0826596
  50.0161105  42.5981668  70.9740325  49.5623432  41.7572578  71.0305515
  49.3855072  43.2343067  71.3115105  48.9594024  33.5273654  72.2040992
  48.2216781  33.0151041  72.5351235  49.2120798  33.0874036  71.3924269
  48.4594044  44.4358165  71.9090143  48.7517018  44.9963222  71.1902508
  48.9692665  44.7286726  72.6643302  49.0605652  26.3049906  72.7982761
  49.3664529  25.4447270  72.5108677  49.7858257  26.8967527  72.5981755
  35.3530008  36.7080593  71.1864359  35.1554408  36.1149954  70.4615426
  34.7976672  36.4032803  71.9040298  43.3326731  36.6003699  73.3058953
  43.3875341  35.6477536  73.2301429  42.5217933  36.7563139  73.7900251
  41.2719091  35.2180759  71.0649331  40.4586957  35.5174930  71.4714524
  41.7678086  34.8236448  71.7823814  46.8693303  35.6822584  79.8964225
  47.2242691  35.9094057  80.7558691  47.5165434  36.0140960  79.2741481
  52.5991040  38.8041020  70.6013554  52.4608939  38.9942616  69.6734744
  52.2427259  39.5660402  71.0581605  40.7633166  32.7899115  76.6810566
  41.4032545  32.6487874  75.9833530  39.9310697  32.5033628  76.3049168
  52.6260420  40.8717547  75.6124826  53.0596926  40.7792836  76.4607880
  53.3392000  40.8475047  74.9744842  37.8476234  36.2344627  68.8705311
  36.9173822  36.1729082  69.0875274  37.9433705  35.7120580  68.0741953
  37.7661783  32.7599440  71.4583553  38.0268600  33.6744773  71.3492714
  38.5878955  32.2923882  71.6080166  39.2386708  34.1737197  78.6282378
  39.9109761  33.9654559  77.9795027  38.4116494  33.9759283  78.1887610
  53.4875969  40.9141247  78.1457711  53.6811859  41.8187058  78.3916986
  53.3876587  40.4548666  78.9796296  45.1412280  30.7999138  80.6448039
  44.4940195  31.4989087  80.5512515  45.9113295  31.2335282  81.0124287
  48.5491078  41.0647990  83.7198592  48.3976584  40.8358542  82.8028676
  48.5395757  42.0218591  83.7329937  45.3176414  38.6379903  78.7044858
  46.2468474  38.7891062  78.5313826  44.8967444  38.7263923  77.8493505
  39.6414205  37.4479800  79.3884815  39.5034003  36.7160039  79.9896354
  40.5519129  37.3588700  79.1069003  42.2696506  37.1599759  78.8768494
  42.9796124  36.5192951  78.8355113  42.2265814  37.4112654  79.7994675
  50.2583284  44.0967113  81.7975074  50.1995831  43.4126333  81.1305657
  50.6602803  44.8386103  81.3455700  40.9825440  34.1464977  80.6964134
  40.4462797  33.6955716  81.3485730  40.3942148  34.2810886  79.9534598
  40.3927699  33.6053628  63.2590598  39.5157165  33.4842429  62.8952844
  40.8685452  32.8139707  63.0069486  50.2600692  42.0606696  80.0289053
  49.3727471  41.7232618  80.1515452  50.8299243  41.3289728  80.2657819
  31.9129839  38.3930788  73.3532105  32.6000879  38.0792518  72.7653120
  31.7577968  39.2972153  73.0799356  36.7164561  33.2820985  77.7817128
  36.6322750  32.6746654  77.0467538  35.8947267  33.7730003  77.7826625
  46.8888275  31.7674548  73.1487324  47.3856974  31.0144511  72.8288394
  46.1175256  31.8038865  72.5830533  54.7418032  37.4714914  74.7905615
  54.7307909  38.3539629  74.4199548  53.8735412  37.1186465  74.5960152
  43.4723244  33.9091931  72.8759008  43.1021031  33.3562972  73.5639914
  43.9682336  33.3050065  72.3234008  51.3590607  36.3663555  71.2575781
  51.8251059  37.1991546  71.1836084  51.8098107  35.9008536  71.9621040
  41.3012442  44.3689426  79.9714026  42.0021902  45.0025909  80.1243420
  40.8307557  44.7104158  79.2109665  49.3307270  28.7344142  75.2966682
  48.4170349  28.9648369  75.4648889  49.7600371  28.8182586  76.1480715
  49.1013728  36.9234034  77.7966576  48.4485178  37.1709941  77.1419029
  49.4794108  36.1098172  77.4629054  45.1501301  37.6653845  84.2832613
  44.4741938  37.5647974  84.9534989  45.9728935  37.5093059  84.7468611
  36.8980160  43.9025781  76.9045129  37.4833597  43.1569469  77.0373033
  36.7004999  44.2129738  77.7881793  31.4897815  36.4731382  75.6249572
  31.5281915  35.9394972  76.4186690  30.9838108  35.9466587  75.0060549
  38.8688577  31.3195922  79.1212114  38.9329904  32.1810753  78.7089512
  38.8055698  30.7069924  78.3884473  38.3440850  33.3919055  82.7685148
  38.9712889  33.0096132  83.3822673  37.4868769  33.1733257  83.1340841
  48.7434958  43.7982030  84.3738884  49.2874862  44.4111988  83.8793839
  48.1621803  44.3561608  84.8905897  35.1206393  35.1995484  68.7003503
  35.4159834  34.2906162  68.6470557  34.2194428  35.1783223  68.3784506
  38.6500640  33.2751480  74.6831052  37.9287225  33.8887448  74.5438525
  39.4393895  33.8109245  74.6047698  49.0927380  44.7211768  77.1333462
  48.1457715  44.6017119  77.0611788  49.4410153  43.8334266  77.2159723
  41.4526953  30.6105907  80.9571704  41.9761355  30.8568203  81.7198013
  41.2339286  31.4425942  80.5374841  36.8494234  32.8809581  68.8242828
  36.5206940  32.0006960  68.6417934  37.2033605  32.8257250  69.7119218
  39.9636057  33.1682551  69.1918306  40.3032130  33.6968472  68.4696914
  40.4108178  33.5062957  69.9676873  49.7007935  45.3393043  74.4202687
  50.6254482  45.1335904  74.2827138  49.5323238  45.0909444  75.3292028
  42.6579498  31.5519602  78.6421374  42.3176319  30.7527415  79.0442054
  41.9518504  31.8521313  78.0698207  43.3095970  28.6368914  77.0948697
  44.1322039  28.1629393  76.9727588  43.5534034  29.4159398  77.5947383
  41.9504204  31.6657173  67.3911599  42.6712567  32.0438426  66.8875316
  41.3269509  32.3846050  67.4946577  46.0935327  32.3702322  68.3269931
  46.3098942  33.2526960  68.0258759  45.6129394  31.9788535  67.5975573
  40.8334549  35.3288035  74.9040676  40.6879129  35.6428338  75.7964957
  40.3559752  35.9472935  74.3511574  42.6930932  32.3190583  74.9521565
  42.6792500  31.4231676  74.6153863  43.4103360  32.3261247  75.5859851
  44.5457062  32.7527923  76.9974693  44.2874840  33.6744994  76.9959023
  44.0142103  32.3558358  77.6875157  35.3080211  37.8693379  77.8428337
  34.7633679  38.6453187  77.9748611  36.1859561  38.2164184  77.6847458
  42.0967828  31.2004963  70.2209135  42.2183739  30.2721609  70.4200023
  41.8069870  31.2143649  69.3087451  44.9659018  28.8859874  73.3575855
  44.9880715  28.9499207  72.4027835  45.3827077  28.0464382  73.5516361
  55.3442642  38.6215133  71.3955078  55.7873788  37.8722458  70.9974201
  54.4669153  38.6125270  71.0128810  36.0946233  36.9963276  80.7358494
  35.3527969  37.1445911  81.3223124  35.7738977  37.2571541  79.8725243
  44.0389895  46.5379254  80.5338884  44.3477022  46.2928401  81.4061583
  44.8365377  46.7425892  80.0457754  36.5402846  44.8828704  72.7668888
  37.3660866  44.5832476  72.3867532  36.1896898  44.1136327  73.2158677
  34.7411451  42.8015031  73.7257822  33.9043360  42.3737205  73.5441823
  34.7135097  42.9947474  74.6628613  41.5808907  32.7136961  84.4299068
  41.6297063  33.5899083  84.0476838  42.1231421  32.1714354  83.8570711
  52.0663753  43.2578084  83.7100205  51.2759296  43.2402223  83.1704705
  51.8297107  43.7966378  84.4649242  52.1861628  40.1070550  81.0232934
  52.2359633  39.9420558  81.9648456  52.0775551  39.2397809  80.6330814
  41.0697886  42.7859096  68.3125023  41.2186007  43.4694560  67.6591695
  41.8764330  42.7664186  68.8274478  49.4765390  36.0901478  82.3392240
  50.3775253  35.9507943  82.0476238  49.5513365  36.2555933  83.2790418
  43.8108196  33.4668333  81.1845427  42.9411505  33.7601899  80.9128015
  44.0467676  34.0508778  81.9052690  53.6879825  42.5267492  81.2674955
  53.3964633  42.8897472  82.1038416  53.0751956  41.8134500  81.0888287
  54.8875507  40.0920372  73.7877525  55.7222398  40.5310176  73.9515086
  55.0234636  39.6159025  72.9685771  51.9367013  37.6500106  79.7355013
  52.4121134  37.8427753  78.9273865  51.0132578  37.7059292  79.4898397
  38.8250519  38.8124274  69.3186092  38.5796561  37.9086604  69.5166302
  38.9946434  38.8141424  68.3765570  46.5147229  29.6847950  78.7010847
  47.0329173  30.4208977  78.3757336  46.1602362  29.9911943  79.5357606
  38.0946167  34.5452631  66.8172253  37.4015412  34.6196986  66.1612289
  37.8497919  33.7812975  67.3393770  46.7659824  26.1048232  74.2211744
  47.0461577  25.4371422  74.8472170  47.5510430  26.2977328  73.7086408
  50.6368682  34.5265866  77.9683319  51.5886105  34.6263964  77.9895543
  50.4672132  33.7344135  78.4781403  48.6583061  31.6121450  78.1542720
  48.0632993  31.8926462  77.4589208  48.3732758  32.1015351  78.9259461
  53.1156760  37.7471986  77.0825618  53.0833080  36.8087987  77.2685302
  53.7257383  37.8256023  76.3491443  44.9540091  36.6168039  63.1252823
  45.8999195  36.4874247  63.1941241  44.5754335  35.8782701  63.6022251
  53.2651248  34.5383030  77.1283902  52.7490297  33.7541486  76.9413831
  54.1491197  34.2101746  77.2930421  50.9261975  28.2824045  73.0879714
  50.7286796  27.9739133  73.9723046  51.5361681  29.0085684  73.2177644
  58.9333310  38.8087993  76.2231655  59.6636698  38.5473281  76.7839359
  58.3240255  38.0716715  76.2633723  57.0148607  36.9495856  76.8206106
  56.2881770  36.8151820  76.2122598  56.5995894  37.2572684  77.6262825
  44.8378783  40.6685785  84.5853479  45.7581793  40.8464384  84.7793526
  44.8028366  39.7241831  84.4333179  43.1383008  34.5418015  63.0607708
  42.2314463  34.2451128  63.1370421  43.4158989  34.2447834  62.1941994
  34.0560948  35.8624379  73.5106754  33.7363732  35.0089687  73.2181128
  33.5094376  36.0772957  74.2664721  37.8340856  38.5786820  77.2276261
  38.0526865  39.5103928  77.2464294  38.2466629  38.2194794  78.0131064
  44.7545073  29.0854905  69.2151949  43.9445802  28.7401990  69.5907195
  45.4429490  28.7762449  69.8039561  46.6835622  28.1632952  70.8376246
  47.2366660  28.5828405  71.4966269  46.9205708  27.2368700  70.8799202
  42.7068721  34.1520026  86.6179010  42.6065448  35.1014383  86.5491101
  42.4890263  33.8238265  85.7455080  41.9081792  31.4004951  63.2019687
  42.7700956  31.7259849  63.4615504  42.0932136  30.6136447  62.6892753
  33.9249208  39.4827290  75.4799876  33.2312679  39.0681243  74.9669830
  34.6722199  39.5247827  74.8833295  50.0614429  30.2733477  70.3454910
  49.4813098  30.9318281  69.9632962  49.7950361  29.4510822  69.9342327
  48.5117995  29.6738535  72.5476230  49.0117774  29.7855069  71.7390549
  49.1553603  29.3699588  73.1877039  42.5699991  37.5817164  85.4344071
  42.0867073  38.3817525  85.6407960  42.6560930  37.5925109  84.4811515
  35.8385951  39.4145544  73.3565891  35.8156639  39.5133231  72.4047774
  36.1486587  40.2610695  73.6783057  38.4973328  41.4721699  77.4712505
  39.4516582  41.4405642  77.4042437  38.2985852  41.0112323  78.2862731
  39.0872711  40.0422815  80.0383303  39.9065600  40.5366894  80.0618140
  39.3609518  39.1254783  80.0100870  48.8439307  32.4333568  69.4011258
  47.9565162  32.7183218  69.1831453  49.2593296  32.2727331  68.5538535
  52.1953843  32.4580089  73.1165597  52.9714233  32.9476541  73.3890214
  51.4701977  32.8838143  73.5737467  54.6326402  33.1707708  74.1739538
  55.2270892  32.9303444  73.4632846  54.7052985  32.4514838  74.8013074
  36.8523557  47.0141319  74.4882703  36.7178025  46.2541720  73.9220701
  36.4355620  47.7382219  74.0211492  48.8180331  37.9488103  69.6161548
  48.7615532  38.4056655  68.7769181  49.3708673  37.1878788  69.4384391
  52.6285136  33.7377835  70.4411668  52.3722071  33.3374471  71.2719876
  52.0038004  34.4521629  70.3161807  56.9397474  36.4773909  72.9482959
  56.3797032  36.5467098  73.7214521  56.3340978  36.3014893  72.2282456
  34.3407625  34.3760949  80.7375500  34.9866488  33.8659903  81.2262725
  34.1324776  35.1129631  81.3118925  46.8661017  41.4441797  86.2367640
  47.7352177  41.6182449  85.8754275  46.3867769  42.2636213  86.1143370
  42.8611235  28.6400994  66.4899396  42.8489905  29.5842834  66.6467667
  43.7534657  28.4571139  66.1958857  46.6763355  25.2343770  70.7445333
  45.9095751  24.6802257  70.8902015  47.0874060  25.3065639  71.6059484
  38.6805116  31.5228566  84.8350514  39.5436577  31.1665371  85.0453839
  38.1070526  31.1842461  85.5225918  63.4803188  50.8157110  73.6199102
  64.2128360  50.2456326  73.8536931  62.7242544  50.4278710  74.0605607
  61.0028609  44.5278684  78.0793710  60.6711934  45.3974095  77.8554925
  60.4074222  44.2114968  78.7587741  57.4960128  56.7291230  77.4789623
  57.1960851  57.6316268  77.3705430  57.1511188  56.4623413  78.3310776
  60.8957272  49.2473770  75.1587060  59.9874149  49.1789178  74.8645821
  60.8444868  49.7245715  75.9868886  48.3081421  52.8238300  74.3470116
  48.4373802  53.0772779  75.2609528  47.6278872  53.4166008  74.0274771
  62.7618918  47.4490208  76.9364934  62.1193299  47.7422741  76.2904729
  62.2573847  47.3343129  77.7418131  58.6999850  55.6178009  81.2612086
  59.1083206  55.1760420  80.5166718  57.9777111  55.0430637  81.5146279
  59.0228664  56.1779200  75.0164375  58.3937527  56.3424914  74.3140443
  58.6354327  56.5920809  75.7875339  58.2030365  48.2154984  80.2926817
  57.9591297  48.9697045  79.7561092  58.4790296  48.5940332  81.1274064
  60.1568828  54.7593597  78.9704082  60.3685723  55.4025357  78.2938463
  60.1098576  53.9255913  78.5026012  57.7595057  47.3711417  75.8740654
  56.8979536  47.6692671  76.1657392  57.7857492  47.5881816  74.9421687
  61.2714656  57.6365552  77.1426439  62.0932100  57.2345739  76.8609121
  61.2677059  57.5333786  78.0942555  51.2386617  44.9309283  85.8280486
  50.8453562  44.3775481  86.5028130  52.0552757  45.2419861  86.2187003
  54.1554578  46.3467162  83.4200742  54.8964291  46.9474315  83.3405205
  54.3872500  45.6044800  82.8618785  58.4768991  59.7544069  81.3247874
  58.4587467  60.5752950  80.8328143  59.3988911  59.6298145  81.5498015
  58.1011741  42.3748265  77.6965024  57.7576010  43.2649907  77.6204134
  58.4690703  42.1849923  76.8334609  57.1808281  44.7452920  75.6614257
  56.6773077  44.7083055  74.8482062  57.4738888  45.6545663  75.7210914
  53.4251167  44.8291650  74.6680439  54.2904164  44.6334458  74.3086328
  53.4928676  44.6002002  75.5949796  61.2787604  54.5923212  74.7957240
  60.6211279  55.2822473  74.8837369  62.0828004  54.9819644  75.1391227
  59.8999406  41.6341824  72.7982761  60.2058283  40.7739187  72.5108677
  60.6252011  42.2259444  72.5981755  57.7087058  51.0114501  79.8964225
  58.0636445  51.2385974  80.7558691  58.3559189  51.3432878  79.2741481
  51.6026921  48.1191032  76.6810566  52.2426300  47.9779791  75.9833530
  50.7704451  47.8325546  76.3049168  63.4654174  56.2009464  75.6124826
  63.8990681  56.1084753  76.4607880  64.1785755  56.1766965  74.9744842
  57.1982069  59.8011558  77.1457926  57.2519091  60.3702495  77.9135642
  56.3296850  59.9713443  76.7811964  64.3269724  56.2433165  78.1457711
  64.5205614  57.1478975  78.3916986  64.2270342  55.7840584  78.9796296
  55.9806034  46.1291055  80.6448039  55.3333949  46.8281005  80.5512515
  56.7507050  46.5627199  81.0124287  59.3884832  56.3939908  83.7198592
  59.2370339  56.1650459  82.8028676  59.3789512  57.3510509  83.7329937
  61.0977039  59.4259030  81.7975074  61.0389585  58.7418250  81.1305657
  61.4996557  60.1678020  81.3455700  61.0994446  57.3898614  80.0289053
  60.2121225  57.0524536  80.1515452  61.6692997  56.6581645  80.2657819
  65.5811787  52.8006831  74.7905615  65.5701663  53.6831547  74.4199548
  64.7129166  52.4478382  74.5960152  60.1701024  44.0636059  75.2966682
  59.2564104  44.2940286  75.4648889  60.5994126  44.1474504  76.1480715
  59.9407483  52.2525951  77.7966576  59.2878933  52.5001859  77.1419029
  60.3187863  51.4390090  77.4629054  59.5828713  59.1273947  84.3738884
  60.1268617  59.7403906  83.8793839  59.0015558  59.6853526  84.8905897
  52.2920708  45.9397824  80.9571704  52.8155109  46.1860121  81.7198013
  52.0733041  46.7717859  80.5374841  53.4973253  46.8811520  78.6421374
  53.1570073  46.0819333  79.0442054  52.7912259  47.1813230  78.0698207
  54.1489724  43.9660832  77.0948697  54.9715794  43.4921310  76.9727588
  54.3927788  44.7451316  77.5947383  55.3850817  48.0819841  76.9974693
  55.1268595  49.0036911  76.9959023  54.8535857  47.6850275  77.6875157
  52.4202662  48.0428878  84.4299068  52.4690817  48.9191001  84.0476838
  52.9625176  47.5006271  83.8570711  62.9057507  58.5870002  83.7100205
  62.1153051  58.5694140  83.1704705  62.6690862  59.1258295  84.4649242
  63.0255382  55.4362468  81.0232934  63.0753387  55.2712475  81.9648456
  62.9169306  54.5689727  80.6330814  60.3159145  51.4193396  82.3392240
  61.2169007  51.2799861  82.0476238  60.3907119  51.5847851  83.2790418
  54.6501950  48.7960251  81.1845427  53.7805259  49.0893817  80.9128015
  54.8861430  49.3800696  81.9052690  64.5273579  57.8559409  81.2674955
  64.2358387  58.2189390  82.1038416  63.9145710  57.1426418  81.0888287
  65.7269261  55.4212289  73.7877525  66.5616153  55.8602093  73.9515086
  65.8628390  54.9450942  72.9685771  62.7760767  52.9792024  79.7355013
  63.2514889  53.1719670  78.9273865  61.8526333  53.0351210  79.4898397
  57.3540984  45.0139868  78.7010847  57.8722928  45.7500895  78.3757336
  56.9996117  45.3203861  79.5357606  57.6053578  41.4340150  74.2211744
  57.8855332  40.7663339  74.8472170  58.3904185  41.6269246  73.7086408
  61.4762436  49.8557784  77.9683319  62.4279859  49.9555882  77.9895543
  61.3065887  49.0636053  78.4781403  59.4976816  46.9413367  78.1542720
  58.9026748  47.2218380  77.4589208  59.2126513  47.4307268  78.9259461
  63.9550514  53.0763904  77.0825618  63.9226834  52.1379905  77.2685302
  64.5651138  53.1547941  76.3491443  64.1045003  49.8674947  77.1283902
  63.5884051  49.0833404  76.9413831  64.9884951  49.5393664  77.2930421
  61.7655730  43.6115963  73.0879714  61.5680551  43.3031051  73.9723046
  62.3755435  44.3377602  73.2177644  69.7727064  54.1379911  76.2231655
  70.5030452  53.8765199  76.7839359  69.1634009  53.4008633  76.2633723
  67.8542361  52.2787773  76.8206106  67.1275525  52.1443738  76.2122598
  67.4389648  52.5864602  77.6262825  53.5462475  49.4811943  86.6179010
  53.4459202  50.4306300  86.5491101  53.3284017  49.1530182  85.7455080
  60.9008183  45.6025395  70.3454910  60.3206852  46.2610199  69.9632962
  60.6344116  44.7802739  69.9342327  63.0347597  47.7872006  73.1165597
  63.8107988  48.2768459  73.3890214  62.3095732  48.2130060  73.5737467
  65.4720156  48.4999625  74.1739538  66.0664647  48.2595361  73.4632846
  65.5446740  47.7806756  74.8013074  67.7791229  51.8065826  72.9482959
  67.2190787  51.8759016  73.7214521  67.1734732  51.6306811  72.2282456
  57.7054772  56.7733714  86.2367640  58.5745931  56.9474367  85.8754275
  57.2261523  57.5928131  86.1143370  57.5157109  40.5635688  70.7445333
  56.7489505  40.0094175  70.8902015  57.9267814  40.6357557  71.6059484
  49.5198870  46.8520484  84.8350514  50.3830332  46.4957289  85.0453839
  48.9464281  46.5134379  85.5225918  62.0780371  60.2601201  85.8280486
  61.6847317  59.7067399  86.5028130  62.8946511  60.5711779  86.2187003
  64.9948332  61.6759080  83.4200742  65.7358045  62.2766233  83.3405205
  65.2266255  60.9336717  82.8618785  60.1389670  66.8615447  81.6978972
  60.0243185  65.9600704  81.9986071  59.2834188  67.1079144  81.3463788
  66.8199789  61.4582973  80.6448039  66.1727704  62.1572923  80.5512515
  67.5900804  61.8919117  81.0124287  62.6612949  64.8048812  80.6964134
  62.1250306  64.3539551  81.3485730  62.0729657  64.9394721  79.9534598
  60.5476086  61.9779757  79.1212114  60.6117413  62.8394588  78.7089512
  60.4843207  61.3653759  78.3884473  63.1314462  61.2689742  80.9571704
  63.6548864  61.5152039  81.7198013  62.9126795  62.1009777  80.5374841
  64.9883479  59.2952750  77.0948697  65.8109548  58.8213228  76.9727588
  65.2321542  60.0743233  77.5947383  63.2596416  63.3720796  84.4299068
  63.3084572  64.2482919  84.0476838  63.8018930  62.8298189  83.8570711
  73.7451262  73.9161919  83.7100205  72.9546805  73.8986058  83.1704705
  73.5084616  74.4550213  84.4649242  73.8649137  70.7654386  81.0232934
  73.9147142  70.6004393  81.9648456  73.7563060  69.8981645  80.6330814
  75.3667334  73.1851327  81.2674955  75.0752142  73.5481308  82.1038416
  74.7539465  72.4718335  81.0888287  64.3856230  64.8103861  86.6179010
  64.2852957  65.7598218  86.5491101  64.1677772  64.4822100  85.7455080
  60.3592625  62.1812402  84.8350514  61.2224086  61.8249206  85.0453839
  59.7858035  61.8426296  85.5225918  80.2041002  83.8114258  75.6412915
  80.8419412  83.6921005  74.9376255  80.0861845  84.7595102  75.7000867
  77.0130708  83.7641686  75.5774440  76.6749220  83.6482751  74.6894975
  77.8820476  83.3632851  75.5575446  77.4950491  84.9176538  81.5360645
  77.4839132  84.5229336  80.6641149  77.6571130  84.1842610  82.1294417
  78.4517082  89.2848130  66.8785796  77.8005062  89.8702211  66.4919809
  79.2461445  89.8154325  66.9380833  74.2157752  87.7013650  80.4839829
  73.9247618  88.6059280  80.3686496  74.8514737  87.7430177  81.1983899
  75.1413959  85.0790498  77.0741189  75.7377531  84.8546520  76.3598152
  75.1988931  84.3375244  77.6766637  79.7582270  81.5365712  72.7166123
  80.5445359  81.1185135  72.3656540  80.0220975  82.4411804  72.8847771
  79.9292348  86.9738562  67.4154780  79.2938181  87.0473189  68.1275684
  79.5989754  87.5632161  66.7373859  85.1590697  81.4740945  73.6199102
  85.8915869  80.9040162  73.8536931  84.4030053  81.0862545  74.0605607
  82.6816118  75.1862519  78.0793710  82.3499442  76.0557930  77.8554925
  82.0861731  74.8698803  78.7587741  79.1747637  87.3875065  77.4789623
  78.8748360  88.2900104  77.3705430  78.8298697  87.1207248  78.3310776
  82.5744781  79.9057605  75.1587060  81.6661658  79.8373014  74.8645821
  82.5232377  80.3829550  75.9868886  74.1568417  94.1519385  70.4460591
  74.0792447  95.1027210  70.5249071  73.5530061  93.8065258  71.1035517
  76.6485647  81.3247251  83.1021957  75.8718981  81.8841171  83.0924822
  77.2876210  81.8104034  83.6236828  84.4406427  78.1074044  76.9364934
  83.7980808  78.4006577  76.2904729  83.9361356  77.9926964  77.7418131
  82.0946591  81.8537217  67.6250793  83.0064447  82.0864604  67.4498491
  81.5856238  82.4374261  67.0625872  74.9032019  84.1332704  82.6639924
  75.6446703  84.6717748  82.3874748  74.1969005  84.7598993  82.8211476
  80.3787359  86.2761845  81.2612086  80.7870715  85.8344255  80.5166718
  79.6564620  85.7014472  81.5146279  76.7318429  81.2134451  78.6345643
  77.5779624  81.6373865  78.7780292  76.6717066  80.5568076  79.3284206
  80.7016173  86.8363035  75.0164375  80.0725036  87.0008749  74.3140443
  80.3141835  87.2504645  75.7875339  84.5805405  87.7717473  72.3708739
  83.8956443  88.1516374  71.8205772  84.6649255  88.3812800  73.1040686
  79.8817874  78.8738820  80.2926817  79.6378806  79.6280880  79.7561092
  80.1577805  79.2524167  81.1274064  81.8356337  85.4177432  78.9704082
  82.0473232  86.0609192  78.2938463  81.7886085  84.5839749  78.5026012
  73.6393383  81.2872352  83.4655234  73.0092043  81.9688633  83.6990631
  73.5329471  81.1755434  82.5208373  82.9502165  88.2949388  77.1426439
  83.7719609  87.8929575  76.8609121  82.9464568  88.1917622  78.0942555
  76.7158768  87.8433431  79.2987150  76.7803201  88.3053838  80.1345322
  76.0069692  87.2130796  79.4269460  91.0408158  84.6388136  73.4911411
  90.2871866  84.0695534  73.3355415  91.1755699  84.6050801  74.4382046
  76.4306786  89.5101538  69.1666130  76.2952461  90.3553074  69.5950978
  76.9716598  89.7120816  68.4032064  72.9174126  75.5893118  85.8280486
  72.5241071  75.0359317  86.5028130  73.7340266  75.9003697  86.2187003
  75.8342087  77.0050997  83.4200742  76.5751800  77.6058150  83.3405205
  76.0660009  76.2628635  82.8618785  78.0575262  90.1325105  83.2966472
  77.6139117  89.3461483  82.9787377  78.7192476  90.3204255  82.6310363
  72.8162384  91.6620906  77.8227151  73.3669809  91.5337970  77.0504145
  71.9773859  91.9615795  77.4722044  80.1556500  90.4127905  81.3247874
  80.1374976  91.2336786  80.8328143  81.0776420  90.2881980  81.5498015
  76.6129555  87.9272034  82.1671382  77.1457891  87.1660322  81.9370690
  76.0843636  87.6345686  82.9095537  79.7449532  83.0240711  66.2037459
  79.2296156  83.7945316  66.4425846  79.4726841  82.3505847  66.8270520
  77.3296643  77.8690412  71.2622697  76.4738240  77.4797263  71.0828336
  77.7423595  77.9482373  70.4022483  84.7183806  85.7773066  68.1390632
  83.9413249  85.4384225  67.6945794  85.3975287  85.7825689  67.4645597
  79.5335835  80.8967803  68.0297240  79.2285971  81.2113953  68.8807383
  80.4866278  80.9749223  68.0724573  82.9575113  85.2507047  74.7957240
  82.2998788  85.9406309  74.8837369  83.7615512  85.6403479  75.1391227
  81.7680572  83.6051420  72.8461182  82.2812454  84.2381412  73.3482892
  82.4181796  83.0052615  72.4804542  79.0302946  93.5835744  65.6021853
  78.3564645  93.8867441  66.2106811  79.4168768  94.3864825  65.2527310
  78.2461403  81.0800875  75.0919523  77.3283964  81.3015822  74.9341211
  78.6621547  81.1547186  74.2331230  79.0296451  82.4792291  70.2222203
  79.7768270  82.9913688  69.9129325  79.2988040  82.1576344  71.0826596
  77.3023101  84.9750832  67.2049157  76.3934320  84.6909865  67.3021627
  77.3318185  85.3949910  66.3452464  82.5342368  88.5857421  70.9740325
  82.0804695  87.7448331  71.0305515  81.9036335  89.2218820  71.3115105
  81.4775288  79.5149407  72.2040992  80.7398045  79.0026794  72.5351235
  81.7302061  79.0749789  71.3924269  80.9775308  90.4233918  71.9090143
  81.2698282  90.9838975  71.1902508  81.4873928  90.7162479  72.6643302
  76.9999189  86.5159576  64.5437236  76.5618619  85.7995434  64.0842873
  77.7409630  86.7435690  63.9822327  75.9408933  91.2014269  72.9983596
  75.8985112  91.4275115  72.0692128  76.8571632  90.9677644  73.1469397
  79.3874567  81.6698337  79.8964225  79.7423954  81.8969810  80.7558691
  80.0346698  82.0016713  79.2741481  85.1172303  84.7916773  70.6013554
  84.9790202  84.9818369  69.6734744  84.7608522  85.5536155  71.0581605
  85.1441683  86.8593300  75.6124826  85.5778190  86.7668589  76.4607880
  85.8573264  86.8350800  74.9744842  78.8769578  90.4595394  77.1457926
  78.9306600  91.0286330  77.9135642  78.0084359  90.6297279  76.7811964
  86.0057233  86.9017000  78.1457711  86.1993123  87.8062811  78.3916986
  85.9057851  86.4424419  78.9796296  77.6593543  76.7874891  80.6448039
  77.0121458  77.4864840  80.5512515  78.4294559  77.2211035  81.0124287
  81.0672341  87.0523743  83.7198592  80.9157848  86.8234295  82.8028676
  81.0577021  88.0094344  83.7329937  77.8357678  84.6255656  78.7044858
  78.7649738  84.7766815  78.5313826  77.4148708  84.7139677  77.8493505
  76.6346010  88.6506320  76.4743396  76.4957095  88.2825105  77.3469334
  75.8460606  89.1653960  76.3027354  77.2294161  93.7515417  67.8168932
  77.4045917  93.2803460  68.6314555  76.5426950  94.3781183  68.0450193
  78.1851225  88.0287923  73.8632234  77.8501057  87.9888693  74.7589884
  77.6855170  87.3632639  73.3902644  81.1210416  85.3743957  64.1369293
  80.5039587  84.6490785  64.0402346  80.6526905  86.1353317  63.7936368
  74.7877769  83.1475512  78.8768494  75.4977388  82.5068704  78.8355113
  74.7447077  83.3988407  79.7994675  82.7764548  90.0842866  81.7975074
  82.7177094  89.4002086  81.1305657  83.1784066  90.8261856  81.3455700
  71.7955247  96.9004779  74.5908793  72.0351845  97.5323304  75.2687811
  70.9524443  96.5492819  74.8774152  82.7781955  88.0482449  80.0289053
  81.8908734  87.7108371  80.1515452  83.3480506  87.3165481  80.2657819
  76.3083109  92.7083902  76.9950297  76.2353280  93.5138873  77.5069601
  75.8660502  92.9075868  76.1698318  76.0972888  91.9455672  70.5053118
  75.3140410  92.4877352  70.5991343  76.7965633  92.4629651  70.9047359
  78.7681792  92.6070736  79.1508455  79.4809764  93.2418201  79.0784357
  78.2771821  92.7034602  78.3348457  80.4899319  86.5121989  70.7225747
  79.5555598  86.6323451  70.5530451  80.6675988  85.6094455  70.4585757
  83.8771870  82.3539308  71.2575781  84.3432323  83.1867299  71.1836084
  84.3279371  81.8884289  71.9621040  73.8193706  90.3565179  79.9714026
  74.5203165  90.9901662  80.1243420  73.3488821  90.6979911  79.2109665
  81.9448102  88.6983129  68.2561933  82.2207945  88.5839724  69.1655807
  81.0752600  88.3000614  68.2174106  81.6194992  82.9109787  77.7966576
  80.9666442  83.1585694  77.1419029  81.9975372  82.0973925  77.4629054
  78.5802166  92.9469480  71.8994747  78.7624560  92.1291136  72.3622499
  79.4035152  93.1637172  71.4619637  78.9144331  91.8737665  69.1609795
  79.4432097  91.3630120  68.5479957  79.1772551  91.5580195  70.0255328
  77.6682565  83.6529598  84.2832613  76.9923202  83.5523727  84.9534989
  78.4910199  83.4968812  84.7468611  72.2700079  92.9252782  71.9207571
  71.6010454  93.4098909  71.4371611  72.1312949  93.1722002  72.8350950
  76.4105348  94.9596525  78.5190229  76.9623656  95.1228147  79.2839315
  76.7511541  95.5500963  77.8470254  81.2616222  89.7857783  84.3738884
  81.8056126  90.3987741  83.8793839  80.6803067  90.3437361  84.8905897
  79.5473735  92.9078501  75.5053912  79.4224874  92.1068241  74.9964857
  80.2052826  93.4024694  75.0167882  81.6108643  90.7087521  77.1333462
  80.6638979  90.5892872  77.0611788  81.9591416  89.8210019  77.2159723
  73.9708217  76.5981660  80.9571704  74.4942618  76.8443956  81.7198013
  73.7520550  77.4301695  80.5374841  78.6155077  90.5040237  73.3337814
  78.4680039  89.5756945  73.5145384  79.4408570  90.5260328  72.8494889
  82.2189198  91.3268796  74.4202687  83.1435746  91.1211657  74.2827138
  82.0504502  91.0785197  75.3292028  75.1760762  77.5395355  78.6421374
  74.8357582  76.7403168  79.0442054  74.4699768  77.8397066  78.0698207
  78.6116591  78.3578075  68.3269931  78.8280205  79.2402713  68.0258759
  78.1310658  77.9664288  67.5975573  75.2112195  78.3066336  74.9521565
  75.1973764  77.4107429  74.6153863  75.9284623  78.3137000  75.5859851
  77.0638326  78.7403676  76.9974693  76.8056104  79.6620747  76.9959023
  76.5323366  78.3434111  77.6875157  82.0084515  91.8454463  69.7764778
  82.1821392  91.2800886  69.0238631  82.5013406  92.6455358  69.5944268
  82.9959687  91.1621228  66.8761676  83.6910592  91.7827920  67.0948991
  83.3382837  90.3116579  67.1514054  84.8951110  88.6120933  68.4049007
  85.4202434  88.9508206  67.6798327  84.8073463  87.6767949  68.2212142
  76.5571159  92.5255007  80.5338884  76.8658285  92.2804154  81.4061583
  77.3546641  92.7301645  80.0457754  76.5791771  94.6792916  72.7644260
  76.1396761  94.1869295  73.4577117  77.3299888  94.1365884  72.5236336
  74.0265643  90.2230926  74.8366562  73.4045652  89.5601631  74.5368790
  74.6970510  90.2492057  74.1540210  74.0990171  78.7012714  84.4299068
  74.1478326  79.5774836  84.0476838  74.6412685  78.1590107  83.8570711
  84.7042891  86.0946303  81.0232934  84.7540896  85.9296311  81.9648456
  84.5956815  85.2273562  80.6330814  81.9946654  82.0777231  82.3392240
  82.8956516  81.9383696  82.0476238  82.0694628  82.2431686  83.2790418
  76.3289459  79.4544086  81.1845427  75.4592768  79.7477652  80.9128015
  76.5648939  80.0384531  81.9052690  86.2061088  88.5143245  81.2674955
  85.9145896  88.8773225  82.1038416  85.5933219  87.8010253  81.0888287
  87.4056770  86.0796125  73.7877525  88.2403662  86.5185929  73.9515086
  87.5415899  85.6034778  72.9685771  84.4548276  83.6375859  79.7355013
  84.9302398  83.8303506  78.9273865  83.5313842  83.6935045  79.4898397
  79.0328493  75.6723703  78.7010847  79.5510437  76.4084730  78.3757336
  78.6783626  75.9787696  79.5357606  77.0874556  91.2682979  65.7836770
  76.5148523  91.8873167  65.3307242  77.6607349  91.8182341  66.3176692
  83.1549945  80.5141619  77.9683319  84.1067368  80.6139717  77.9895543
  82.9853396  79.7219888  78.4781403  81.1764325  77.5997203  78.1542720
  80.5814257  77.8802215  77.4589208  80.8914022  78.0891104  78.9259461
  80.3071815  91.5520130  66.9145352  81.2402488  91.4865691  67.1178228
  80.2195028  92.3876396  66.4559885  82.9359832  90.8686000  63.8749300
  82.8573463  90.5345863  64.7685058  83.7569499  91.3607768  63.8740772
  85.6338023  83.7347739  77.0825618  85.6014343  82.7963740  77.2685302
  86.2438647  83.8131776  76.3491443  85.7832512  80.5258783  77.1283902
  85.2671560  79.7417239  76.9413831  86.6672460  80.1977499  77.2930421
  83.4443239  74.2699798  73.0879714  83.2468060  73.9614886  73.9723046
  84.0542944  74.9961437  73.2177644  89.5329870  82.9371609  76.8206106
  88.8063034  82.8027574  76.2122598  89.1177157  83.2448437  77.6262825
  77.3560047  86.6561538  84.5853479  78.2763056  86.8340137  84.7793526
  77.3209630  85.7117584  84.4333179  77.2726337  75.0730658  69.2151949
  76.4627065  74.7277743  69.5907195  77.9610754  74.7638202  69.8039561
  75.2249984  80.1395779  86.6179010  75.1246711  81.0890136  86.5491101
  75.0071526  79.8114018  85.7455080  82.5795692  76.2609230  70.3454910
  81.9994361  76.9194034  69.9632962  82.3131625  75.4386575  69.9342327
  75.0881254  83.5692918  85.4344071  74.6048336  84.3693278  85.6407960
  75.1742193  83.5800862  84.4811515  81.3620570  78.4209321  69.4011258
  80.4746425  78.7058971  69.1831453  81.7774559  78.2603084  68.5538535
  84.7135106  78.4455842  73.1165597  85.4895497  78.9352294  73.3890214
  83.9883241  78.8713896  73.5737467  87.1507665  79.1583461  74.1739538
  87.7452156  78.9179197  73.4632846  87.2234249  78.4390591  74.8013074
  69.3704821  93.0017072  74.4882703  69.2359289  92.2417473  73.9220701
  68.9536883  93.7257972  74.0211492  80.5063784  88.1853995  63.4959278
  81.2099634  88.3903998  64.1116934  79.7826433  88.7530757  63.7608362
  81.3361594  83.9363857  69.6161548  81.2796795  84.3932408  68.7769181
  81.8889936  83.1754541  69.4384391  85.1466400  79.7253588  70.4411668
  84.8903334  79.3250224  71.2719876  84.5219268  80.4397382  70.3161807
  89.4578738  82.4649662  72.9482959  88.8978296  82.5342851  73.7214521
  88.8522241  82.2890646  72.2282456  72.5273947  93.8986389  74.7001146
  72.4106331  94.8431821  74.5979836  71.7066393  93.5959950  75.0886945
  82.4150481  88.6236524  65.5457738  83.2496085  88.1917723  65.3635213
  82.2534824  88.4518538  66.4734633  82.0696373  85.1268638  66.9114078
  82.0145177  84.9612909  65.9702522  81.4442429  85.8344671  67.0676267
  79.3842281  87.4317550  86.2367640  80.2533440  87.6058202  85.8754275
  78.9049032  88.2511966  86.1143370  73.5528461  94.5514651  77.9157074
  74.4555707  94.5838261  78.2323569  73.3265831  93.6215102  77.9303410
  75.3082063  93.3045637  74.5767153  74.3577694  93.3047499  74.4631525
  75.6114549  92.5578372  74.0603187  91.0434756  99.1406176  75.6412915
  91.6813166  99.0212923  74.9376255  90.9255599 100.0887020  75.7000867
  87.8524463  99.0933604  75.5774440  87.5142974  98.9774668  74.6894975
  88.7214231  98.6924769  75.5575446  88.3344246 100.2468455  81.5360645
  88.3232886  99.8521254  80.6641149  88.4964885  99.5134528  82.1294417
  81.2575710 102.4420272  74.4055551  82.0497002 102.1011096  73.9901850
  81.4972360 102.5515247  75.3257704  89.2910837 104.6140048  66.8785796
  88.6398817 105.1994128  66.4919809  90.0855200 105.1446243  66.9380833
  83.2166464 101.7029185  67.2772930  83.9897340 101.1558172  67.1385806
  83.5691863 102.5673434  67.4887391  85.0551507 103.0305567  80.4839829
  84.7641373 103.9351198  80.3686496  85.6908491 103.0722095  81.1983899
  85.9807714 100.4082416  77.0741189  86.5771286 100.1838438  76.3598152
  86.0382685  99.6667161  77.6766637  90.5976025  96.8657629  72.7166123
  91.3839114  96.4477053  72.3656540  90.8614729  97.7703722  72.8847771
  90.7686102 102.3030480  67.4154780  90.1331935 102.3765106  68.1275684
  90.4383508 102.8924079  66.7373859  95.9984452  96.8032863  73.6199102
  96.7309624  96.2332079  73.8536931  95.2423808  96.4154463  74.0605607
  87.6160572  99.2260104  70.8162444  87.2518779  98.6990725  71.5275365
  88.4727687  98.8358573  70.6428929  93.5209872  90.5154437  78.0793710
  93.1893197  91.3849848  77.8554925  92.9255486  90.1990721  78.7587741
  87.2566059  94.2550004  65.8123793  87.4240461  95.1230240  66.1794264
  87.0663228  94.4177286  64.8885082  90.0141392 102.7166983  77.4789623
  89.7142115 103.6192022  77.3705430  89.6692451 102.4499166  78.3310776
  83.4653873  99.1680780  73.5126327  82.5404370  99.0356994  73.7204019
  83.7138286  99.9474999  74.0096270  93.4138536  95.2349523  75.1587060
  92.5055413  95.1664931  74.8645821  93.3626131  95.7121468  75.9868886
  84.9962172 109.4811303  70.4460591  84.9186201 110.4319128  70.5249071
  84.3923815 109.1357176  71.1035517  87.4879401  96.6539168  83.1021957
  86.7112735  97.2133089  83.0924822  88.1269964  97.1395951  83.6236828
  95.2800182  93.4365961  76.9364934  94.6374562  93.7298494  76.2904729
  94.7755110  93.3218882  77.7418131  92.9340346  97.1829134  67.6250793
  93.8458202  97.4156521  67.4498491  92.4249993  97.7666179  67.0625872
  85.7425774  99.4624622  82.6639924  86.4840458 100.0009666  82.3874748
  85.0362759 100.0890911  82.8211476  91.2181113 101.6053762  81.2612086
  91.6264469 101.1636173  80.5166718  90.4958375 101.0306390  81.5146279
  87.5712183  96.5426369  78.6345643  88.4173378  96.9665783  78.7780292
  87.5110821  95.8859993  79.3284206  91.5409928 102.1654953  75.0164375
  90.9118790 102.3300667  74.3140443  91.1535590 102.5796562  75.7875339
  95.4199160 103.1009391  72.3708739  94.7350198 103.4808292  71.8205772
  95.5043009 103.7104717  73.1040686  90.7211629  94.2030737  80.2926817
  90.4772561  94.9572798  79.7561092  90.9971559  94.5816085  81.1274064
  92.6750091 100.7469350  78.9704082  92.8866987 101.3901110  78.2938463
  92.6279840  99.9131666  78.5026012  90.2776320  93.3587170  75.8740654
  89.4160799  93.6568424  76.1657392  90.3038755  93.5757569  74.9421687
  87.0937890 101.9029361  72.2814460  87.5576235 102.1817064  71.4919082
  86.8294688 101.0012806  72.0987551  83.9861971 101.4500843  75.2194223
  84.5563328 101.8788111  74.5811708  84.5770083 101.1683427  75.9178409
  86.0306776  98.0252513  69.0904025  86.7330819  98.4773557  69.5577951
  85.6987404  97.3836332  69.7183918  84.4787137  96.6164270  83.4655234
  83.8485798  97.2980551  83.6990631  84.3723225  96.5047352  82.5208373
  79.7732110  96.2836066  74.3921159  78.9831164  96.5393595  73.9161269
  80.2643357  97.0984404  74.4973199  93.7895919 103.6241305  77.1426439
  94.6113363 103.2221493  76.8609121  93.7858322 103.5209539  78.0942555
  81.7246855  96.6480645  71.3504635  80.9278018  96.7599340  71.8688131
  81.4972447  96.9867298  70.4845526  87.5552523 103.1725349  79.2987150
  87.6196955 103.6345756  80.1345322  86.8463447 102.5422713  79.4269460
  78.0569813  96.5366556  76.8236149  78.3077851  97.4213566  77.0893725
  78.5929361  96.3571158  76.0511241 101.8801912  99.9680054  73.4911411
 101.1265621  99.3987452  73.3355415 102.0149454  99.9342718  74.4382046
  87.2700540 104.8393456  69.1666130  87.1346215 105.6844992  69.5950978
  87.8110353 105.0412734  68.4032064  83.7567880  90.9185036  85.8280486
  83.3634826  90.3651234  86.5028130  84.5734020  91.2295614  86.2187003
  80.7229938 102.3568894  69.7394055  81.2354458 103.1512144  69.8899620
  81.3752651 101.6595185  69.6727657  82.5324823 105.4734650  71.8216809
  82.7091451 106.3952615  71.6337792  83.3281656 105.1593070  72.2511188
  86.6735841  92.3342915  83.4200742  87.4145554  92.9350068  83.3405205
  86.9053764  91.5920553  82.8618785  88.8969017 105.4617023  83.2966472
  88.4532871 104.6753401  82.9787377  89.5586230 105.6496173  82.6310363
  83.6556138 106.9912824  77.8227151  84.2063563 106.8629887  77.0504145
  82.8167614 107.2907713  77.4722044  90.9950255 105.7419822  81.3247874
  90.9768730 106.5628703  80.8328143  91.9170175 105.6173898  81.5498015
  87.4523309 103.2563952  82.1671382  87.9851646 102.4952240  81.9370690
  86.9237390 102.9637604  82.9095537  90.6193004  88.3624018  77.6965024
  90.2757273  89.2525660  77.6204134  90.9871967  88.1725676  76.8334609
  78.6878855 100.6857548  70.5153626  79.5254077 101.0954557  70.2987334
  78.8657122  99.7456991  70.4853820  90.5843287  98.3532629  66.2037459
  90.0689910  99.1237234  66.4425846  90.3120595  97.6797765  66.8270520
  88.1690398  93.1982330  71.2622697  87.3131994  92.8089180  71.0828336
  88.5817350  93.2774291  70.4022483  89.6989544  90.7328673  75.6614257
  89.1954340  90.6958808  74.8482062  89.9920151  91.6421416  75.7210914
  85.9432430  90.8167403  74.6680439  86.8085427  90.6210211  74.3086328
  86.0109939  90.5877755  75.5949796  95.5577561 101.1064984  68.1390632
  94.7807004 100.7676143  67.6945794  96.2369042 101.1117607  67.4645597
  90.3729590  96.2259721  68.0297240  90.0679725  96.5405870  68.8807383
  91.3260032  96.3041141  68.0724573  88.8176022 102.3849944  69.6790194
  88.2897383 101.6502704  69.3663431  88.3163524 103.1624621  69.4330162
  93.7968868 100.5798965  74.7957240  93.1392542 101.2698226  74.8837369
  94.6009267 100.9695397  75.1391227  83.5494749  93.0469611  72.0396806
  84.1238501  92.8244792  71.3069999  84.1365732  93.1158305  72.7925407
  92.6074327  98.9343338  72.8461182  93.1206208  99.5673329  73.3482892
  93.2575550  98.3344533  72.4804542  83.8764336  95.0774072  66.0592691
  83.0401649  95.4148758  66.3801966  83.7369106  94.9423052  65.1219828
  85.8517417  89.9210860  70.7671875  85.1981829  89.6059877  70.1428490
  85.8097891  89.2986600  71.4931698  86.9628622 100.2030155  62.6825167
  86.0555684  99.9719408  62.8816316  87.4599654  99.4067774  62.8699149
  89.8696701 108.9127662  65.6021853  89.1958400 109.2159359  66.2106811
  90.2562523 109.7156742  65.2527310  89.0855157  96.4092793  75.0919523
  88.1677719  96.6307740  74.9341211  89.5015301  96.4839104  74.2331230
  89.8690205  97.8084209  70.2222203  90.6162024  98.3205606  69.9129325
  90.1381795  97.4868262  71.0826596  88.1416855 100.3042750  67.2049157
  87.2328075 100.0201782  67.3021627  88.1711939 100.7241828  66.3452464
  93.3736123 103.9149339  70.9740325  92.9198450 103.0740249  71.0305515
  92.7430090 104.5510737  71.3115105  92.3169042  94.8441325  72.2040992
  91.5791799  94.3318711  72.5351235  92.5695816  94.4041707  71.3924269
  91.8169062 105.7525836  71.9090143  92.1092036 106.3130893  71.1902508
  92.3267683 106.0454397  72.6643302  92.4180670  87.6217577  72.7982761
  92.7239546  86.7614941  72.5108677  93.1433274  88.2135197  72.5981755
  78.7105026  98.0248264  71.1864359  78.5129426  97.4317624  70.4615426
  78.1551690  97.7200474  71.9040298  86.6901749  97.9171370  73.3058953
  86.7450359  96.9645207  73.2301429  85.8792951  98.0730809  73.7900251
  87.8392943 101.8451493  64.5437236  87.4012373 101.1287352  64.0842873
  88.5803384 102.0727608  63.9822327  86.7802687 106.5306187  72.9983596
  86.7378866 106.7567033  72.0692128  87.6965386 106.2969561  73.1469397
  90.2268321  96.9990254  79.8964225  90.5817709  97.2261728  80.7558691
  90.8740452  97.3308631  79.2741481  95.9566058 100.1208690  70.6013554
  95.8183957 100.3110286  69.6734744  95.6002277 100.8828073  71.0581605
  84.1208184  94.1066785  76.6810566  84.7607563  93.9655545  75.9833530
  83.2885715  93.8201299  76.3049168  95.9835438 102.1885217  75.6124826
  96.4171944 102.0960506  76.4607880  96.6967018 102.1642718  74.9744842
  84.8968488 103.4069216  72.7945559  85.6909086 102.9119536  72.5928134
  84.1860180 102.8787079  72.4313264  89.7163332 105.7887311  77.1457926
  89.7700355 106.3578248  77.9135642  88.8478114 105.9589196  76.7811964
  81.2051251  97.5512298  68.8705311  80.2748840  97.4896753  69.0875274
  81.3008723  97.0288250  68.0741953  81.1236801  94.0767110  71.4583553
  81.3843618  94.9912444  71.3492714  81.9453973  93.6091553  71.6080166
  96.8450987 102.2308918  78.1457711  97.0386877 103.1354728  78.3916986
  96.7451605 101.7716337  78.9796296  88.4987298  92.1166808  80.6448039
  87.8515213  92.8156758  80.5512515  89.2688313  92.5502952  81.0124287
  91.9066096 102.3815661  83.7198592  91.7551602 102.1526212  82.8028676
  91.8970775 103.3386262  83.7329937  88.6751432  99.9547573  78.7044858
  89.6043492 100.1058733  78.5313826  88.2542462 100.0431594  77.8493505
  87.4739764 103.9798238  76.4743396  87.3350850 103.6117022  77.3469334
  86.6854360 104.4945877  76.3027354  88.0687916 109.0807334  67.8168932
  88.2439672 108.6095377  68.6314555  87.3820704 109.7073100  68.0450193
  89.0244979 103.3579841  73.8632234  88.6894812 103.3180610  74.7589884
  88.5248925 102.6924556  73.3902644  82.9989223  98.7647471  79.3884815
  82.8609021  98.0327709  79.9896354  83.9094147  98.6756371  79.1069003
  91.9604171 100.7035875  64.1369293  91.3433341  99.9782703  64.0402346
  91.4920659 101.4645235  63.7936368  85.6271524  98.4767430  78.8768494
  86.3371142  97.8360622  78.8355113  85.5840832  98.7280325  79.7994675
  93.6158302 105.4134783  81.7975074  93.5570849 104.7294003  81.1305657
  94.0177821 106.1553773  81.3455700  84.3400458  95.4632648  80.6964134
  83.8037815  95.0123386  81.3485730  83.7517166  95.5978557  79.9534598
  82.6349001 112.2296697  74.5908793  82.8745599 112.8615221  75.2687811
  81.7918198 111.8784737  74.8774152  83.7502717  94.9221299  63.2590598
  82.8732183  94.8010100  62.8952844  84.2260470  94.1307377  63.0069486
  93.6175710 103.3774367  80.0289053  92.7302488 103.0400289  80.1515452
  94.1874261 102.6457398  80.2657819  75.2704857  99.7098459  73.3532105
  75.9575897  99.3960189  72.7653120  75.1152986 100.6139824  73.0799356
  80.0739579  94.5988655  77.7817128  79.9897768  93.9914325  77.0467538
  79.2522285  95.0897674  77.7826625  87.1476863 108.0375819  76.9950297
  87.0747035 108.8430791  77.5069601  86.7054256 108.2367785  76.1698318
  86.9366643 107.2747590  70.5053118  86.1534165 107.8169270  70.5991343
  87.6359388 107.7921569  70.9047359  90.2463293  93.0842219  73.1487324
  90.7431992  92.3312181  72.8288394  89.4750274  93.1206536  72.5830533
  98.0993050  98.7882585  74.7905615  98.0882926  99.6707300  74.4199548
  97.2310430  98.4354135  74.5960152  89.6075547 107.9362654  79.1508455
  90.3203519 108.5710118  79.0784357  89.1165575 108.0326520  78.3348457
  91.3293074 101.8413906  70.7225747  90.3949352 101.9615369  70.5530451
  91.5069742 100.9386373  70.4585757  86.8298262  95.2259602  72.8759008
  86.4596049  94.6730642  73.5639914  87.3257354  94.6217735  72.3234008
  94.7165625  97.6831225  71.2575781  95.1826077  98.5159217  71.1836084
  95.1673125  97.2176207  71.9621040  84.6587460 105.6857097  79.9714026
  85.3596920 106.3193580  80.1243420  84.1882575 106.0271829  79.2109665
  92.7841856 104.0275047  68.2561933  93.0601700 103.9131641  69.1655807
  91.9146355 103.6292532  68.2174106  92.6882288  90.0511812  75.2966682
  91.7745367  90.2816039  75.4648889  93.1175389  90.1350257  76.1480715
  92.4588746  98.2401704  77.7966576  91.8060196  98.4877612  77.1419029
  92.8369126  97.4265843  77.4629054  89.4195920 108.2761398  71.8994747
  89.6018315 107.4583054  72.3622499  90.2428906 108.4929090  71.4619637
  89.7538086 107.2029583  69.1609795  90.2825852 106.6922037  68.5479957
  90.0166305 106.8872113  70.0255328  88.5076319  98.9821515  84.2832613
  87.8316956  98.8815645  84.9534989  89.3303953  98.8260729  84.7468611
  80.2555178 105.2193452  76.9045129  80.8408615 104.4737140  77.0373033
  80.0580017 105.5297409  77.7881793  83.1093833 108.2544699  71.9207571
  82.4404209 108.7390827  71.4371611  82.9706703 108.5013920  72.8350950
  74.8472833  97.7899052  75.6249572  74.8856932  97.2562643  76.4186690
  74.3413126  97.2634258  75.0060549  87.2499102 110.2888443  78.5190229
  87.8017410 110.4520064  79.2839315  87.5905295 110.8792881  77.8470254
  82.2263595  92.6363593  79.1212114  82.2904922  93.4978424  78.7089512
  82.1630716  92.0237594  78.3884473  81.7015868  94.7086725  82.7685148
  82.3287907  94.3263803  83.3822673  80.8443787  94.4900927  83.1340841
  92.1009976 105.1149700  84.3738884  92.6449880 105.7279659  83.8793839
  91.5196821 105.6729279  84.8905897  78.4781411  96.5163154  68.7003503
  78.7734852  95.6073833  68.6470557  77.5769446  96.4950894  68.3784506
  90.3867489 108.2370418  75.5053912  90.2618629 107.4360158  74.9964857
  91.0446580 108.7316612  75.0167882  92.4502398 106.0379439  77.1333462
  91.5032733 105.9184790  77.0611788  92.7985171 105.1501937  77.2159723
  84.8101971  91.9273577  80.9571704  85.3336373  92.1735874  81.7198013
  84.5914304  92.7593612  80.5374841  80.2069252  94.1977252  68.8242828
  79.8781958  93.3174631  68.6417934  80.5608623  94.1424921  69.7119218
  89.4548831 105.8332155  73.3337814  89.3073793 104.9048862  73.5145384
  90.2802325 105.8552245  72.8494889  83.3211075  94.4850222  69.1918306
  83.6607148  95.0136143  68.4696914  83.7683196  94.8230628  69.9676873
  93.0582953 106.6560714  74.4202687  93.9829500 106.4503575  74.2827138
  92.8898256 106.4077115  75.3292028  86.0154516  92.8687273  78.6421374
  85.6751336  92.0695086  79.0442054  85.3093522  93.1688983  78.0698207
  86.6670988  89.9536585  77.0948697  87.4897057  89.4797063  76.9727588
  86.9109051  90.7327069  77.5947383  85.3079222  92.9824843  67.3911599
  86.0287585  93.3606096  66.8875316  84.6844527  93.7013720  67.4946577
  89.4510345  93.6869992  68.3269931  89.6673960  94.5694630  68.0258759
  88.9704412  93.2956206  67.5975573  84.1909567  96.6455706  74.9040676
  84.0454147  96.9596009  75.7964957  83.7134770  97.2640606  74.3511574
  86.0505950  93.6358254  74.9521565  86.0367518  92.7399347  74.6153863
  86.7678378  93.6428917  75.5859851  87.9032080  94.0695594  76.9974693
  87.6449858  94.9912664  76.9959023  87.3717121  93.6726028  77.6875157
  92.8478269 107.1746381  69.7764778  93.0215147 106.6092803  69.0238631
  93.3407160 107.9747276  69.5944268  85.4542846  92.5172634  70.2209135
  85.5758757  91.5889280  70.4200023  85.1644888  92.5311320  69.3087451
  88.3234036  90.2027544  73.3575855  88.3455733  90.2666877  72.4027835
  88.7402095  89.3632053  73.5516361  98.7017660  99.9382804  71.3955078
  99.1448806  99.1890129  70.9974201  97.8244171  99.9292940  71.0128810
  93.8353442 106.4913145  66.8761676  94.5304346 107.1119838  67.0948991
  94.1776592 105.6408497  67.1514054  79.4521251  98.3130946  80.7358494
  78.7102987  98.4613582  81.3223124  79.1313995  98.5739212  79.8725243
  95.7344865 103.9412851  68.4049007  96.2596189 104.2800124  67.6798327
  95.6467217 103.0059866  68.2212142  87.3964913 107.8546925  80.5338884
  87.7052040 107.6096071  81.4061583  88.1940395 108.0593563  80.0457754
  87.4185525 110.0084834  72.7644260  86.9790516 109.5161213  73.4577117
  88.1693642 109.4657802  72.5236336  79.8977864 106.1996375  72.7668888
  80.7235884 105.9000147  72.3867532  79.5471916 105.4303997  73.2158677
  84.8659398 105.5522843  74.8366562  84.2439407 104.8893548  74.5368790
  85.5364264 105.5783975  74.1540210  78.0986469 104.1182701  73.7257822
  77.2618378 103.6904876  73.5441823  78.0710115 104.3115145  74.6628613
  84.9383925  94.0304631  84.4299068  84.9872081  94.9066754  84.0476838
  85.4806439  93.4882024  83.8570711  95.4238771 104.5745755  83.7100205
  94.6334314 104.5569893  83.1704705  95.1872125 105.1134048  84.4649242
  95.5436646 101.4238221  81.0232934  95.5934651 101.2588228  81.9648456
  95.4350569 100.5565480  80.6330814  84.4272904 104.1026767  68.3125023
  84.5761025 104.7862231  67.6591695  85.2339348 104.0831857  68.8274478
  92.8340408  97.4069149  82.3392240  93.7350271  97.2675614  82.0476238
  92.9088383  97.5723604  83.2790418  87.1683213  94.7836004  81.1845427
  86.2986523  95.0769570  80.9128015  87.4042694  95.3676449  81.9052690
  97.0454843 103.8435162  81.2674955  96.7539651 104.2065143  82.1038416
  96.4326974 103.1302171  81.0888287  98.2450525 101.4088042  73.7877525
  99.0797416 101.8477846  73.9515086  98.3809654 100.9326695  72.9685771
  95.2942031  98.9667777  79.7355013  95.7696152  99.1595423  78.9273865
  94.3707596  99.0226963  79.4898397  82.1825537 100.1291944  69.3186092
  81.9371579  99.2254274  69.5166302  82.3521452 100.1309095  68.3765570
  89.8722247  91.0015621  78.7010847  90.3904191  91.7376648  78.3757336
  89.5177380  91.3079614  79.5357606  81.4521185  95.8620302  66.8172253
  80.7590430  95.9364657  66.1612289  81.2072937  95.0980645  67.3393770
  87.9268310 106.5974897  65.7836770  87.3542277 107.2165084  65.3307242
  88.5001104 107.1474259  66.3176692  93.9943700  95.8433537  77.9683319
  94.9461123  95.9431635  77.9895543  93.8247150  95.0511806  78.4781403
  92.0158079  92.9289120  78.1542720  91.4208011  93.2094133  77.4589208
  91.7307776  93.4183021  78.9259461  91.1465570 106.8812047  66.9145352
  92.0796243 106.8157609  67.1178228  91.0588783 107.7168314  66.4559885
  93.7753586 106.1977918  63.8749300  93.6967218 105.8637781  64.7685058
  94.5963253 106.6899685  63.8740772  96.4731778  99.0639657  77.0825618
  96.4408098  98.1255658  77.2685302  97.0832401  99.1423694  76.3491443
  88.3115108  97.9335710  63.1252823  89.2574213  97.8041918  63.1941241
  87.9329353  97.1950372  63.6022251  96.6226266  95.8550700  77.1283902
  96.1065315  95.0709157  76.9413831  97.5066215  95.5269417  77.2930421
  94.2836993  89.5991716  73.0879714  94.0861814  89.2906804  73.9723046
  94.8936699  90.3253355  73.2177644 102.2908327 100.1255664  76.2231655
 103.0211716  99.8640952  76.7839359 101.6815273  99.3884386  76.2633723
 100.3723625  98.2663526  76.8206106  99.6456788  98.1319491  76.2122598
  99.9570911  98.5740355  77.6262825  88.1953801 101.9853456  84.5853479
  89.1156810 102.1632055  84.7793526  88.1603384 101.0409501  84.4333179
  77.4135966  97.1792050  73.5106754  77.0938750  96.3257358  73.2181128
  76.8669394  97.3940628  74.2664721  81.1915874  99.8954491  77.2276261
  81.4101883 100.8271598  77.2464294  81.6041647  99.5362465  78.0131064
  88.1120091  90.4022576  69.2151949  87.3020820  90.0569661  69.5907195
  88.8004508  90.0930120  69.8039561  86.0643739  95.4687696  86.6179010
  85.9640466  96.4182053  86.5491101  85.8465281  95.1405935  85.7455080
  85.2656810  92.7172621  63.2019687  86.1275974  93.0427520  63.4615504
  85.4507154  91.9304117  62.6892753  77.2824226 100.7994961  75.4799876
  76.5887697 100.3848914  74.9669830  78.0297217 100.8415498  74.8833295
  93.4189447  91.5901148  70.3454910  92.8388116  92.2485952  69.9632962
  93.1525379  90.7678492  69.9342327  91.8693013  90.9906206  72.5476230
  92.3692791  91.1022740  71.7390549  92.5128621  90.6867258  73.1877039
  85.9275009  98.8984835  85.4344071  85.4442091  99.6985195  85.6407960
  86.0135948  98.9092780  84.4811515  79.1960969 100.7313215  73.3565891
  79.1731657 100.8300902  72.4047774  79.5061605 101.5778366  73.6783057
  81.8548346 102.7889370  77.4712505  82.8091600 102.7573312  77.4042437
  81.6560870 102.3279994  78.2862731  82.4447729 101.3590486  80.0383303
  83.2640618 101.8534565  80.0618140  82.7184536 100.4422454  80.0100870
  92.2014325  93.7501238  69.4011258  91.3140180  94.0350889  69.1831453
  92.6168314  93.5895002  68.5538535  95.5528861  93.7747759  73.1165597
  96.3289251  94.2644212  73.3890214  94.8276995  94.2005813  73.5737467
  97.9901420  94.4875378  74.1739538  98.5845910  94.2471114  73.4632846
  98.0628003  93.7682509  74.8013074  80.2098575 108.3308989  74.4882703
  80.0753043 107.5709390  73.9220701  79.7930637 109.0549889  74.0211492
  91.3457538 103.5145913  63.4959278  92.0493388 103.7195915  64.1116934
  90.6220187 104.0822675  63.7608362  92.1755349  99.2655774  69.6161548
  92.1190550  99.7224326  68.7769181  92.7283691  98.5046459  69.4384391
  95.9860154  95.0545506  70.4411668  95.7297089  94.6542142  71.2719876
  95.3613022  95.7689300  70.3161807 100.2972492  97.7941579  72.9482959
  99.7372050  97.8634769  73.7214521  99.6915996  97.6182564  72.2282456
  83.3667701 109.2278306  74.7001146  83.2500085 110.1723739  74.5979836
  82.5460147 108.9251868  75.0886945  93.2544236 103.9528442  65.5457738
  94.0889840 103.5209641  65.3635213  93.0928579 103.7810456  66.4734633
  92.9090128 100.4560555  66.9114078  92.8538932 100.2904827  65.9702522
  92.2836183 101.1636588  67.0676267  77.6982643  95.6928620  80.7375500
  78.3441506  95.1827574  81.2262725  77.4899794  96.4297301  81.3118925
  90.2236035 102.7609467  86.2367640  91.0927195 102.9350120  85.8754275
  89.7442786 103.5803884  86.1143370  86.2186253  89.9568664  66.4899396
  86.2064923  90.9010504  66.6467667  87.1109675  89.7738810  66.1958857
  84.3922215 109.8806568  77.9157074  85.2949462 109.9130179  78.2323569
  84.1659585 108.9507019  77.9303410  86.1475817 108.6337555  74.5767153
  85.1971448 108.6339416  74.4631525  86.4508303 107.8870289  74.0603187
  90.0338373  86.5511441  70.7445333  89.2670769  85.9969928  70.8902015
  90.4449078  86.6233310  71.6059484  82.0380134  92.8396237  84.8350514
  82.9011595  92.4833042  85.0453839  81.4645544  92.5010132  85.5225918
 101.8828511 114.4698093  75.6412915 102.5206921 114.3504841  74.9376255
 101.7649354 115.4178937  75.7000867  98.6918217 114.4225521  75.5774440
  98.3536729 114.3066586  74.6894975  99.5607985 114.0216686  75.5575446
  94.5505033 116.2760998  71.5671331  93.9869898 116.1850935  70.7987618
  94.4357428 115.4560902  72.0473823  99.1738000 115.5760373  81.5360645
  99.1626641 115.1813171  80.6641149  99.3358639 114.8426446  82.1294417
  92.0969465 117.7712189  74.4055551  92.8890757 117.4303014  73.9901850
  92.3366115 117.8807164  75.3257704  94.0560219 117.0321103  67.2772930
  94.8291095 116.4850090  67.1385806  94.4085617 117.8965352  67.4887391
  95.8945261 118.3597485  80.4839829  95.6035127 119.2643116  80.3686496
  96.5302245 118.4014012  81.1983899  96.8201468 115.7374333  77.0741189
  97.4165040 115.5130356  76.3598152  96.8776440 114.9959079  77.6766637
  96.3926496 113.1913769  64.9091380  96.6452017 112.6695290  64.1474843
  95.4551055 113.0279914  65.0118063 101.4369779 112.1949547  72.7166123
 102.2232868 111.7768970  72.3656540 101.7008484 113.0995639  72.8847771
 106.8378206 112.1324780  73.6199102 107.5703378 111.5623997  73.8536931
 106.0817562 111.7446381  74.0605607  96.1122785 115.0941875  67.1115755
  95.9959043 114.4186778  67.7796839  96.2225045 114.6074249  66.2947908
  98.4554326 114.5552022  70.8162444  98.0912533 114.0282643  71.5275365
  99.3121442 114.1650491  70.6428929 104.3603627 105.8446354  78.0793710
 104.0286951 106.7141765  77.8554925 103.7649240 105.5282638  78.7587741
  98.0959813 109.5841921  65.8123793  98.2634215 110.4522158  66.1794264
  97.9056982 109.7469203  64.8885082  94.3047628 114.4972697  73.5126327
  93.3798124 114.3648911  73.7204019  94.5532041 115.2766916  74.0096270
 104.2532290 110.5641441  75.1587060 103.3449167 110.4956849  74.8645821
 104.2019886 111.0413386  75.9868886  98.0749034 112.0399579  66.7970459
  97.9548659 112.4856630  67.6355940  97.3801622 112.3884897  66.2383997
  91.6656439 114.1405971  74.3470116  91.7948820 114.3940450  75.2609528
  90.9853890 114.7333679  74.0274771  98.3273156 111.9831086  83.1021957
  97.5506490 112.5425006  83.0924822  98.9663719 112.4687869  83.6236828
 106.1193936 108.7657879  76.9364934 105.4768317 109.0590412  76.2904729
 105.6148865 108.6510799  77.7418131 103.7734100 112.5121052  67.6250793
 104.6851956 112.7448439  67.4498491 103.2643747 113.0958096  67.0625872
  96.5819528 114.7916540  82.6639924  97.3234212 115.3301583  82.3874748
  95.8756514 115.4182828  82.8211476 102.0574868 116.9345680  81.2612086
 102.4658224 116.4928091  80.5166718 101.3352129 116.3598308  81.5146279
  98.4105938 111.8718287  78.6345643  99.2567133 112.2957700  78.7780292
  98.3504575 111.2151911  79.3284206 101.5605383 109.5322655  80.2926817
 101.3166315 110.2864716  79.7561092 101.8365314 109.9108003  81.1274064
 101.1170075 108.6879088  75.8740654 100.2554554 108.9860342  76.1657392
 101.1432510 108.9049487  74.9421687  97.9331644 117.2321279  72.2814460
  98.3969990 117.5108982  71.4919082  97.6688442 116.3304723  72.0987551
  94.8255725 116.7792760  75.2194223  95.3957082 117.2080029  74.5811708
  95.4163837 116.4975345  75.9178409  96.8700530 113.3544431  69.0904025
  97.5724574 113.8065475  69.5577951  96.5381159 112.7128250  69.7183918
  95.3180892 111.9456188  83.4655234  94.6879552 112.6272469  83.6990631
  95.2116980 111.8339269  82.5208373  90.6125864 111.6127984  74.3921159
  89.8224918 111.8685512  73.9161269  91.1037112 112.4276322  74.4973199
  92.5640610 111.9772563  71.3504635  91.7671773 112.0891257  71.8688131
  92.3366202 112.3159215  70.4845526  98.3946277 118.5017266  79.2987150
  98.4590710 118.9637673  80.1345322  97.6857201 117.8714631  79.4269460
  88.8963567 111.8658474  76.8236149  89.1471606 112.7505484  77.0893725
  89.4323116 111.6863076  76.0511241  94.5961635 106.2476954  85.8280486
  94.2028580 105.6943152  86.5028130  95.4127775 106.5587532  86.2187003
  91.5623692 117.6860812  69.7394055  92.0748213 118.4804062  69.8899620
  92.2146405 116.9887102  69.6727657  93.3718577 120.8026568  71.8216809
  93.5485205 121.7244533  71.6337792  94.1675411 120.4884987  72.2511188
  97.5129596 107.6634833  83.4200742  98.2539309 108.2641986  83.3405205
  97.7447518 106.9212470  82.8618785  92.6570934 112.8491200  81.6978972
  92.5424449 111.9476457  81.9986071  91.8015451 113.0954897  81.3463788
  94.4949892 122.3204742  77.8227151  95.0457318 122.1921805  77.0504145
  93.6561368 122.6199631  77.4722044  98.2917064 118.5855870  82.1671382
  98.8245400 117.8244158  81.9370690  97.7631145 118.2929521  82.9095537
 101.4586759 103.6915936  77.6965024 101.1151028 104.5817577  77.6204134
 101.8265721 103.5017593  76.8334609  89.5272609 116.0149466  70.5153626
  90.3647831 116.4246474  70.2987334  89.7050877 115.0748908  70.4853820
 101.4237041 113.6824547  66.2037459 100.9083665 114.4529151  66.4425846
 101.1514350 113.0089683  66.8270520  99.0084152 108.5274247  71.2622697
  98.1525749 108.1381098  71.0828336  99.4211104 108.6066208  70.4022483
 100.5383299 106.0620591  75.6614257 100.0348094 106.0250726  74.8482062
 100.8313906 106.9713333  75.7210914  96.7826185 106.1459320  74.6680439
  97.6479182 105.9502129  74.3086328  96.8503694 105.9169672  75.5949796
 101.2123344 111.5551639  68.0297240 100.9073480 111.8697788  68.8807383
 102.1653787 111.6333059  68.0724573  99.6569776 117.7141862  69.6790194
  99.1291138 116.9794622  69.3663431  99.1557279 118.4916538  69.4330162
  94.3888504 108.3761528  72.0396806  94.9632256 108.1536710  71.3069999
  94.9759486 108.4450223  72.7925407 103.4468081 114.2635255  72.8461182
 103.9599963 114.8965247  73.3482892 104.0969305 113.6636451  72.4804542
  94.7158091 110.4065989  66.0592691  93.8795403 110.7440676  66.3801966
  94.5762861 110.2714969  65.1219828  96.6911172 105.2502777  70.7671875
  96.0375584 104.9351794  70.1428490  96.6491646 104.6278518  71.4931698
  97.8022376 115.5322072  62.6825167  96.8949438 115.3011326  62.8816316
  98.2993408 114.7359692  62.8699149  99.9248912 111.7384711  75.0919523
  99.0071473 111.9599658  74.9341211 100.3409056 111.8131021  74.2331230
 100.7083960 113.1376126  70.2222203 101.4555779 113.6497524  69.9129325
 100.9775549 112.8160179  71.0826596  98.9810610 115.6334667  67.2049157
  98.0721829 115.3493700  67.3021627  99.0105694 116.0533746  66.3452464
 103.1562797 110.1733243  72.2040992 102.4185554 109.6610629  72.5351235
 103.4089570 109.7333624  71.3924269 103.2574424 102.9509495  72.7982761
 103.5633301 102.0906858  72.5108677 103.9827029 103.5427115  72.5981755
  89.5498780 113.3540181  71.1864359  89.3523180 112.7609542  70.4615426
  88.9945444 113.0492392  71.9040298  97.5295504 113.2463288  73.3058953
  97.5844114 112.2937124  73.2301429  96.7186706 113.4022727  73.7900251
  98.6786698 117.1743411  64.5437236  98.2406128 116.4579270  64.0842873
  99.4197139 117.4019526  63.9822327  95.4687864 111.8640348  71.0649331
  94.6555729 112.1634518  71.4714524  95.9646858 111.4696036  71.7823814
 101.0662076 112.3282172  79.8964225 101.4211463 112.5553645  80.7558691
 101.7134207 112.6600549  79.2741481  94.9601939 109.4358703  76.6810566
  95.6001318 109.2947462  75.9833530  94.1279469 109.1493216  76.3049168
  95.7362242 118.7361134  72.7945559  96.5302841 118.2411454  72.5928134
  95.0253935 118.2078997  72.4313264  92.0445006 112.8804215  68.8705311
  91.1142594 112.8188671  69.0875274  92.1402478 112.3580168  68.0741953
  91.9630555 109.4059028  71.4583553  92.2237372 110.3204361  71.3492714
  92.7847727 108.9383471  71.6080166  93.4355480 110.8196785  78.6282378
  94.1078534 110.6114147  77.9795027  92.6085267 110.6218871  78.1887610
  99.3381052 107.4458726  80.6448039  98.6908967 108.1448676  80.5512515
 100.1082068 107.8794870  81.0124287  99.5145187 115.2839491  78.7044858
 100.4437247 115.4350651  78.5313826  99.0936217 115.3723512  77.8493505
  98.3133518 119.3090156  76.4743396  98.1744604 118.9408940  77.3469334
  97.5248115 119.8237795  76.3027354  99.8638734 118.6871758  73.8632234
  99.5288566 118.6472528  74.7589884  99.3642679 118.0216474  73.3902644
  93.8382978 114.0939388  79.3884815  93.7002776 113.3619627  79.9896354
  94.7487901 114.0048288  79.1069003 102.7997925 116.0327793  64.1369293
 102.1827096 115.3074621  64.0402346 102.3314414 116.7937153  63.7936368
  96.4665278 113.8059348  78.8768494  97.1764897 113.1652540  78.8355113
  96.4234586 114.0572242  79.7994675  95.1794212 110.7924565  80.6964134
  94.6431569 110.3415304  81.3485730  94.5910921 110.9270474  79.9534598
  94.5896471 110.2513217  63.2590598  93.7125938 110.1302018  62.8952844
  95.0654224 109.4599295  63.0069486  86.1098611 115.0390377  73.3532105
  86.7969651 114.7252107  72.7653120  85.9546740 115.9431741  73.0799356
  90.9133333 109.9280573  77.7817128  90.8291522 109.3206243  77.0467538
  90.0916040 110.4189591  77.7826625 101.0857047 108.4134137  73.1487324
 101.5825747 107.6604099  72.8288394 100.3144029 108.4498453  72.5830533
 102.1686828 117.1705824  70.7225747 101.2343107 117.2907286  70.5530451
 102.3463496 116.2678291  70.4585757  97.6692016 110.5551520  72.8759008
  97.2989804 110.0022560  73.5639914  98.1651109 109.9509653  72.3234008
 105.5559379 113.0123143  71.2575781 106.0219832 113.8451135  71.1836084
 106.0066880 112.5468125  71.9621040  95.4981215 121.0149015  79.9714026
  96.1990674 121.6485498  80.1243420  95.0276330 121.3563746  79.2109665
 103.5276042 105.3803730  75.2966682 102.6139122 105.6107957  75.4648889
 103.9569144 105.4642174  76.1480715 103.2982501 113.5693622  77.7966576
 102.6453951 113.8169530  77.1419029 103.6762881 112.7557760  77.4629054
  99.3470074 114.3113433  84.2832613  98.6710711 114.2107563  84.9534989
 100.1697708 114.1552647  84.7468611  91.0948933 120.5485370  76.9045129
  91.6802370 119.8029058  77.0373033  90.8973771 120.8589326  77.7881793
  85.6866587 113.1190970  75.6249572  85.7250687 112.5854561  76.4186690
  85.1806880 112.5926175  75.0060549  93.0657350 107.9655510  79.1212114
  93.1298676 108.8270341  78.7089512  93.0024470 107.3529512  78.3884473
  92.5409622 110.0378643  82.7685148  93.1681661 109.6555720  83.3822673
  91.6837541 109.8192845  83.1340841  89.3175165 111.8455072  68.7003503
  89.6128606 110.9365750  68.6470557  88.4163201 111.8242812  68.3784506
  92.8469412 109.9211069  74.6831052  92.1255998 110.5347036  74.5438525
  93.6362668 110.4568833  74.6047698  95.6495726 107.2565495  80.9571704
  96.1730127 107.5027792  81.7198013  95.4308059 108.0885530  80.5374841
  91.0463007 109.5269170  68.8242828  90.7175713 108.6466549  68.6417934
  91.4002377 109.4716838  69.7119218  94.1604830 109.8142140  69.1918306
  94.5000902 110.3428061  68.4696914  94.6076950 110.1522546  69.9676873
  96.8548271 108.1979190  78.6421374  96.5145091 107.3987003  79.0442054
  96.1487277 108.4980901  78.0698207  97.5064742 105.2828503  77.0948697
  98.3290812 104.8088981  76.9727588  97.7502806 106.0618986  77.5947383
  96.1472977 108.3116761  67.3911599  96.8681339 108.6898014  66.8875316
  95.5238281 109.0305638  67.4946577 100.2904100 109.0161910  68.3269931
 100.5067714 109.8986548  68.0258759  99.8098167 108.6248124  67.5975573
  95.0303321 111.9747623  74.9040676  94.8847902 112.2887926  75.7964957
  94.5528525 112.5932524  74.3511574  96.8899704 108.9650171  74.9521565
  96.8761273 108.0691265  74.6153863  97.6072132 108.9720835  75.5859851
  98.7425835 109.3987512  76.9974693  98.4843613 110.3204582  76.9959023
  98.2110875 109.0017946  77.6875157  89.5048983 114.5152968  77.8428337
  88.9602451 115.2912776  77.9748611  90.3828333 114.8623772  77.6847458
  96.2936600 107.8464552  70.2209135  96.4152511 106.9181198  70.4200023
  96.0038642 107.8603238  69.3087451  99.1627790 105.5319462  73.3575855
  99.1849487 105.5958795  72.4027835  99.5795849 104.6923971  73.5516361
  90.2915005 113.6422864  80.7358494  89.5496741 113.7905499  81.3223124
  89.9707749 113.9031130  79.8725243  90.7371619 121.5288293  72.7668888
  91.5629639 121.2292065  72.3867532  90.3865671 120.7595915  73.2158677
  95.7053152 120.8814761  74.8366562  95.0833161 120.2185466  74.5368790
  96.3758019 120.9075893  74.1540210  88.9380224 119.4474619  73.7257822
  88.1012132 119.0196794  73.5441823  88.9103869 119.6407063  74.6628613
  95.7777680 109.3596549  84.4299068  95.8265835 110.2358672  84.0476838
  96.3200194 108.8173942  83.8570711  95.2666659 119.4318684  68.3125023
  95.4154779 120.1154149  67.6591695  96.0733102 119.4123774  68.8274478
 103.6734163 112.7361067  82.3392240 104.5744025 112.5967531  82.0476238
 103.7482137 112.9015521  83.2790418  98.0076968 110.1127921  81.1845427
  97.1380277 110.4061487  80.9128015  98.2436448 110.6968366  81.9052690
  93.0219292 115.4583862  69.3186092  92.7765334 114.5546192  69.5166302
  93.1915206 115.4601012  68.3765570 100.7116002 106.3307538  78.7010847
 101.2297946 107.0668565  78.3757336 100.3571135 106.6371532  79.5357606
  92.2914939 111.1912219  66.8172253  91.5984184 111.2656574  66.1612289
  92.0466691 110.4272563  67.3393770 100.9628596 102.7507821  74.2211744
 101.2430350 102.0831010  74.8472170 101.7479203 102.9436916  73.7086408
 104.8337454 111.1725455  77.9683319 105.7854877 111.2723552  77.9895543
 104.6640905 110.3803723  78.4781403 102.8551834 108.2581038  78.1542720
 102.2601766 108.5386051  77.4589208 102.5701531 108.7474939  78.9259461
  99.1508863 113.2627627  63.1252823 100.0967968 113.1333836  63.1941241
  98.7723108 112.5242289  63.6022251 107.4620021 111.1842618  77.1283902
 106.9459069 110.4001075  76.9413831 108.3459969 110.8561335  77.2930421
 105.1230748 104.9283634  73.0879714 104.9255569 104.6198722  73.9723046
 105.7330453 105.6545272  73.2177644  99.0347556 117.3145374  84.5853479
  99.9550565 117.4923973  84.7793526  98.9997139 116.3701419  84.4333179
  97.3351780 111.1877604  63.0607708  96.4283236 110.8910717  63.1370421
  97.6127761 110.8907422  62.1941994  88.2529721 112.5083967  73.5106754
  87.9332505 111.6549275  73.2181128  87.7063149 112.7232545  74.2664721
  92.0309628 115.2246408  77.2276261  92.2495638 116.1563516  77.2464294
  92.4435402 114.8654383  78.0131064  98.9513846 105.7314494  69.2151949
  98.1414574 105.3861579  69.5907195  99.6398263 105.4222037  69.8039561
 100.8804394 104.8092540  70.8376246 101.4335433 105.2287994  71.4966269
 101.1174481 103.8828289  70.8799202  96.9037493 110.7979614  86.6179010
  96.8034220 111.7473971  86.5491101  96.6859035 110.4697853  85.7455080
  96.1050565 108.0464539  63.2019687  96.9669729 108.3719437  63.4615504
  96.2900909 107.2596035  62.6892753  88.1217981 116.1286879  75.4799876
  87.4281452 115.7140832  74.9669830  88.8690972 116.1707415  74.8833295
 104.2583201 106.9193066  70.3454910 103.6781870 107.5777870  69.9632962
 103.9919134 106.0970410  69.9342327 102.7086768 106.3198123  72.5476230
 103.2086546 106.4314658  71.7390549 103.3522376 106.0159176  73.1877039
  96.7668763 114.2276753  85.4344071  96.2835845 115.0277113  85.6407960
  96.8529702 114.2384698  84.4811515  90.0354723 116.0605133  73.3565891
  90.0125411 116.1592820  72.4047774  90.3455360 116.9070283  73.6783057
  92.6942101 118.1181288  77.4712505  93.6485354 118.0865230  77.4042437
  92.4954625 117.6571911  78.2862731  93.2841483 116.6882404  80.0383303
  94.1034372 117.1826482  80.0618140  93.5578291 115.7714372  80.0100870
 103.0408079 109.0793156  69.4011258 102.1533934 109.3642807  69.1831453
 103.4562068 108.9186919  68.5538535 106.3922615 109.1039677  73.1165597
 107.1683006 109.5936129  73.3890214 105.6670750 109.5297731  73.5737467
 108.8295174 109.8167296  74.1739538 109.4239665 109.5763032  73.4632846
 108.9021758 109.0974427  74.8013074  91.0492330 123.6600907  74.4882703
  90.9146798 122.9001308  73.9220701  90.6324392 124.3841807  74.0211492
 103.0149103 114.5947692  69.6161548 102.9584304 115.0516243  68.7769181
 103.5677445 113.8338376  69.4384391 106.8253909 110.3837424  70.4411668
 106.5690843 109.9834059  71.2719876 106.2006777 111.0981218  70.3161807
 103.7483882 115.7852473  66.9114078 103.6932686 115.6196745  65.9702522
 103.1229938 116.4928506  67.0676267  88.5376397 111.0220537  80.7375500
  89.1835261 110.5119491  81.2262725  88.3293548 111.7589219  81.3118925
  97.0580008 105.2860582  66.4899396  97.0458678 106.2302422  66.6467667
  97.9503430 105.1030728  66.1958857 100.8732127 101.8803359  70.7445333
 100.1064523 101.3261845  70.8902015 101.2842832 101.9525228  71.6059484
  92.8773888 108.1688155  84.8350514  93.7405350 107.8124959  85.0453839
  92.3039299 107.8302049  85.5225918  36.8465985  -0.4991290  62.3658222
  37.4844395  -0.6184543  61.6621562  36.7286828   0.4489554  62.4246174
  33.6555691  -0.5463862  62.3019746  33.3174203  -0.6622797  61.4140281
  34.5245460  -0.9472697  62.2820752  29.5142507   1.3071614  58.2916637
  28.9507372   1.2161551  57.5232925  29.3994902   0.4871519  58.7719130
  34.1375474   0.6070990  68.2605952  34.1264115   0.2123788  67.3886456
  34.2996114  -0.1262938  68.8539723  27.0606939   2.8022806  61.1300858
  27.8528231   2.4613631  60.7147157  27.3003589   2.9117781  62.0503011
  35.0942066   4.9742582  53.6031102  34.4430045   5.5596662  53.2165116
  35.8886429   5.5048777  53.6626140  29.0197693   2.0631719  54.0018237
  29.7928569   1.5160706  53.8631112  29.3723092   2.9275968  54.2132698
  30.8582735   3.3908101  67.2085136  30.5672601   4.2953732  67.0931802
  31.4939720   3.4324629  67.9229205  31.7838942   0.7684950  63.7986495
  32.3802515   0.5440972  63.0843458  31.8413914   0.0269695  64.4011943
  31.3563971  -1.7775615  51.6336686  31.6089491  -2.2994093  50.8720149
  30.4188530  -1.9409469  51.7363370  36.4007254  -2.7739836  59.4411430
  37.1870343  -3.1920413  59.0901847  36.6645958  -1.8693744  59.6093078
  36.5717331   2.6633014  54.1400086  35.9363164   2.7367640  54.8520991
  36.2414737   3.2526613  53.4619166  41.8015681  -2.8364603  60.3444408
  42.5340853  -3.4065386  60.5782238  41.0455036  -3.2243003  60.7850914
  31.0760259   0.1252491  53.8361061  30.9596518  -0.5502605  54.5042146
  31.1862519  -0.3615135  53.0193214  33.4191800  -0.4137362  57.5407751
  33.0550008  -0.9406741  58.2520672  34.2758916  -0.8038893  57.3674236
  35.8172621   3.0769517  64.2034930  35.5173344   3.9794556  64.0950737
  35.4723680   2.8101700  65.0556082  29.2685102  -0.4716686  60.2371634
  28.3435598  -0.6040472  60.4449326  29.5169515   0.3077533  60.7341576
  39.2169764  -4.4047943  61.8832367  38.3086642  -4.4732534  61.5891128
  39.1657360  -3.9275998  62.7114192  33.0386508  -2.9289804  53.5215766
  32.9186133  -2.4832754  54.3601246  32.3439097  -2.5804487  52.9629304
  30.7993400   9.8413837  57.1705897  30.7217430  10.7921662  57.2494378
  30.1955044   9.4959710  57.8280824  33.2910630  -2.9858297  69.8267264
  32.5143964  -2.4264377  69.8170129  33.9301193  -2.5001514  70.3482134
  41.0831411  -6.2031504  63.6610241  40.4405791  -5.9098971  63.0150035
  40.5786339  -6.3178584  64.4663437  38.7371574  -2.4568331  54.3496100
  39.6489431  -2.2240945  54.1743798  38.2281221  -1.8731287  53.7871179
  31.5457002  -0.1772844  69.3885231  32.2871687   0.3612200  69.1120055
  30.8393988   0.4493445  69.5456783  37.0212342   1.9656297  67.9857393
  37.4295698   1.5238707  67.2412025  36.2989604   1.3908924  68.2391586
  33.3743412  -3.0971097  65.3590950  34.2204607  -2.6731683  65.5025599
  33.3142050  -3.7537472  66.0529513  37.3441157   2.5257487  61.7409681
  36.7150019   2.6903201  61.0385749  36.9566819   2.9399097  62.5120646
  41.2230389   3.4611925  59.0954045  40.5381427   3.8410826  58.5451079
  41.3074238   4.0707252  59.8285993  36.5242857  -5.4366728  67.0172123
  36.2803789  -4.6824668  66.4806399  36.8002788  -5.0581381  67.8519370
  38.4781320   1.1071884  65.6949389  38.6898215   1.7503644  65.0183770
  38.4311068   0.2734201  65.2271319  36.0807549  -6.2810295  62.5985961
  35.2192028  -5.9829042  62.8902698  36.1069984  -6.0639896  61.6666994
  32.8969119   2.2631895  59.0059767  33.3607464   2.5419598  58.2164389
  32.6325917   1.3615340  58.8232857  29.7893200   1.8103377  61.9439530
  30.3594557   2.2390645  61.3057014  30.3801311   1.5285961  62.6423716
  31.8338005  -1.6144952  55.8149332  32.5362048  -1.1623909  56.2823258
  31.5018633  -2.2561134  56.4429225  39.5927148   3.9843839  63.8671746
  40.4144592   3.5824027  63.5854428  39.5889551   3.8812074  64.8187862
  33.3583752   3.5327883  66.0232457  33.4228184   3.9948290  66.8590628
  32.6494675   2.9025248  66.1514766  47.6833141   0.3282588  60.2156718
  46.9296850  -0.2410014  60.0600722  47.8180682   0.2945252  61.1627352
  33.0731769   5.1995990  55.8911437  32.9377444   6.0447526  56.3196285
  33.6141582   5.4015268  55.1277371  26.5261167   2.7171428  56.4639362
  27.0385687   3.5114679  56.6144927  27.1783879   2.0197719  56.3972963
  28.3356051   5.8337185  58.5462115  28.5122680   6.7555149  58.3583099
  29.1312885   5.5195604  58.9756495  34.7000246   5.8219557  70.0211779
  34.2564100   5.0355935  69.7032684  35.3617459   6.0098707  69.3555670
  29.4587367   7.3515358  64.5472458  30.0094792   7.2232422  63.7749451
  28.6198843   7.6510247  64.1967350  36.7981484   6.1022357  68.0493180
  36.7799959   6.9231238  67.5573449  37.7201404   5.9776432  68.2743321
  33.2554538   3.6166486  68.8916689  33.7882875   2.8554774  68.6615997
  32.7268619   3.3240138  69.6340843  36.3874516  -1.2864837  52.9282766
  35.8721139  -0.5160232  53.1671153  36.1151824  -1.9599701  53.5515827
  41.3608790   1.4667518  54.8635939  40.5838232   1.1278677  54.4191101
  42.0400271   1.4720141  54.1890904  36.1760819  -3.4137745  54.7542547
  35.8710954  -3.0991596  55.6052690  37.1291261  -3.3356325  54.7969880
  34.6207251   2.7452479  56.4035501  34.0928612   2.0105238  56.0908738
  34.1194753   3.5227155  56.1575469  39.6000097   0.9401499  61.5202547
  38.9423771   1.6300761  61.6082676  40.4040496   1.3297931  61.8636533
  38.4105555  -0.7054128  59.5706489  38.9237437  -0.0724136  60.0728198
  39.0606779  -1.3052933  59.2049849  32.7659851   0.5632689  49.4070474
  31.8586912   0.3321942  49.6061623  33.2630883  -0.2329692  49.5944455
  35.6727930   9.2730196  52.3267160  34.9989628   9.5761893  52.9352118
  36.0593752  10.0759276  51.9772617  34.8886386  -3.2304673  61.8164829
  33.9708948  -3.0089726  61.6586517  35.3046530  -3.1558362  60.9576537
  35.6721434  -1.8313257  56.9467510  36.4193253  -1.3191860  56.6374632
  35.9413024  -2.1529204  57.8071903  33.9448084   0.6645284  53.9294464
  33.0359303   0.3804317  54.0266934  33.9743168   1.0844362  53.0697771
  39.1767352   4.2751873  57.6985631  38.7229679   3.4342783  57.7550822
  38.5461318   4.9113272  58.0360412  38.1200271  -4.7956141  58.9286299
  37.3823028  -5.3078755  59.2596541  38.3727045  -5.2355759  58.1169576
  37.6200291   6.1128370  58.6335450  37.9123265   6.6733427  57.9147815
  38.1298911   6.4056931  59.3888609  32.4932978  -1.7226096  60.0304259
  32.5481588  -2.6752259  59.9546736  31.6824180  -1.5666657  60.5145558
  33.6424172   2.2054027  51.2682542  33.2043602   1.4889886  50.8088180
  34.3834613   2.4330142  50.7067634  32.5833916   6.8908721  59.7228903
  32.5410095   7.1169567  58.7937435  33.4996615   6.6572096  59.8714704
  36.0299550  -2.6407211  66.6209532  36.3848938  -2.4135738  67.4803998
  36.6771681  -2.3088835  65.9986787  41.7597287   0.4811224  57.3258861
  41.6215185   0.6712820  56.3980050  41.4033506   1.2430607  57.7826912
  41.7866666   2.5487751  62.3370132  42.2203173   2.4563041  63.1853186
  42.4998247   2.5245252  61.6990148  30.6999717   3.7671750  59.5190865
  31.4940315   3.2722070  59.3173440  29.9891409   3.2389613  59.1558571
  35.5194561   6.1489846  63.8703233  35.5731584   6.7180782  64.6380949
  34.6509343   6.3191731  63.5057270  42.6482216   2.5911452  64.8703018
  42.8418106   3.4957263  65.1162293  42.5482834   2.1318871  65.7041603
  37.7097325   2.7418195  70.4443898  37.5582831   2.5128747  69.5273982
  37.7002004   3.6988796  70.4575243  34.4782661   0.3150108  65.4290165
  35.4074721   0.4661267  65.2559132  34.0573691   0.4034128  64.5738811
  33.2770993   4.3400772  63.1988703  33.1382078   3.9719556  64.0714641
  32.4885589   4.8548411  63.0272660  33.8719145   9.4409869  54.5414239
  34.0470900   8.9697912  55.3559862  33.1851933  10.0675635  54.7695500
  34.8276208   3.7182375  60.5877540  34.4926041   3.6783145  61.4835190
  34.3280154   3.0527091  60.1147951  28.8020452  -0.8749995  66.1130121
  28.6640250  -1.6069756  66.7141661  29.7125375  -0.9641095  65.8314309
  37.7635400   1.0638409  50.8614600  37.1464570   0.3385237  50.7647653
  37.2951888   1.8247769  50.5181674  31.4302753  -1.1630036  65.6013801
  32.1402371  -1.8036844  65.5600420  31.3872061  -0.9117141  66.5239982
  39.4189531   5.7737317  68.5220380  39.3602077   5.0896538  67.8550963
  39.8209050   6.5156307  68.0701006  28.4380230  12.5899231  61.3154099
  28.6776828  13.2217755  61.9933118  27.5949427  12.2387271  61.6019458
  39.4206939   3.7376901  66.7534360  38.5333717   3.4002823  66.8760759
  39.9905490   3.0059933  66.9903125  32.9508092   8.3978354  63.7195603
  32.8778263   9.2033325  64.2314908  32.5085485   8.5970320  62.8943625
  32.7397872   7.6350124  57.2298425  31.9565393   8.1771804  57.3236649
  33.4390617   8.1524103  57.6292666  43.9024279  -0.8514881  61.5150922
  43.8914155   0.0309834  61.1444855  43.0341658  -1.2043330  61.3205459
  35.4106775   8.2965188  65.8753762  36.1234748   8.9312653  65.8029663
  34.9196804   8.3929054  65.0593764  37.1324302   2.2016440  57.4471054
  36.1980581   2.3217903  57.2775758  37.3100971   1.2988907  57.1831063
  40.5196854  -1.9566240  57.9821088  40.9857306  -1.1238249  57.9081390
  40.9704354  -2.4221259  58.6866346  30.4618689   6.0459631  66.6959333
  31.1628148   6.6796114  66.8488727  29.9913804   6.3874363  65.9354972
  38.5873085   4.3877581  54.9807240  38.8632929   4.2734176  55.8901114
  37.7177584   3.9895066  54.9419413  38.2619975  -1.3995761  64.5211883
  37.6091425  -1.1519854  63.8664336  38.6400355  -2.2131623  64.1874360
  35.2227149   8.6363932  58.6240053  35.4049543   7.8185588  59.0867806
  36.0460135   8.8531624  58.1864943  35.5569314   7.5632117  55.8855102
  36.0857081   7.0524572  55.2725264  35.8197534   7.2474647  56.7500635
  34.3107548  -0.6575950  71.0077920  33.6348185  -0.7581821  71.6780295
  35.1335182  -0.8136737  71.4713917  26.0586407   5.5795986  63.6290435
  26.6439844   4.8339674  63.7618340  25.8611245   5.8899943  64.5127099
  28.9125062   8.6147234  58.6452878  28.2435438   9.0993361  58.1616918
  28.7737932   8.8616454  59.5596256  33.0530331  10.6490977  65.2435536
  33.6048639  10.8122599  66.0084621  33.3936524  11.2395415  64.5715561
  37.9041205   5.4752235  71.0984191  38.4481109   6.0882193  70.6039145
  37.3228050   6.0331813  71.6151204  36.1898718   8.5972953  62.2299218
  36.0649858   7.7962693  61.7210164  36.8477809   9.0919146  61.7413188
  38.2533627   6.3981973  63.8578768  37.3063962   6.2787324  63.7857095
  38.6016400   5.5104471  63.9405030  35.2580060   6.1934689  60.0583121
  35.1105022   5.2651396  60.2390691  36.0833553   6.2154780  59.5740196
  38.8614182   7.0163248  61.1447993  39.7860729   6.8106109  61.0072444
  38.6929485   6.7679649  62.0537335  38.6509498   7.5348915  56.5010085
  38.8246375   6.9695338  55.7483937  39.1438389   8.3349810  56.3189575
  44.5048889   0.2985338  58.1200385  44.9480035  -0.4507337  57.7219508
  43.6275399   0.2895474  57.7374117  39.6384670   6.8515680  53.6006983
  40.3335575   7.4722372  53.8194298  39.9807820   6.0011031  53.8759361
  41.5376093   4.3015385  55.1294314  42.0627418   4.6402658  54.4043634
  41.4498446   3.3662400  54.9457448  33.1996142   8.2149459  67.2584190
  33.5083269   7.9698606  68.1306890  33.9971624   8.4196097  66.7703061
  33.2216754  10.3687368  59.4889567  32.7821745   9.8763747  60.1822424
  33.9724871   9.8260336  59.2481642  25.7009093   6.5598909  59.4914195
  26.5267113   6.2602681  59.1112839  25.3503145   5.7906532  59.9403984
  30.6690626   5.9125377  61.5611869  30.0470636   5.2496082  61.2614097
  31.3395493   5.9386509  60.8785516  23.9017698   4.4785236  60.4503129
  23.0649607   4.0507410  60.2687130  23.8741344   4.6717679  61.3873920
  41.2270000   4.9348289  70.4345512  40.4365543   4.9172428  69.8950011
  40.9903354   5.4736582  71.1894548  41.3467875   1.7840755  67.7478240
  41.3965880   1.6190763  68.6893763  41.2381798   0.9168014  67.3576121
  30.2304133   4.4629301  55.0370329  30.3792254   5.1464765  54.3837002
  31.0370577   4.4434391  55.5519785  38.6371637  -2.2328317  69.0637547
  39.5381500  -2.3721852  68.7721545  38.7119611  -2.0673862  70.0035724
  42.8486071   4.2037697  67.9920262  42.5570880   4.5667677  68.8283723
  42.2358203   3.4904705  67.8133594  44.0481754   1.7690576  60.5122832
  44.8828645   2.2080380  60.6760392  44.1840883   1.2929230  59.6931078
  41.0973260  -0.6729689  66.4600320  41.5727381  -0.4802042  65.6519171
  40.1738825  -0.6170503  66.2143704  27.9856766   0.4894478  56.0431398
  27.7402808  -0.4143192  56.2411608  28.1552681   0.4911629  55.1010876
  33.7299539   6.9577431  52.5082077  33.1573506   7.5767618  52.0552549
  34.3032332   7.5076793  53.0421999  39.7974929  -3.7963929  64.6928625
  40.7492352  -3.6965831  64.7140850  39.6278379  -4.5885660  65.2026710
  37.8189308  -6.7108345  64.8788026  37.2239240  -6.4303333  64.1834515
  37.5339005  -6.2214445  65.6504767  36.9496799   7.2414581  53.6390659
  37.8827472   7.1760143  53.8423534  36.8620011   8.0770848  53.1805192
  39.5784815   6.5580452  50.5994607  39.4998447   6.2240315  51.4930364
  40.3994482   7.0502220  50.5986079  42.2763006  -0.5757809  63.8070925
  42.2439327  -1.5141808  63.9930609  42.8863630  -0.4973772  63.0736750
  34.1146337  -1.7061756  49.8498129  35.0605442  -1.8355548  49.9186547
  33.7360582  -2.4447094  50.3267557  42.4257495  -3.7846766  63.8529208
  41.9096544  -4.5688309  63.6659137  43.3097443  -4.1128049  64.0175728
  48.0939556   0.4858198  62.9476962  48.8242945   0.2243486  63.5084665
  47.4846502  -0.2513080  62.9879030  46.1754853  -1.3733940  63.5451413
  45.4488017  -1.5077975  62.9367905  45.7602140  -1.0657111  64.3508131
  33.9985030   2.3455990  71.3098786  34.9188039   2.5234589  71.5038833
  33.9634613   1.4012036  71.1578485  26.9947102   0.2557025  63.9521567
  27.2133112   1.1874133  63.9709601  27.4072876  -0.1035001  64.7376371
  39.2220676  -8.0496318  57.0700217  38.6419345  -7.3911514  56.6878269
  38.9556608  -8.8718973  56.6587634  31.7306238  -0.7412631  72.1589378
  31.2473319   0.0587730  72.3653267  31.8167177  -0.7304686  71.2056822
  24.9992197   1.0915749  60.0811197  24.9762885   1.1903436  59.1293080
  25.3092834   1.9380900  60.4028363  27.6579575   3.1491904  64.1957812
  28.6122829   3.1175846  64.1287743  27.4592099   2.6882528  65.0108038
  28.2478957   1.7193020  66.7628609  29.0671846   2.2137099  66.7863447
  28.5215765   0.8024988  66.7346177  38.0045554  -5.8896228  56.1256565
  37.1171409  -5.6046577  55.9076760  38.4199543  -6.0502464  55.2783842
  41.3560090  -5.8649707  59.8410904  42.1320480  -5.3753254  60.1135521
  40.6308224  -5.4391652  60.2982774  43.7932648  -5.1522087  60.8984845
  44.3877139  -5.3926351  60.1878153  43.8659232  -5.8714957  61.5258381
  26.0129804   8.6911524  61.2128010  25.8784272   7.9311924  60.6466008
  25.5961866   9.4152423  60.7456798  37.1488767   3.8748447  50.2204585
  37.8524617   4.0798450  50.8362240  36.4251416   4.4425209  50.4853668
  37.9786577  -0.3741692  56.3406855  37.9221779   0.0826860  55.5014487
  38.5314920  -1.1351007  56.1629698  41.7891383  -4.5851960  57.1656975
  41.5328317  -4.9855324  57.9965182  41.1644251  -3.8708166  57.0407114
  46.1003721  -1.8455886  59.6728266  45.5403279  -1.7762697  60.4459828
  45.4947224  -2.0214902  58.9527762  29.1698930   9.5880841  61.4246452
  29.0531314  10.5326273  61.3225142  28.3491376   9.2854402  61.8132251
  39.0575464   4.3130976  52.2703045  39.8921068   3.8812175  52.0880520
  38.8959807   4.1412990  53.1979939  38.7121357   0.8163090  53.6359384
  38.6570160   0.6507361  52.6947828  38.0867412   1.5239123  53.7921574
  36.0267264   3.1212002  72.9612947  36.8958423   3.2952654  72.5999582
  35.5474015   3.9406418  72.8388676  30.1953444  10.2409103  64.6402381
  31.0980691  10.2732713  64.9568876  29.9690814   9.3109553  64.6548716
  31.9507046   8.9940089  61.3012459  31.0002677   8.9941951  61.1876832
  32.2539532   8.2472824  60.7848494  47.6859740  14.8300627  62.3658222
  48.3238149  14.7107375  61.6621562  47.5680582  15.7781471  62.4246174
  44.4949446  14.7828056  62.3019746  44.1567957  14.6669120  61.4140281
  45.3639214  14.3819221  62.2820752  40.3536262  16.6363532  58.2916637
  39.7901127  16.5453469  57.5232925  40.2388657  15.8163436  58.7719130
  44.9769229  15.9362907  68.2605952  44.9657870  15.5415706  67.3886456
  45.1389868  15.2028980  68.8539723  37.9000693  18.1314724  61.1300858
  38.6921985  17.7905548  60.7147157  38.1397344  18.2409699  62.0503011
  45.9335820  20.3034500  53.6031102  45.2823800  20.8888580  53.2165116
  46.7280183  20.8340695  53.6626140  39.8591447  17.3923637  54.0018237
  40.6322323  16.8452624  53.8631112  40.2116846  18.2567886  54.2132698
  41.6976490  18.7200019  67.2085136  41.4066356  19.6245650  67.0931802
  42.3333474  18.7616547  67.9229205  42.6232697  16.0976868  63.7986495
  43.2196269  15.8732890  63.0843458  42.6807668  15.3561613  64.4011943
  42.1957725  13.5516303  51.6336686  42.4483246  13.0297824  50.8720149
  41.2582284  13.3882448  51.7363370  47.2401008  12.5552081  59.4411430
  48.0264097  12.1371504  59.0901847  47.5039712  13.4598173  59.6093078
  47.4111085  17.9924932  54.1400086  46.7756918  18.0659558  54.8520991
  47.0808492  18.5818530  53.4619166  52.6409435  12.4927315  60.3444408
  53.3734607  11.9226531  60.5782238  51.8848791  12.1048915  60.7850914
  41.9154014  15.4544409  53.8361061  41.7990272  14.7789312  54.5042146
  42.0256274  14.9676783  53.0193214  44.2585555  14.9154556  57.5407751
  43.8943762  14.3885177  58.2520672  45.1152671  14.5253025  57.3674236
  50.1634855   6.2048889  64.8039017  49.8318180   7.0744300  64.5800232
  49.5680469   5.8885173  65.4833047  43.8991042   9.9444456  52.5369099
  44.0665444  10.8124692  52.9039570  43.7088211  10.1071737  51.6130388
  46.6566375  18.4061435  64.2034930  46.3567098  19.3086473  64.0950737
  46.3117435  18.1393618  65.0556082  40.1078857  14.8575231  60.2371634
  39.1829353  14.7251446  60.4449326  40.3563270  15.6369451  60.7341576
  50.0563519  10.9243975  61.8832367  49.1480396  10.8559383  61.5891128
  50.0051115  11.4015920  62.7114192  43.8780263  12.4002113  53.5215766
  43.7579888  12.8459164  54.3601246  43.1832851  12.7487431  52.9629304
  37.4687668  14.5008505  61.0715423  37.5980049  14.7542984  61.9854835
  36.7885119  15.0936213  60.7520078  41.6387155  25.1705755  57.1705897
  41.5611185  26.1213580  57.2494378  41.0348798  24.8251627  57.8280824
  44.1304385  12.3433620  69.8267264  43.3537719  12.9027541  69.8170129
  44.7694948  12.8290403  70.3482134  51.9225165   9.1260413  63.6610241
  51.2799545   9.4192946  63.0150035  51.4180094   9.0113334  64.4663437
  49.5765329  12.8723586  54.3496100  50.4883185  13.1050973  54.1743798
  49.0674976  13.4560631  53.7871179  42.3850757  15.1519074  69.3885231
  43.1265441  15.6904118  69.1120055  41.6787742  15.7785362  69.5456783
  47.8606097  17.2948214  67.9857393  48.2689453  16.8530625  67.2412025
  47.1383358  16.7200842  68.2391586  44.2137167  12.2320821  65.3590950
  45.0598362  12.6560235  65.5025599  44.1535804  11.5754445  66.0529513
  48.1834911  17.8549405  61.7409681  47.5543774  18.0195119  61.0385749
  47.7960573  18.2691014  62.5120646  52.0624143  18.7903843  59.0954045
  51.3775181  19.1702744  58.5451079  52.1467992  19.3999169  59.8285993
  47.3636612   9.8925189  67.0172123  47.1197544  10.6467250  66.4806399
  47.6396542  10.2710537  67.8519370  49.3175075  16.4363802  65.6949389
  49.5291970  17.0795562  65.0183770  49.2704823  15.6026118  65.2271319
  46.9201304   9.0481622  62.5985961  46.0585783   9.3462876  62.8902698
  46.9463738   9.2652021  61.6666994  43.7362873  17.5923813  59.0059767
  44.2001219  17.8711516  58.2164389  43.4719671  16.6907257  58.8232857
  40.6286954  17.1395294  61.9439530  41.1988311  17.5682563  61.3057014
  41.2195066  16.8577879  62.6423716  42.6731759  13.7146965  55.8149332
  43.3755802  14.1668009  56.2823258  42.3412388  13.0730784  56.4429225
  41.1212121  12.3058722  70.1900541  40.4910781  12.9875003  70.4235938
  41.0148209  12.1941804  69.2453679  36.4157093  11.9730518  61.1166465
  35.6256147  12.2288046  60.6406576  36.9068340  12.7878856  61.2218506
  50.4320903  19.3135757  63.8671746  51.2538346  18.9115944  63.5854428
  50.4283306  19.2103991  64.8187862  38.3671838  12.3375097  58.0749942
  37.5703002  12.4493791  58.5933438  38.1397431  12.6761749  57.2090833
  44.1977506  18.8619800  66.0232457  44.2621939  19.3240208  66.8590628
  43.4888430  18.2317165  66.1514766  34.6994796  12.2261008  63.5481456
  34.9502834  13.1108018  63.8139032  35.2354344  12.0465610  62.7756548
  58.5226896  15.6574506  60.2156718  57.7690604  15.0881904  60.0600722
  58.6574437  15.6237170  61.1627352  43.9125524  20.5287908  55.8911437
  43.7771199  21.3739444  56.3196285  44.4535336  20.7307186  55.1277371
  40.3992863   6.6079488  72.5525792  40.0059809   6.0545686  73.2273436
  41.2159004   6.9190066  72.9432310  37.3654921  18.0463346  56.4639362
  37.8779442  18.8406596  56.6144927  38.0177634  17.3489636  56.3972963
  39.1749806  21.1629102  58.5462115  39.3516434  22.0847067  58.3583099
  39.9706639  20.8487521  58.9756495  43.3160824   8.0237367  70.1446049
  44.0570538   8.6244520  70.0650511  43.5478747   7.2815005  69.5864091
  38.4602162  13.2093734  68.4224278  38.3455678  12.3078991  68.7231377
  37.6046680  13.4557431  68.0709095  45.5394000  21.1511474  70.0211779
  45.0957854  20.3647853  69.7032684  46.2011214  21.3390625  69.3555670
  40.2981121  22.6807276  64.5472458  40.8488546  22.5524339  63.7749451
  39.4592597  22.9802165  64.1967350  47.6375238  21.4314274  68.0493180
  47.6193714  22.2523155  67.5573449  48.5595158  21.3068350  68.2743321
  44.0948292  18.9458404  68.8916689  44.6276629  18.1846692  68.6615997
  43.5662373  18.6532056  69.6340843  47.2617987   4.0518470  64.4210330
  46.9182257   4.9420111  64.3449441  47.6296950   3.8620127  63.5579915
  35.3303838  16.3752000  57.2398933  36.1679060  16.7849009  57.0232640
  35.5082106  15.4351442  57.2099126  47.2268270  14.0427081  52.9282766
  46.7114893  14.8131686  53.1671153  46.9545578  13.3692217  53.5515827
  44.8115381   8.8876782  57.9868004  43.9556977   8.4983632  57.8073643
  45.2242333   8.9668742  57.1267789  46.3414528   6.4223125  62.3859564
  45.8379323   6.3853260  61.5727369  46.6345135   7.3315868  62.4456220
  42.5857414   6.5061855  61.3925745  43.4510410   6.3104663  61.0331635
  42.6534922   6.2772206  62.3195102  52.2002544  16.7959436  54.8635939
  51.4231987  16.4570595  54.4191101  52.8794025  16.8012059  54.1890904
  47.0154573  11.9154173  54.7542547  46.7104709  12.2300322  55.6052690
  47.9685015  11.9935593  54.7969880  45.4601005  18.0744396  56.4035501
  44.9322367  17.3397156  56.0908738  44.9588508  18.8519073  56.1575469
  50.4393851  16.2693417  61.5202547  49.7817526  16.9592678  61.6082676
  51.2434250  16.6589849  61.8636533  40.1919733   8.7364063  58.7642112
  40.7663485   8.5139244  58.0315305  40.7790715   8.8052757  59.5170714
  49.2499310  14.6237789  59.5706489  49.7631192  15.2567781  60.0728198
  49.9000534  14.0238985  59.2049849  40.5189320  10.7668524  52.7837997
  39.6826632  11.1043210  53.1047272  40.3794089  10.6317503  51.8465134
  42.4942400   5.6105311  57.4917182  41.8406813   5.2954329  56.8673796
  42.4522875   4.9881052  58.2177005  43.6053605  15.8924607  49.4070474
  42.6980667  15.6613860  49.6061623  44.1024637  15.0962226  49.5944455
  46.5121684  24.6022114  52.3267160  45.8383383  24.9053811  52.9352118
  46.8987506  25.4051194  51.9772617  45.7280141  12.0987245  61.8164829
  44.8102702  12.3202192  61.6586517  46.1440284  12.1733556  60.9576537
  46.5115188  13.4978661  56.9467510  47.2587007  14.0100058  56.6374632
  46.7806778  13.1762713  57.8071903  44.7841839  15.9937201  53.9294464
  43.8753058  15.7096234  54.0266934  44.8136922  16.4136280  53.0697771
  50.0161106  19.6043791  57.6985631  49.5623433  18.7634701  57.7550822
  49.3855073  20.2405189  58.0360412  48.9594026  10.5335777  58.9286299
  48.2216782  10.0213163  59.2596541  49.2120799  10.0936159  58.1169576
  48.4594045  21.4420288  58.6335450  48.7517020  22.0025345  57.9147815
  48.9692666  21.7348849  59.3888609  49.0605653   3.3112029  59.5228068
  49.3664530   2.4509392  59.2353983  49.7858258   3.9029649  59.3227062
  35.3530009  13.7142716  57.9109666  35.1554409  13.1212076  57.1860733
  34.7976673  13.4094926  58.6285605  43.3326733  13.6065822  60.0304259
  43.3875342  12.6539658  59.9546736  42.5217935  13.7625261  60.5145558
  44.4817926  17.5345945  51.2682542  44.0437356  16.8181804  50.8088180
  45.2228367  17.7622060  50.7067634  41.2719093  12.2242882  57.7894638
  40.4586958  12.5237052  58.1959830  41.7678087  11.8298571  58.5069120
  43.4227671  22.2200639  59.7228903  43.3803849  22.4461485  58.7937435
  44.3390369  21.9864013  59.8714704  46.8693304  12.6884706  66.6209532
  47.2242692  12.9156179  67.4803998  47.5165436  13.0203083  65.9986787
  52.5991041  15.8103142  57.3258861  52.4608940  16.0004738  56.3980050
  52.2427260  16.5722525  57.7826912  40.7633167   9.7961237  63.4055873
  41.4032547   9.6549996  62.7078836  39.9310698   9.5095751  63.0294475
  52.6260421  17.8779669  62.3370132  53.0596928  17.7854958  63.1853186
  53.3392002  17.8537170  61.6990148  41.5393471  19.0963668  59.5190865
  42.3334070  18.6013988  59.3173440  40.8285164  18.5681531  59.1558571
  46.3588316  21.4781763  63.8703233  46.4125338  22.0472700  64.6380949
  45.4903097  21.6483648  63.5057270  37.8476235  13.2406749  55.5950618
  36.9173823  13.1791205  55.8120580  37.9433707  12.7182702  54.7987259
  37.7661784   9.7661562  58.1828860  38.0268601  10.6806896  58.0738020
  38.5878956   9.2986005  58.3325473  39.2386709  11.1799319  65.3527684
  39.9109763  10.9716682  64.7040333  38.4116496  10.9821405  64.9132917
  53.4875970  17.9203370  64.8703018  53.6811861  18.8249180  65.1162293
  53.3876589  17.4610789  65.7041603  45.1412281   7.8061260  67.3693345
  44.4940196   8.5051210  67.2757822  45.9113297   8.2397404  67.7369593
  48.5491079  18.0710113  70.4443898  48.3976586  17.8420664  69.5273982
  48.5395759  19.0280714  70.4575243  45.3176416  15.6442025  65.4290165
  46.2468476  15.7953185  65.2559132  44.8967446  15.7326046  64.5738811
  44.1164747  19.6692690  63.1988703  43.9775833  19.3011474  64.0714641
  43.3279344  20.1840329  63.0272660  44.7112899  24.7701786  54.5414239
  44.8864655  24.2989829  55.3559862  44.0245687  25.3967552  54.7695500
  45.6669962  19.0474292  60.5877540  45.3319795  19.0075062  61.4835190
  45.1673908  18.3819008  60.1147951  39.6414206  14.4541922  66.1130121
  39.5034004  13.7222161  66.7141661  40.5519130  14.3650823  65.8314309
  48.6029154  16.3930327  50.8614600  47.9858325  15.6677155  50.7647653
  48.1345643  17.1539687  50.5181674  42.2696507  14.1661882  65.6013801
  42.9796126  13.5255074  65.5600420  42.2265815  14.4174777  66.5239982
  50.2583286  21.1029235  68.5220380  50.1995832  20.4188455  67.8550963
  50.6602804  21.8448225  68.0701006  40.9825441  11.1527100  67.4209441
  40.4462798  10.7017838  68.0731037  40.3942149  11.2873008  66.6779905
  39.2773985  27.9191149  61.3154099  39.5170583  28.5509673  61.9933118
  38.4343181  27.5679189  61.6019458  40.3927700  10.6115751  49.9835904
  39.5157166  10.4904552  49.6198151  40.8685453   9.8201829  49.7314793
  50.2600693  19.0668819  66.7534360  49.3727472  18.7294741  66.8760759
  50.8299244  18.3351850  66.9903125  31.9129840  15.3992911  60.0777411
  32.6000880  15.0854641  59.4898427  31.7577969  16.3034275  59.8044663
  36.7164562  10.2883107  64.5062435  36.6322751   9.6808777  63.7712845
  35.8947269  10.7792126  64.5071931  43.7901846  23.7270271  63.7195603
  43.7172018  24.5325243  64.2314908  43.3479240  23.9262237  62.8943625
  43.5791626  22.9642041  57.2298425  42.7959148  23.5063722  57.3236649
  44.2784371  23.4816021  57.6292666  46.8888276   8.7736671  59.8732630
  47.3856976   8.0206633  59.5533700  46.1175258   8.8100988  59.3075839
  54.7418034  14.4777036  61.5150922  54.7307910  15.3601752  61.1444855
  53.8735413  14.1248587  61.3205459  46.2500530  23.6257105  65.8753762
  46.9628502  24.2604570  65.8029663  45.7590559  23.7220971  65.0593764
  47.9718057  17.5308358  57.4471054  47.0374336  17.6509821  57.2775758
  48.1494725  16.6280825  57.1831063  43.4723245  10.9154054  59.6004315
  43.1021032  10.3625094  60.2885220  43.9682337  10.3112187  59.0479315
  51.3590608  13.3725677  57.9821088  51.8251060  14.2053669  57.9081390
  51.8098109  12.9070659  58.6866346  41.3012443  21.3751549  66.6959333
  42.0021903  22.0088032  66.8488727  40.8307558  21.7166280  65.9354972
  49.4266839  19.7169499  54.9807240  49.7026683  19.6026093  55.8901114
  48.5571338  19.3186984  54.9419413  49.3307271   5.7406264  62.0211989
  48.4170351   5.9710491  62.1894196  49.7600372   5.8244708  62.8726021
  49.1013729  13.9296156  64.5211883  48.4485180  14.1772064  63.8664336
  49.4794109  13.1160295  64.1874360  46.0620903  23.9655850  58.6240053
  46.2443298  23.1477505  59.0867806  46.8853889  24.1823542  58.1864943
  46.3963069  22.8924035  55.8855102  46.9250835  22.3816489  55.2725264
  46.6591288  22.5766565  56.7500635  45.1501302  14.6715967  71.0077920
  44.4741939  14.5710097  71.6780295  45.9728936  14.5155181  71.4713917
  36.8980162  20.9087904  63.6290435  37.4833598  20.1631592  63.7618340
  36.7005000  21.2191861  64.5127099  39.7518817  23.9439151  58.6452878
  39.0829192  24.4285279  58.1616918  39.6131686  24.1908372  59.5596256
  31.4897816  13.4793504  62.3494879  31.5281916  12.9457095  63.1431997
  30.9838109  12.9528710  61.7305856  43.8924085  25.9782895  65.2435536
  44.4442393  26.1414516  66.0084621  44.2330279  26.5687333  64.5715561
  38.8688579   8.3258045  65.8457421  38.9329905   9.1872876  65.4334819
  38.8055699   7.7132046  65.1129779  38.3440851  10.3981177  69.4930455
  38.9712890  10.0158255  70.1067979  37.4868770  10.1795379  69.8586148
  48.7434960  20.8044152  71.0984191  49.2874864  21.4174111  70.6039145
  48.1621805  21.3623731  71.6151204  35.1206394  12.2057606  55.4248810
  35.4159835  11.2968285  55.3715864  34.2194430  12.1845346  55.1029812
  47.0292473  23.9264870  62.2299218  46.9043612  23.1254610  61.7210164
  47.6871564  24.4211064  61.7413188  38.6500641  10.2813603  61.4076359
  37.9287227  10.8949571  61.2683832  39.4393897  10.8171368  61.3293004
  49.0927381  21.7273890  63.8578768  48.1457717  21.6079242  63.7857095
  49.4410154  20.8396388  63.9405030  41.4526954   7.6168029  67.6817010
  41.9761356   7.8630326  68.4443320  41.2339288   8.4488064  67.2620148
  36.8494235   9.8871704  55.5488135  36.5206942   9.0069083  55.3663241
  37.2033606   9.8319373  56.4364524  46.0973814  21.5226607  60.0583121
  45.9498777  20.5943314  60.2390691  46.9227308  21.5446697  59.5740196
  39.9636059  10.1744674  55.9163613  40.3032131  10.7030595  55.1942221
  40.4108179  10.5125080  56.6922179  49.7007936  22.3455165  61.1447993
  50.6254484  22.1398027  61.0072444  49.5323240  22.0971567  62.0537335
  42.6579499   8.5581724  65.3666681  42.3176320   7.7589538  65.7687361
  41.9518506   8.8583435  64.7943514  43.3095971   5.6431037  63.8194004
  44.1322041   5.1691515  63.6972894  43.5534035   6.4221521  64.3192690
  41.9504206   8.6719295  54.1156906  42.6712568   9.0500548  53.6120622
  41.3269510   9.3908172  54.2191883  46.0935329   9.3764444  55.0515238
  46.3098943  10.2589082  54.7504066  45.6129396   8.9850658  54.3220880
  40.8334550  12.3350158  61.6285982  40.6879131  12.6490461  62.5210264
  40.3559754  12.9535058  61.0756881  42.6930933   9.3252706  61.6766872
  42.6792502   8.4293799  61.3399170  43.4103361   9.3323369  62.3105158
  44.5457064   9.7590046  63.7219999  44.2874841  10.6807116  63.7204330
  44.0142104   9.3620480  64.4120464  49.4903252  22.8640833  56.5010085
  49.6640130  22.2987255  55.7483937  49.9832144  23.6641728  56.3189575
  35.3080212  14.8755502  64.5673644  34.7633680  15.6515310  64.6993918
  36.1859562  15.2226306  64.4092765  42.0967829   8.2067086  56.9454442
  42.2183740   7.2783732  57.1445330  41.8069871   8.2205772  56.0332758
  44.9659019   5.8921996  60.0821162  44.9880716   5.9561329  59.1273142
  45.3827078   5.0526505  60.2761668  55.3442644  15.6277256  58.1200385
  55.7873790  14.8784581  57.7219508  54.4669154  15.6187392  57.7374117
  50.4778425  22.1807597  53.6006983  51.1729329  22.8014290  53.8194298
  50.8201575  21.3302948  53.8759361  36.0946234  14.0025398  67.4603800
  35.3527970  14.1508034  68.0468431  35.7738978  14.2633664  66.5970550
  52.3769848  19.6307303  55.1294314  52.9021172  19.9694576  54.4043634
  52.2892201  18.6954318  54.9457448  44.0389897  23.5441376  67.2584190
  44.3477023  23.2990523  68.1306890  44.8365379  23.7488015  66.7703061
  44.0610509  25.6979286  59.4889567  43.6215499  25.2055665  60.1822424
  44.8118626  25.1552254  59.2481642  36.5402848  21.8890827  59.4914195
  37.3660868  21.5894599  59.1112839  36.1896900  21.1198449  59.9403984
  41.5084381  21.2417295  61.5611869  40.8864390  20.5788000  61.2614097
  42.1789248  21.2678427  60.8785516  34.7411453  19.8077153  60.4503129
  33.9043361  19.3799328  60.2687130  34.7135098  20.0009597  61.3873920
  41.5808908   9.7199083  71.1544375  41.6297064  10.5961206  70.7722144
  42.1231423   9.1776476  70.5816018  52.0663754  20.2640206  70.4345512
  51.2759298  20.2464345  69.8950011  51.8297109  20.8028500  71.1894548
  52.1861629  17.1132673  67.7478240  52.2359634  16.9482680  68.6893763
  52.0775552  16.2459932  67.3576121  41.0697888  19.7921219  55.0370329
  41.2186008  20.4756683  54.3837002  41.8764331  19.7726309  55.5519785
  49.4765391  13.0963601  69.0637547  50.3775254  12.9570066  68.7721545
  49.5513366  13.2618056  70.0035724  43.8108197  10.4730456  67.9090733
  42.9411506  10.7664022  67.6373322  44.0467677  11.0570901  68.6297997
  53.6879826  19.5329614  67.9920262  53.3964634  19.8959595  68.8283723
  53.0751957  18.8196623  67.8133594  54.8875508  17.0982494  60.5122832
  55.7222400  17.5372298  60.6760392  55.0234637  16.6221147  59.6931078
  51.9367014  14.6562229  66.4600320  52.4121136  14.8489875  65.6519171
  51.0132580  14.7121415  66.2143704  38.8250521  15.8186396  56.0431398
  38.5796563  14.9148726  56.2411608  38.9946435  15.8203547  55.1010876
  46.5147231   6.6910073  65.4256154  47.0329174   7.4271099  65.1002642
  46.1602363   6.9974066  66.2602913  38.0946168  11.5514754  53.5417560
  37.4015413  11.6259109  52.8857596  37.8497920  10.7875097  54.0639077
  46.7659825   3.1110355  60.9457050  47.0461579   2.4433544  61.5717477
  47.5510432   3.3039451  60.4331714  44.5693293  22.2869349  52.5082077
  43.9967260  22.9059536  52.0552549  45.1426087  22.8368711  53.0421999
  50.6368683  11.5327989  64.6928625  51.5886106  11.6326087  64.7140850
  50.4672134  10.7406258  65.2026710  48.6583063   8.6183572  64.8788026
  48.0632995   8.8988585  64.1834515  48.3732759   9.1077473  65.6504767
  47.7890553  22.5706499  53.6390659  48.7221226  22.5052061  53.8423534
  47.7013766  23.4062766  53.1805192  50.4178570  21.8872369  50.5994607
  50.3392201  21.5532233  51.4930364  51.2388237  22.3794137  50.5986079
  53.1156761  14.7534109  63.8070925  53.0833081  13.8150109  63.9930609
  53.7257385  14.8318145  63.0736750  44.9540092  13.6230162  49.8498129
  45.8999197  13.4936370  49.9186547  44.5754337  12.8844824  50.3267557
  53.2651249  11.5445152  63.8529208  52.7490298  10.7603609  63.6659137
  54.1491198  11.2163869  64.0175728  50.9261976   5.2886168  59.8125021
  50.7286797   4.9801256  60.6968353  51.5361682   6.0147807  59.9422951
  58.9333311  15.8150116  62.9476962  59.6636699  15.5535404  63.5084665
  58.3240256  15.0778838  62.9879030  57.0148608  13.9557978  63.5451413
  56.2881771  13.8213943  62.9367905  56.5995895  14.2634807  64.3508131
  44.8378784  17.6747908  71.3098786  45.7581794  17.8526507  71.5038833
  44.8028367  16.7303953  71.1578485  43.1383009  11.5480138  49.7853014
  42.2314464  11.2513251  49.8615728  43.4158990  11.2509956  48.9187301
  34.0560949  12.8686501  60.2352061  33.7363734  12.0151810  59.9426435
  33.5094378  13.0835080  60.9910028  37.8340857  15.5848942  63.9521567
  38.0526867  16.5166050  63.9709601  38.2466631  15.2256917  64.7376371
  44.7545075   6.0917028  55.9397256  43.9445803   5.7464113  56.3152502
  45.4429492   5.7824572  56.5284867  46.6835623   5.1695075  57.5621552
  47.2366662   5.5890528  58.2211575  46.9205709   4.2430823  57.6044508
  42.7068722  11.1582148  73.3424316  42.6065449  12.1076505  73.2736407
  42.4890264  10.8300387  72.4700386  41.9081794   8.4067073  49.9264994
  42.7700958   8.7321972  50.1860811  42.0932138   7.6198569  49.4138059
  33.9249209  16.4889413  62.2045182  33.2312681  16.0743366  61.6915137
  34.6722200  16.5309949  61.6078601  50.0614430   7.2795600  57.0700217
  49.4813099   7.9380404  56.6878269  49.7950363   6.4572944  56.6587634
  48.5117996   6.6800657  59.2721537  49.0117775   6.7917192  58.4635856
  49.1553604   6.3761710  59.9122345  42.5699992  14.5879287  72.1589378
  42.0867074  15.3879647  72.3653267  42.6560931  14.5987232  71.2056822
  35.8385952  16.4207667  60.0811197  35.8156640  16.5195354  59.1293080
  36.1486588  17.2672818  60.4028363  38.4973330  18.4783822  64.1957812
  39.4516583  18.4467764  64.1287743  38.2985853  18.0174446  65.0108038
  39.0872712  17.0484938  66.7628609  39.9065601  17.5429017  66.7863447
  39.3609520  16.1316906  66.7346177  48.8439308   9.4395690  56.1256565
  47.9565163   9.7245341  55.9076760  49.2593297   9.2789454  55.2783842
  52.1953844   9.4642211  59.8410904  52.9714234   9.9538664  60.1135521
  51.4701978   9.8900265  60.2982774  54.6326403  10.1769830  60.8984845
  55.2270894   9.9365566  60.1878153  54.7052987   9.4576961  61.5258381
  36.8523559  24.0203441  61.2128010  36.7178026  23.2603842  60.6466008
  36.4355621  24.7444341  60.7456798  47.9882522  19.2040365  50.2204585
  48.6918372  19.4090367  50.8362240  47.2645170  19.7717127  50.4853668
  48.8180332  14.9550226  56.3406855  48.7615533  15.4118778  55.5014487
  49.3708674  14.1940911  56.1629698  52.6285138  10.7439958  57.1656975
  52.3722072  10.3436594  57.9965182  52.0038006  11.4583752  57.0407114
  56.9397476  13.4836031  59.6728266  56.3797034  13.5529221  60.4459828
  56.3340979  13.3077016  58.9527762  40.0092684  24.9172758  61.4246452
  39.8925069  25.8618191  61.3225142  39.1885131  24.6146320  61.8132251
  49.8969219  19.6422894  52.2703045  50.7314823  19.2104092  52.0880520
  49.7353562  19.4704908  53.1979939  49.5515111  16.1455007  53.6359384
  49.4963915  15.9799279  52.6947828  48.9261166  16.8531040  53.7921574
  34.3407626  11.3823072  67.4620806  34.9866490  10.8722026  67.9508032
  34.1324777  12.1191753  68.0364232  46.8661018  18.4503919  72.9612947
  47.7352178  18.6244571  72.5999582  46.3867770  19.2698336  72.8388676
  42.8611237   5.6463116  53.2144703  42.8489906   6.5904956  53.3712973
  43.7534658   5.4633262  52.9204164  41.0347199  25.5701020  64.6402381
  41.9374445  25.6024630  64.9568876  40.8084569  24.6401471  64.6548716
  42.7900801  24.3232007  61.3012459  41.8396432  24.3233868  61.1876832
  43.0933287  23.5764741  60.7848494  46.6763356   2.2405893  57.4690639
  45.9095752   1.6864380  57.6147322  47.0874061   2.3127762  58.3304791
  38.6805117   8.5290689  71.5595821  39.5436579   8.1727494  71.7699145
  38.1070528   8.1904584  72.2471225  58.5253494  30.1592545  62.3658222
  59.1631904  30.0399292  61.6621562  58.4074337  31.1073389  62.4246174
  55.3343200  30.1119973  62.3019746  54.9961712  29.9961038  61.4140281
  56.2032968  29.7111138  62.2820752  51.1930016  31.9655450  58.2916637
  50.6294881  31.8745387  57.5232925  51.0782411  31.1455354  58.7719130
  55.8162983  31.2654825  68.2605952  55.8051624  30.8707623  67.3886456
  55.9783623  30.5320898  68.8539723  56.7729575  35.6326417  53.6031102
  56.1217554  36.2180498  53.2165116  57.5673938  36.1632612  53.6626140
  52.5370244  34.0491937  67.2085136  52.2460110  34.9537568  67.0931802
  53.1727229  34.0908464  67.9229205  53.4626451  31.4268785  63.7986495
  54.0590024  31.2024808  63.0843458  53.5201423  30.6853531  64.4011943
  53.0351480  28.8808221  51.6336686  53.2877000  28.3589742  50.8720149
  52.0976039  28.7174366  51.7363370  58.0794763  27.8843999  59.4411430
  58.8657852  27.4663422  59.0901847  58.3433467  28.7890091  59.6093078
  58.2504840  33.3216849  54.1400086  57.6150673  33.3951476  54.8520991
  57.9202246  33.9110448  53.4619166  63.4803190  27.8219232  60.3444408
  64.2128362  27.2518449  60.5782238  62.7242545  27.4340833  60.7850914
  52.7547768  30.7836327  53.8361061  52.6384027  30.1081230  54.5042146
  52.8650028  30.2968701  53.0193214  55.0979309  30.2446474  57.5407751
  54.7337517  29.7177095  58.2520672  55.9546425  29.8544943  57.3674236
  61.0028610  21.5340806  64.8039017  60.6711935  22.4036217  64.5800232
  60.4074223  21.2177090  65.4833047  54.7384796  25.2736373  52.5369099
  54.9059199  26.1416610  52.9039570  54.5481965  25.4363655  51.6130388
  57.4960130  33.7353352  64.2034930  57.1960853  34.6378391  64.0950737
  57.1511189  33.4685535  65.0556082  50.9472611  30.1867149  60.2371634
  50.0223107  30.0543363  60.4449326  51.1957024  30.9661368  60.7341576
  60.8957273  26.2535892  61.8832367  59.9874151  26.1851301  61.5891128
  60.8444869  26.7307837  62.7114192  54.7174017  27.7294031  53.5215766
  54.5973642  28.1751082  54.3601246  54.0226606  28.0779349  52.9629304
  48.3081422  29.8300423  61.0715423  48.4373803  30.0834902  61.9854835
  47.6278873  30.4228131  60.7520078  54.9698139  27.6725538  69.8267264
  54.1931473  28.2319458  69.8170129  55.6088702  28.1582321  70.3482134
  62.7618920  24.4552331  63.6610241  62.1193300  24.7484864  63.0150035
  62.2573848  24.3405251  64.4663437  60.4159083  28.2015504  54.3496100
  61.3276939  28.4342891  54.1743798  59.9068730  28.7852548  53.7871179
  53.2244511  30.4810991  69.3885231  53.9659196  31.0196035  69.1120055
  52.5181497  31.1077280  69.5456783  58.6999851  32.6240132  67.9857393
  59.1083207  32.1822542  67.2412025  57.9777113  32.0492759  68.2391586
  55.0530921  27.5612739  65.3590950  55.8992116  27.9852152  65.5025599
  54.9929559  26.9046363  66.0529513  59.0228666  33.1841323  61.7409681
  58.3937528  33.3487037  61.0385749  58.6354328  33.5982932  62.5120646
  62.9017898  34.1195760  59.0954045  62.2168936  34.4994662  58.5451079
  62.9861747  34.7291087  59.8285993  58.2030366  25.2217107  67.0172123
  57.9591298  25.9759168  66.4806399  58.4790297  25.6002455  67.8519370
  60.1568829  31.7655719  65.6949389  60.3685724  32.4087479  65.0183770
  60.1098577  30.9318036  65.2271319  57.7595058  24.3773540  62.5985961
  56.8979537  24.6754794  62.8902698  57.7857493  24.5943939  61.6666994
  54.5756628  32.9215731  59.0059767  55.0394973  33.2003434  58.2164389
  54.3113426  32.0199175  58.8232857  53.5125514  29.0438883  55.8149332
  54.2149557  29.4959927  56.2823258  53.1806142  28.4022702  56.4429225
  51.9605875  27.6350640  70.1900541  51.3304536  28.3166920  70.4235938
  51.8541963  27.5233721  69.2453679  47.2550848  27.3022436  61.1166465
  46.4649902  27.5579964  60.6406576  47.7462095  28.1170773  61.2218506
  61.2714657  34.6427675  63.8671746  62.0932101  34.2407862  63.5854428
  61.2677060  34.5395909  64.8187862  49.2065593  27.6667015  58.0749942
  48.4096756  27.7785709  58.5933438  48.9791185  28.0053667  57.2090833
  55.0371261  34.1911718  66.0232457  55.1015693  34.6532125  66.8590628
  54.3282184  33.5609083  66.1514766  45.5388551  27.5552926  63.5481456
  45.7896589  28.4399936  63.8139032  46.0748099  27.3757528  62.7756548
  69.3620650  30.9866423  60.2156718  68.6084359  30.4173821  60.0600722
  69.4968191  30.9529088  61.1627352  51.2386618  21.9371405  72.5525792
  50.8453563  21.3837604  73.2273436  52.0552758  22.2481984  72.9432310
  54.1554579  23.3529285  70.1446049  54.8964292  23.9536438  70.0650511
  54.3872502  22.6106922  69.5864091  49.2995917  28.5385652  68.4224278
  49.1849432  27.6370909  68.7231377  48.4440435  28.7849349  68.0709095
  56.3787755  36.4803392  70.0211779  55.9351609  35.6939771  69.7032684
  57.0404968  36.6682543  69.3555670  58.4768993  36.7606192  68.0493180
  58.4587468  37.5815073  67.5573449  59.3988913  36.6360267  68.2743321
  54.9342047  34.2750322  68.8916689  55.4670384  33.5138610  68.6615997
  54.4056128  33.9823973  69.6340843  58.1011742  19.3810387  64.4210330
  57.7576011  20.2712029  64.3449441  58.4690704  19.1912045  63.5579915
  58.0662025  29.3718999  52.9282766  57.5508648  30.1423603  53.1671153
  57.7939333  28.6984135  53.5515827  55.6509136  24.2168699  57.9868004
  54.7950732  23.8275550  57.8073643  56.0636087  24.2960660  57.1267789
  57.1808282  21.7515043  62.3859564  56.6773078  21.7145178  61.5727369
  57.4738889  22.6607785  62.4456220  53.4251168  21.8353772  61.3925745
  54.2904165  21.6396581  61.0331635  53.4928677  21.6064124  62.3195102
  63.0396299  32.1251353  54.8635939  62.2625741  31.7862513  54.4191101
  63.7187780  32.1303976  54.1890904  57.8548328  27.2446091  54.7542547
  57.5498463  27.5592240  55.6052690  58.8078770  27.3227511  54.7969880
  56.2994760  33.4036314  56.4035501  55.7716121  32.6689074  56.0908738
  55.7982262  34.1810990  56.1575469  61.2787606  31.5985334  61.5202547
  60.6211280  32.2884596  61.6082676  62.0828005  31.9881766  61.8636533
  51.0313487  24.0655980  58.7642112  51.6057239  23.8431162  58.0315305
  51.6184470  24.1344675  59.5170714  60.0893064  29.9529707  59.5706489
  60.6024946  30.5859699  60.0728198  60.7394288  29.3530903  59.2049849
  51.3583074  26.0960441  52.7837997  50.5220387  26.4335128  53.1047272
  51.2187844  25.9609421  51.8465134  53.3336155  20.9397229  57.4917182
  52.6800567  20.6246246  56.8673796  53.2916629  20.3172970  58.2177005
  54.4447360  31.2216524  49.4070474  53.5374421  30.9905778  49.6061623
  54.9418392  30.4254144  49.5944455  57.3515439  39.9314031  52.3267160
  56.6777137  40.2345728  52.9352118  57.7381261  40.7343112  51.9772617
  56.5673895  27.4279163  61.8164829  55.6496457  27.6494110  61.6586517
  56.9834039  27.5025473  60.9576537  57.3508943  28.8270578  56.9467510
  58.0980762  29.3391976  56.6374632  57.6200533  28.5054631  57.8071903
  55.6235593  31.3229119  53.9294464  54.7146812  31.0388152  54.0266934
  55.6530677  31.7428198  53.0697771  60.8554861  34.9335709  57.6985631
  60.4017188  34.0926618  57.7550822  60.2248827  35.5697107  58.0360412
  59.7987780  25.8627695  58.9286299  59.0610537  25.3505081  59.2596541
  60.0514554  25.4228076  58.1169576  59.2987800  36.7712205  58.6335450
  59.5910774  37.3317262  57.9147815  59.8086420  37.0640766  59.3888609
  59.8999407  18.6403947  59.5228068  60.2058284  17.7801310  59.2353983
  60.6252012  19.2321567  59.3227062  46.1923764  29.0434633  57.9109666
  45.9948163  28.4503994  57.1860733  45.6370428  28.7386843  58.6285605
  54.1720487  28.9357740  60.0304259  54.2269097  27.9831576  59.9546736
  53.3611689  29.0917179  60.5145558  55.3211681  32.8637863  51.2682542
  54.8831111  32.1473722  50.8088180  56.0622122  33.0913978  50.7067634
  52.1112847  27.5534799  57.7894638  51.2980713  27.8528970  58.1959830
  52.6071841  27.1590488  58.5069120  57.7087059  28.0176624  66.6209532
  58.0636447  28.2448097  67.4803998  58.3559190  28.3495001  65.9986787
  63.4384796  31.1395060  57.3258861  63.3002694  31.3296656  56.3980050
  63.0821015  31.9014443  57.7826912  51.6026922  25.1253155  63.4055873
  52.2426301  24.9841914  62.7078836  50.7704452  24.8387668  63.0294475
  63.4654175  33.2071587  62.3370132  63.8990682  33.1146876  63.1853186
  64.1785756  33.1829087  61.6990148  57.1982070  36.8073681  63.8703233
  57.2519093  37.3764617  64.6380949  56.3296852  36.9775566  63.5057270
  48.6869989  28.5698667  55.5950618  47.7567577  28.5083123  55.8120580
  48.7827461  28.0474620  54.7987259  48.6055538  25.0953480  58.1828860
  48.8662356  26.0098813  58.0738020  49.4272711  24.6277923  58.3325473
  50.0780464  26.5091237  65.3527684  50.7503517  26.3008599  64.7040333
  49.2510250  26.3113323  64.9132917  64.3269725  33.2495287  64.8703018
  64.5205615  34.1541098  65.1162293  64.2270343  32.7902707  65.7041603
  55.9806036  23.1353178  67.3693345  55.3333951  23.8343128  67.2757822
  56.7507051  23.5689322  67.7369593  59.3884834  33.4002030  70.4443898
  59.2370340  33.1712582  69.5273982  59.3789513  34.3572632  70.4575243
  56.1570170  30.9733943  65.4290165  57.0862230  31.1245103  65.2559132
  55.7361200  31.0617964  64.5738811  54.9558502  34.9984607  63.1988703
  54.8169587  34.6303392  64.0714641  54.1673098  35.5132247  63.0272660
  56.5063717  34.3766210  60.5877540  56.1713550  34.3366980  61.4835190
  56.0067663  33.7110926  60.1147951  50.4807961  29.7833840  66.1130121
  50.3427759  29.0514079  66.7141661  51.3912884  29.6942740  65.8314309
  59.4422909  31.7222244  50.8614600  58.8252079  30.9969073  50.7647653
  58.9739397  32.4831605  50.5181674  53.1090262  29.4953799  65.6013801
  53.8189880  28.8546992  65.5600420  53.0659570  29.7466694  66.5239982
  61.0977040  36.4321153  68.5220380  61.0389586  35.7480373  67.8550963
  61.4996559  37.1740143  68.0701006  51.8219196  26.4819017  67.4209441
  51.2856553  26.0309756  68.0731037  51.2335904  26.6164926  66.6779905
  51.2321454  25.9407669  49.9835904  50.3550921  25.8196470  49.6198151
  51.7079208  25.1493747  49.7314793  61.0994448  34.3960737  66.7534360
  60.2121226  34.0586659  66.8760759  61.6692999  33.6643768  66.9903125
  42.7523595  30.7284828  60.0777411  43.4394634  30.4146558  59.4898427
  42.5971723  31.6326193  59.8044663  47.5558317  25.6175025  64.5062435
  47.4716506  25.0100695  63.7712845  46.7341023  26.1084043  64.5071931
  57.7282031  24.1028589  59.8732630  58.2250730  23.3498551  59.5533700
  56.9569012  24.1392905  59.3075839  65.5811788  29.8068954  61.5150922
  65.5701664  30.6893670  61.1444855  64.7129167  29.4540505  61.3205459
  57.0894284  38.9549023  65.8753762  57.8022257  39.5896488  65.8029663
  56.5984313  39.0512889  65.0593764  58.8111811  32.8600276  57.4471054
  57.8768090  32.9801738  57.2775758  58.9888480  31.9572743  57.1831063
  54.3116999  26.2445972  59.6004315  53.9414787  25.6917012  60.2885220
  54.8076092  25.6404105  59.0479315  62.1984363  28.7017595  57.9821088
  62.6644815  29.5345587  57.9081390  62.6491863  28.2362577  58.6866346
  52.1406198  36.7043467  66.6959333  52.8415657  37.3379950  66.8488727
  51.6701313  37.0458198  65.9354972  60.2660594  35.0461416  54.9807240
  60.5420438  34.9318011  55.8901114  59.3965093  34.6478901  54.9419413
  60.1701025  21.0698182  62.0211989  59.2564105  21.3002409  62.1894196
  60.5994127  21.1536626  62.8726021  59.9407484  29.2588074  64.5211883
  59.2878934  29.5063981  63.8664336  60.3187864  28.4452212  64.1874360
  57.2356823  38.2215952  55.8855102  57.7644590  37.7108407  55.2725264
  57.4985043  37.9058483  56.7500635  55.9895057  30.0007885  71.0077920
  55.3135694  29.9002014  71.6780295  56.8122691  29.8447099  71.4713917
  42.3291571  28.8085422  62.3494879  42.3675670  28.2749013  63.1431997
  41.8231864  28.2820627  61.7305856  49.7082333  23.6549962  65.8457421
  49.7723660  24.5164793  65.4334819  49.6449453  23.0423964  65.1129779
  49.1834606  25.7273095  69.4930455  49.8106644  25.3450172  70.1067979
  48.3262524  25.5087297  69.8586148  59.5828714  36.1336070  71.0984191
  60.1268618  36.7466028  70.6039145  59.0015559  36.6915648  71.6151204
  45.9600148  27.5349524  55.4248810  46.2553589  26.6260202  55.3715864
  45.0588184  27.5137263  55.1029812  49.4894395  25.6105521  61.4076359
  48.7680981  26.2241488  61.2683832  50.2787651  26.1463285  61.3293004
  59.9321135  37.0565808  63.8578768  58.9851471  36.9371159  63.7857095
  60.2803909  36.1688306  63.9405030  52.2920709  22.9459947  67.6817010
  52.8155111  23.1922244  68.4443320  52.0733042  23.7779982  67.2620148
  47.6887990  25.2163622  55.5488135  47.3600696  24.3361001  55.3663241
  48.0427361  25.1611290  56.4364524  50.8029813  25.5036591  55.9163613
  51.1425886  26.0322513  55.1942221  51.2501934  25.8416998  56.6922179
  60.5401691  37.6747083  61.1447993  61.4648238  37.4689944  61.0072444
  60.3716994  37.4263484  62.0537335  53.4973254  23.8873642  65.3666681
  53.1570074  23.0881455  65.7687361  52.7912260  24.1875353  64.7943514
  54.1489726  20.9722955  63.8194004  54.9715795  20.4983433  63.6972894
  54.3927789  21.7513438  64.3192690  52.7897960  24.0011213  54.1156906
  53.5106323  24.3792466  53.6120622  52.1663264  24.7200090  54.2191883
  56.9329083  24.7056362  55.0515238  57.1492697  25.5881000  54.7504066
  56.4523150  24.3142575  54.3220880  51.6728304  27.6642075  61.6285982
  51.5272885  27.9782378  62.5210264  51.1953508  28.2826976  61.0756881
  53.5324687  24.6544623  61.6766872  53.5186256  23.7585717  61.3399170
  54.2497115  24.6615287  62.3105158  55.3850818  25.0881963  63.7219999
  55.1268596  26.0099034  63.7204330  54.8535858  24.6912398  64.4120464
  60.3297007  38.1932751  56.5010085  60.5033884  37.6279173  55.7483937
  60.8225898  38.9933645  56.3189575  46.1473967  30.2047420  64.5673644
  45.6027435  30.9807228  64.6993918  47.0253317  30.5518224  64.4092765
  52.9361583  23.5359003  56.9454442  53.0577494  22.6075650  57.1445330
  52.6463626  23.5497689  56.0332758  55.8052774  21.2213914  60.0821162
  55.8274471  21.2853247  59.1273142  56.2220833  20.3818423  60.2761668
  66.1836398  30.9569173  58.1200385  66.6267544  30.2076499  57.7219508
  65.3062908  30.9479310  57.7374117  61.3172179  37.5099515  53.6006983
  62.0123084  38.1306208  53.8194298  61.6595329  36.6594866  53.8759361
  46.9339989  29.3317316  67.4603800  46.1921725  29.4799951  68.0468431
  46.6132733  29.5925581  66.5970550  63.2163602  34.9599220  55.1294314
  63.7414927  35.2986493  54.4043634  63.1285955  34.0246236  54.9457448
  54.8783651  38.8733294  67.2584190  55.1870778  38.6282441  68.1306890
  55.6759133  39.0779933  66.7703061  52.4202663  25.0491001  71.1544375
  52.4690818  25.9253124  70.7722144  52.9625177  24.5068394  70.5816018
  62.9057509  35.5932124  70.4345512  62.1153052  35.5756263  69.8950011
  62.6690863  36.1320418  71.1894548  63.0255384  32.4424590  67.7478240
  63.0753388  32.2774598  68.6893763  62.9169307  31.5751850  67.3576121
  60.3159146  28.4255519  69.0637547  61.2169009  28.2861983  68.7721545
  60.3907120  28.5909973  70.0035724  54.6501951  25.8022373  67.9090733
  53.7805261  26.0955939  67.6373322  54.8861432  26.3862818  68.6297997
  64.5273580  34.8621532  67.9920262  64.2358389  35.2251513  68.8283723
  63.9145712  34.1488540  67.8133594  65.7269263  32.4274412  60.5122832
  66.5616154  32.8664216  60.6760392  65.8628392  31.9513065  59.6931078
  62.7760769  29.9854147  66.4600320  63.2514890  30.1781793  65.6519171
  61.8526334  30.0413332  66.2143704  49.6644275  31.1478314  56.0431398
  49.4190317  30.2440644  56.2411608  49.8340190  31.1495464  55.1010876
  57.3540985  22.0201990  65.4256154  57.8722929  22.7563017  65.1002642
  56.9996118  22.3265983  66.2602913  48.9339923  26.8806671  53.5417560
  48.2409168  26.9551026  52.8857596  48.6891675  26.1167015  54.0639077
  57.6053579  18.4402273  60.9457050  57.8855333  17.7725462  61.5717477
  58.3904186  18.6331368  60.4331714  55.4087048  37.6161267  52.5082077
  54.8361015  38.2351454  52.0552549  55.9819841  38.1660628  53.0421999
  61.4762438  26.8619907  64.6928625  62.4279861  26.9618004  64.7140850
  61.3065888  26.0698175  65.2026710  59.4976817  23.9475490  64.8788026
  58.9026749  24.2280503  64.1834515  59.2126514  24.4369391  65.6504767
  58.6284308  37.8998417  53.6390659  59.5614981  37.8343978  53.8423534
  58.5407520  38.7354684  53.1805192  61.2572324  37.2164287  50.5994607
  61.1785956  36.8824151  51.4930364  62.0781991  37.7086055  50.5986079
  63.9550515  30.0826026  63.8070925  63.9226836  29.1442027  63.9930609
  64.5651139  30.1610063  63.0736750  55.7933846  28.9522079  49.8498129
  56.7392951  28.8228287  49.9186547  55.4148091  28.2136741  50.3267557
  64.1045004  26.8737070  63.8529208  63.5884053  26.0895526  63.6659137
  64.9884952  26.5455786  64.0175728  61.7655731  20.6178085  59.8125021
  61.5680552  20.3093174  60.6968353  62.3755436  21.3439724  59.9422951
  69.7727065  31.1442033  62.9476962  70.5030454  30.8827321  63.5084665
  69.1634011  30.4070755  62.9879030  67.8542362  29.2849896  63.5451413
  67.1275526  29.1505861  62.9367905  67.4389649  29.5926724  64.3508131
  55.6772539  33.0039825  71.3098786  56.5975548  33.1818425  71.5038833
  55.6422122  32.0595871  71.1578485  53.9776763  26.8772056  49.7853014
  53.0708219  26.5805168  49.8615728  54.2552744  26.5801874  48.9187301
  44.8954704  28.1978419  60.2352061  44.5757488  27.3443727  59.9426435
  44.3488132  28.4126997  60.9910028  48.6734611  30.9140860  63.9521567
  48.8920621  31.8457968  63.9709601  49.0860385  30.5548835  64.7376371
  55.5938829  21.4208945  55.9397256  54.7839557  21.0756030  56.3152502
  56.2823246  21.1116489  56.5284867  57.5229377  20.4986992  57.5621552
  58.0760416  20.9182446  58.2211575  57.7599464  19.5722740  57.6044508
  53.5462477  26.4874066  73.3424316  53.4459204  27.4368423  73.2736407
  53.3284019  26.1592305  72.4700386  52.7475548  23.7358991  49.9264994
  53.6094712  24.0613889  50.1860811  52.9325892  22.9490487  49.4138059
  44.7642964  31.8181331  62.2045182  44.0706435  31.4035283  61.6915137
  45.5115955  31.8601867  61.6078601  60.9008185  22.6087517  57.0700217
  60.3206854  23.2672321  56.6878269  60.6344117  21.7864862  56.6587634
  59.3511751  22.0092575  59.2721537  59.8511529  22.1209110  58.4635856
  59.9947359  21.7053628  59.9122345  53.4093747  29.9171205  72.1589378
  52.9260828  30.7171565  72.3653267  53.4954686  29.9279150  71.2056822
  46.6779706  31.7499584  60.0811197  46.6550394  31.8487272  59.1293080
  46.9880343  32.5964735  60.4028363  49.9266466  32.3776856  66.7628609
  50.7459355  32.8720934  66.7863447  50.2003274  31.4608824  66.7346177
  59.6833063  24.7687608  56.1256565  58.7958918  25.0537258  55.9076760
  60.0987052  24.6081371  55.2783842  63.0347599  24.7934129  59.8410904
  63.8107989  25.2830581  60.1135521  62.3095733  25.2192183  60.2982774
  65.4720157  25.5061748  60.8984845  66.0664648  25.2657484  60.1878153
  65.5446741  24.7868879  61.5258381  58.8276276  34.5332282  50.2204585
  59.5312126  34.7382285  50.8362240  58.1038925  35.1009044  50.4853668
  59.6574086  30.2842144  56.3406855  59.6009288  30.7410695  55.5014487
  60.2102429  29.5232828  56.1629698  63.4678892  26.0731876  57.1656975
  63.2115826  25.6728511  57.9965182  62.8431760  26.7875670  57.0407114
  67.7791230  28.8127949  59.6728266  67.2190788  28.8821138  60.4459828
  67.1734733  28.6368933  58.9527762  60.7362973  34.9714812  52.2703045
  61.5708577  34.5396010  52.0880520  60.5747316  34.7996825  53.1979939
  60.3908866  31.4746925  53.6359384  60.3357669  31.3091196  52.6947828
  59.7654921  32.1822958  53.7921574  45.1801381  26.7114989  67.4620806
  45.8260244  26.2013943  67.9508032  44.9718532  27.4483671  68.0364232
  57.7054773  33.7795837  72.9612947  58.5745932  33.9536489  72.5999582
  57.2261524  34.5990254  72.8388676  53.7004991  20.9755034  53.2144703
  53.6883661  21.9196874  53.3712973  54.5928413  20.7925179  52.9204164
  57.5157111  17.5697811  57.4690639  56.7489506  17.0156297  57.6147322
  57.9267815  17.6419679  58.3304791  49.5198872  23.8582606  71.5595821
  50.3830333  23.5019411  71.7699145  48.9464282  23.5196501  72.2471225
  66.1736955  45.4411891  62.3019746  65.8355466  45.3252956  61.4140281
  67.0426723  45.0403056  62.2820752  62.0323770  47.2947367  58.2916637
  61.4688636  47.2037304  57.5232925  61.9176166  46.4747272  58.7719130
  66.6556738  46.5946743  68.2605952  66.6445379  46.1999541  67.3886456
  66.8177377  45.8612815  68.8539723  68.9188517  43.2135917  59.4411430
  69.7051606  42.7955340  59.0901847  69.1827221  44.1182009  59.6093078
  74.3196944  43.1511150  60.3444408  75.0522116  42.5810367  60.5782238
  73.5636300  42.7632750  60.7850914  65.9373064  45.5738391  57.5407751
  65.5731271  45.0469012  58.2520672  66.7940180  45.1836860  57.3674236
  71.8422364  36.8632724  64.8039017  71.5105689  37.7328135  64.5800232
  71.2467978  36.5469008  65.4833047  65.5778551  40.6028291  52.5369099
  65.7452953  41.4708527  52.9039570  65.3875720  40.7655573  51.6130388
  71.7351028  41.5827810  61.8832367  70.8267905  41.5143219  61.5891128
  71.6838624  42.0599755  62.7114192  65.5567772  43.0585949  53.5215766
  65.4367397  43.5042999  54.3601246  64.8620360  43.4071266  52.9629304
  65.8091894  43.0017456  69.8267264  65.0325228  43.5611376  69.8170129
  66.4482457  43.4874239  70.3482134  73.6012674  39.7844249  63.6610241
  72.9587054  40.0776782  63.0150035  73.0967603  39.6697169  64.4663437
  71.2552838  43.5307422  54.3496100  72.1670694  43.7634808  54.1743798
  70.7462485  44.1144466  53.7871179  64.0638266  45.8102909  69.3885231
  64.8052950  46.3487953  69.1120055  63.3575251  46.4369198  69.5456783
  65.8924676  42.8904656  65.3590950  66.7385871  43.3144070  65.5025599
  65.8323313  42.2338281  66.0529513  73.7411652  49.4487678  59.0954045
  73.0562690  49.8286579  58.5451079  73.8255501  50.0583005  59.8285993
  69.0424121  40.5509025  67.0172123  68.7985053  41.3051085  66.4806399
  69.3184051  40.9294372  67.8519370  68.5988813  39.7065458  62.5985961
  67.7373292  40.0046711  62.8902698  68.6251247  39.9235857  61.6666994
  64.3519268  44.3730801  55.8149332  65.0543311  44.8251844  56.2823258
  64.0199897  43.7314619  56.4429225  62.7999630  42.9642557  70.1900541
  62.1698290  43.6458838  70.4235938  62.6935718  42.8525639  69.2453679
  60.0459347  42.9958933  58.0749942  59.2490511  43.1077627  58.5933438
  59.8184940  43.3345585  57.2090833  80.2014405  46.3158341  60.2156718
  79.4478113  45.7465739  60.0600722  80.3361946  46.2821005  61.1627352
  62.0780372  37.2663323  72.5525792  61.6847318  36.7129522  73.2273436
  62.8946513  37.5773902  72.9432310  64.9948333  38.6821202  70.1446049
  65.7358047  39.2828355  70.0650511  65.2266256  37.9398840  69.5864091
  67.2181509  51.8095310  70.0211779  66.7745363  51.0231688  69.7032684
  67.8798723  51.9974460  69.3555670  68.9405496  34.7102305  64.4210330
  68.5969766  35.6003947  64.3449441  69.3084459  34.5203963  63.5579915
  66.4902890  39.5460617  57.9868004  65.6344486  39.1567467  57.8073643
  66.9029842  39.6252578  57.1267789  68.0202037  37.0806960  62.3859564
  67.5166832  37.0437095  61.5727369  68.3132644  37.9899703  62.4456220
  64.2644923  37.1645690  61.3925745  65.1297919  36.9688499  61.0331635
  64.3322431  36.9356042  62.3195102  73.8790053  47.4543271  54.8635939
  73.1019496  47.1154430  54.4191101  74.5581534  47.4595894  54.1890904
  68.6942082  42.5738008  54.7542547  68.3892218  42.8884158  55.6052690
  69.6472524  42.6519428  54.7969880  61.8707242  39.3947898  58.7642112
  62.4450994  39.1723079  58.0315305  62.4578224  39.4636592  59.5170714
  62.1976829  41.4252359  52.7837997  61.3614141  41.7627046  53.1047272
  62.0581598  41.2901339  51.8465134  64.1729909  36.2689147  57.4917182
  63.5194322  35.9538164  56.8673796  64.1310383  35.6464887  58.2177005
  67.4067650  42.7571080  61.8164829  66.4890211  42.9786027  61.6586517
  67.8227793  42.8317391  60.9576537  68.1902697  44.1562496  56.9467510
  68.9374516  44.6683893  56.6374632  68.4594287  43.8346549  57.8071903
  70.6381535  41.1919612  58.9286299  69.9004291  40.6796999  59.2596541
  70.8908308  40.7519994  58.1169576  70.7393162  33.9695864  59.5228068
  71.0452039  33.1093228  59.2353983  71.4645767  34.5613485  59.3227062
  65.0114242  44.2649657  60.0304259  65.0662851  43.3123494  59.9546736
  64.2005444  44.4209096  60.5145558  62.9506602  42.8826717  57.7894638
  62.1374467  43.1820888  58.1959830  63.4465596  42.4882406  58.5069120
  68.5480813  43.3468542  66.6209532  68.9030201  43.5740015  67.4803998
  69.1952945  43.6786918  65.9986787  74.2778550  46.4686977  57.3258861
  74.1396449  46.6588573  56.3980050  73.9214769  47.2306360  57.7826912
  62.4420676  40.4545073  63.4055873  63.0820056  40.3133832  62.7078836
  61.6098207  40.1679586  63.0294475  59.4449293  40.4245398  58.1828860
  59.7056110  41.3390731  58.0738020  60.2666465  39.9569840  58.3325473
  60.9174218  41.8383155  65.3527684  61.5897272  41.6300517  64.7040333
  60.0904005  41.6405241  64.9132917  66.8199790  38.4645096  67.3693345
  66.1727705  39.1635045  67.2757822  67.5900806  38.8981240  67.7369593
  70.2278588  48.7293948  70.4443898  70.0764094  48.5004500  69.5273982
  70.2183268  49.6864549  70.4575243  62.6612950  41.8110935  67.4209441
  62.1250307  41.3601673  68.0731037  62.0729658  41.9456844  66.6779905
  58.3952071  40.9466943  64.5062435  58.3110260  40.3392612  63.7712845
  57.5734778  41.4375961  64.5071931  68.5675785  39.4320506  59.8732630
  69.0644485  38.6790469  59.5533700  67.7962767  39.4684823  59.3075839
  76.4205543  45.1360872  61.5150922  76.4095419  46.0185587  61.1444855
  75.5522922  44.7832423  61.3205459  69.6505566  48.1892193  57.4471054
  68.7161845  48.3093656  57.2775758  69.8282234  47.2864660  57.1831063
  65.1510754  41.5737889  59.6004315  64.7808541  41.0208930  60.2885220
  65.6469846  40.9696023  59.0479315  73.0378117  44.0309513  57.9821088
  73.5038569  44.8637504  57.9081390  73.4885618  43.5654494  58.6866346
  71.0094780  36.3990100  62.0211989  70.0957860  36.6294327  62.1894196
  71.4387881  36.4828544  62.8726021  66.8288811  45.3299803  71.0077920
  66.1529448  45.2293932  71.6780295  67.6516445  45.1739016  71.4713917
  60.5476088  38.9841880  65.8457421  60.6117414  39.8456711  65.4334819
  60.4843208  38.3715882  65.1129779  60.0228360  41.0565013  69.4930455
  60.6500399  40.6742090  70.1067979  59.1656279  40.8379214  69.8586148
  60.3288150  40.9397438  61.4076359  59.6074736  41.5533406  61.2683832
  61.1181406  41.4755203  61.3293004  63.1314463  38.2751865  67.6817010
  63.6548865  38.5214161  68.4443320  62.9126797  39.1071900  67.2620148
  58.5281744  40.5455539  55.5488135  58.1994451  39.6652918  55.3663241
  58.8821115  40.4903208  56.4364524  61.6423568  40.8328509  55.9163613
  61.9819640  41.3614430  55.1942221  62.0895688  41.1708915  56.6922179
  64.3367008  39.2165560  65.3666681  63.9963829  38.4173373  65.7687361
  63.6306015  39.5167271  64.7943514  64.9883480  36.3014872  63.8194004
  65.8109550  35.8275350  63.6972894  65.2321544  37.0805356  64.3192690
  63.6291715  39.3303131  54.1156906  64.3500077  39.7084383  53.6120622
  63.0057019  40.0492008  54.2191883  67.7722838  40.0348280  55.0515238
  67.9886452  40.9172918  54.7504066  67.2916905  39.6434493  54.3220880
  62.5122059  42.9933993  61.6285982  62.3666640  43.3074296  62.5210264
  62.0347263  43.6118893  61.0756881  64.3718442  39.9836541  61.6766872
  64.3580011  39.0877634  61.3399170  65.0890870  39.9907205  62.3105158
  66.2244573  40.4173881  63.7219999  65.9662350  41.3390952  63.7204330
  65.6929613  40.0204316  64.4120464  63.7755338  38.8650921  56.9454442
  63.8971249  37.9367567  57.1445330  63.4857380  38.8789607  56.0332758
  66.6446528  36.5505832  60.0821162  66.6668225  36.6145165  59.1273142
  67.0614587  35.7110340  60.2761668  77.0230152  46.2861091  58.1200385
  77.4661299  45.5368416  57.7219508  76.1456663  46.2771228  57.7374117
  63.2596417  40.3782919  71.1544375  63.3084573  41.2545041  70.7722144
  63.8018932  39.8360312  70.5816018  71.1552900  43.7547436  69.0637547
  72.0562763  43.6153901  68.7721545  71.2300875  43.9201891  70.0035724
  65.4895706  41.1314291  67.9090733  64.6199015  41.4247857  67.6373322
  65.7255186  41.7154736  68.6297997  76.5663017  47.7566329  60.5122832
  77.4009909  48.1956134  60.6760392  76.7022146  47.2804983  59.6931078
  73.6154523  45.3146064  66.4600320  74.0908645  45.5073711  65.6519171
  72.6920088  45.3705250  66.2143704  68.1934740  37.3493908  65.4256154
  68.7116683  38.0854935  65.1002642  67.8389872  37.6557901  66.2602913
  59.7733677  42.2098589  53.5417560  59.0802922  42.2842944  52.8857596
  59.5285429  41.4458933  54.0639077  68.4447334  33.7694190  60.9457050
  68.7249088  33.1017379  61.5717477  69.2297941  33.9623286  60.4331714
  72.3156192  42.1911824  64.6928625  73.2673615  42.2909922  64.7140850
  72.1459643  41.3990093  65.2026710  70.3370572  39.2767408  64.8788026
  69.7420504  39.5572420  64.1834515  70.0520268  39.7661309  65.6504767
  74.7944270  45.4117944  63.8070925  74.7620590  44.4733945  63.9930609
  75.4044894  45.4901981  63.0736750  74.9438758  42.2028988  63.8529208
  74.4277807  41.4187444  63.6659137  75.8278707  41.8747704  64.0175728
  72.6049485  35.9470003  59.8125021  72.4074306  35.6385091  60.6968353
  73.2149191  36.6731642  59.9422951  80.6120820  46.4733951  62.9476962
  81.3424208  46.2119239  63.5084665  80.0027765  45.7362673  62.9879030
  78.6936117  44.6141813  63.5451413  77.9669280  44.4797778  62.9367905
  78.2783404  44.9218642  64.3508131  66.5166293  48.3331743  71.3098786
  67.4369303  48.5110342  71.5038833  66.4815876  47.3887789  71.1578485
  66.4332584  36.7500863  55.9397256  65.6233312  36.4047948  56.3152502
  67.1217001  36.4408407  56.5284867  68.3623132  35.8278910  57.5621552
  68.9154171  36.2474363  58.2211575  68.5993218  34.9014658  57.6044508
  64.3856231  41.8165984  73.3424316  64.2852958  42.7660341  73.2736407
  64.1677773  41.4884223  72.4700386  63.5869303  39.0650909  49.9264994
  64.4488467  39.3905807  50.1860811  63.7719647  38.2782405  49.4138059
  71.7401939  37.9379435  57.0700217  71.1600608  38.5964239  56.6878269
  71.4737872  37.1156780  56.6587634  70.1905505  37.3384493  59.2721537
  70.6905284  37.4501027  58.4635856  70.8341113  37.0345546  59.9122345
  64.2487501  45.2463122  72.1589378  63.7654583  46.0463483  72.3653267
  64.3348440  45.2571067  71.2056822  70.5226817  40.0979525  56.1256565
  69.6352672  40.3829176  55.9076760  70.9380806  39.9373289  55.2783842
  73.8741353  40.1226046  59.8410904  74.6501743  40.6122499  60.1135521
  73.1489487  40.5484101  60.2982774  76.3113912  40.8353666  60.8984845
  76.9058403  40.5949402  60.1878153  76.3840496  40.1160796  61.5258381
  70.4967841  45.6134061  56.3406855  70.4403042  46.0702613  55.5014487
  71.0496183  44.8524746  56.1629698  74.3072647  41.4023793  57.1656975
  74.0509581  41.0020429  57.9965182  73.6825515  42.1167587  57.0407114
  78.6184985  44.1419867  59.6728266  78.0584543  44.2113056  60.4459828
  78.0128488  43.9660851  58.9527762  68.5448527  49.1087755  72.9612947
  69.4139687  49.2828407  72.5999582  68.0655279  49.9282171  72.8388676
  64.5398746  36.3046952  53.2144703  64.5277415  37.2488792  53.3712973
  65.4322167  36.1217097  52.9204164  68.3550865  32.8989728  57.4690639
  67.5883261  32.3448215  57.6147322  68.7661570  32.9711597  58.3304791
  60.3592626  39.1874524  71.5595821  61.2224088  38.8311329  71.7699145
  59.7858037  38.8488419  72.2471225  85.1590699  58.4803068  60.3444408
  85.8915871  57.9102284  60.5782238  84.4030054  58.0924668  60.7850914
  82.6816119  52.1924642  64.8039017  82.3499444  53.0620053  64.5800232
  82.0861732  51.8760926  65.4833047  82.5744782  56.9119728  61.8832367
  81.6661660  56.8435136  61.5891128  82.5232378  57.3891673  62.7114192
  84.4406429  55.1136166  63.6610241  83.7980809  55.4068699  63.0150035
  83.9361357  54.9989087  64.4663437  84.5805407  64.7779596  59.0954045
  83.8956445  65.1578497  58.5451079  84.6649256  65.3874922  59.8285993
  79.4382567  55.0357375  62.5985961  78.5767046  55.3338629  62.8902698
  79.4645002  55.2527774  61.6666994  91.0408159  61.6450259  60.2156718
  90.2871868  61.0757657  60.0600722  91.1755700  61.6112923  61.1627352
  79.7799251  50.0394223  64.4210330  79.4363520  50.9295864  64.3449441
  80.1478213  49.8495880  63.5579915  78.8595791  52.4098878  62.3859564
  78.3560587  52.3729013  61.5727369  79.1526398  53.3191621  62.4456220
  84.7183808  62.7835189  54.8635939  83.9413250  62.4446348  54.4191101
  85.3975289  62.7887812  54.1890904  75.0123664  51.5981065  57.4917182
  74.3588076  51.2830082  56.8673796  74.9704138  50.9756805  58.2177005
  81.4775289  56.5211530  58.9286299  80.7398046  56.0088916  59.2596541
  81.7302063  56.0811912  58.1169576  81.5786916  49.2987782  59.5228068
  81.8845793  48.4385145  59.2353983  82.3039521  49.8905402  59.3227062
  85.1172305  61.7978895  57.3258861  84.9790203  61.9880491  56.3980050
  84.7608524  62.5598278  57.7826912  85.1441684  63.8655422  62.3370132
  85.5778191  63.7730711  63.1853186  85.8573265  63.8412923  61.6990148
  86.0057234  63.9079123  64.8703018  86.1993124  64.8124933  65.1162293
  85.9057852  63.4486542  65.7041603  81.1210418  62.3806080  50.8614600
  80.5039588  61.6552908  50.7647653  80.6526906  63.1415440  50.5181674
  79.4069540  54.7612424  59.8732630  79.9038239  54.0082386  59.5533700
  78.6356521  54.7976741  59.3075839  87.2599297  60.4652789  61.5150922
  87.2489173  61.3477505  61.1444855  86.3916676  60.1124340  61.3205459
  83.8771872  59.3601430  57.9821088  84.3432324  60.1929422  57.9081390
  84.3279372  58.8946412  58.6866346  81.8488534  51.7282017  62.0211989
  80.9351614  51.9586244  62.1894196  82.2781636  51.8120461  62.8726021
  81.6194993  59.9171909  64.5211883  80.9666443  60.1647817  63.8664336
  81.9975373  59.1036048  64.1874360  82.0084516  68.8516586  56.5010085
  82.1821393  68.2863008  55.7483937  82.5013407  69.6517481  56.3189575
  77.4840283  51.8797749  60.0821162  77.5061979  51.9437082  59.1273142
  77.9008342  51.0402258  60.2761668  87.8623907  61.6153009  58.1200385
  88.3055053  60.8660334  57.7219508  86.9850417  61.6063145  57.7374117
  82.9959688  68.1683350  53.6006983  83.6910593  68.7890043  53.8194298
  83.3382838  67.3178702  53.8759361  84.8951111  65.6183056  55.1294314
  85.4202436  65.9570329  54.4043634  84.8073464  64.6830071  54.9457448
  84.7042893  63.1008426  67.7478240  84.7540897  62.9358433  68.6893763
  84.5956816  62.2335685  67.3576121  81.9946655  59.0839354  69.0637547
  82.8956518  58.9445819  68.7721545  82.0694629  59.2493809  70.0035724
  86.2061089  65.5205367  67.9920262  85.9145898  65.8835348  68.8283723
  85.5933221  64.8072376  67.8133594  87.4056772  63.0858247  60.5122832
  88.2403663  63.5248051  60.6760392  87.5415900  62.6096900  59.6931078
  84.4548278  60.6437982  66.4600320  84.9302399  60.8365628  65.6519171
  83.5313843  60.6997168  66.2143704  79.0328494  52.6785826  65.4256154
  79.5510438  53.4146852  65.1002642  78.6783627  52.9849819  66.2602913
  79.2841088  49.0986108  60.9457050  79.5642842  48.4309297  61.5717477
  80.0691695  49.2915204  60.4331714  83.1549947  57.5203742  64.6928625
  84.1067370  57.6201840  64.7140850  82.9853397  56.7282011  65.2026710
  81.1764326  54.6059325  64.8788026  80.5814258  54.8864338  64.1834515
  80.8914023  55.0953226  65.6504767  82.9359833  67.8748122  50.5994607
  82.8573465  67.5407986  51.4930364  83.7569500  68.3669890  50.5986079
  85.6338024  60.7409862  63.8070925  85.6014345  59.8025862  63.9930609
  86.2438648  60.8193898  63.0736750  85.7832513  57.5320905  63.8529208
  85.2671562  56.7479362  63.6659137  86.6672461  57.2039622  64.0175728
  83.4443240  51.2761921  59.8125021  83.2468061  50.9677009  60.6968353
  84.0542945  52.0023560  59.9422951  91.4514574  61.8025869  62.9476962
  92.1817963  61.5411157  63.5084665  90.8421520  61.0654591  62.9879030
  89.5329871  59.9433731  63.5451413  88.8063035  59.8089696  62.9367905
  89.1177158  60.2510560  64.3508131  79.2016886  51.1570828  57.5621552
  79.7547925  51.5766281  58.2211575  79.4386973  50.2306576  57.6044508
  82.5795694  53.2671353  57.0700217  81.9994363  53.9256157  56.6878269
  82.3131626  52.4448697  56.6587634  81.0299260  52.6676411  59.2721537
  81.5299038  52.7792945  58.4635856  81.6734868  52.3637463  59.9122345
  84.7135108  55.4517964  59.8410904  85.4895498  55.9414417  60.1135521
  83.9883242  55.8776018  60.2982774  87.1507666  56.1645583  60.8984845
  87.7452157  55.9241319  60.1878153  87.2234250  55.4452714  61.5258381
  80.5063785  65.1916118  50.2204585  81.2099635  65.3966120  50.8362240
  79.7826434  65.7592880  50.4853668  85.1466401  56.7315711  57.1656975
  84.8903335  56.3312347  57.9965182  84.5219269  57.4459505  57.0407114
  89.4578739  59.4711784  59.6728266  88.8978297  59.5404974  60.4459828
  88.8522242  59.2952769  58.9527762  82.4150482  65.6298647  52.2703045
  83.2496086  65.1979846  52.0880520  82.2534825  65.4580661  53.1979939
  79.1944619  48.2281646  57.4690639  78.4277015  47.6740133  57.6147322
  79.6055324  48.3003515  58.3304791  91.0434757  76.1468298  62.3658222
  91.6813167  76.0275046  61.6621562  90.9255600  77.0949142  62.4246174
  87.8524464  76.0995726  62.3019746  87.5142975  75.9836791  61.4140281
  88.7214232  75.6986891  62.2820752  83.7111279  77.9531203  58.2916637
  83.1476145  77.8621140  57.5232925  83.5963675  77.1331107  58.7719130
  88.3344247  77.2530578  68.2605952  88.3232888  76.8583376  67.3886456
  88.4964886  76.5196651  68.8539723  81.2575711  79.4482394  61.1300858
  82.0497003  79.1073219  60.7147157  81.4972362  79.5577369  62.0503011
  89.2910838  81.6202170  53.6031102  88.6398818  82.2056251  53.2165116
  90.0855201  82.1508365  53.6626140  83.2166465  78.7091308  54.0018237
  83.9897341  78.1620295  53.8631112  83.5691864  79.5735557  54.2132698
  85.0551508  80.0367690  67.2085136  84.7641374  80.9413321  67.0931802
  85.6908492  80.0784217  67.9229205  85.9807715  77.4144538  63.7986495
  86.5771287  77.1900561  63.0843458  86.0382686  76.6729284  64.4011943
  85.5532743  74.8683974  51.6336686  85.8058264  74.3465495  50.8720149
  84.6157302  74.7050119  51.7363370  90.5976026  73.8719752  59.4411430
  91.3839115  73.4539175  59.0901847  90.8614730  74.7765844  59.6093078
  90.7686103  79.3092602  54.1400086  90.1331936  79.3827229  54.8520991
  90.4383510  79.8986201  53.4619166  95.9984453  73.8094985  60.3444408
  96.7309625  73.2394202  60.5782238  95.2423809  73.4216586  60.7850914
  85.2729032  76.7712080  53.8361061  85.1565290  76.0956983  54.5042146
  85.3831292  76.2844454  53.0193214  87.6160573  76.2322227  57.5407751
  87.2518780  75.7052848  58.2520672  88.4727689  75.8420696  57.3674236
  93.5209873  67.5216559  64.8039017  93.1893198  68.3911970  64.5800232
  92.9255487  67.2052843  65.4833047  87.2566060  71.2612126  52.5369099
  87.4240462  72.1292363  52.9039570  87.0663229  71.4239408  51.6130388
  83.4653874  76.1742902  60.2371634  82.5404371  76.0419116  60.4449326
  83.7138288  76.9537121  60.7341576  93.4138537  72.2411646  61.8832367
  92.5055414  72.1727054  61.5891128  93.3626133  72.7183590  62.7114192
  87.2355281  73.7169784  53.5215766  87.1154906  74.1626835  54.3601246
  86.5407869  74.0655102  52.9629304  80.8262686  75.8176176  61.0715423
  80.9555067  76.0710655  61.9854835  80.1460137  76.4103884  60.7520078
  84.9962173  86.4873426  57.1705897  84.9186202  87.4381251  57.2494378
  84.3923816  86.1419298  57.8280824  87.4879403  73.6601291  69.8267264
  86.7112737  74.2195211  69.8170129  88.1269966  74.1458074  70.3482134
  95.2800183  70.4428084  63.6610241  94.6374563  70.7360617  63.0150035
  94.7755112  70.3281004  64.4663437  92.9340347  74.1891257  54.3496100
  93.8458203  74.4218644  54.1743798  92.4249994  74.7728301  53.7871179
  85.7425775  76.4686744  69.3885231  86.4840459  77.0071788  69.1120055
  85.0362760  77.0953033  69.5456783  91.2181115  78.6115885  67.9857393
  91.6264471  78.1698295  67.2412025  90.4958376  78.0368512  68.2391586
  87.5712185  73.5488492  65.3590950  88.4173380  73.9727905  65.5025599
  87.5110822  72.8922116  66.0529513  91.5409929  79.1717076  61.7409681
  90.9118792  79.3362790  61.0385749  91.1535591  79.5858685  62.5120646
  95.4199161  80.1071513  59.0954045  94.7350199  80.4870415  58.5451079
  95.5043010  80.7166840  59.8285993  90.7211630  71.2092860  67.0172123
  90.4772562  71.9634921  66.4806399  90.9971560  71.5878208  67.8519370
  92.6750093  77.7531472  65.6949389  92.8866988  78.3963232  65.0183770
  92.6279841  76.9193789  65.2271319  90.2776322  70.3649293  62.5985961
  89.4160801  70.6630547  62.8902698  90.3038756  70.5819692  61.6666994
  87.0937891  78.9091484  59.0059767  87.5576237  79.1879187  58.2164389
  86.8294689  78.0074928  58.8232857  83.9861972  78.4562965  61.9439530
  84.5563329  78.8850234  61.3057014  84.5770084  78.1745550  62.6423716
  86.0306777  75.0314636  55.8149332  86.7330820  75.4835680  56.2823258
  85.6987406  74.3898455  56.4429225  84.4787139  73.6226393  70.1900541
  83.8485799  74.3042673  70.4235938  84.3723226  73.5109474  69.2453679
  93.7895921  80.6303428  63.8671746  94.6113364  80.2283615  63.5854428
  93.7858323  80.5271662  64.8187862  87.5552524  80.1787471  66.0232457
  87.6196957  80.6407878  66.8590628  86.8463448  79.5484836  66.1514766
 101.8801914  76.9742176  60.2156718 101.1265622  76.4049574  60.0600722
 102.0149455  76.9404841  61.1627352  87.2700542  81.8455579  55.8911437
  87.1346216  82.6907114  56.3196285  87.8110354  82.0474856  55.1277371
  80.7229939  79.3631017  56.4639362  81.2354460  80.1574267  56.6144927
  81.3752652  78.6657307  56.3972963  82.5324824  82.4796773  58.5462115
  82.7091452  83.4014738  58.3583099  83.3281657  82.1655192  58.9756495
  86.6735842  69.3405038  70.1446049  87.4145556  69.9412191  70.0650511
  86.9053765  68.5982675  69.5864091  81.8177180  74.5261405  68.4224278
  81.7030695  73.6246662  68.7231377  80.9621698  74.7725102  68.0709095
  88.8969018  82.4679145  70.0211779  88.4532872  81.6815524  69.7032684
  89.5586232  82.6558296  69.3555670  83.6556139  83.9974947  64.5472458
  84.2063564  83.8692010  63.7749451  82.8167615  84.2969836  64.1967350
  90.9950256  82.7481945  68.0493180  90.9768732  83.5690826  67.5573449
  91.9170176  82.6236020  68.2743321  87.4523310  80.2626075  68.8916689
  87.9851647  79.5014363  68.6615997  86.9237391  79.9699726  69.6340843
  90.6193005  65.3686140  64.4210330  90.2757275  66.2587782  64.3449441
  90.9871968  65.1787798  63.5579915  90.5843288  75.3594752  52.9282766
  90.0689911  76.1299356  53.1671153  90.3120596  74.6859888  53.5515827
  88.1690399  70.2044452  57.9868004  87.3131995  69.8151303  57.8073643
  88.5817351  70.2836413  57.1267789  89.6989546  67.7390796  62.3859564
  89.1954341  67.7020931  61.5727369  89.9920153  68.6483538  62.4456220
  85.9432432  67.8229525  61.3925745  86.8085428  67.6272334  61.0331635
  86.0109940  67.5939877  62.3195102  95.5577562  78.1127106  54.8635939
  94.7807005  77.7738266  54.4191101  96.2369043  78.1179729  54.1890904
  90.3729591  73.2321844  54.7542547  90.0679727  73.5467993  55.6052690
  91.3260033  73.3103264  54.7969880  88.8176023  79.3912067  56.4035501
  88.2897385  78.6564827  56.0908738  88.3163526  80.1686743  56.1575469
  93.7968869  77.5861088  61.5202547  93.1392543  78.2760349  61.6082676
  94.6009268  77.9757519  61.8636533  83.5494751  70.0531733  58.7642112
  84.1238503  69.8306915  58.0315305  84.1365733  70.1220428  59.5170714
  92.6074328  75.9405460  59.5706489  93.1206210  76.5735452  60.0728198
  93.2575552  75.3406656  59.2049849  83.8764338  72.0836194  52.7837997
  83.0401650  72.4210881  53.1047272  83.7369107  71.9485174  51.8465134
  85.8517418  66.9272982  57.4917182  85.1981831  66.6121999  56.8673796
  85.8097892  66.3048723  58.2177005  86.9628623  77.2092277  49.4070474
  86.0555685  76.9781531  49.6061623  87.4599655  76.4129897  49.5944455
  89.8696702  85.9189784  52.3267160  89.1958401  86.2221481  52.9352118
  90.2562524  86.7218865  51.9772617  89.0855159  73.4154916  61.8164829
  88.1677720  73.6369863  61.6586517  89.5015302  73.4901226  60.9576537
  89.8690206  74.8146331  56.9467510  90.6162025  75.3267729  56.6374632
  90.1381796  74.4930384  57.8071903  88.1416857  77.3104872  53.9294464
  87.2328076  77.0263905  54.0266934  88.1711940  77.7303951  53.0697771
  93.3736124  80.9211462  57.6985631  92.9198451  80.0802372  57.7550822
  92.7430091  81.5572860  58.0360412  92.3169044  71.8503448  58.9286299
  91.5791800  71.3380834  59.2596541  92.5695817  71.4103829  58.1169576
  91.8169063  82.7587958  58.6335450  92.1092038  83.3193015  57.9147815
  92.3267684  83.0516519  59.3888609  92.4180671  64.6279700  59.5228068
  92.7239548  63.7677063  59.2353983  93.1433276  65.2197320  59.3227062
  86.6901751  74.9233493  60.0304259  86.7450360  73.9707329  59.9546736
  85.8792953  75.0792932  60.5145558  87.8392944  78.8513616  51.2682542
  87.4012374  78.1349475  50.8088180  88.5803385  79.0789731  50.7067634
  84.6294111  73.5410552  57.7894638  83.8161976  73.8404723  58.1959830
  85.1253105  73.1466241  58.5069120  86.7802688  83.5368309  59.7228903
  86.7378867  83.7629156  58.7937435  87.6965387  83.3031684  59.8714704
  90.2268322  74.0052377  66.6209532  90.5817710  74.2323850  67.4803998
  90.8740453  74.3370754  65.9986787  95.9566059  77.1270813  57.3258861
  95.8183958  77.3172409  56.3980050  95.6002278  77.8890196  57.7826912
  95.9835439  79.1947340  62.3370132  96.4171945  79.1022629  63.1853186
  96.6967020  79.1704840  61.6990148  84.8968489  80.4131338  59.5190865
  85.6909088  79.9181659  59.3173440  84.1860182  79.8849202  59.1558571
  89.7163334  82.7949434  63.8703233  89.7700356  83.3640370  64.6380949
  88.8478115  82.9651319  63.5057270  81.2051253  74.5574420  55.5950618
  80.2748841  74.4958876  55.8120580  81.3008725  74.0350373  54.7987259
  96.8450988  79.2371041  64.8703018  97.0386878  80.1416851  65.1162293
  96.7451607  78.7778460  65.7041603  88.4987299  69.1228931  67.3693345
  87.8515214  69.8218881  67.2757822  89.2688315  69.5565075  67.7369593
  91.9066097  79.3877783  70.4443898  91.7551603  79.1588335  69.5273982
  91.8970777  80.3448385  70.4575243  88.6751433  76.9609696  65.4290165
  89.6043493  77.1120856  65.2559132  88.2542463  77.0493717  64.5738811
  87.4739765  80.9860360  63.1988703  87.3350851  80.6179145  64.0714641
  86.6854361  81.5008000  63.0272660  88.0687917  86.0869457  54.5414239
  88.2439673  85.6157500  55.3559862  87.3820705  86.7135223  54.7695500
  89.0244980  80.3641963  60.5877540  88.6894813  80.3242733  61.4835190
  88.5248926  79.6986679  60.1147951  82.9989224  75.7709593  66.1130121
  82.8609022  75.0389832  66.7141661  83.9094148  75.6818493  65.8314309
  91.9604172  77.7097997  50.8614600  91.3433343  76.9844826  50.7647653
  91.4920661  78.4707358  50.5181674  85.6271525  75.4829552  65.6013801
  86.3371144  74.8422745  65.5600420  85.5840833  75.7342447  66.5239982
  84.3400459  72.4694770  67.4209441  83.8037816  72.0185509  68.0731037
  83.7517167  72.6040679  66.6779905  82.6349003  89.2358820  61.3154099
  82.8745601  89.8677344  61.9933118  81.7918199  88.8846860  61.6019458
  83.7502718  71.9283422  49.9835904  82.8732184  71.8072223  49.6198151
  84.2260471  71.1369500  49.7314793  87.1476864  85.0437942  63.7195603
  87.0747036  85.8492914  64.2314908  86.7054257  85.2429908  62.8943625
  86.9366644  84.2809712  57.2298425  86.1534166  84.8231392  57.3236649
  87.6359389  84.7983692  57.6292666  90.2463294  70.0904342  59.8732630
  90.7431994  69.3374304  59.5533700  89.4750276  70.1268658  59.3075839
  98.0993052  75.7944707  61.5150922  98.0882928  76.6769423  61.1444855
  97.2310431  75.4416258  61.3205459  91.3293075  78.8476029  57.4471054
  90.3949354  78.9677491  57.2775758  91.5069743  77.9448496  57.1831063
  86.8298263  72.2321725  59.6004315  86.4596050  71.6792765  60.2885220
  87.3257355  71.6279858  59.0479315  94.7165626  74.6893348  57.9821088
  95.1826078  75.5221340  57.9081390  95.1673127  74.2238330  58.6866346
  84.6587461  82.6919220  66.6959333  85.3596921  83.3255703  66.8488727
  84.1882576  83.0333951  65.9354972  92.7841857  81.0337169  54.9807240
  93.0601701  80.9193764  55.8901114  91.9146356  80.6354654  54.9419413
  92.6882289  67.0573935  62.0211989  91.7745369  67.2878162  62.1894196
  93.1175390  67.1412379  62.8726021  92.4588747  75.2463827  64.5211883
  91.8060198  75.4939734  63.8664336  92.8369127  74.4327965  64.1874360
  89.4195921  85.2823520  58.6240053  89.6018316  84.4645176  59.0867806
  90.2428907  85.4991212  58.1864943  89.7538087  84.2091705  55.8855102
  90.2825853  83.6984160  55.2725264  90.0166306  83.8934236  56.7500635
  88.5076320  75.9883638  71.0077920  87.8316957  75.8877767  71.6780295
  89.3303954  75.8322852  71.4713917  80.2555179  82.2255575  63.6290435
  80.8408616  81.4799263  63.7618340  80.0580018  82.5359531  64.5127099
  83.1093835  85.2606822  58.6452878  82.4404210  85.7452950  58.1616918
  82.9706704  85.5076042  59.5596256  87.2499103  87.2950566  65.2435536
  87.8017411  87.4582187  66.0084621  87.5905297  87.8855003  64.5715561
  81.7015869  71.7148848  69.4930455  82.3287908  71.3325925  70.1067979
  80.8443788  71.4963050  69.8586148  90.3867491  85.2432541  62.2299218
  90.2618630  84.4422281  61.7210164  91.0446582  85.7378734  61.7413188
  92.4502399  83.0441561  63.8578768  91.5032734  82.9246912  63.7857095
  92.7985172  82.1564059  63.9405030  89.4548832  82.8394277  60.0583121
  89.3073795  81.9110985  60.2390691  90.2802326  82.8614368  59.5740196
  83.3211077  71.4912344  55.9163613  83.6607149  72.0198266  55.1942221
  83.7683197  71.8292751  56.6922179  93.0582954  83.6622836  61.1447993
  93.9829502  83.4565697  61.0072444  92.8898257  83.4139237  62.0537335
  86.0154517  69.8749395  65.3666681  85.6751338  69.0757208  65.7687361
  85.3093524  70.1751106  64.7943514  86.6670989  66.9598708  63.8194004
  87.4897059  66.4859186  63.6972894  86.9109053  67.7389191  64.3192690
  85.3079224  69.9886966  54.1156906  86.0287586  70.3668219  53.6120622
  84.6844528  70.7075843  54.2191883  89.4510347  70.6932115  55.0515238
  89.6673961  71.5756753  54.7504066  88.9704414  70.3018328  54.3220880
  84.1909568  73.6517828  61.6285982  84.0454149  73.9658131  62.5210264
  83.7134772  74.2702729  61.0756881  86.0505951  70.6420376  61.6766872
  86.0367520  69.7461470  61.3399170  86.7678379  70.6491040  62.3105158
  87.9032082  71.0757716  63.7219999  87.6449859  71.9974787  63.7204330
  87.3717122  70.6788151  64.4120464  92.8478270  84.1808504  56.5010085
  93.0215148  83.6154926  55.7483937  93.3407162  84.9809398  56.3189575
  78.6655230  76.1923173  64.5673644  78.1208698  76.9682981  64.6993918
  79.5434580  76.5393977  64.4092765  85.4542847  69.5234757  56.9454442
  85.5758758  68.5951403  57.1445330  85.1644889  69.5373442  56.0332758
  88.3234037  67.2089667  60.0821162  88.3455734  67.2729000  59.1273142
  88.7402096  66.3694176  60.2761668  98.7017661  76.9444927  58.1200385
  99.1448808  76.1952252  57.7219508  97.8244172  76.9355063  57.7374117
  93.8353443  83.4975268  53.6006983  94.5304347  84.1181961  53.8194298
  94.1776593  82.6470619  53.8759361  79.4521252  75.3193069  67.4603800
  78.7102988  75.4675704  68.0468431  79.1313996  75.5801335  66.5970550
  95.7344866  80.9474973  55.1294314  96.2596190  81.2862246  54.4043634
  95.6467218  80.0121989  54.9457448  87.3964915  84.8609047  67.2584190
  87.7052041  84.6158194  68.1306890  88.1940397  85.0655686  66.7703061
  87.4185527  87.0146957  59.4889567  86.9790517  86.5223335  60.1822424
  88.1693644  86.4719924  59.2481642  79.8977866  83.2058498  59.4914195
  80.7235886  82.9062269  59.1112839  79.5471918  82.4366120  59.9403984
  84.8659399  82.5584966  61.5611869  84.2439408  81.8955671  61.2614097
  85.5364266  82.5846098  60.8785516  84.9383926  71.0366754  71.1544375
  84.9872082  71.9128877  70.7722144  85.4806441  70.4944147  70.5816018
  95.4238772  81.5807877  70.4345512  94.6334316  81.5632016  69.8950011
  95.1872127  82.1196171  71.1894548  95.5436647  78.4300344  67.7478240
  95.5934652  78.2650351  68.6893763  95.4350570  77.5627603  67.3576121
  84.4272906  81.1088889  55.0370329  84.5761026  81.7924354  54.3837002
  85.2339349  81.0893979  55.5519785  92.8340409  74.4131272  69.0637547
  93.7350272  74.2737736  68.7721545  92.9088384  74.5785726  70.0035724
  87.1683215  71.7898126  67.9090733  86.2986524  72.0831692  67.6373322
  87.4042695  72.3738571  68.6297997  97.0454844  80.8497285  67.9920262
  96.7539652  81.2127266  68.8283723  96.4326975  80.1364293  67.8133594
  98.2450526  78.4150165  60.5122832  99.0797418  78.8539969  60.6760392
  98.3809655  77.9388818  59.6931078  95.2942032  75.9729900  66.4600320
  95.7696154  76.1657546  65.6519171  94.3707597  76.0289085  66.2143704
  82.1825539  77.1354067  56.0431398  81.9371581  76.2316397  56.2411608
  82.3521453  77.1371217  55.1010876  89.8722249  68.0077743  65.4256154
  90.3904192  68.7438770  65.1002642  89.5177381  68.3141737  66.2602913
  81.4521186  72.8682424  53.5417560  80.7590431  72.9426779  52.8857596
  81.2072938  72.1042768  54.0639077  90.1234843  64.4278026  60.9457050
  90.4036597  63.7601215  61.5717477  90.9085450  64.6207121  60.4331714
  87.9268311  83.6037020  52.5082077  87.3542278  84.2227207  52.0552549
  88.5001105  84.1536381  53.0421999  93.9943701  72.8495660  64.6928625
  94.9461124  72.9493757  64.7140850  93.8247152  72.0573928  65.2026710
  92.0158081  69.9351243  64.8788026  91.4208013  70.2156256  64.1834515
  91.7307777  70.4245144  65.6504767  91.1465571  83.8874170  53.6390659
  92.0796244  83.8219731  53.8423534  91.0588784  84.7230437  53.1805192
  93.7753588  83.2040040  50.5994607  93.6967219  82.8699904  51.4930364
  94.5963254  83.6961808  50.5986079  96.4731779  76.0701779  63.8070925
  96.4408099  75.1317780  63.9930609  97.0832403  76.1485816  63.0736750
  88.3115110  74.9397832  49.8498129  89.2574214  74.8104041  49.9186547
  87.9329355  74.2012494  50.3267557  96.6226267  72.8612823  63.8529208
  96.1065316  72.0771279  63.6659137  97.5066216  72.5331539  64.0175728
  94.2836994  66.6053838  59.8125021  94.0861815  66.2968927  60.6968353
  94.8936700  67.3315477  59.9422951 102.2908329  77.1317786  62.9476962
 103.0211717  76.8703074  63.5084665 101.6815274  76.3946508  62.9879030
 100.3723626  75.2725649  63.5451413  99.6456789  75.1381614  62.9367905
  99.9570913  75.5802477  64.3508131  88.1953802  78.9915579  71.3098786
  89.1156812  79.1694178  71.5038833  88.1603385  78.0471624  71.1578485
  86.4958027  72.8647809  49.7853014  85.5889482  72.5680922  49.8615728
  86.7734008  72.5677627  48.9187301  81.1915875  76.9016613  63.9521567
  81.4101885  77.8333721  63.9709601  81.6041649  76.5424588  64.7376371
  88.1120093  67.4084699  55.9397256  87.3020821  67.0631783  56.3152502
  88.8004510  67.0992242  56.5284867  90.0410641  66.4862745  57.5621552
  90.5941680  66.9058199  58.2211575  90.2780727  65.5598493  57.6044508
  86.0643740  72.4749819  73.3424316  85.9640467  73.4244176  73.2736407
  85.8465282  72.1468058  72.4700386  85.2656812  69.7234744  49.9264994
  86.1275976  70.0489642  50.1860811  85.4507156  68.9366240  49.4138059
  93.4189448  68.5963270  57.0700217  92.8388117  69.2548074  56.6878269
  93.1525381  67.7740615  56.6587634  91.8693014  67.9968328  59.2721537
  92.3692793  68.1084863  58.4635856  92.5128622  67.6929381  59.9122345
  85.9275010  75.9046958  72.1589378  85.4442092  76.7047318  72.3653267
  86.0135949  75.9154903  71.2056822  81.8548348  79.7951492  64.1957812
  82.8091601  79.7635435  64.1287743  81.6560871  79.3342116  65.0108038
  82.4447730  78.3652609  66.7628609  83.2640619  78.8596687  66.7863447
  82.7184538  77.4484577  66.7346177  92.2014326  70.7563361  56.1256565
  91.3140181  71.0413011  55.9076760  92.6168315  70.5957124  55.2783842
  95.5528862  70.7809882  59.8410904  96.3289252  71.2706334  60.1135521
  94.8276996  71.2067936  60.2982774  97.9901421  71.4937501  60.8984845
  98.5845912  71.2533237  60.1878153  98.0628004  70.7744632  61.5258381
  80.2098576  85.3371112  61.2128010  80.0753044  84.5771513  60.6466008
  79.7930639  86.0612012  60.7456798  91.3457539  80.5208036  50.2204585
  92.0493390  80.7258038  50.8362240  90.6220188  81.0884797  50.4853668
  92.1755350  76.2717897  56.3406855  92.1190551  76.7286448  55.5014487
  92.7283692  75.5108581  56.1629698  95.9860156  72.0607629  57.1656975
  95.7297090  71.6604264  57.9965182  95.3613024  72.7751423  57.0407114
 100.2972494  74.8003702  59.6728266  99.7372052  74.8696891  60.4459828
  99.6915997  74.6244687  58.9527762  83.3667702  86.2340429  61.4246452
  83.2500086  87.1785861  61.3225142  82.5460149  85.9313991  61.8132251
  93.2544237  80.9590565  52.2703045  94.0889841  80.5271763  52.0880520
  93.0928580  80.7872578  53.1979939  92.9090129  77.4622678  53.6359384
  92.8538933  77.2966949  52.6947828  92.2836184  78.1698711  53.7921574
  90.2236036  79.7671590  72.9612947  91.0927196  79.9412242  72.5999582
  89.7442788  80.5866007  72.8388676  86.2186255  66.9630787  53.2144703
  86.2064924  67.9072627  53.3712973  87.1109676  66.7800932  52.9204164
  84.3922216  86.8868691  64.6402381  85.2949463  86.9192301  64.9568876
  84.1659587  85.9569142  64.6548716  86.1475818  85.6399677  61.3012459
  85.1971450  85.6401539  61.1876832  86.4508305  84.8932412  60.7848494
  90.0338374  63.5573564  57.4690639  89.2670770  63.0032050  57.6147322
  90.4449079  63.6295432  58.3304791 101.8828512  91.4760216  62.3658222
 102.5206922  91.3566963  61.6621562 101.7649355  92.4241060  62.4246174
  98.6918218  91.4287644  62.3019746  98.3536730  91.3128709  61.4140281
  99.5607986  91.0278809  62.2820752  94.5505034  93.2823120  58.2916637
  93.9869899  93.1913057  57.5232925  94.4357429  92.4623025  58.7719130
  99.1738001  92.5822496  68.2605952  99.1626642  92.1875294  67.3886456
  99.3358641  91.8488568  68.8539723  92.0969466  94.7774312  61.1300858
  92.8890758  94.4365137  60.7147157  92.3366116  94.8869287  62.0503011
 100.1304593  96.9494088  53.6031102  99.4792572  97.5348168  53.2165116
 100.9248955  97.4800283  53.6626140  94.0560220  94.0383225  54.0018237
  94.8291096  93.4912212  53.8631112  94.4085619  94.9027475  54.2132698
  95.8945262  95.3659607  67.2085136  95.6035128  96.2705238  67.0931802
  96.5302247  95.4076135  67.9229205  96.8201469  92.7436456  63.7986495
  97.4165041  92.5192478  63.0843458  96.8776441  92.0021201  64.4011943
  96.3926498  90.1975891  51.6336686  96.6452018  89.6757413  50.8720149
  95.4551057  90.0342037  51.7363370 101.4369780  89.2011670  59.4411430
 102.2232870  88.7831093  59.0901847 101.7008485  90.1057762  59.6093078
 101.6079858  94.6384520  54.1400086 100.9725691  94.7119147  54.8520991
 101.2777264  95.2278119  53.4619166 106.8378208  89.1386903  60.3444408
 107.5703380  88.5686120  60.5782238 106.0817563  88.7508503  60.7850914
  96.1122786  92.1003997  53.8361061  95.9959044  91.4248901  54.5042146
  96.2225046  91.6136371  53.0193214  98.4554327  91.5614144  57.5407751
  98.0912535  91.0344765  58.2520672  99.3121443  91.1712613  57.3674236
 104.3603628  82.8508477  64.8039017 104.0286953  83.7203888  64.5800232
 103.7649241  82.5344761  65.4833047  98.0959814  86.5904044  52.5369099
  98.2634217  87.4584280  52.9039570  97.9056983  86.7531326  51.6130388
 100.8535147  95.0521023  64.2034930 100.5535871  95.9546062  64.0950737
 100.5086207  94.7853206  65.0556082  94.3047629  91.5034820  60.2371634
  93.3798125  91.3711034  60.4449326  94.5532042  92.2829039  60.7341576
 104.2532291  87.5703563  61.8832367 103.3449169  87.5018972  61.5891128
 104.2019887  88.0475508  62.7114192  98.0749035  89.0461702  53.5215766
  97.9548660  89.4918752  54.3601246  97.3801624  89.3947019  52.9629304
  91.6656440  91.1468093  61.0715423  91.7948821  91.4002572  61.9854835
  90.9853891  91.7395801  60.7520078  95.8355927 101.8165343  57.1705897
  95.7579957 102.7673168  57.2494378  95.2317571 101.4711216  57.8280824
  98.3273157  88.9893209  69.8267264  97.5506491  89.5487129  69.8170129
  98.9663720  89.4749992  70.3482134 106.1193938  85.7720002  63.6610241
 105.4768318  86.0652535  63.0150035 105.6148866  85.6572922  64.4663437
 103.7734101  89.5183175  54.3496100 104.6851957  89.7510562  54.1743798
 103.2643748  90.1020219  53.7871179  96.5819529  91.7978662  69.3885231
  97.3234214  92.3363706  69.1120055  95.8756515  92.4244951  69.5456783
 102.0574869  93.9407803  67.9857393 102.4658225  93.4990213  67.2412025
 101.3352131  93.3660430  68.2391586  98.4105939  88.8780409  65.3590950
  99.2567134  89.3019823  65.5025599  98.3504577  88.2214034  66.0529513
 102.3803684  94.5008993  61.7409681 101.7512546  94.6654707  61.0385749
 101.9929346  94.9150603  62.5120646 106.2592916  95.4363431  59.0954045
 105.5743954  95.8162332  58.5451079 106.3436765  96.0458758  59.8285993
 101.5605384  86.5384778  67.0172123 101.3166316  87.2926838  66.4806399
 101.8365315  86.9170125  67.8519370 103.5143847  93.0823390  65.6949389
 103.7260742  93.7255150  65.0183770 103.4673595  92.2485707  65.2271319
 101.1170076  85.6941211  62.5985961 100.2554555  85.9922464  62.8902698
 101.1432511  85.9111610  61.6666994  97.9331646  94.2383401  59.0059767
  98.3969991  94.5171104  58.2164389  97.6688444  93.3366846  58.8232857
  94.8255727  93.7854883  61.9439530  95.3957084  94.2142151  61.3057014
  95.4163838  93.5037468  62.6423716  96.8700532  90.3606554  55.8149332
  97.5724575  90.8127597  56.2823258  96.5381160  89.7190373  56.4429225
  95.3180893  88.9518310  70.1900541  94.6879554  89.6334591  70.4235938
  95.2116981  88.8401392  69.2453679  90.6125866  88.6190106  61.1166465
  89.8224920  88.8747635  60.6406576  91.1037113  89.4338444  61.2218506
 104.6289675  95.9595346  63.8671746 105.4507119  95.5575533  63.5854428
 104.6252078  95.8563580  64.8187862  92.5640611  88.9834686  58.0749942
  91.7671774  89.0953380  58.5933438  92.3366203  89.3221338  57.2090833
  98.3946279  95.5079389  66.0232457  98.4590711  95.9699796  66.8590628
  97.6857202  94.8776754  66.1514766 112.7195668  92.3034094  60.2156718
 111.9659377  91.7341492  60.0600722 112.8543209  92.2696758  61.1627352
  98.1094296  97.1747496  55.8911437  97.9739971  98.0199032  56.3196285
  98.6504109  97.3766774  55.1277371  94.5961636  83.2539076  72.5525792
  94.2028581  82.7005275  73.2273436  95.4127776  83.5649655  72.9432310
  91.5623694  94.6922934  56.4639362  92.0748214  95.4866185  56.6144927
  92.2146406  93.9949225  56.3972963  93.3718578  97.8088691  58.5462115
  93.5485207  98.7306655  58.3583099  94.1675412  97.4947110  58.9756495
  97.5129597  84.6696955  70.1446049  98.2539310  85.2704108  70.0650511
  97.7447520  83.9274593  69.5864091  92.6570935  89.8553322  68.4224278
  92.5424450  88.9538580  68.7231377  91.8015453  90.1017019  68.0709095
  99.7362773  97.7971063  70.0211779  99.2926627  97.0107441  69.7032684
 100.3979986  97.9850213  69.3555670  94.4949894  99.3266864  64.5472458
  95.0457319  99.1983928  63.7749451  93.6561370  99.6261753  64.1967350
 101.8344011  98.0773863  68.0493180 101.8162486  98.8982744  67.5573449
 102.7563931  97.9527938  68.2743321  98.2917065  95.5917992  68.8916689
  98.8245402  94.8306280  68.6615997  97.7631146  95.2991644  69.6340843
 101.4586760  80.6978058  64.4210330 101.1151029  81.5879700  64.3449441
 101.8265722  80.5079716  63.5579915  89.5272610  93.0211589  57.2398933
  90.3647832  93.4308597  57.0232640  89.7050878  92.0811031  57.2099126
 101.4237042  90.6886669  52.9282766 100.9083666  91.4591274  53.1671153
 101.1514351  90.0151805  53.5515827  99.0084154  85.5336370  57.9868004
  98.1525750  85.1443220  57.8073643  99.4211105  85.6128331  57.1267789
 100.5383300  83.0682713  62.3859564 100.0348096  83.0312848  61.5727369
 100.8313907  83.9775456  62.4456220  96.7826186  83.1521443  61.3925745
  97.6479183  82.9564252  61.0331635  96.8503695  82.9231795  62.3195102
 106.3971317  93.4419024  54.8635939 105.6200759  93.1030183  54.4191101
 107.0762798  93.4471647  54.1890904 101.2123346  88.5613761  54.7542547
 100.9073481  88.8759911  55.6052690 102.1653788  88.6395181  54.7969880
  99.6569778  94.7203985  56.4035501  99.1291139  93.9856744  56.0908738
  99.1557280  95.4978661  56.1575469 104.6362624  92.9153005  61.5202547
 103.9786298  93.6052267  61.6082676 105.4403023  93.3049437  61.8636533
  94.3888505  85.3823651  58.7642112  94.9632257  85.1598832  58.0315305
  94.9759488  85.4512345  59.5170714 103.4468082  91.2697378  59.5706489
 103.9599964  91.9027370  60.0728198 104.0969306  90.6698573  59.2049849
  94.7158092  87.4128112  52.7837997  93.8795404  87.7502799  53.1047272
  94.5762862  87.2777092  51.8465134  96.6911173  82.2564900  57.4917182
  96.0375585  81.9413917  56.8673796  96.6491647  81.6340640  58.2177005
  97.8022378  92.5384195  49.4070474  96.8949439  92.3073448  49.6061623
  98.2993410  91.7421814  49.5944455 100.7090457 101.2481702  52.3267160
 100.0352155 101.5513399  52.9352118 101.0956279 102.0510782  51.9772617
  99.9248913  88.7446833  61.8164829  99.0071475  88.9661780  61.6586517
 100.3409057  88.8193144  60.9576537 100.7083961  90.1438249  56.9467510
 101.4555780  90.6559646  56.6374632 100.9775550  89.8222302  57.8071903
  98.9810611  92.6396790  53.9294464  98.0721830  92.3555823  54.0266934
  99.0105695  93.0595868  53.0697771 104.2129879  96.2503379  57.6985631
 103.7592206  95.4094289  57.7550822 103.5823845  96.8864778  58.0360412
 103.1562798  87.1795365  58.9286299 102.4185555  86.6672752  59.2596541
 103.4089572  86.7395747  58.1169576 102.6562818  98.0879876  58.6335450
 102.9485792  98.6484933  57.9147815 103.1661438  98.3808437  59.3888609
 103.2574425  79.9571617  59.5228068 103.5633302  79.0968981  59.2353983
 103.9827030  80.5489238  59.3227062  89.5498782  90.3602304  57.9109666
  89.3523181  89.7671665  57.1860733  88.9945445  90.0554514  58.6285605
  97.5295505  90.2525410  60.0304259  97.5844115  89.2999247  59.9546736
  96.7186707  90.4084850  60.5145558  98.6786699  94.1805533  51.2682542
  98.2406129  93.4641392  50.8088180  99.4197140  94.4081648  50.7067634
  95.4687865  88.8702470  57.7894638  94.6555731  89.1696641  58.1959830
  95.9646859  88.4758159  58.5069120  97.6196443  98.8660227  59.7228903
  97.5772622  99.0921073  58.7937435  98.5359142  98.6323602  59.8714704
 101.0662077  89.3344295  66.6209532 101.4211464  89.5615768  67.4803998
 101.7134208  89.6662671  65.9986787 106.7959814  92.4562731  57.3258861
 106.6577712  92.6464327  56.3980050 106.4396033  93.2182113  57.7826912
  94.9601940  86.4420826  63.4055873  95.6001319  86.3009585  62.7078836
  94.1279470  86.1555339  63.0294475 106.8229193  94.5239258  62.3370132
 107.2565700  94.4314547  63.1853186 107.5360774  94.4996758  61.6990148
  95.7362244  95.7423256  59.5190865  96.5302842  95.2473576  59.3173440
  95.0253936  95.2141119  59.1558571 100.5557088  98.1241352  63.8703233
 100.6094110  98.6932288  64.6380949  99.6871870  98.2943237  63.5057270
  92.0445007  89.8866338  55.5950618  91.1142595  89.8250793  55.8120580
  92.1402479  89.3642291  54.7987259  91.9630556  86.4121151  58.1828860
  92.2237374  87.3266484  58.0738020  92.7847729  85.9445593  58.3325473
  93.4355482  87.8258908  65.3527684  94.1078535  87.6176270  64.7040333
  92.6085268  87.6280994  64.9132917 107.6844743  94.5662958  64.8703018
 107.8780633  95.4708769  65.1162293 107.5845361  94.1070377  65.7041603
  99.3381054  84.4520849  67.3693345  98.6908969  85.1510798  67.2757822
 100.1082069  84.8856993  67.7369593 102.7459852  94.7169701  70.4443898
 102.5945358  94.4880253  69.5273982 102.7364531  95.6740302  70.4575243
  99.5145188  92.2901614  65.4290165 100.4437248  92.4412773  65.2559132
  99.0936218  92.3785634  64.5738811  98.3133520  96.3152278  63.1988703
  98.1744605  95.9471062  64.0714641  97.5248116  96.8299918  63.0272660
  98.9081672 101.4161375  54.5414239  99.0833427 100.9449418  55.3559862
  98.2214460 102.0427141  54.7695500  99.8638735  95.6933881  60.5877540
  99.5288567  95.6534651  61.4835190  99.3642681  95.0278597  60.1147951
  93.8382979  91.1001511  66.1130121  93.7002777  90.3681750  66.7141661
  94.7487902  91.0110411  65.8314309 102.7997927  93.0389915  50.8614600
 102.1827097  92.3136743  50.7647653 102.3314415  93.7999275  50.5181674
  96.4665280  90.8121470  65.6013801  97.1764898  90.1714662  65.5600420
  96.4234588  91.0634365  66.5239982 104.4552058  97.7488823  68.5220380
 104.3964604  97.0648044  67.8550963 104.8571577  98.4907813  68.0701006
  95.1794213  87.7986688  67.4209441  94.6431571  87.3477426  68.0731037
  94.5910922  87.9332597  66.6779905  93.4742757 104.5650737  61.3154099
  93.7139355 105.1969261  61.9933118  92.6311953 104.2138777  61.6019458
  94.5896472  87.2575339  49.9835904  93.7125939  87.1364140  49.6198151
  95.0654226  86.4661418  49.7314793 104.4569465  95.7128407  66.7534360
 103.5696244  95.3754329  66.8760759 105.0268017  94.9811439  66.9903125
  86.1098613  92.0452499  60.0777411  86.7969652  91.7314229  59.4898427
  85.9546741  92.9493864  59.8044663  90.9133335  86.9342696  64.5062435
  90.8291523  86.3268365  63.7712845  90.0916041  87.4251714  64.5071931
  97.9870619 100.3729860  63.7195603  97.9140790 101.1784831  64.2314908
  97.5448012 100.5721826  62.8943625  97.7760398  99.6101630  57.2298425
  96.9927920 100.1523310  57.3236649  98.4753144 100.1275609  57.6292666
 101.0857049  85.4196259  59.8732630 101.5825748  84.6666222  59.5533700
 100.3144030  85.4560576  59.3075839 108.9386806  91.1236625  61.5150922
 108.9276682  92.0061340  61.1444855 108.0704185  90.7708176  61.3205459
 100.4469302 100.2716694  65.8753762 101.1597275 100.9064159  65.8029663
  99.9559331 100.3680560  65.0593764 102.1686829  94.1767946  57.4471054
 101.2343108  94.2969409  57.2775758 102.3463498  93.2740413  57.1831063
  97.6692017  87.5613642  59.6004315  97.2989805  87.0084683  60.2885220
  98.1651110  86.9571776  59.0479315 105.5559381  90.0185266  57.9821088
 106.0219833  90.8513257  57.9081390 106.0066881  89.5530247  58.6866346
  95.4981216  98.0211137  66.6959333  96.1990675  98.6547620  66.8488727
  95.0276331  98.3625869  65.9354972 103.6235612  96.3629087  54.9807240
 103.8995456  96.2485682  55.8901114 102.7540110  95.9646572  54.9419413
 103.5276043  82.3865853  62.0211989 102.6139123  82.6170080  62.1894196
 103.9569145  82.4704297  62.8726021 103.2982502  90.5755745  64.5211883
 102.6453952  90.8231652  63.8664336 103.6762882  89.7619883  64.1874360
 100.2589676 100.6115438  58.6240053 100.4412070  99.7937094  59.0867806
 101.0822662 100.8283130  58.1864943 100.5931841  99.5383623  55.8855102
 101.1219608  99.0276078  55.2725264 100.8560061  99.2226153  56.7500635
  99.3470075  91.3175556  71.0077920  98.6710712  91.2169685  71.6780295
 100.1697709  91.1614770  71.4713917  91.0948934  97.5547492  63.6290435
  91.6802371  96.8091180  63.7618340  90.8973772  97.8651449  64.5127099
  93.9487589 100.5898740  58.6452878  93.2797964 101.0744867  58.1616918
  93.8100459 100.8367960  59.5596256  85.6866589  90.1253093  62.3494879
  85.7250688  89.5916683  63.1431997  85.1806882  89.5988298  61.7305856
  98.0892858 102.6242483  65.2435536  98.6411166 102.7874105  66.0084621
  98.4299051 103.2146921  64.5715561  93.0657351  84.9717633  65.8457421
  93.1298677  85.8332464  65.4334819  93.0024471  84.3591635  65.1129779
  92.5409624  87.0440766  69.4930455  93.1681662  86.6617843  70.1067979
  91.6837542  86.8254968  69.8586148 102.9403732  97.4503741  71.0984191
 103.4843636  98.0633699  70.6039145 102.3590577  98.0083319  71.6151204
  89.3175166  88.8517195  55.4248810  89.6128607  87.9427873  55.3715864
  88.4163202  88.8304934  55.1029812 101.2261245 100.5724459  62.2299218
 101.1012385  99.7714199  61.7210164 101.8840336 101.0670652  61.7413188
  92.8469413  86.9273191  61.4076359  92.1255999  87.5409159  61.2683832
  93.6362669  87.4630956  61.3293004 103.2896153  98.3733479  63.8578768
 102.3426489  98.2538830  63.7857095 103.6378927  97.4855977  63.9405030
  95.6495727  84.2627618  67.6817010  96.1730129  84.5089914  68.4443320
  95.4308060  85.0947653  67.2620148  91.0463008  86.5331292  55.5488135
  90.7175714  85.6528671  55.3663241  91.4002379  86.4778961  56.4364524
 100.2942587  98.1686195  60.0583121 100.1467549  97.2402902  60.2390691
 101.1196080  98.1906286  59.5740196  94.1604831  86.8204262  55.9163613
  94.5000904  87.3490183  55.1942221  94.6076952  87.1584668  56.6922179
 103.8976709  98.9914754  61.1447993 104.8223256  98.7857615  61.0072444
 103.7292012  98.7431155  62.0537335  96.8548272  85.2041313  65.3666681
  96.5145092  84.4049126  65.7687361  96.1487278  85.5043024  64.7943514
  97.5064744  82.2890625  63.8194004  98.3290813  81.8151103  63.6972894
  97.7502807  83.0681109  64.3192690  96.1472978  85.3178884  54.1156906
  96.8681341  85.6960137  53.6120622  95.5238282  86.0367761  54.2191883
 100.2904101  86.0224033  55.0515238 100.5067715  86.9048671  54.7504066
  99.8098168  85.6310246  54.3220880  95.0303322  88.9809746  61.6285982
  94.8847903  89.2950049  62.5210264  94.5528526  89.5994646  61.0756881
  96.8899705  85.9712294  61.6766872  96.8761274  85.0753387  61.3399170
  97.6072133  85.9782958  62.3105158  98.7425836  86.4049634  63.7219999
  98.4843614  87.3266705  63.7204330  98.2110876  86.0080069  64.4120464
 103.6872025  99.5100421  56.5010085 103.8608902  98.9446844  55.7483937
 104.1800916 100.3101316  56.3189575  96.2936601  84.8526674  56.9454442
  96.4152512  83.9243320  57.1445330  96.0038644  84.8665360  56.0332758
  99.1627792  82.5381585  60.0821162  99.1849488  82.6020918  59.1273142
  99.5795851  81.6986093  60.2761668 109.5411416  92.2736844  58.1200385
 109.9842562  91.5244169  57.7219508 108.6637926  92.2646981  57.7374117
 104.6747197  98.8267186  53.6006983 105.3698102  99.4473878  53.8194298
 105.0170347  97.9762537  53.8759361 106.5738620  96.2766891  55.1294314
 107.0989944  96.6154164  54.4043634 106.4860973  95.3413906  54.9457448
  98.2358669 100.1900965  67.2584190  98.5445796  99.9450112  68.1306890
  99.0334151 100.3947603  66.7703061  98.2579281 102.3438874  59.4889567
  97.8184271 101.8515253  60.1822424  99.0087398 101.8011842  59.2481642
  90.7371620  98.5350415  59.4914195  91.5629640  98.2354187  59.1112839
  90.3865672  97.7658038  59.9403984  95.7053153  97.8876884  61.5611869
  95.0833163  97.2247589  61.2614097  96.3758020  97.9138015  60.8785516
  88.9380225  96.4536742  60.4503129  88.1012133  96.0258916  60.2687130
  88.9103871  96.6469185  61.3873920  95.7777681  86.3658672  71.1544375
  95.8265836  87.2420794  70.7722144  96.3200195  85.8236065  70.5816018
 106.2632526  96.9099795  70.4345512 105.4728070  96.8923934  69.8950011
 106.0265881  97.4488089  71.1894548 106.3830402  93.7592261  67.7478240
 106.4328406  93.5942269  68.6893763 106.2744325  92.8919520  67.3576121
  95.2666660  96.4380807  55.0370329  95.4154781  97.1216271  54.3837002
  96.0733104  96.4185897  55.5519785 103.6734164  89.7423189  69.0637547
 104.5744027  89.6029654  68.7721545 103.7482138  89.9077644  70.0035724
  98.0076969  87.1190044  67.9090733  97.1380279  87.4123610  67.6373322
  98.2436450  87.7030489  68.6297997 107.8848598  96.1789203  67.9920262
 107.5933407  96.5419183  68.8283723 107.2720730  95.4656211  67.8133594
 109.0844281  93.7442082  60.5122832 109.9191172  94.1831887  60.6760392
 109.2203409  93.2680736  59.6931078 106.1335787  91.3021817  66.4600320
 106.6089908  91.4949464  65.6519171 105.2101352  91.3581003  66.2143704
  93.0219293  92.4645985  56.0431398  92.7765335  91.5608315  56.2411608
  93.1915208  92.4663135  55.1010876 100.7116003  83.3369661  65.4256154
 101.2297947  84.0730688  65.1002642 100.3571136  83.6433654  66.2602913
  92.2914941  88.1974342  53.5417560  91.5984186  88.2718697  52.8857596
  92.0466693  87.4334686  54.0639077 100.9628597  79.7569943  60.9457050
 101.2430351  79.0893132  61.5717477 101.7479204  79.9499039  60.4331714
  98.7662066  98.9328937  52.5082077  98.1936033  99.5519124  52.0552549
  99.3394859  99.4828299  53.0421999 104.8337456  88.1787577  64.6928625
 105.7854878  88.2785675  64.7140850 104.6640906  87.3865846  65.2026710
 102.8551835  85.2643161  64.8788026 102.2601767  85.5448173  64.1834515
 102.5701532  85.7537062  65.6504767 101.9859326  99.2166087  53.6390659
 102.9189999  99.1511649  53.8423534 101.8982538 100.0522354  53.1805192
 104.6147342  98.5331958  50.5994607 104.5360974  98.1991821  51.4930364
 105.4357009  99.0253726  50.5986079 107.3125533  91.3993697  63.8070925
 107.2801853  90.4609698  63.9930609 107.9226157  91.4777734  63.0736750
  99.1508864  90.2689750  49.8498129 100.0967969  90.1395958  49.9186547
  98.7723109  89.5304412  50.3267557 107.4620022  88.1904741  63.8529208
 106.9459071  87.4063197  63.6659137 108.3459970  87.8623457  64.0175728
 105.1230749  81.9345756  59.8125021 104.9255570  81.6260844  60.6968353
 105.7330454  82.6607395  59.9422951 113.1302083  92.4609704  62.9476962
 113.8605472  92.1994992  63.5084665 112.5209029  91.7238426  62.9879030
 111.2117380  90.6017567  63.5451413 110.4850544  90.4673531  62.9367905
 110.7964667  90.9094395  64.3508131  99.0347557  94.3207496  71.3098786
  99.9550566  94.4986095  71.5038833  98.9997140  93.3763542  71.1578485
  97.3351781  88.1939726  49.7853014  96.4283237  87.8972839  49.8615728
  97.6127762  87.8969545  48.9187301  88.2529722  89.5146090  60.2352061
  87.9332506  88.6611398  59.9426435  87.7063150  89.7294668  60.9910028
  92.0309629  92.2308531  63.9521567  92.2495639  93.1625639  63.9709601
  92.4435403  91.8716505  64.7376371  98.9513847  82.7376616  55.9397256
  98.1414575  82.3923701  56.3152502  99.6398264  82.4284160  56.5284867
 100.8804395  81.8154663  57.5621552 101.4335434  82.2350116  58.2211575
 101.1174482  80.8890411  57.6044508  96.9037495  87.8041737  73.3424316
  96.8034222  88.7536094  73.2736407  96.6859037  87.4759976  72.4700386
  96.1050566  85.0526662  49.9264994  96.9669730  85.3781560  50.1860811
  96.2900910  84.2658158  49.4138059  88.1217982  93.1349001  62.2045182
  87.4281453  92.7202954  61.6915137  88.8690973  93.1769538  61.6078601
 104.2583202  83.9255188  57.0700217 103.6781872  84.5839992  56.6878269
 103.9919135  83.1032533  56.6587634 102.7086769  83.3260246  59.2721537
 103.2086547  83.4376780  58.4635856 103.3522377  83.0221299  59.9122345
  96.7668765  91.2338875  72.1589378  96.2835846  92.0339236  72.3653267
  96.8529704  91.2446820  71.2056822  90.0354724  93.0667255  60.0811197
  90.0125412  93.1654942  59.1293080  90.3455361  93.9132406  60.4028363
  92.6942102  95.1243410  64.1957812  93.6485356  95.0927353  64.1287743
  92.4954626  94.6634034  65.0108038  93.2841484  93.6944526  66.7628609
  94.1034373  94.1888605  66.7863447  93.5578292  92.7776494  66.7346177
 103.0408081  86.0855279  56.1256565 102.1533936  86.3704929  55.9076760
 103.4562070  85.9249042  55.2783842 106.3922617  86.1101800  59.8410904
 107.1683007  86.5998252  60.1135521 105.6670751  86.5359854  60.2982774
 108.8295175  86.8229419  60.8984845 109.4239666  86.5825155  60.1878153
 108.9021759  86.1036549  61.5258381  91.0492331 100.6663030  61.2128010
  90.9146799  99.9063431  60.6466008  90.6324393 101.3903930  60.7456798
 102.1851294  95.8499953  50.2204585 102.8887144  96.0549956  50.8362240
 101.4613943  96.4176715  50.4853668 103.0149104  91.6009814  56.3406855
 102.9584306  92.0578366  55.5014487 103.5677447  90.8400499  56.1629698
 106.8253910  87.3899546  57.1656975 106.5690844  86.9896182  57.9965182
 106.2006778  88.1043340  57.0407114 111.1366248  90.1295620  59.6728266
 110.5765806  90.1988809  60.4459828 110.5309751  89.9536604  58.9527762
  94.2061457 101.5632347  61.4246452  94.0893841 102.5077779  61.3225142
  93.3853903 101.2605908  61.8132251 104.0937991  96.2882482  52.2703045
 104.9283595  95.8563681  52.0880520 103.9322334  96.1164496  53.1979939
 103.7483884  92.7914596  53.6359384 103.6932687  92.6258867  52.6947828
 103.1229939  93.4990629  53.7921574  88.5376399  88.0282660  67.4620806
  89.1835262  87.5181614  67.9508032  88.3293550  88.7651342  68.0364232
 101.0629791  95.0963508  72.9612947 101.9320950  95.2704160  72.5999582
 100.5836542  95.9157924  72.8388676  97.0580009  82.2922705  53.2144703
  97.0458679  83.2364545  53.3712973  97.9503431  82.1092850  52.9204164
  95.2315971 102.2160609  64.6402381  96.1343218 102.2484219  64.9568876
  95.0053341 101.2861060  64.6548716  96.9869573 100.9691595  61.3012459
  96.0365204 100.9693457  61.1876832  97.2902059 100.2224330  60.7848494
 100.8732128  78.8865481  57.4690639 100.1064524  78.3323968  57.6147322
 101.2842833  78.9587350  58.3304791  92.8773890  85.1750277  71.5595821
  93.7405351  84.8187082  71.7699145  92.3039300  84.8364172  72.2471225
 112.7222266 106.8052134  62.3658222 113.3600676 106.6858881  61.6621562
 112.6043109 107.7532977  62.4246174 109.5311973 106.7579562  62.3019746
 109.1930484 106.6420626  61.4140281 110.4001741 106.3570727  62.2820752
 105.3898788 108.6115038  58.2916637 104.8263654 108.5204975  57.5232925
 105.2751183 107.7914942  58.7719130 110.0131756 107.9114413  68.2605952
 110.0020397 107.5167212  67.3886456 110.1752395 107.1780486  68.8539723
 102.9363220 110.1066230  61.1300858 103.7284512 109.7657054  60.7147157
 103.1759871 110.2161205  62.0503011 104.8953974 109.3675143  54.0018237
 105.6684850 108.8204130  53.8631112 105.2479373 110.2319392  54.2132698
 106.7339017 110.6951525  67.2085136 106.4428883 111.5997156  67.0931802
 107.3696001 110.7368053  67.9229205 107.6595224 108.0728374  63.7986495
 108.2558796 107.8484396  63.0843458 107.7170195 107.3313119  64.4011943
 107.2320252 105.5267809  51.6336686 107.4845773 105.0049330  50.8720149
 106.2944811 105.3633954  51.7363370 112.2763535 104.5303587  59.4411430
 113.0626624 104.1123011  59.0901847 112.5402239 105.4349680  59.6093078
 117.6771962 104.4678821  60.3444408 118.4097134 103.8978037  60.5782238
 116.9211318 104.0800421  60.7850914 106.9516541 107.4295915  53.8361061
 106.8352799 106.7540818  54.5042146 107.0618801 106.9428289  53.0193214
 109.2948082 106.8906062  57.5407751 108.9306289 106.3636683  58.2520672
 110.1515198 106.5004531  57.3674236 115.1997382  98.1800395  64.8039017
 114.8680707  99.0495806  64.5800232 114.6042996  97.8636679  65.4833047
 108.9353569 101.9195962  52.5369099 109.1027971 102.7876198  52.9039570
 108.7450738 102.0823243  51.6130388 105.1441383 106.8326738  60.2371634
 104.2191880 106.7002952  60.4449326 105.3925797 107.6120957  60.7341576
 115.0926046 102.8995481  61.8832367 114.1842923 102.8310889  61.5891128
 115.0413642 103.3767426  62.7114192 108.9142790 104.3753619  53.5215766
 108.7942415 104.8210670  54.3601246 108.2195378 104.7238937  52.9629304
 102.5050194 106.4760011  61.0715423 102.6342576 106.7294490  61.9854835
 101.8247646 107.0687719  60.7520078 109.1666912 104.3185126  69.8267264
 108.3900246 104.8779047  69.8170129 109.8057475 104.8041909  70.3482134
 116.9587692 101.1011919  63.6610241 116.3162072 101.3944452  63.0150035
 116.4542621 100.9864840  64.4663437 114.6127856 104.8475092  54.3496100
 115.5245712 105.0802479  54.1743798 114.1037503 105.4312137  53.7871179
 107.4213284 107.1270580  69.3885231 108.1627968 107.6655624  69.1120055
 106.7150269 107.7536869  69.5456783 112.8968623 109.2699720  67.9857393
 113.3051980 108.8282131  67.2412025 112.1745885 108.6952348  68.2391586
 109.2499694 104.2072327  65.3590950 110.0960889 104.6311741  65.5025599
 109.1898331 103.5505951  66.0529513 112.3999139 101.8676695  67.0172123
 112.1560071 102.6218756  66.4806399 112.6759069 102.2462043  67.8519370
 111.9563831 101.0233128  62.5985961 111.0948310 101.3214382  62.8902698
 111.9826265 101.2403527  61.6666994 108.7725400 109.5675319  59.0059767
 109.2363746 109.8463022  58.2164389 108.5082198 108.6658764  58.8232857
 105.6649481 109.1146801  61.9439530 106.2350838 109.5434069  61.3057014
 106.2557593 108.8329385  62.6423716 107.7094286 105.6898471  55.8149332
 108.4118329 106.1419515  56.2823258 107.3774915 105.0482290  56.4429225
 106.1574648 104.2810228  70.1900541 105.5273308 104.9626509  70.4235938
 106.0510735 104.1693310  69.2453679 101.4519620 103.9482024  61.1166465
 100.6618674 104.2039553  60.6406576 101.9430867 104.7630362  61.2218506
 103.4034365 104.3126603  58.0749942 102.6065529 104.4245298  58.5933438
 103.1759958 104.6513255  57.2090833 109.2340033 110.8371306  66.0232457
 109.2984466 111.2991714  66.8590628 108.5250957 110.2068671  66.1514766
  99.7357323 104.2012514  63.5481456  99.9865361 105.0859524  63.8139032
 100.2716871 104.0217116  62.7756548 105.4355390  98.5830994  72.5525792
 105.0422336  98.0297192  73.2273436 106.2521531  98.8941572  72.9432310
 102.4017448 110.0214852  56.4639362 102.9141969 110.8158102  56.6144927
 103.0540161 109.3241142  56.3972963 104.2112333 113.1380608  58.5462115
 104.3878961 114.0598573  58.3583099 105.0069166 112.8239027  58.9756495
 108.3523351  99.9988873  70.1446049 109.0933065 100.5996026  70.0650511
 108.5841274  99.2566511  69.5864091 103.4964689 105.1845240  68.4224278
 103.3818204 104.2830497  68.7231377 102.6409207 105.4308937  68.0709095
 105.3343648 114.6558782  64.5472458 105.8851073 114.5275845  63.7749451
 104.4955124 114.9553671  64.1967350 109.1310819 110.9209910  68.8916689
 109.6639156 110.1598198  68.6615997 108.6024900 110.6283562  69.6340843
 112.2980514  96.0269976  64.4210330 111.9544784  96.9171618  64.3449441
 112.6659477  95.8371633  63.5579915 100.3666365 108.3503506  57.2398933
 101.2041587 108.7600515  57.0232640 100.5444633 107.4102948  57.2099126
 112.2630797 106.0178587  52.9282766 111.7477420 106.7883192  53.1671153
 111.9908105 105.3443723  53.5515827 109.8477908 100.8628288  57.9868004
 108.9919504 100.4735138  57.8073643 110.2604860 100.9420249  57.1267789
 111.3777055  98.3974631  62.3859564 110.8741850  98.3604766  61.5727369
 111.6707662  99.3067374  62.4456220 107.6219941  98.4813361  61.3925745
 108.4872937  98.2856169  61.0331635 107.6897449  98.2523712  62.3195102
 112.0517100 103.8905679  54.7542547 111.7467236 104.2051828  55.6052690
 113.0047542 103.9687099  54.7969880 110.4963532 110.0495902  56.4035501
 109.9684894 109.3148662  56.0908738 109.9951035 110.8270579  56.1575469
 105.2282260 100.7115569  58.7642112 105.8026012 100.4890750  58.0315305
 105.8153242 100.7804263  59.5170714 114.2861837 106.5989296  59.5706489
 114.7993719 107.2319287  60.0728198 114.9363061 105.9990491  59.2049849
 105.5551847 102.7420030  52.7837997 104.7189159 103.0794716  53.1047272
 105.4156616 102.6069009  51.8465134 107.5304927  97.5856818  57.4917182
 106.8769340  97.2705835  56.8673796 107.4885401  96.9632558  58.2177005
 108.6416132 107.8676113  49.4070474 107.7343194 107.6365366  49.6061623
 109.1387164 107.0713732  49.5944455 110.7642668 104.0738751  61.8164829
 109.8465229 104.2953698  61.6586517 111.1802811 104.1485062  60.9576537
 111.5477715 105.4730167  56.9467510 112.2949534 105.9851564  56.6374632
 111.8169305 105.1514219  57.8071903 109.8204366 107.9688707  53.9294464
 108.9115585 107.6847740  54.0266934 109.8499449 108.3887786  53.0697771
 113.9956553 102.5087283  58.9286299 113.2579309 101.9964669  59.2596541
 114.2483326 102.0687665  58.1169576 114.0968180  95.2863535  59.5228068
 114.4027057  94.4260898  59.2353983 114.8220785  95.8781155  59.3227062
 100.3892536 105.6894222  57.9109666 100.1916936 105.0963582  57.1860733
  99.8339200 105.3846432  58.6285605 108.3689260 105.5817328  60.0304259
 108.4237869 104.6291164  59.9546736 107.5580462 105.7376767  60.5145558
 109.5180453 109.5097451  51.2682542 109.0799883 108.7933310  50.8088180
 110.2590894 109.7373566  50.7067634 106.3081620 104.1994388  57.7894638
 105.4949485 104.4988558  58.1959830 106.8040614 103.8050077  58.5069120
 111.9055831 104.6636212  66.6209532 112.2605219 104.8907685  67.4803998
 112.5527962 104.9954589  65.9986787 105.7995694 101.7712743  63.4055873
 106.4395074 101.6301502  62.7078836 104.9673225 101.4847257  63.0294475
 106.5755998 111.0715174  59.5190865 107.3696597 110.5765494  59.3173440
 105.8647691 110.5433037  59.1558571 102.8838762 105.2158256  55.5950618
 101.9536350 105.1542711  55.8120580 102.9796234 104.6934208  54.7987259
 102.8024311 101.7413068  58.1828860 103.0631128 102.6558402  58.0738020
 103.6241483 101.2737511  58.3325473 104.2749236 103.1550826  65.3527684
 104.9472290 102.9468188  64.7040333 103.4479023 102.9572912  64.9132917
 110.1774808  99.7812766  67.3693345 109.5302723 100.4802716  67.2757822
 110.9475823 100.2148910  67.7369593 110.3538942 107.6193531  65.4290165
 111.2831002 107.7704691  65.2559132 109.9329972 107.7077552  64.5738811
 109.1527274 111.6444196  63.1988703 109.0138360 111.2762980  64.0714641
 108.3641870 112.1591835  63.0272660 110.7032489 111.0225798  60.5877540
 110.3682322 110.9826568  61.4835190 110.2036435 110.3570514  60.1147951
 104.6776733 106.4293428  66.1130121 104.5396531 105.6973667  66.7141661
 105.5881657 106.3402329  65.8314309 113.6391681 108.3681833  50.8614600
 113.0220852 107.6428661  50.7647653 113.1708169 109.1291193  50.5181674
 107.3059034 106.1413388  65.6013801 108.0158653 105.5006580  65.5600420
 107.2628342 106.3926283  66.5239982 106.0187968 103.1278606  67.4209441
 105.4825325 102.6769344  68.0731037 105.4304676 103.2624515  66.6779905
 105.4290227 102.5867257  49.9835904 104.5519693 102.4656058  49.6198151
 105.9047980 101.7953335  49.7314793  96.9492367 107.3744417  60.0777411
  97.6363407 107.0606147  59.4898427  96.7940496 108.2785781  59.8044663
 101.7527089 102.2634613  64.5062435 101.6685278 101.6560283  63.7712845
 100.9309796 102.7543632  64.5071931 111.9250803 100.7488177  59.8732630
 112.4219503  99.9958139  59.5533700 111.1537785 100.7852494  59.3075839
 113.0080584 109.5059864  57.4471054 112.0736863 109.6261327  57.2775758
 113.1857252 108.6032331  57.1831063 108.5085772 102.8905560  59.6004315
 108.1383559 102.3376600  60.2885220 109.0044864 102.2863693  59.0479315
 116.3953135 105.3477183  57.9821088 116.8613587 106.1805175  57.9081390
 116.8460636 104.8822165  58.6866346 106.3374970 113.3503055  66.6959333
 107.0384430 113.9839538  66.8488727 105.8670085 113.6917786  65.9354972
 114.3669798  97.7157770  62.0211989 113.4532878  97.9461997  62.1894196
 114.7962899  97.7996214  62.8726021 114.1376256 105.9047662  64.5211883
 113.4847707 106.1523570  63.8664336 114.5156636 105.0911801  64.1874360
 110.1863829 106.6467473  71.0077920 109.5104466 106.5461603  71.6780295
 111.0091463 106.4906687  71.4713917 101.9342688 112.8839410  63.6290435
 102.5196125 112.1383098  63.7618340 101.7367527 113.1943367  64.5127099
  96.5260343 105.4545010  62.3494879  96.5644443 104.9208601  63.1431997
  96.0200636 104.9280216  61.7305856 103.9051105 100.3009551  65.8457421
 103.9692432 101.1624382  65.4334819 103.8418226  99.6883552  65.1129779
 103.3803378 102.3732683  69.4930455 104.0075417 101.9909761  70.1067979
 102.5231297 102.1546885  69.8586148 100.1568921 104.1809112  55.4248810
 100.4522362 103.2719791  55.3715864  99.2556957 104.1596852  55.1029812
 103.6863168 102.2565109  61.4076359 102.9649754 102.8701077  61.2683832
 104.4756424 102.7922874  61.3293004 106.4889481  99.5919535  67.6817010
 107.0123883  99.8381832  68.4443320 106.2701815 100.4239570  67.2620148
 101.8856762 101.8623210  55.5488135 101.5569469 100.9820589  55.3663241
 102.2396133 101.8070879  56.4364524 104.9998586 102.1496180  55.9163613
 105.3394658 102.6782101  55.1942221 105.4470706 102.4876586  56.6922179
 107.6942026 100.5333231  65.3666681 107.3538847  99.7341044  65.7687361
 106.9881033 100.8334941  64.7943514 108.3458498  97.6182543  63.8194004
 109.1684567  97.1443021  63.6972894 108.5896562  98.3973027  64.3192690
 106.9866733 100.6470801  54.1156906 107.7075095 101.0252054  53.6120622
 106.3632037 101.3659678  54.2191883 111.1297856 101.3515950  55.0515238
 111.3461470 102.2340588  54.7504066 110.6491923 100.9602164  54.3220880
 105.8697077 104.3101664  61.6285982 105.7241658 104.6241967  62.5210264
 105.3922281 104.9286564  61.0756881 107.7293460 101.3004212  61.6766872
 107.7155029 100.4045305  61.3399170 108.4465888 101.3074875  62.3105158
 109.5819591 101.7341552  63.7219999 109.3237368 102.6558622  63.7204330
 109.0504631 101.3371986  64.4120464 100.3442739 106.8507008  64.5673644
  99.7996207 107.6266816  64.6993918 101.2222089 107.1977812  64.4092765
 107.1330356 100.1818592  56.9454442 107.2546267  99.2535238  57.1445330
 106.8432398 100.1957278  56.0332758 110.0021546  97.8673502  60.0821162
 110.0243243  97.9312835  59.1273142 110.4189605  97.0278011  60.2761668
 101.1308761 105.9776904  67.4603800 100.3890497 106.1259540  68.0468431
 100.8101505 106.2385170  66.5970550 101.5765375 113.8642333  59.4914195
 102.4023395 113.5646105  59.1112839 101.2259427 113.0949955  59.9403984
 106.5446908 113.2168801  61.5611869 105.9226917 112.5539506  61.2614097
 107.2151775 113.2429933  60.8785516  99.7773980 111.7828659  60.4503129
  98.9405888 111.3550834  60.2687130  99.7497625 111.9761103  61.3873920
 106.6171435 101.6950589  71.1544375 106.6659591 102.5712712  70.7722144
 107.1593949 101.1527982  70.5816018 106.1060415 111.7672725  55.0370329
 106.2548535 112.4508189  54.3837002 106.9126858 111.7477815  55.5519785
 114.5127918 105.0715107  69.0637547 115.4137781 104.9321572  68.7721545
 114.5875893 105.2369562  70.0035724 108.8470724 102.4481962  67.9090733
 107.9774033 102.7415528  67.6373322 109.0830204 103.0322407  68.6297997
 103.8613048 107.7937902  56.0431398 103.6159090 106.8900232  56.2411608
 104.0308962 107.7955053  55.1010876 111.5509758  98.6661579  65.4256154
 112.0691701  99.4022605  65.1002642 111.1964890  98.9725572  66.2602913
 103.1308695 103.5266260  53.5417560 102.4377940 103.6010615  52.8857596
 102.8860447 102.7626603  54.0639077 111.8022352  95.0861861  60.9457050
 112.0824106  94.4185050  61.5717477 112.5872959  95.2790957  60.4331714
 115.6731210 103.5079495  64.6928625 116.6248633 103.6077593  64.7140850
 115.5034660 102.7157764  65.2026710 113.6945590 100.5935078  64.8788026
 113.0995522 100.8740091  64.1834515 113.4095286 101.0828979  65.6504767
 109.9902619 105.5981668  49.8498129 110.9361723 105.4687876  49.9186547
 109.6116864 104.8596330  50.3267557 118.3013776 103.5196658  63.8529208
 117.7852825 102.7355115  63.6659137 119.1853725 103.1915375  64.0175728
 115.9624503  97.2637674  59.8125021 115.7649324  96.9552762  60.6968353
 116.5724209  97.9899313  59.9422951 109.8741311 109.6499414  71.3098786
 110.7944321 109.8278013  71.5038833 109.8390894 108.7055459  71.1578485
 108.1745536 103.5231644  49.7853014 107.2676991 103.2264757  49.8615728
 108.4521517 103.2261462  48.9187301  99.0923476 104.8438008  60.2352061
  98.7726261 103.9903316  59.9426435  98.5456904 105.0586586  60.9910028
 102.8703384 107.5600449  63.9521567 103.0889394 108.4917556  63.9709601
 103.2829158 107.2008423  64.7376371 109.7907602  98.0668534  55.9397256
 108.9808330  97.7215619  56.3152502 110.4792019  97.7576078  56.5284867
 111.7198150  97.1446581  57.5621552 112.2729189  97.5642034  58.2211575
 111.9568236  96.2182329  57.6044508 107.7431249 103.1333654  73.3424316
 107.6427976 104.0828011  73.2736407 107.5252791 102.8051893  72.4700386
 106.9444321 100.3818579  49.9264994 107.8063485 100.7073478  50.1860811
 107.1294665  99.5950075  49.4138059  98.9611736 108.4640919  62.2045182
  98.2675208 108.0494872  61.6915137  99.7084727 108.5061456  61.6078601
 115.0976957  99.2547106  57.0700217 114.5175626  99.9131910  56.6878269
 114.8312890  98.4324450  56.6587634 113.5480523  98.6552164  59.2721537
 114.0480302  98.7668698  58.4635856 114.1916131  98.3513216  59.9122345
 107.6062519 106.5630793  72.1589378 107.1229601 107.3631153  72.3653267
 107.6923458 106.5738738  71.2056822 100.8748479 108.3959173  60.0811197
 100.8519167 108.4946860  59.1293080 101.1849115 109.2424324  60.4028363
 103.5335857 110.4535328  64.1957812 104.4879110 110.4219270  64.1287743
 103.3348380 109.9925952  65.0108038 104.1235239 109.0236444  66.7628609
 104.9428128 109.5180523  66.7863447 104.3972047 108.1068412  66.7346177
 113.8801835 101.4147196  56.1256565 112.9927690 101.6996847  55.9076760
 114.2955824 101.2540960  55.2783842 117.2316371 101.4393717  59.8410904
 118.0076761 101.9290170  60.1135521 116.5064505 101.8651771  60.2982774
 119.6688930 102.1521336  60.8984845 120.2633421 101.9117072  60.1878153
 119.7415513 101.4328467  61.5258381 101.8886085 115.9954947  61.2128010
 101.7540553 115.2355348  60.6466008 101.4718148 116.7195847  60.7456798
 113.8542859 106.9301732  56.3406855 113.7978060 107.3870284  55.5014487
 114.4071201 106.1692417  56.1629698 117.6647665 102.7191464  57.1656975
 117.4084599 102.3188100  57.9965182 117.0400533 103.4335258  57.0407114
 114.5877638 108.1206513  53.6359384 114.5326442 107.9550785  52.6947828
 113.9623693 108.8282546  53.7921574  99.3770153 103.3574578  67.4620806
 100.0229017 102.8473532  67.9508032  99.1687304 104.0943259  68.0364232
 107.8973764  97.6214622  53.2144703 107.8852433  98.5656462  53.3712973
 108.7897185  97.4384768  52.9204164 111.7125883  94.2157399  57.4690639
 110.9458279  93.6615886  57.6147322 112.1236588  94.2879268  58.3304791
 103.7167644 100.5042195  71.5595821 104.5799106 100.1479000  71.7699145
 103.1433055 100.1656090  72.2471225  44.4949447  -8.2109822  49.0265053
  44.1567959  -8.3268757  48.1385588  45.3639215  -8.6118657  49.0066059
  40.3536263  -6.3574345  45.0161944  39.7901128  -6.4484408  44.2478232
  40.2388658  -7.1774441  45.4964436  44.9769230  -7.0574970  54.9851258
  44.9657871  -7.4522172  54.1131762  45.1389870  -7.7908898  55.5785030
  37.9000695  -4.8623154  47.8546164  38.6921987  -5.2032329  47.4392464
  38.1397345  -4.7528179  48.7748318  45.9335821  -2.6903378  40.3276409
  45.2823801  -2.1049297  39.9410423  46.7280184  -2.1597183  40.3871446
  39.8591449  -5.6014241  40.7263543  40.6322325  -6.1485253  40.5876419
  40.2116848  -4.7369991  40.9378005  41.6976491  -4.2737858  53.9330442
  41.4066357  -3.3692227  53.8177109  42.3333476  -4.2321331  54.6474512
  42.6232698  -6.8961010  50.5231802  43.2196270  -7.1204987  49.8088765
  42.6807670  -7.6376264  51.1257250  47.4111087  -5.0012946  40.8645393
  46.7756920  -4.9278319  41.5766298  47.0808493  -4.4119347  40.1864472
  41.9154015  -7.5393469  40.5606368  41.7990273  -8.2148565  41.2287452
  42.0256275  -8.0261095  39.7438521  44.2585556  -8.0783321  44.2653057
  43.8943763  -8.6052700  44.9765979  45.1152672  -8.4684852  44.0919543
  46.6566376  -4.5876443  50.9280236  46.3567099  -3.6851404  50.8196043
  46.3117436  -4.8544260  51.7801389  40.1078858  -8.1362646  46.9616941
  39.1829354  -8.2686432  47.1694632  40.3563271  -7.3568427  47.4586883
  41.6387156   2.1767878  43.8951204  41.5611186   3.1275703  43.9739684
  41.0348800   1.8313750  44.5526130  42.3850758  -7.8418804  56.1130538
  43.1265443  -7.3033760  55.8365361  41.6787744  -7.2152515  56.2702090
  47.8606098  -5.6989663  54.7102699  48.2689454  -6.1407253  53.9657332
  47.1383359  -6.2737036  54.9636892  48.1834912  -5.1388473  48.4654988
  47.5543775  -4.9742758  47.7631056  47.7960575  -4.7246863  49.2365952
  52.0624144  -4.2034035  45.8199352  51.3775182  -3.8235133  45.2696385
  52.1467994  -3.5938708  46.5531300  49.3175076  -6.5574076  52.4194695
  49.5291971  -5.9142316  51.7429076  49.2704824  -7.3911759  51.9516625
  43.7362874  -5.4014064  45.7305073  44.2001220  -5.1226362  44.9409696
  43.4719672  -6.3030620  45.5478164  40.6286955  -5.8542583  48.6684836
  41.1988312  -5.4255315  48.0302321  41.2195067  -6.1359998  49.3669022
  50.4320904  -3.6802120  50.5917053  51.2538348  -4.0821933  50.3099734
  50.4283307  -3.7833886  51.5433169  44.1977507  -4.1318077  52.7477763
  44.2621940  -3.6697670  53.5835935  43.4888431  -4.7620712  52.8760073
  43.9125525  -2.4649969  42.6156744  43.7771200  -1.6198434  43.0441591
  44.4535338  -2.2630692  41.8522677  37.3654922  -4.9474531  43.1884669
  37.8779443  -4.1531281  43.3390233  38.0177635  -5.6448241  43.1218270
  39.1749807  -1.8308775  45.2707422  39.3516435  -0.9090810  45.0828406
  39.9706641  -2.1450356  45.7001802  45.5394001  -1.8426403  56.7457086
  45.0957856  -2.6290024  56.4277990  46.2011215  -1.6547252  56.0800976
  40.2981123  -0.3130601  51.2717764  40.8488548  -0.4413538  50.4994758
  39.4592598  -0.0135712  50.9212657  47.6375239  -1.5623603  54.7738487
  47.6193715  -0.7414722  54.2818756  48.5595159  -1.6869528  54.9988628
  44.0948294  -4.0479474  55.6161995  44.6276630  -4.8091185  55.3861303
  43.5662375  -4.3405822  56.3586150  45.4601006  -4.9193481  43.1280807
  44.9322368  -5.6540722  42.8154045  44.9588509  -4.1418805  42.8820776
  50.4393852  -6.7244461  48.2447854  49.7817527  -6.0345199  48.3327982
  51.2434252  -6.3348029  48.5881840  43.6053606  -7.1013271  36.1315780
  42.6980668  -7.3324017  36.3306929  44.1024638  -7.8975652  36.3189762
  46.5121685   1.6084236  39.0512467  45.8383384   1.9115933  39.6597424
  46.8987507   2.4113317  38.7017924  44.7841840  -7.0000676  40.6539770
  43.8753059  -7.2841643  40.7512240  44.8136924  -6.5801597  39.7943077
  50.0161107  -3.3894086  44.4230938  49.5623434  -4.2303177  44.4796128
  49.3855074  -2.7532688  44.7605718  48.4594047  -1.5517590  45.3580756
  48.7517021  -0.9912533  44.6393122  48.9692667  -1.2589029  46.1133915
  44.4817928  -5.4591932  37.9927849  44.0437358  -6.1756073  37.5333486
  45.2228369  -5.2315817  37.4312940  43.4227672  -0.7737239  46.4474209
  43.3803851  -0.5476392  45.5182741  44.3390371  -1.0073864  46.5960010
  52.6260422  -5.1158208  49.0615439  53.0596929  -5.2082919  49.9098493
  53.3392003  -5.1400708  48.4235455  41.5393473  -3.8974210  46.2436172
  42.3334071  -4.3923890  46.0418747  40.8285165  -4.4256347  45.8803878
  46.3588317  -1.5156114  50.5948540  46.4125339  -0.9465178  51.3626256
  45.4903098  -1.3454229  50.2302577  53.4875972  -5.0734508  51.5948324
  53.6811862  -4.1688697  51.8407599  53.3876590  -5.5327089  52.4286910
  48.5491080  -4.9227765  57.1689205  48.3976587  -5.1517213  56.2519289
  48.5395760  -3.9657163  57.1820550  45.3176417  -7.3495852  52.1535472
  46.2468477  -7.1984692  51.9804439  44.8967447  -7.2611831  51.2984118
  44.1164749  -3.3245188  49.9234009  43.9775834  -3.6926403  50.7959947
  43.3279345  -2.8097548  49.7517967  44.7112901   1.7763909  41.2659546
  44.8864656   1.3051952  42.0805168  44.0245689   2.4029675  41.4940806
  45.6669964  -3.9463585  47.3122847  45.3319796  -3.9862815  48.2080497
  45.1673909  -4.6118869  46.8393257  39.6414208  -8.5395955  52.8375428
  39.5034006  -9.2715716  53.4386967  40.5519131  -8.6287055  52.5559616
  48.6029155  -6.6007551  37.5859907  47.9858326  -7.3260722  37.4892959
  48.1345644  -5.8398190  37.2426981  42.2696508  -8.8275996  52.3259108
  42.9796127  -9.4682803  52.2845726  42.2265816  -8.5763101  53.2485289
  50.2583287  -1.8908642  55.2465687  50.1995833  -2.5749422  54.5796270
  50.6602805  -1.1489652  54.7946313  39.2773986   4.9253272  48.0399406
  39.5170584   5.5571796  48.7178424  38.4343182   4.5741312  48.3264765
  50.2600694  -3.9269058  53.4779667  49.3727473  -4.2643137  53.6006066
  50.8299245  -4.6586027  53.7148432  43.7901848   0.7332394  50.4440910
  43.7172019   1.5387365  50.9560214  43.3479241   0.9324360  49.6188931
  43.5791627  -0.0295836  43.9543731  42.7959149   0.5125844  44.0481956
  44.2784372   0.4878144  44.3537973  46.2500531   0.6319228  52.5999069
  46.9628503   1.2666693  52.5274970  45.7590560   0.7283094  51.7839070
  47.9718058  -5.4629519  44.1716360  47.0374337  -5.3428057  44.0021064
  48.1494727  -6.3657053  43.9076370  41.3012445  -1.6186329  53.4204639
  42.0021904  -0.9849846  53.5734034  40.8307560  -1.2771597  52.6600279
  49.4266841  -3.2768379  41.7052546  49.7026684  -3.3911784  42.6146420
  48.5571339  -3.6750894  41.6664719  46.0620905   0.9717972  45.3485360
  46.2443299   0.1539628  45.8113112  46.8853891   1.1885664  44.9110250
  46.3963070  -0.1013843  42.6100408  46.9250836  -0.6121388  41.9970571
  46.6591290  -0.4171313  43.4745941  45.1501304  -8.3221910  57.7323227
  44.4741941  -8.4227781  58.4025602  45.9728938  -8.4782696  58.1959224
  36.8980163  -2.0849973  50.3535742  37.4833600  -2.8306286  50.4863646
  36.7005001  -1.7746017  51.2372406  39.7518818   0.9501274  45.3698184
  39.0829193   1.4347402  44.8862224  39.6131688   1.1970494  46.2841563
  43.8924087   2.9845017  51.9680843  44.4442395   3.1476639  52.7329928
  44.2330280   3.5749455  51.2960868  48.7434961  -2.1893725  57.8229497
  49.2874865  -1.5763767  57.3284452  48.1621806  -1.6314147  58.3396510
  47.0292474   0.9326993  48.9544525  46.9043613   0.1316733  48.4455470
  47.6871565   1.4273186  48.4658495  49.0927382  -1.2663987  50.5824075
  48.1457718  -1.3858636  50.5102402  49.4410155  -2.1541489  50.6650336
  46.0973816  -1.4711271  46.7828427  45.9498778  -2.3994563  46.9635997
  46.9227309  -1.4491180  46.2985502  49.7007937  -0.6482712  47.8693300
  50.6254485  -0.8539851  47.7317751  49.5323241  -0.8966311  48.7782641
  49.4903254  -0.1297045  43.2255391  49.6640131  -0.6950622  42.4729244
  49.9832145   0.6703850  43.0434881  50.4778426  -0.8130280  40.3252290
  51.1729331  -0.1923587  40.5439604  50.8201576  -1.6634929  40.6004668
  52.3769849  -3.3630575  41.8539620  52.9021173  -3.0243302  41.1288940
  52.2892202  -4.2983559  41.6702755  44.0389898   0.5503499  53.9829497
  44.3477024   0.3052646  54.8552197  44.8365380   0.7550137  53.4948367
  44.0610510   2.7041409  46.2134874  43.6215500   2.2117787  46.9067730
  44.8118627   2.1614376  45.9726949  36.5402849  -1.1047050  46.2159502
  37.3660869  -1.4043279  45.8358145  36.1896901  -1.8739428  46.6649290
  41.5084382  -1.7520582  48.2857175  40.8864391  -2.4149877  47.9859403
  42.1789249  -1.7259450  47.6030823  34.7411454  -3.1860724  47.1748435
  33.9043362  -3.6138550  46.9932437  34.7135099  -2.9928281  48.1119227
  52.0663755  -2.7297671  57.1590818  51.2759299  -2.7473532  56.6195318
  51.8297110  -2.1909377  57.9139855  41.0697889  -3.2016659  41.7615636
  41.2186009  -2.5181195  41.1082309  41.8764332  -3.2211569  42.2765092
  53.6879827  -3.4608263  54.7165569  53.3964635  -3.0978283  55.5529029
  53.0751958  -4.1741255  54.5378901  38.8250522  -7.1751481  42.7676705
  38.5796564  -8.0789151  42.9656915  38.9946437  -7.1734331  41.8256183
  44.5693295  -0.7068528  39.2327383  43.9967262  -0.0878341  38.7797855
  45.1426088  -0.1569167  39.7667305  47.7890554  -0.4231378  40.3635966
  48.7221227  -0.4885817  40.5668841  47.7013767   0.4124889  39.9050498
  50.4178571  -1.1065508  37.3239913  50.3392203  -1.4405644  38.2175671
  51.2388238  -0.6143740  37.3231385  44.8378786  -5.3189970  58.0344093
  45.7581795  -5.1411371  58.2284139  44.8028369  -6.2633924  57.8823792
  37.8340858  -7.4088935  50.6766874  38.0526868  -6.4771827  50.6954908
  38.2466632  -7.7680961  51.4621678  42.5699993  -8.4058590  58.8834685
  42.0867075  -7.6058230  59.0898574  42.6560933  -8.3950645  57.9302129
  35.8385953  -6.5730211  46.8056504  35.8156641  -6.4742523  45.8538387
  36.1486590  -5.7265060  47.1273670  38.4973331  -4.5154056  50.9203118
  39.4516585  -4.5470113  50.8533050  38.2985855  -4.9763432  51.7353344
  39.0872713  -5.9452940  53.4873916  39.9065602  -5.4508861  53.5108753
  39.3609521  -6.8620971  53.4591483  36.8523560   1.0265564  47.9373316
  36.7178028   0.2665965  47.3711314  36.4355622   1.7506464  47.4702105
  47.9882523  -3.7897513  36.9449891  48.6918373  -3.5847510  37.5607547
  47.2645172  -3.2220751  37.2098975  40.0092686   1.9234881  48.1491759
  39.8925070   2.8680313  48.0470449  39.1885132   1.6208442  48.5377558
  49.8969220  -3.3514983  38.9948352  50.7314824  -3.7833785  38.8125826
  49.7353563  -3.5232970  39.9225246  49.5515112  -6.8482870  40.3604691
  49.4963916  -7.0138599  39.4193135  48.9261168  -6.1406837  40.5166881
  46.8661020  -4.5433958  59.6858254  47.7352179  -4.3693306  59.3244889
  46.3867771  -3.7239541  59.5633983  41.0347200   2.5763143  51.3647687
  41.9374446   2.6086753  51.6814182  40.8084570   1.6463594  51.3794023
  42.7900802   1.3294129  48.0257766  41.8396433   1.3295991  47.9122138
  43.0933288   0.5826864  47.5093800  58.5253495   7.1654668  49.0903528
  59.1631905   7.0461415  48.3866868  58.4074338   8.1135512  49.1491480
  55.3343202   7.1182096  49.0265053  54.9961713   7.0023161  48.1385588
  56.2032970   6.7173261  49.0066059  51.1930017   8.9717572  45.0161944
  50.6294882   8.8807509  44.2478232  51.0782412   8.1517477  45.4964436
  55.8162985   8.2716948  54.9851258  55.8051625   7.8769746  54.1131762
  55.9783624   7.5383020  55.5785030  48.7394449  10.4668764  47.8546164
  49.5315741  10.1259588  47.4392464  48.9791099  10.5763739  48.7748318
  56.7729576  12.6388540  40.3276409  56.1217556  13.2242620  39.9410423
  57.5673939  13.1694735  40.3871446  50.6985203   9.7277677  40.7263543
  51.4716079   9.1806664  40.5876419  51.0510602  10.5921926  40.9378005
  52.5370246  11.0554059  53.9330442  52.2460112  11.9599690  53.8177109
  53.1727230  11.0970587  54.6474512  53.4626453   8.4330908  50.5231802
  54.0590025   8.2086930  49.8088765  53.5201424   7.6915653  51.1257250
  53.0351481   5.8870343  38.3581993  53.2877002   5.3651864  37.5965456
  52.0976040   5.7236489  38.4608677  58.0794764   4.8906122  46.1656736
  58.8657853   4.4725545  45.8147153  58.3433468   5.7952214  46.3338385
  58.2504841  10.3278972  40.8645393  57.6150674  10.4013598  41.5766298
  57.9202248  10.9172571  40.1864472  63.4803191   4.8281355  47.0689715
  64.2128363   4.2580572  47.3027544  62.7242547   4.4402955  47.5096220
  52.7547770   7.7898449  40.5606368  52.6384028   7.1143353  41.2287452
  52.8650030   7.3030823  39.7438521  55.0979311   7.2508596  44.2653057
  54.7337518   6.7239217  44.9765979  55.9546427   6.8607065  44.0919543
  61.0028611  -1.4597071  51.5284323  60.6711936  -0.5901660  51.3045538
  60.4074225  -1.7760787  52.2078354  54.7384798   2.2798496  39.2614406
  54.9059200   3.1478732  39.6284877  54.5481967   2.4425778  38.3375695
  57.4960131  10.7415475  50.9280236  57.1960854  11.6440514  50.8196043
  57.1511190  10.4747658  51.7801389  50.9472612   7.1929272  46.9616941
  50.0223109   7.0605486  47.1694632  51.1957025   7.9723491  47.4586883
  60.8957275   3.2598015  48.6077673  59.9874152   3.1913423  48.3136434
  60.8444870   3.7369960  49.4359499  54.7174018   4.7356153  40.2461073
  54.5973644   5.1813204  41.0846553  54.0226607   5.0841471  39.6874611
  48.3081423   6.8362545  47.7960730  48.4373804   7.0897024  48.7100141
  47.6278875   7.4290253  47.4765385  52.4780911  17.5059795  43.8951204
  52.4004940  18.4567620  43.9739684  51.8742554  17.1605668  44.5526130
  54.9698140   4.6787661  56.5512571  54.1931474   5.2381581  56.5415435
  55.6088703   5.1644444  57.0727441  62.7618921   1.4614453  50.3855547
  62.1193301   1.7546987  49.7395342  62.2573849   1.3467374  51.1908744
  60.4159085   5.2077627  41.0741407  61.3276941   5.4405013  40.8989104
  59.9068732   5.7914671  40.5116485  53.2244513   7.4873114  56.1130538
  53.9659197   8.0258158  55.8365361  52.5181498   8.1139403  56.2702090
  58.6999852   9.6302254  54.7102699  59.1083208   9.1884665  53.9657332
  57.9777114   9.0554882  54.9636892  55.0530922   4.5674861  52.0836256
  55.8992118   4.9914275  52.2270905  54.9929560   3.9108486  52.7774819
  59.0228667  10.1903445  48.4654988  58.3937529  10.3549159  47.7631056
  58.6354329  10.6045055  49.2365952  62.9017899  11.1257883  45.8199352
  62.2168937  11.5056784  45.2696385  62.9861748  11.7353210  46.5531300
  58.2030368   2.2279230  53.7417430  57.9591300   2.9821290  53.2051706
  58.4790298   2.6064577  54.5764677  60.1568830   8.7717842  52.4194695
  60.3685726   9.4149602  51.7429076  60.1098579   7.9380159  51.9516625
  57.7595059   1.3835663  49.3231268  56.8979538   1.6816916  49.6148005
  57.7857494   1.6006062  48.3912300  54.5756629   9.9277853  45.7305073
  55.0394974  10.2065556  44.9409696  54.3113427   9.0261298  45.5478164
  51.4680710   9.4749335  48.6684836  52.0382067   9.9036603  48.0302321
  52.0588822   9.1931919  49.3669022  53.5125515   6.0501006  42.5394638
  54.2149558   6.5022049  43.0068565  53.1806143   5.4084824  43.1674531
  51.9605876   4.6412762  56.9145848  51.3304537   5.3229043  57.1481245
  51.8541964   4.5295844  55.9698986  47.2550849   4.3084558  47.8411772
  46.4649903   4.5642087  47.3651883  47.7462096   5.1232896  47.9463812
  61.2714658  11.6489797  50.5917053  62.0932102  11.2469985  50.3099734
  61.2677061  11.5458032  51.5433169  49.2065594   4.6729137  44.7995249
  48.4096757   4.7847832  45.3178744  48.9791186   5.0115790  43.9336139
  55.0371262  11.1973841  52.7477763  55.1015694  11.6594248  53.5835935
  54.3282186  10.5671206  52.8760073  45.5388552   4.5615049  50.2726763
  45.7896590   5.4462059  50.5384339  46.0748100   4.3819650  49.5001855
  69.3620651   7.9928546  46.9402024  68.6084360   7.4235944  46.7846029
  69.4968193   7.9591210  47.8872659  54.7519279  12.8641948  42.6156744
  54.6164954  13.7093484  43.0441591  55.2929092  13.0661226  41.8522677
  51.2386619  -1.0566472  59.2771099  50.8453565  -1.6100273  59.9518743
  52.0552759  -0.7455893  59.6677616  48.2048677  10.3817386  43.1884669
  48.7173197  11.1760636  43.3390233  48.8571390   9.6843677  43.1218270
  50.0143562  13.4983142  45.2707422  50.1910190  14.4201107  45.0828406
  50.8100395  13.1841562  45.7001802  54.1554580   0.3591407  56.8691355
  54.8964293   0.9598560  56.7895818  54.3872503  -0.3830955  56.3109398
  49.2995918   5.5447774  55.1469585  49.1849433   4.6433032  55.4476684
  48.4440436   5.7911471  54.7954402  56.3787756  13.4865515  56.7457086
  55.9351610  12.7001893  56.4277990  57.0404969  13.6744665  56.0800976
  51.1374877  15.0161316  51.2717764  51.6882302  14.8878380  50.4994758
  50.2986353  15.3156205  50.9212657  58.4768994  13.7668315  54.7738487
  58.4587469  14.5877196  54.2818756  59.3988914  13.6422390  54.9988628
  54.9342048  11.2812444  55.6161995  55.4670385  10.5200732  55.3861303
  54.4056129  10.9886096  56.3586150  58.1011743  -3.6127490  51.1455637
  57.7576012  -2.7225848  51.0694748  58.4690706  -3.8025832  50.2825222
  46.1697594   8.7106041  43.9644239  47.0072816   9.1203049  43.7477947
  46.3475861   7.7705483  43.9344433  58.0662026   6.3781121  39.6528072
  57.5508649   7.1485726  39.8916460  57.7939334   5.7046257  40.2761134
  55.6509137   1.2230822  44.7113311  54.7950733   0.8337672  44.5318949
  56.0636089   1.3022783  43.8513096  57.1808283  -1.2422835  49.1104870
  56.6773079  -1.2792700  48.2972676  57.4738890  -0.3330092  49.1701527
  53.4251169  -1.1584105  48.1171052  54.2904166  -1.3541296  47.7576941
  53.4928678  -1.3873753  49.0440409  63.0396300   9.1313476  41.5881246
  62.2625743   8.7924635  41.1436408  63.7187781   9.1366099  40.9136211
  57.8548329   4.2508213  41.4787853  57.5498465   4.5654362  42.3297997
  58.8078771   4.3289633  41.5215186  56.2994761  10.4098437  43.1280807
  55.7716122   9.6751196  42.8154045  55.7982264  11.1873113  42.8820776
  61.2787607   8.6047457  48.2447854  60.6211281   9.2946718  48.3327982
  62.0828006   8.9943889  48.5881840  51.0313488   1.0718103  45.4887419
  51.6057240   0.8493284  44.7560612  51.6184471   1.1406797  46.2416020
  60.0893066   6.9591830  46.2951795  60.6024947   7.5921822  46.7973505
  60.7394290   6.3593025  45.9295155  51.3583076   3.1022564  39.5083304
  50.5220388   3.4397250  39.8292579  51.2187845   2.9671544  38.5710441
  53.3336156  -2.0540648  44.2162488  52.6800568  -2.3691631  43.5919103
  53.2916630  -2.6764908  44.9422311  54.4447361   8.2278647  36.1315780
  53.5374423   7.9967900  36.3306929  54.9418393   7.4316266  36.3189762
  57.3515440  16.9376154  39.0512467  56.6777139  17.2407851  39.6597424
  57.7381262  17.7405234  38.7017924  56.5673896   4.4341285  48.5410136
  55.6496458   4.6556232  48.3831824  56.9834040   4.5087596  47.6821843
  57.3508944   5.8332701  43.6712816  58.0980763   6.3454098  43.3619938
  57.6200534   5.5116754  44.5317210  55.6235594   8.3291242  40.6539770
  54.7146814   8.0450275  40.7512240  55.6530678   8.7490320  39.7943077
  60.8554862  11.9397831  44.4230938  60.4017189  11.0988741  44.4796128
  60.2248829  12.5759230  44.7605718  59.7987781   2.8689817  45.6531605
  59.0610538   2.3567203  45.9841848  60.0514555   2.4290199  44.8414882
  59.2987801  13.7774328  45.3580756  59.5910775  14.3379385  44.6393122
  59.8086422  14.0702889  46.1133915  46.1923765   6.0496756  44.6354973
  45.9948165   5.4566117  43.9106039  45.6370429   5.7448966  45.3530911
  54.1720488   5.9419862  46.7549566  54.2269098   4.9893699  46.6792042
  53.3611690   6.0979301  47.2390864  55.3211682   9.8699985  37.9927849
  54.8831112   9.1535844  37.5333486  56.0622123  10.0976100  37.4312940
  52.1112848   4.5596922  44.5139945  51.2980714   4.8591093  44.9205137
  52.6071843   4.1652611  45.2314427  54.2621426  14.5554679  46.4474209
  54.2197605  14.7815525  45.5182741  55.1784125  14.3218054  46.5960010
  57.7087060   5.0238747  53.3454839  58.0636448   5.2510220  54.2049304
  58.3559191   5.3557123  52.7232094  63.4384797   8.1457182  44.0504168
  63.3002696   8.3358778  43.1225357  63.0821016   8.9076565  44.5072219
  51.6026923   2.1315278  50.1301180  52.2426302   1.9904037  49.4324143
  50.7704454   1.8449791  49.7539782  63.4654177  10.2133709  49.0615439
  63.8990683  10.1208999  49.9098493  64.1785757  10.1891210  48.4235455
  52.3787227  11.4317708  46.2436172  53.1727826  10.9368028  46.0418747
  51.6678919  10.9035571  45.8803878  57.1982072  13.8135804  50.5948540
  57.2519094  14.3826740  51.3626256  56.3296853  13.9837689  50.2302577
  48.6869991   5.5760790  42.3195925  47.7567579   5.5145245  42.5365887
  48.7827462   5.0536742  41.5232566  48.6055540   2.1015603  44.9074166
  48.8662357   3.0160936  44.7983327  49.4272712   1.6340045  45.0570779
  50.0780465   3.5153360  52.0772991  50.7503518   3.3070722  51.4285640
  49.2510251   3.3175446  51.6378223  64.3269726  10.2557410  51.5948324
  64.5205616  11.1603221  51.8407599  64.2270344   9.7964829  52.4286910
  55.9806037   0.1415301  54.0938652  55.3333952   0.8405250  54.0003128
  56.7507052   0.5751445  54.4614900  59.3884835  10.4064153  57.1689205
  59.2370341  10.1774705  56.2519289  59.3789514  11.3634754  57.1820550
  56.1570171   7.9796066  52.1535472  57.0862231   8.1307225  51.9804439
  55.7361201   8.0680086  51.2984118  54.9558503  12.0046730  49.9234009
  54.8169589  11.6365514  50.7959947  54.1673099  12.5194369  49.7517967
  55.5506655  17.1055826  41.2659546  55.7258411  16.6343870  42.0805168
  54.8639443  17.7321593  41.4940806  56.5063718  11.3828333  47.3122847
  56.1713551  11.3429103  48.2080497  56.0067664  10.7173049  46.8393257
  50.4807962   6.7895963  52.8375428  50.3427760   6.0576202  53.4386967
  51.3912886   6.7004863  52.5559616  59.4422910   8.7284367  37.5859907
  58.8252080   8.0031195  37.4892959  58.9739398   9.4893727  37.2426981
  53.1090263   6.5015922  52.3259108  53.8189881   5.8609114  52.2845726
  53.0659571   6.7528817  53.2485289  61.0977041  13.4383275  55.2465687
  61.0389588  12.7542496  54.5796270  61.4996560  14.1802265  54.7946313
  51.8219197   3.4881140  54.1454747  51.2856554   3.0371878  54.7976344
  51.2335905   3.6227049  53.4025212  50.1167740  20.2545189  48.0399406
  50.3564339  20.8863713  48.7178424  49.2736937  19.9033229  48.3264765
  51.2321456   2.9469791  36.7081211  50.3550922   2.8258592  36.3443458
  51.7079209   2.1555870  36.4560100  61.0994449  11.4022859  53.4779667
  60.2121228  11.0648781  53.6006066  61.6693000  10.6705891  53.7148432
  42.7523596   7.7346951  46.8022718  43.4394636   7.4208681  46.2143733
  42.5971725   8.6388316  46.5289969  47.5558318   2.6237148  51.2307742
  47.4716507   2.0162817  50.4958152  46.7341024   3.1146166  51.2317238
  54.6295602  16.0624312  50.4440910  54.5565774  16.8679283  50.9560214
  54.1872995  16.2616277  49.6188931  54.4185382  15.2996082  43.9543731
  53.6352904  15.8417762  44.0481956  55.1178127  15.8170061  44.3537973
  57.7282032   1.1090711  46.5977937  58.2250731   0.3560673  46.2779007
  56.9569013   1.1455028  46.0321146  65.5811789   6.8131077  48.2396228
  65.5701666   7.6955792  47.8690161  64.7129169   6.4602628  48.0450765
  57.0894286  15.9611146  52.5999069  57.8022258  16.5958611  52.5274970
  56.5984314  16.0575012  51.7839070  58.8111813   9.8662398  44.1716360
  57.8768091   9.9863861  44.0021064  58.9888481   8.9634865  43.9076370
  54.3117001   3.2508094  46.3249621  53.9414788   2.6979135  47.0130527
  54.8076093   2.6466228  45.7724621  62.1984364   5.7079718  44.7066394
  62.6644816   6.5407709  44.6326697  62.6491864   5.2424699  45.4111653
  52.1406199  13.7105589  53.4204639  52.8415659  14.3442072  53.5734034
  51.6701314  14.0520321  52.6600279  60.2660595  12.0523539  41.7052546
  60.5420439  11.9380134  42.6146420  59.3965094  11.6541024  41.6664719
  60.1701027  -1.9239695  48.7457296  59.2564106  -1.6935469  48.9139503
  60.5994128  -1.8401251  49.5971328  59.9407485   6.2650197  51.2457190
  59.2878935   6.5126104  50.5909642  60.3187865   5.4514335  50.9119667
  56.9014659  16.3009890  45.3485360  57.0837054  15.4831546  45.8113112
  57.7247645  16.5177582  44.9110250  57.2356825  15.2278075  42.6100408
  57.7644591  14.7170530  41.9970571  57.4985044  14.9120605  43.4745941
  55.9895058   7.0070008  57.7323227  55.3135695   6.9064137  58.4025602
  56.8122692   6.8509221  58.1959224  47.7373917  13.2441944  50.3535742
  48.3227354  12.4985632  50.4863646  47.5398756  13.5545901  51.2372406
  50.5912572  16.2793192  45.3698184  49.9222948  16.7639319  44.8862224
  50.4525442  16.5262412  46.2841563  42.3291572   5.8147544  49.0740185
  42.3675672   5.2811135  49.8677303  41.8231865   5.2882750  48.4551162
  54.7317841  18.3136935  51.9680843  55.2836149  18.4768557  52.7329928
  55.0724035  18.9041373  51.2960868  49.7082334   0.6612085  52.5702727
  49.7723661   1.5226916  52.1580125  49.6449455   0.0486087  51.8375086
  49.1834607   2.7335217  56.2175762  49.8106646   2.3512295  56.8313286
  48.3262526   2.5149419  56.5831454  59.5828715  13.1398193  57.8229497
  60.1268619  13.7528151  57.3284452  59.0015560  13.6977771  58.3396510
  45.9600150   4.5411647  42.1494117  46.2553591   3.6322325  42.0961170
  45.0588185   4.5199386  41.8275119  57.8686228  16.2618911  48.9544525
  57.7437368  15.4608650  48.4455470  58.5265319  16.7565104  48.4658495
  49.4894397   2.6167643  48.1321665  48.7680982   3.2303611  47.9929138
  50.2787652   3.1525408  48.0538311  59.9321137  14.0627931  50.5824075
  58.9851472  13.9433282  50.5102402  60.2803910  13.1750429  50.6650336
  52.2920710  -0.0477930  54.4062317  52.8155112   0.1984366  55.1688626
  52.0733043   0.7842104  53.9865454  47.6887991   2.2225744  42.2733442
  47.3600697   1.3423123  42.0908548  48.0427362   2.1673413  43.1609831
  56.9367570  13.8580647  46.7828427  56.7892532  12.9297354  46.9635997
  57.7621064  13.8800738  46.2985502  50.8029814   2.5098714  42.6408919
  51.1425887   3.0384635  41.9187528  51.2501935   2.8479120  43.4167486
  60.5401692  14.6809206  47.8693300  61.4648239  14.4752067  47.7317751
  60.3716995  14.4325607  48.7782641  53.4973255   0.8935765  52.0911987
  53.1570076   0.0943578  52.4932667  52.7912261   1.1937476  51.5188821
  54.1489727  -2.0214923  50.5439310  54.9715796  -2.4954445  50.4218201
  54.3927791  -1.2424439  51.0437997  52.7897961   1.0073336  40.8402212
  53.5106324   1.3854588  40.3365929  52.1663266   1.7262212  40.9437190
  56.9329084   1.7118485  41.7760544  57.1492699   2.5943122  41.4749373
  56.4523152   1.3204698  41.0466186  51.6728306   4.6704198  48.3531289
  51.5272886   4.9844501  49.2455571  51.1953509   5.2889098  47.8002188
  53.5324689   1.6606746  48.4012179  53.5186257   0.7647839  48.0644477
  54.2497117   1.6677410  49.0350465  55.3850819   2.0944086  50.4465306
  55.1268597   3.0161157  50.4449636  54.8535860   1.6974521  51.1365770
  60.3297008  15.1994873  43.2255391  60.5033886  14.6341296  42.4729244
  60.8225899  15.9995768  43.0434881  46.1473968   7.2109542  51.2918950
  45.6027436   7.9869350  51.4239225  47.0253318   7.5580347  51.1338072
  52.9361585   0.5421126  43.6699749  53.0577496  -0.3862228  43.8690636
  52.6463627   0.5559812  42.7578064  55.8052775  -1.7723963  46.8066469
  55.8274472  -1.7084630  45.8518448  56.2220834  -2.6119455  47.0006975
  66.1836399   7.9631296  44.8445691  66.6267545   7.2138621  44.4464814
  65.3062910   7.9541432  44.4619423  61.3172181  14.5161638  40.3252290
  62.0123085  15.1368330  40.5439604  61.6595331  13.6656989  40.6004668
  46.9339990   6.3379438  54.1849107  46.1921726   6.4862074  54.7713738
  46.6132734   6.5987704  53.3215857  63.2163604  11.9661343  41.8539620
  63.7414928  12.3048616  41.1288940  63.1285956  11.0308358  41.6702755
  54.8783652  15.8795417  53.9829497  55.1870779  15.6344563  54.8552197
  55.6759134  16.0842055  53.4948367  54.9004264  18.0333326  46.2134874
  54.4609255  17.5409705  46.9067730  55.6512381  17.4906294  45.9726949
  47.3796603  14.2244867  46.2159502  48.2054623  13.9248639  45.8358145
  47.0290655  13.4552490  46.6649290  52.3478137  13.5771335  48.2857175
  51.7258146  12.9142040  47.9859403  53.0183004  13.6032467  47.6030823
  45.5805208  12.1431194  47.1748435  44.7437117  11.7153368  46.9932437
  45.5528854  12.3363637  48.1119227  52.4202664   2.0553123  57.8789681
  52.4690820   2.9315246  57.4967451  52.9625178   1.5130517  57.3061325
  62.9057510  12.5994247  57.1590818  62.1153053  12.5818386  56.6195318
  62.6690864  13.1382540  57.9139855  63.0255385   9.4486713  54.4723547
  63.0753390   9.2836721  55.4139070  62.9169308   8.5813972  54.0821428
  51.9091644  12.1275259  41.7615636  52.0579764  12.8110723  41.1082309
  52.7158087  12.1080349  42.2765092  60.3159147   5.4317641  55.7882854
  61.2169010   5.2924106  55.4966851  60.3907122   5.5972096  56.7281031
  54.6501953   2.8084496  54.6336040  53.7805262   3.1018062  54.3618629
  54.8861433   3.3924941  55.3543304  64.5273582  11.8683655  54.7165569
  64.2358390  12.2313635  55.5529029  63.9145713  11.1550663  54.5378901
  65.7269264   9.4336534  47.2368139  66.5616155   9.8726338  47.4005699
  65.8628393   8.9575188  46.4176385  62.7760770   6.9916269  53.1845626
  63.2514891   7.1843916  52.3764478  61.8526335   7.0475455  52.9389010
  49.6644276   8.1540436  42.7676705  49.4190318   7.2502766  42.9656915
  49.8340191   8.1557587  41.8256183  57.3540986  -0.9735887  52.1501460
  57.8722930  -0.2374860  51.8247949  56.9996119  -0.6671894  52.9848220
  48.9339924   3.8868794  40.2662866  48.2409169   3.9613149  39.6102902
  48.6891676   3.1229138  40.7884383  55.4087049  14.6223389  39.2327383
  54.8361016  15.2413576  38.7797855  55.9819843  15.1722751  39.7667305
  61.4762439   3.8682029  51.4173932  62.4279862   3.9680127  51.4386156
  61.3065889   3.0760298  51.9272016  59.4976818   0.9537613  51.6033333
  58.9026750   1.2342625  50.9079822  59.2126515   1.4431513  52.3750074
  58.6284309  14.9060539  40.3635966  59.5614982  14.8406101  40.5668841
  58.5407522  15.7416806  39.9050498  61.2572325  14.2226410  37.3239913
  61.1785957  13.8886273  38.2175671  62.0781992  14.7148178  37.3231385
  63.9550517   7.0888149  50.5316232  63.9226837   6.1504150  50.7175916
  64.5651140   7.1672186  49.7982057  55.7933848   5.9584202  36.5743436
  56.7392952   5.8290410  36.6431854  55.4148092   5.2198864  37.0512864
  64.1045005   3.8799192  50.5774515  63.5884054   3.0957649  50.3904444
  64.9884954   3.5517909  50.7421034  61.7655732  -2.3759792  46.5370328
  61.5680553  -2.6844704  47.4213660  62.3755438  -1.6498153  46.6668257
  69.7727067   8.1504156  49.6722269  70.5030455   7.8889444  50.2329972
  69.1634012   7.4132878  49.7124337  67.8542364   6.2912018  50.2696720
  67.1275527   6.1567983  49.6613211  67.4389651   6.5988847  51.0753438
  55.6772540  10.0101948  58.0344093  56.5975550  10.1880547  58.2284139
  55.6422123   9.0657993  57.8823792  53.9776765   3.8834178  36.5098321
  53.0708220   3.5867291  36.5861035  54.2552746   3.5863996  35.6432607
  44.8954705   5.2040542  46.9597367  44.5757489   4.3505850  46.6671741
  44.3488133   5.4189120  47.7155335  48.6734613   7.9202983  50.6766874
  48.8920622   8.8520091  50.6954908  49.0860386   7.5610957  51.4621678
  55.5938830  -1.5728932  42.6642562  54.7839559  -1.9181847  43.0397808
  56.2823247  -1.8821388  43.2530174  57.5229379  -2.4950885  44.2866859
  58.0760417  -2.0755432  44.9456882  57.7599465  -3.4215137  44.3289815
  53.5462478   3.4936189  60.0669623  53.4459205   4.4430545  59.9981714
  53.3284020   3.1654427  59.1945693  52.7475549   0.7421114  36.6510300
  53.6094713   1.0676012  36.9106118  52.9325893  -0.0447391  36.1383366
  44.7642965   8.8243453  48.9290489  44.0706436   8.4097406  48.4160443
  45.5115956   8.8663990  48.3323908  60.9008186  -0.3850360  43.7945523
  60.3206855   0.2734444  43.4123576  60.6344118  -1.2073015  43.3832941
  59.3511752  -0.9845302  45.9966844  59.8511531  -0.8728768  45.1881162
  59.9947360  -1.2884249  46.6367652  53.4093748   6.9233327  58.8834685
  52.9260830   7.7233687  59.0898574  53.4954687   6.9341272  57.9302129
  46.6779708   8.7561707  46.8056504  46.6550396   8.8549394  45.8538387
  46.9880344   9.6026858  47.1273670  49.3367085  10.8137862  50.9203118
  50.2910339  10.7821804  50.8533050  49.1379609  10.3528486  51.7353344
  49.9266468   9.3838978  53.4873916  50.7459357   9.8783057  53.5108753
  50.2003275   8.4670946  53.4591483  59.6833064   1.7749730  42.8501871
  58.7958919   2.0599381  42.6322066  60.0987053   1.6143494  42.0029148
  63.0347600   1.7996251  46.5656211  63.8107990   2.2892704  46.8380828
  62.3095734   2.2254306  47.0228080  65.4720159   2.5123871  47.6230151
  66.0664649   2.2719607  46.9123460  65.5446742   1.7931001  48.2503688
  47.6917314  16.3557482  47.9373316  47.5571782  15.5957882  47.3711314
  47.2749377  17.0798381  47.4702105  58.8276277  11.5394405  36.9449891
  59.5312127  11.7444408  37.5607547  58.1038926  12.1071167  37.2098975
  59.6574088   7.2904266  43.0652162  59.6009289   7.7472818  42.2259794
  60.2102430   6.5294951  42.8875004  63.4678893   3.0793998  43.8902281
  63.2115828   2.6790634  44.7210489  62.8431761   3.7937792  43.7652420
  67.7791231   5.8190071  46.3973573  67.2190789   5.8883261  47.1705135
  67.1734735   5.6431056  45.6773069  50.8486440  17.2526799  48.1491759
  50.7318824  18.1972231  48.0470449  50.0278886  16.9500360  48.5377558
  60.7362975  11.9776934  38.9948352  61.5708579  11.5458133  38.8125826
  60.5747318  11.8058948  39.9225246  60.3908867   8.4809048  40.3604691
  60.3357671   8.3153319  39.4193135  59.7654922   9.1885081  40.5166881
  45.1801382   3.7177112  54.1866113  45.8260245   3.2076066  54.6753338
  44.9718533   4.4545794  54.7609538  57.7054774  10.7857959  59.6858254
  58.5745934  10.9598612  59.3244889  57.2261526  11.6052376  59.5633983
  53.7004992  -2.0182843  39.9390009  53.6883662  -1.0741003  40.0958280
  54.5928414  -2.2012698  39.6449470  51.8740954  17.9055060  51.3647687
  52.7768201  17.9378671  51.6814182  51.6478324  16.9755511  51.3794023
  53.6294556  16.6586047  48.0257766  52.6790187  16.6587909  47.9122138
  53.9327042  15.9118782  47.5093800  49.5198873   0.8644729  58.2841127
  50.3830334   0.5081534  58.4944452  48.9464283   0.5258624  58.9716532
  69.3647250  22.4946585  49.0903528  70.0025660  22.3753333  48.3866868
  69.2468093  23.4427429  49.1491480  66.1736956  22.4474014  49.0265053
  65.8355468  22.3315078  48.1385588  67.0426724  22.0465179  49.0066059
  62.0323772  24.3009490  45.0161944  61.4688637  24.2099427  44.2478232
  61.9176167  23.4809394  45.4964436  66.6556739  23.6008865  54.9851258
  66.6445380  23.2061664  54.1131762  66.8177379  22.8674938  55.5785030
  59.5788204  25.7960682  47.8546164  60.3709496  25.4551506  47.4392464
  59.8184854  25.9055657  48.7748318  67.6123330  27.9680458  40.3276409
  66.9611310  28.5534538  39.9410423  68.4067693  28.4986653  40.3871446
  61.5378958  25.0569595  40.7263543  62.3109834  24.5098582  40.5876419
  61.8904356  25.9213844  40.9378005  63.3764000  26.3845977  53.9330442
  63.0853866  27.2891608  53.8177109  64.0120985  26.4262505  54.6474512
  64.3020207  23.7622826  50.5231802  64.8983779  23.5378848  49.8088765
  64.3595179  23.0207571  51.1257250  63.8745235  21.2162261  38.3581993
  64.1270756  20.6943782  37.5965456  62.9369795  21.0528406  38.4608677
  68.9188518  20.2198039  46.1656736  69.7051607  19.8017462  45.8147153
  69.1827223  21.1244131  46.3338385  69.0898596  25.6570890  40.8645393
  68.4544429  25.7305516  41.5766298  68.7596002  26.2464488  40.1864472
  74.3196945  20.1573272  47.0689715  75.0522117  19.5872489  47.3027544
  73.5636301  19.7694873  47.5096220  63.5941524  23.1190367  40.5606368
  63.4777782  22.4435270  41.2287452  63.7043784  22.6322741  39.7438521
  65.9373065  22.5800514  44.2653057  65.5731272  22.0531135  44.9765979
  66.7940181  22.1898983  44.0919543  71.8422366  13.8694847  51.5284323
  71.5105691  14.7390258  51.3045538  71.2467979  13.5531131  52.2078354
  65.5778552  17.6090414  39.2614406  65.7452954  18.4770650  39.6284877
  65.3875721  17.7717695  38.3375695  68.3353885  26.0707393  50.9280236
  68.0354608  26.9732431  50.8196043  67.9904945  25.8039576  51.7801389
  61.7866367  22.5221189  46.9616941  60.8616863  22.3897403  47.1694632
  62.0350780  23.3015409  47.4586883  71.7351029  18.5889933  48.6077673
  70.8267906  18.5205341  48.3136434  71.6838625  19.0661878  49.4359499
  65.5567773  20.0648071  40.2461073  65.4367398  20.5105122  41.0846553
  64.8620361  20.4133389  39.6874611  59.1475178  22.1654463  47.7960730
  59.2767559  22.4188942  48.7100141  58.4672629  22.7582171  47.4765385
  63.3174665  32.8351713  43.8951204  63.2398695  33.7859538  43.9739684
  62.7136309  32.4897585  44.5526130  65.8091895  20.0079578  56.5512571
  65.0325229  20.5673498  56.5415435  66.4482458  20.4936361  57.0727441
  73.6012675  16.7906371  50.3855547  72.9587056  17.0838904  49.7395342
  73.0967604  16.6759291  51.1908744  71.2552839  20.5369544  41.0741407
  72.1670695  20.7696931  40.8989104  70.7462486  21.1206589  40.5116485
  64.0638267  22.8165032  56.1130538  64.8052952  23.3550076  55.8365361
  63.3575253  23.4431320  56.2702090  69.5393607  24.9594172  54.7102699
  69.9476963  24.5176583  53.9657332  68.8170868  24.3846800  54.9636892
  65.8924677  19.8966779  52.0836256  66.7385872  20.3206192  52.2270905
  65.8323315  19.2400403  52.7774819  69.8622421  25.5195363  48.4654988
  69.2331284  25.6841077  47.7631056  69.4748084  25.9336972  49.2365952
  69.0424122  17.5571147  53.7417430  68.7985054  18.3113208  53.2051706
  69.3184053  17.9356495  54.5764677  70.9962585  24.1009760  52.4194695
  71.2079480  24.7441520  51.7429076  70.9492333  23.2672076  51.9516625
  68.5988814  16.7127580  49.3231268  67.7373293  17.0108834  49.6148005
  68.6251249  16.9297979  48.3912300  65.4150383  25.2569771  45.7305073
  65.8788729  25.5357474  44.9409696  65.1507181  24.3553215  45.5478164
  62.3074464  24.8041252  48.6684836  62.8775821  25.2328521  48.0302321
  62.8982576  24.5223837  49.3669022  64.3519269  21.3792923  42.5394638
  65.0543313  21.8313967  43.0068565  64.0199898  20.7376742  43.1674531
  62.7999631  19.9704680  56.9145848  62.1698291  20.6520961  57.1481245
  62.6935719  19.8587761  55.9698986  58.0944603  19.6376476  47.8411772
  57.3043657  19.8934004  47.3651883  58.5855851  20.4524814  47.9463812
  72.1108413  26.9781715  50.5917053  72.9325857  26.5761902  50.3099734
  72.1070816  26.8749949  51.5433169  60.0459349  20.0021055  44.7995249
  59.2490512  20.1139749  45.3178744  59.8184941  20.3407707  43.9336139
  65.8765016  26.5265758  52.7477763  65.9409449  26.9886166  53.5835935
  65.1675940  25.8963123  52.8760073  56.3782306  19.8906966  50.2726763
  56.6290345  20.7753976  50.5384339  56.9141855  19.7111568  49.5001855
  65.5913034  28.1933866  42.6156744  65.4558709  29.0385402  43.0441591
  66.1322846  28.3953143  41.8522677  62.0780374  14.2725446  59.2771099
  61.6847319  13.7191644  59.9518743  62.8946514  14.5836024  59.6677616
  59.0442431  25.7109304  43.1884669  59.5566952  26.5052554  43.3390233
  59.6965144  25.0135594  43.1218270  60.8537316  28.8275060  45.2707422
  61.0303944  29.7493025  45.0828406  61.6494150  28.5133479  45.7001802
  64.9948335  15.6883325  56.8691355  65.7358048  16.2890478  56.7895818
  65.2266257  14.9460963  56.3109398  60.1389673  20.8739692  55.1469585
  60.0243188  19.9724949  55.4476684  59.2834190  21.1203389  54.7954402
  67.2181510  28.8157432  56.7457086  66.7745365  28.0293811  56.4277990
  67.8798724  29.0036583  56.0800976  61.9768632  30.3453234  51.2717764
  62.5276057  30.2170297  50.4994758  61.1380107  30.6448123  50.9212657
  69.3162748  29.0960232  54.7738487  69.2981224  29.9169113  54.2818756
  70.2382668  28.9714308  54.9988628  65.7735803  26.6104362  55.6161995
  66.3064139  25.8492650  55.3861303  65.2449884  26.3178014  56.3586150
  68.9405498  11.7164428  51.1455637  68.5969767  12.6066069  51.0694748
  69.3084460  11.5266085  50.2825222  57.0091348  24.0397958  43.9644239
  57.8466570  24.4494967  43.7477947  57.1869616  23.0997400  43.9344433
  68.9055780  21.7073039  39.6528072  68.3902404  22.4777643  39.8916460
  68.6333089  21.0338175  40.2761134  66.4902891  16.5522740  44.7113311
  65.6344488  16.1629590  44.5318949  66.9029843  16.6314700  43.8513096
  68.0202038  14.0869083  49.1104870  67.5166834  14.0499218  48.2972676
  68.3132645  14.9961826  49.1701527  64.2644924  14.1707813  48.1171052
  65.1297921  13.9750621  47.7576941  64.3322433  13.9418164  49.0440409
  68.6942083  19.5800131  41.4787853  68.3892219  19.8946280  42.3297997
  69.6472526  19.6581551  41.5215186  67.1388515  25.7390354  43.1280807
  66.6109877  25.0043114  42.8154045  66.6376018  26.5165031  42.8820776
  61.8707243  16.4010021  45.4887419  62.4450995  16.1785202  44.7560612
  62.4578225  16.4698715  46.2416020  70.9286820  22.2883747  46.2951795
  71.4418702  22.9213739  46.7973505  71.5788044  21.6884943  45.9295155
  62.1976830  18.4314482  39.5083304  61.3614142  18.7689168  39.8292579
  62.0581600  18.2963461  38.5710441  64.1729911  13.2751269  44.2162488
  63.5194323  12.9600287  43.5919103  64.1310385  12.6527010  44.9422311
  65.2841115  23.5570565  36.1315780  64.3768177  23.3259818  36.3306929
  65.7812147  22.7608184  36.3189762  67.4067651  19.7633203  48.5410136
  66.4890212  19.9848150  48.3831824  67.8227795  19.8379513  47.6821843
  68.1902699  21.1624619  43.6712816  68.9374518  21.6746016  43.3619938
  68.4594288  20.8408671  44.5317210  66.4629349  23.6583159  40.6539770
  65.5540568  23.3742192  40.7512240  66.4924433  24.0782238  39.7943077
  70.6381536  18.1981735  45.6531605  69.9004293  17.6859121  45.9841848
  70.8908309  17.7582117  44.8414882  70.7393163  10.9757987  46.2473375
  71.0452040  10.1155350  45.9599290  71.4645768  11.5675607  46.0472369
  57.0317519  21.3788674  44.6354973  56.8341919  20.7858034  43.9106039
  56.4764183  21.0740884  45.3530911  65.0114243  21.2711780  46.7549566
  65.0662853  20.3185616  46.6792042  64.2005445  21.4271219  47.2390864
  66.1605437  25.1991903  37.9927849  65.7224867  24.4827762  37.5333486
  66.9015878  25.4268018  37.4312940  62.9506603  19.8888840  44.5139945
  62.1374468  20.1883010  44.9205137  63.4465597  19.4944529  45.2314427
  65.1015181  29.8846597  46.4474209  65.0591360  30.1107443  45.5182741
  66.0177880  29.6509971  46.5960010  68.5480815  20.3530664  53.3454839
  68.9030202  20.5802137  54.2049304  69.1952946  20.6849041  52.7232094
  62.4420678  17.4607195  50.1301180  63.0820057  17.3195954  49.4324143
  61.6098208  17.1741709  49.7539782  63.2180982  26.7609626  46.2436172
  64.0121580  26.2659946  46.0418747  62.5072674  26.2327489  45.8803878
  68.0375826  29.1427721  50.5948540  68.0912848  29.7118658  51.3626256
  67.1690607  29.3129606  50.2302577  59.5263745  20.9052707  42.3195925
  58.5961333  20.8437163  42.5365887  59.6221217  20.3828660  41.5232566
  59.4449294  17.4307520  44.9074166  59.7056111  18.3452853  44.7983327
  60.2666466  16.9631963  45.0570779  60.9174219  18.8445277  52.0772991
  61.5897273  18.6362640  51.4285640  60.0904006  18.6467363  51.6378223
  75.1663481  25.5849328  51.5948324  75.3599371  26.4895138  51.8407599
  75.0664099  25.1256747  52.4286910  66.8199791  15.4707218  54.0938652
  66.1727706  16.1697168  54.0003128  67.5900807  15.9043362  54.4614900
  70.2278589  25.7356071  57.1689205  70.0764096  25.5066622  56.2519289
  70.2183269  26.6926672  57.1820550  66.9963926  23.3087983  52.1535472
  67.9255986  23.4599143  51.9804439  66.5754956  23.3972004  51.2984118
  65.7952258  27.3338648  49.9234009  65.6563343  26.9657432  50.7959947
  65.0066854  27.8486287  49.7517967  67.3457473  26.7120250  47.3122847
  67.0107305  26.6721020  48.2080497  66.8461418  26.0464966  46.8393257
  61.3201717  22.1187880  52.8375428  61.1821515  21.3868119  53.4386967
  62.2306640  22.0296780  52.5559616  70.2816664  24.0576285  37.5859907
  69.6645835  23.3323113  37.4892959  69.8133153  24.8185645  37.2426981
  63.9484017  21.8307840  52.3259108  64.6583636  21.1901032  52.2845726
  63.9053325  22.0820735  53.2485289  71.9370796  28.7675193  55.2465687
  71.8783342  28.0834413  54.5796270  72.3390314  29.5094183  54.7946313
  62.6612951  18.8173058  54.1454747  62.1250308  18.3663796  54.7976344
  62.0729660  18.9518966  53.4025212  60.9561495  35.5837107  48.0399406
  61.1958093  36.2155631  48.7178424  60.1130691  35.2325147  48.3264765
  62.0715210  18.2761709  36.7081211  61.1944677  18.1550510  36.3443458
  62.5472963  17.4847787  36.4560100  71.9388203  26.7314777  53.4779667
  71.0514982  26.3940699  53.6006066  72.5086754  25.9997808  53.7148432
  53.5917350  23.0638869  46.8022718  54.2788390  22.7500599  46.2143733
  53.4365479  23.9680233  46.5289969  58.3952073  17.9529065  51.2307742
  58.3110261  17.3454735  50.4958152  57.5734779  18.4438084  51.2317238
  65.4689357  31.3916229  50.4440910  65.3959528  32.1971201  50.9560214
  65.0266750  31.5908195  49.6188931  68.5675786  16.4382629  46.5977937
  69.0644486  15.6852591  46.2779007  67.7962768  16.4746945  46.0321146
  76.4205544  22.1422994  48.2396228  76.4095420  23.0247710  47.8690161
  75.5522923  21.7894545  48.0450765  67.9288040  31.2903063  52.5999069
  68.6416012  31.9250528  52.5274970  67.4378069  31.3866929  51.7839070
  65.1510755  18.5800012  46.3249621  64.7808543  18.0271052  47.0130527
  65.6469848  17.9758145  45.7724621  73.0378118  21.0371635  44.7066394
  73.5038571  21.8699627  44.6326697  73.4885619  20.5716617  45.4111653
  62.9799954  29.0397507  53.4204639  63.6809413  29.6733990  53.5734034
  62.5095069  29.3812238  52.6600279  71.0094781  13.4052222  48.7457296
  70.0957861  13.6356449  48.9139503  71.4387883  13.4890666  49.5971328
  70.7801240  21.5942114  51.2457190  70.1272690  21.8418022  50.5909642
  71.1581620  20.7806252  50.9119667  66.8288813  22.3361925  57.7323227
  66.1529450  22.2356055  58.4025602  67.6516447  22.1801139  58.1959224
  58.5767672  28.5733862  50.3535742  59.1621109  27.8277550  50.4863646
  58.3792510  28.8837819  51.2372406  61.4306327  31.6085109  45.3698184
  60.7616702  32.0931237  44.8862224  61.2919197  31.8554330  46.2841563
  53.1685326  21.1439462  49.0740185  53.2069426  20.6103053  49.8677303
  52.6625619  20.6174668  48.4551162  65.5711596  33.6428853  51.9680843
  66.1229904  33.8060474  52.7329928  65.9117789  34.2333291  51.2960868
  60.5476089  15.9904003  52.5702727  60.6117415  16.8518834  52.1580125
  60.4843209  15.3778004  51.8375086  60.0228361  18.0627135  56.2175762
  60.6500400  17.6804212  56.8313286  59.1656280  17.8441337  56.5831454
  70.4222470  28.4690110  57.8229497  70.9662374  29.0820069  57.3284452
  69.8409315  29.0269689  58.3396510  56.7993904  19.8703564  42.1494117
  57.0947345  18.9614243  42.0961170  55.8981940  19.8491304  41.8275119
  68.7079983  31.5910828  48.9544525  68.5831122  30.7900568  48.4455470
  69.3659074  32.0857022  48.4658495  60.3288151  17.9459561  48.1321665
  59.6074737  18.5595529  47.9929138  61.1181407  18.4817326  48.0538311
  70.7714891  29.3919848  50.5824075  69.8245227  29.2725200  50.5102402
  71.1197664  28.5042346  50.6650336  63.1314465  15.2813987  54.4062317
  63.6548866  15.5276284  55.1688626  62.9126798  16.1134022  53.9865454
  58.5281746  17.5517662  42.2733442  58.1994452  16.6715041  42.0908548
  58.8821116  17.4965331  43.1609831  61.6423569  17.8390632  42.6408919
  61.9819641  18.3676553  41.9187528  62.0895689  18.1771038  43.4167486
  64.3367010  16.2227682  52.0911987  63.9963830  15.4235495  52.4932667
  63.6306016  16.5229393  51.5188821  64.9883481  13.3076995  50.5439310
  65.8109551  12.8337473  50.4218201  65.2321545  14.0867479  51.0437997
  63.6291716  16.3365253  40.8402212  64.3500078  16.7146506  40.3365929
  63.0057020  17.0554130  40.9437190  67.7722839  17.0410402  41.7760544
  67.9886453  17.9235040  41.4749373  67.2916906  16.6496616  41.0466186
  62.5122060  19.9996115  48.3531289  62.3666641  20.3136419  49.2455571
  62.0347264  20.6181016  47.8002188  64.3718443  16.9898663  48.4012179
  64.3580012  16.0939757  48.0644477  65.0890871  16.9969327  49.0350465
  66.2244574  17.4236004  50.4465306  65.9662352  18.3453074  50.4449636
  65.6929614  17.0266438  51.1365770  56.9867722  22.5401460  51.2918950
  56.4421190  23.3161268  51.4239225  57.8647072  22.8872264  51.1338072
  63.7755339  15.8713044  43.6699749  63.8971250  14.9429690  43.8690636
  63.4857381  15.8851730  42.7578064  66.6446529  13.5567954  46.8066469
  66.6668226  13.6207287  45.8518448  67.0614588  12.7172463  47.0006975
  57.7733744  21.6671356  54.1849107  57.0315480  21.8153992  54.7713738
  57.4526489  21.9279622  53.3215857  65.7177407  31.2087334  53.9829497
  66.0264533  30.9636481  54.8552197  66.5152889  31.4133973  53.4948367
  65.7398019  33.3625244  46.2134874  65.3003009  32.8701623  46.9067730
  66.4906136  32.8198212  45.9726949  58.2190358  29.5536785  46.2159502
  59.0448378  29.2540557  45.8358145  57.8684410  28.7844407  46.6649290
  63.1871891  28.9063253  48.2857175  62.5651900  28.2433958  47.9859403
  63.8576758  28.9324385  47.6030823  56.4198963  27.4723111  47.1748435
  55.5830871  27.0445286  46.9932437  56.3922608  27.6655555  48.1119227
  63.2596419  17.3845041  57.8789681  63.3084574  18.2607164  57.4967451
  63.8018933  16.8422434  57.3061325  73.7451264  27.9286164  57.1590818
  72.9546808  27.9110303  56.6195318  73.5084619  28.4674458  57.9139855
  73.8649139  24.7778631  54.4723547  73.9147144  24.6128638  55.4139070
  73.7563063  23.9105890  54.0821428  62.7485398  27.4567176  41.7615636
  62.8973518  28.1402641  41.1082309  63.5551841  27.4372267  42.2765092
  71.1552902  20.7609559  55.7882854  72.0562764  20.6216024  55.4966851
  71.2300876  20.9264014  56.7281031  65.4895707  18.1376414  54.6336040
  64.6199016  18.4309980  54.3618629  65.7255187  18.7216859  55.3543304
  75.3667336  27.1975572  54.7165569  75.0752144  27.5605553  55.5529029
  74.7539467  26.4842581  54.5378901  73.6154524  22.3208187  53.1845626
  74.0908646  22.5135833  52.3764478  72.6920090  22.3767373  52.9389010
  60.5038031  23.4832354  42.7676705  60.2584073  22.5794684  42.9656915
  60.6733946  23.4849505  41.8256183  68.1934741  14.3556030  52.1501460
  68.7116685  15.0917057  51.8247949  67.8389874  14.6620024  52.9848220
  59.7733679  19.2160712  40.2662866  59.0802923  19.2905067  39.6102902
  59.5285430  18.4521055  40.7884383  68.4447335  10.7756313  47.6702357
  68.7249089  10.1079502  48.2962784  69.2297942  10.9685409  47.1577021
  66.2480804  29.9515307  39.2327383  65.6754771  30.5705494  38.7797855
  66.8213597  30.5014669  39.7667305  72.3156193  19.1973947  51.4173932
  73.2673616  19.2972045  51.4386156  72.1459644  18.4052216  51.9272016
  70.3370573  16.2829530  51.6033333  69.7420505  16.5634543  50.9079822
  70.0520270  16.7723431  52.3750074  74.7944271  22.4180067  50.5316232
  74.7620591  21.4796067  50.7175916  75.4044895  22.4964103  49.7982057
  66.6327602  21.2876120  36.5743436  67.5786707  21.1582328  36.6431854
  66.2541847  20.5490782  37.0512864  74.9438760  19.2091110  50.5774515
  74.4277808  18.4249567  50.3904444  75.8278708  18.8809827  50.7421034
  72.6049487  12.9532126  46.5370328  72.4074308  12.6447214  47.4213660
  73.2149192  13.6793765  46.6668257  78.6936118  21.6203936  50.2696720
  77.9669282  21.4859901  49.6613211  78.2783405  21.9280765  51.0753438
  66.5166295  25.3393866  58.0344093  67.4369304  25.5172465  58.2284139
  66.4815878  24.3949911  57.8823792  64.8170519  19.2126096  36.5098321
  63.9101975  18.9159209  36.5861035  65.0946500  18.9155914  35.6432607
  55.7348460  20.5332459  46.9597367  55.4151244  19.6797768  46.6671741
  55.1881888  20.7481038  47.7155335  59.5128367  23.2494900  50.6766874
  59.7314377  24.1812008  50.6954908  59.9254141  22.8902875  51.4621678
  66.4332585  13.7562986  42.6642562  65.6233313  13.4110071  43.0397808
  67.1217002  13.4470529  43.2530174  68.3623133  12.8341033  44.2866859
  68.9154172  13.2536486  44.9456882  68.5993220  11.9076781  44.3289815
  64.3856232  18.8228106  60.0669623  64.2852959  19.7722463  59.9981714
  64.1677774  18.4946345  59.1945693  63.5869304  16.0713031  36.6510300
  64.4488468  16.3967930  36.9106118  63.7719648  15.2844527  36.1383366
  55.6036720  24.1535371  48.9290489  54.9100191  23.7389324  48.4160443
  56.3509711  24.1955907  48.3323908  71.7401940  14.9441558  43.7945523
  71.1600609  15.6026362  43.4123576  71.4737873  14.1218902  43.3832941
  70.1905507  14.3446615  45.9966844  70.6905285  14.4563150  45.1881162
  70.8341115  14.0407668  46.6367652  64.2487502  22.2525245  58.8834685
  63.7654584  23.0525605  59.0898574  64.3348442  22.2633190  57.9302129
  57.5173462  24.0853625  46.8056504  57.4944150  24.1841312  45.8538387
  57.8274099  24.9318776  47.1273670  60.1760840  26.1429780  50.9203118
  61.1304094  26.1113722  50.8533050  59.9773364  25.6820403  51.7353344
  60.7660222  24.7130896  53.4873916  61.5853111  25.2074974  53.5108753
  61.0397030  23.7962864  53.4591483  70.5226818  17.1041648  42.8501871
  69.6352673  17.3891299  42.6322066  70.9380807  16.9435411  42.0029148
  73.8741354  17.1288169  46.5656211  74.6501745  17.6184622  46.8380828
  73.1489489  17.5546223  47.0228080  76.3113913  17.8415788  47.6230151
  76.9058404  17.6011524  46.9123460  76.3840497  17.1222919  48.2503688
  58.5311069  31.6849399  47.9373316  58.3965537  30.9249800  47.3711314
  58.1143131  32.4090299  47.4702105  69.6670032  26.8686323  36.9449891
  70.3705882  27.0736325  37.5607547  68.9432681  27.4363085  37.2098975
  70.4967842  22.6196184  43.0652162  70.4403043  23.0764735  42.2259794
  71.0496185  21.8586869  42.8875004  74.3072648  18.4085916  43.8902281
  74.0509582  18.0082552  44.7210489  73.6825516  19.1229710  43.7652420
  78.6184986  21.1481989  46.3973573  78.0584544  21.2175178  47.1705135
  78.0128489  20.9722974  45.6773069  61.6880195  32.5818716  48.1491759
  61.5712579  33.5264149  48.0470449  60.8672641  32.2792278  48.5377558
  71.2302621  23.8100965  40.3604691  71.1751425  23.6445237  39.4193135
  70.6048677  24.5176998  40.5166881  56.0195136  19.0469030  54.1866113
  56.6654000  18.5367984  54.6753338  55.8112287  19.7837711  54.7609538
  68.5448529  26.1149877  59.6858254  69.4139688  26.2890529  59.3244889
  68.0655280  26.9344294  59.5633983  64.5398747  13.3109074  39.9390009
  64.5277417  14.2550914  40.0958280  65.4322169  13.1279220  39.6449470
  62.7134709  33.2346978  51.3647687  63.6161955  33.2670588  51.6814182
  62.4872079  32.3047429  51.3794023  64.4688311  31.9877965  48.0257766
  63.5183942  31.9879826  47.9122138  64.7720797  31.2410699  47.5093800
  68.3550866   9.9051851  44.1935946  67.5883262   9.3510338  44.3392628
  68.7661571   9.9773720  45.0550098  60.3592627  16.1936647  58.2841127
  61.2224089  15.8373452  58.4944452  59.7858038  15.8550542  58.9716532
  73.6393385  35.2996598  56.9145848  73.0092046  35.9812878  57.1481245
  73.5329473  35.1879679  55.9698986  68.9338358  34.9668394  47.8411772
  68.1437412  35.2225922  47.3651883  69.4249605  35.7816731  47.9463812
  67.2176061  35.2198884  50.2726763  67.4684099  36.1045894  50.5384339
  67.7535609  35.0403486  49.5001855  72.9174128  29.6017363  59.2771099
  72.5241074  29.0483562  59.9518743  73.7340268  29.9127942  59.6677616
  75.8342089  31.0175242  56.8691355  76.5751802  31.6182396  56.7895818
  76.0660012  30.2752880  56.3109398  70.9783427  36.2031610  55.1469585
  70.8636942  35.3016867  55.4476684  70.1227945  36.4495306  54.7954402
  78.0575265  44.1449350  56.7457086  77.6139119  43.3585729  56.4277990
  78.7192478  44.3328501  56.0800976  76.6129557  41.9396279  55.6161995
  77.1457894  41.1784568  55.3861303  76.0843638  41.6469931  56.3586150
  71.7567974  34.1737195  52.0772991  72.4291027  33.9654557  51.4285640
  70.9297760  33.9759281  51.6378223  72.1595471  37.4479798  52.8375428
  72.0215269  36.7160037  53.4386967  73.0700395  37.3588698  52.5559616
  73.5006706  34.1464975  54.1454747  72.9644063  33.6955714  54.7976344
  72.9123414  34.2810884  53.4025212  69.2345827  33.2820983  51.2307742
  69.1504016  32.6746653  50.4958152  68.4128533  33.7730001  51.2317238
  64.0079081  36.4731380  49.0740185  64.0463180  35.9394970  49.8677303
  63.5019374  35.9466585  48.4551162  71.3869843  31.3195920  52.5702727
  71.4511170  32.1810751  52.1580125  71.3236964  30.7069922  51.8375086
  70.8622116  33.3919053  56.2175762  71.4894155  33.0096130  56.8313286
  70.0050035  33.1733255  56.5831454  71.1681906  33.2751478  48.1321665
  70.4468491  33.8887446  47.9929138  71.9575161  33.8109243  48.0538311
  73.9708219  30.6105905  54.4062317  74.4942621  30.8568202  55.1688626
  73.7520552  31.4425940  53.9865454  75.1760764  31.5519600  52.0911987
  74.8357584  30.7527413  52.4932667  74.4699770  31.8521311  51.5188821
  75.8277236  28.6368913  50.5439310  76.6503305  28.1629391  50.4218201
  76.0715299  29.4159396  51.0437997  67.8261477  37.8693378  51.2918950
  67.2814945  38.6453186  51.4239225  68.7040827  38.2164182  51.1338072
  68.6127499  36.9963274  54.1849107  67.8709235  37.1445909  54.7713738
  68.2920243  37.2571539  53.3215857  74.0990173  32.7136959  57.8789681
  74.1478329  33.5899082  57.4967451  74.6412687  32.1714352  57.3061325
  75.2249987  34.1520024  60.0669623  75.1246714  35.1014381  59.9981714
  75.0071529  33.8238263  59.1945693  75.0881257  37.5817163  58.8834685
  74.6048339  38.3817523  59.0898574  75.1742196  37.5925108  57.9302129
  71.6053977  40.0422813  53.4873916  72.4246866  40.5366892  53.5108753
  71.8790784  39.1254782  53.4591483  66.8588891  34.3760947  54.1866113
  67.5047754  33.8659901  54.6753338  66.6506042  35.1129629  54.7609538
  79.3842283  41.4441795  59.6858254  80.2533443  41.6182447  59.3244889
  78.9049034  42.2636212  59.5633983  71.1986382  31.5228564  58.2841127
  72.0617843  31.1665369  58.4944452  70.6251792  31.1842459  58.9716532
  91.0434759  53.1530421  49.0903528  91.6813169  53.0337168  48.3866868
  90.9255602  54.1011265  49.1491480  87.8524465  53.1057849  49.0265053
  87.5142977  52.9898914  48.1385588  88.7214233  52.7049014  49.0066059
  83.7111281  54.9593325  45.0161944  83.1476146  54.8683262  44.2478232
  83.5963676  54.1393230  45.4964436  88.3344248  54.2592701  54.9851258
  88.3232889  53.8645499  54.1131762  88.4964887  53.5258773  55.5785030
  81.2575713  56.4544517  47.8546164  82.0497005  56.1135342  47.4392464
  81.4972363  56.5639492  48.7748318  89.2910839  58.6264293  40.3276409
  88.6398819  59.2118373  39.9410423  90.0855202  59.1570488  40.3871446
  85.0551509  57.0429812  53.9330442  84.7641375  57.9475443  53.8177109
  85.6908494  57.0846340  54.6474512  85.9807716  54.4206661  50.5231802
  86.5771288  54.1962683  49.8088765  86.0382688  53.6791406  51.1257250
  90.5976027  50.8781875  46.1656736  91.3839116  50.4601298  45.8147153
  90.8614732  51.7827967  46.3338385  90.7686105  56.3154725  40.8645393
  90.1331938  56.3889351  41.5766298  90.4383511  56.9048324  40.1864472
  95.9984454  50.8157108  47.0689715  96.7309626  50.2456325  47.3027544
  95.2423810  50.4278708  47.5096220  87.6160574  53.2384349  44.2653057
  87.2518781  52.7114970  44.9765979  88.4727690  52.8482818  44.0919543
  93.5209875  44.5278682  51.5284323  93.1893200  45.3974093  51.3045538
  92.9255488  44.2114966  52.2078354  90.0141394  56.7291228  50.9280236
  89.7142117  57.6316267  50.8196043  89.6692454  56.4623411  51.7801389
  83.4653876  53.1805025  46.9616941  82.5404372  53.0481239  47.1694632
  83.7138289  53.9599244  47.4586883  93.4138538  49.2473768  48.6077673
  92.5055415  49.1789177  48.3136434  93.3626134  49.7245713  49.4359499
  80.8262687  52.8238298  47.7960730  80.9555068  53.0772777  48.7100141
  80.1460138  53.4166006  47.4765385  84.9962174  63.4935548  43.8951204
  84.9186204  64.4443373  43.9739684  84.3923818  63.1481421  44.5526130
  87.4879404  50.6663414  56.5512571  86.7112738  51.2257334  56.5415435
  88.1269967  51.1520197  57.0727441  95.2800184  47.4490206  50.3855547
  94.6374565  47.7422740  49.7395342  94.7755113  47.3343127  51.1908744
  92.9340348  51.1953380  41.0741407  93.8458204  51.4280766  40.8989104
  92.4249995  51.7790424  40.5116485  85.7425776  53.4748867  56.1130538
  86.4840460  54.0133911  55.8365361  85.0362762  54.1015156  56.2702090
  91.2181116  55.6178008  54.7102699  91.6264472  55.1760418  53.9657332
  90.4958377  55.0430635  54.9636892  87.5712186  50.5550614  52.0836256
  88.4173381  50.9790028  52.2270905  87.5110823  49.8984239  52.7774819
  91.5409930  56.1779198  48.4654988  90.9118793  56.3424912  47.7631056
  91.1535592  56.5920808  49.2365952  95.4199162  57.1133636  45.8199352
  94.7350200  57.4932537  45.2696385  95.5043012  57.7228963  46.5531300
  90.7211631  48.2154983  53.7417430  90.4772563  48.9697043  53.2051706
  90.9971562  48.5940330  54.5764677  92.6750094  54.7593595  52.4194695
  92.8866989  55.4025355  51.7429076  92.6279842  53.9255912  51.9516625
  90.2776323  47.3711416  49.3231268  89.4160802  47.6692669  49.6148005
  90.3038758  47.5881815  48.3912300  87.0937892  55.9153606  45.7305073
  87.5576238  56.1941309  44.9409696  86.8294690  55.0137051  45.5478164
  83.9861973  55.4625088  48.6684836  84.5563330  55.8912356  48.0302321
  84.5770085  55.1807672  49.3669022  86.0306778  52.0376759  42.5394638
  86.7330822  52.4897802  43.0068565  85.6987407  51.3960577  43.1674531
  84.4787140  50.6288515  56.9145848  83.8485800  51.3104796  57.1481245
  84.3723228  50.5171597  55.9698986  79.7732112  50.2960311  47.8411772
  78.9831166  50.5517840  47.3651883  80.2643360  51.1108649  47.9463812
  93.7895922  57.6365550  50.5917053  94.6113366  57.2345738  50.3099734
  93.7858325  57.5333785  51.5433169  87.5552525  57.1849594  52.7477763
  87.6196958  57.6470001  53.5835935  86.8463449  56.5546959  52.8760073
  78.0569815  50.5490802  50.2726763  78.3077854  51.4337812  50.5384339
  78.5929364  50.3695403  49.5001855 101.8801915  53.9804299  46.9402024
 101.1265623  53.4111697  46.7846029 102.0149456  53.9466963  47.8872659
  87.2700543  58.8517701  42.6156744  87.1346218  59.6969237  43.0441591
  87.8110355  59.0536979  41.8522677  83.7567883  44.9309281  59.2771099
  83.3634828  44.3775480  59.9518743  84.5734023  45.2419860  59.6677616
  86.6735844  46.3467160  56.8691355  87.4145557  46.9474313  56.7895818
  86.9053766  45.6044798  56.3109398  81.8177182  51.5323527  55.1469585
  81.7030697  50.6308785  55.4476684  80.9621699  51.7787224  54.7954402
  88.8969019  59.4741268  56.7457086  88.4532874  58.6877646  56.4277990
  89.5586233  59.6620418  56.0800976  83.6556141  61.0037069  51.2717764
  84.2063566  60.8754133  50.4994758  82.8167616  61.3031958  50.9212657
  90.9950257  59.7544068  54.7738487  90.9768733  60.5752949  54.2818756
  91.9170177  59.6298143  54.9988628  87.4523312  57.2688197  55.6161995
  87.9851648  56.5076485  55.3861303  86.9237393  56.9761849  56.3586150
  90.5843289  52.3656874  39.6528072  90.0689913  53.1361479  39.8916460
  90.3120598  51.6922010  40.2761134  95.5577563  55.1189229  41.5881246
  94.7807006  54.7800388  41.1436408  96.2369044  55.1241852  40.9136211
  90.3729592  50.2383966  41.4787853  90.0679728  50.5530115  42.3297997
  91.3260035  50.3165386  41.5215186  88.8176024  56.3974190  43.1280807
  88.2897386  55.6626949  42.8154045  88.3163527  57.1748866  42.8820776
  93.7968870  54.5923210  48.2447854  93.1392545  55.2822471  48.3327982
  94.6009270  54.9819642  48.5881840  92.6074329  52.9467583  46.2951795
  93.1206211  53.5797575  46.7973505  93.2575553  52.3468778  45.9295155
  89.8696703  62.9251907  39.0512467  89.1958402  63.2283604  39.6597424
  90.2562525  63.7280987  38.7017924  89.0855160  50.4217038  48.5410136
  88.1677721  50.6431985  48.3831824  89.5015304  50.4963349  47.6821843
  89.8690208  51.8208454  43.6712816  90.6162027  52.3329851  43.3619938
  90.1381797  51.4992507  44.5317210  88.1416858  54.3166995  40.6539770
  87.2328077  54.0326028  40.7512240  88.1711942  54.7366073  39.7943077
  93.3736125  57.9273584  44.4230938  92.9198452  57.0864494  44.4796128
  92.7430092  58.5634983  44.7605718  92.3169045  48.8565570  45.6531605
  91.5791802  48.3442956  45.9841848  92.5695818  48.4165952  44.8414882
  91.8169065  59.7650081  45.3580756  92.1092039  60.3255138  44.6393122
  92.3267685  60.0578642  46.1133915  78.7105028  52.0372509  44.6354973
  78.5129428  51.4441870  43.9106039  78.1551692  51.7324719  45.3530911
  86.6901752  51.9295615  46.7549566  86.7450362  50.9769452  46.6792042
  85.8792954  52.0855054  47.2390864  87.8392946  55.8575738  37.9927849
  87.4012376  55.1411597  37.5333486  88.5803387  56.0851853  37.4312940
  84.6294112  50.5472675  44.5139945  83.8161977  50.8466846  44.9205137
  85.1253106  50.1528364  45.2314427  86.7802690  60.5430432  46.4474209
  86.7378869  60.7691278  45.5182741  87.6965389  60.3093807  46.5960010
  90.2268324  51.0114500  53.3454839  90.5817711  51.2385973  54.2049304
  90.8740455  51.3432876  52.7232094  95.9566060  54.1332935  44.0504168
  95.8183959  54.3234531  43.1225357  95.6002279  54.8952318  44.5072219
  95.9835440  56.2009462  49.0615439  96.4171947  56.1084752  49.9098493
  96.6967021  56.1766963  48.4235455  84.8968491  57.4193461  46.2436172
  85.6909089  56.9243781  46.0418747  84.1860183  56.8911324  45.8803878
  89.7163335  59.8011557  50.5948540  89.7700357  60.3702493  51.3626256
  88.8478116  59.9713442  50.2302577  82.5961728  49.5029113  52.0772991
  83.2684782  49.2946475  51.4285640  81.7691515  49.3051199  51.6378223
  96.8450990  56.2433163  51.5948324  97.0386880  57.1478974  51.8407599
  96.7451608  55.7840582  52.4286910  91.9066098  56.3939906  57.1689205
  91.7551605  56.1650458  56.2519289  91.8970778  57.3510507  57.1820550
  88.6751435  53.9671819  52.1535472  89.6043495  54.1182978  51.9804439
  88.2542465  54.0555839  51.2984118  87.4739767  57.9922483  49.9234009
  87.3350852  57.6241267  50.7959947  86.6854363  58.5070122  49.7517967
  88.0687918  63.0931579  41.2659546  88.2439674  62.6219623  42.0805168
  87.3820707  63.7197346  41.4940806  89.0244982  57.3704086  47.3122847
  88.6894814  57.3304856  48.2080497  88.5248927  56.7048802  46.8393257
  82.9989226  52.7771716  52.8375428  82.8609024  52.0451955  53.4386967
  83.9094149  52.6880616  52.5559616  91.9604173  54.7160120  37.5859907
  91.3433344  53.9906948  37.4892959  91.4920662  55.4769480  37.2426981
  85.6271526  52.4891675  52.3259108  86.3371145  51.8484867  52.2845726
  85.5840834  52.7404570  53.2485289  93.6158305  59.4259028  55.2465687
  93.5570851  58.7418249  54.5796270  94.0177823  60.1678018  54.7946313
  82.6349004  66.2420942  48.0399406  82.8745602  66.8739466  48.7178424
  81.7918200  65.8908982  48.3264765  93.6175712  57.3898612  53.4779667
  92.7302491  57.0524534  53.6006066  94.1874263  56.6581644  53.7148432
  80.0739581  48.6112901  51.2307742  79.9897770  48.0038570  50.4958152
  79.2522288  49.1021919  51.2317238  87.1476866  62.0500065  50.4440910
  87.0747037  62.8555036  50.9560214  86.7054259  62.2492031  49.6188931
  86.9366645  61.2871835  43.9543731  86.1534167  61.8293515  44.0481956
  87.6359390  61.8045814  44.3537973  98.0993053  52.8006830  48.2396228
  98.0882929  53.6831545  47.8690161  97.2310432  52.4478381  48.0450765
  89.6075549  61.9486899  52.5999069  90.3203521  62.5834364  52.5274970
  89.1165578  62.0450765  51.7839070  91.3293076  55.8538151  44.1716360
  90.3949355  55.9739614  44.0021064  91.5069745  54.9510618  43.9076370
  86.8298264  49.2383847  46.3249621  86.4596052  48.6854888  47.0130527
  87.3257357  48.6341981  45.7724621  94.7165627  51.6955471  44.7066394
  95.1826080  52.5283462  44.6326697  95.1673128  51.2300452  45.4111653
  84.6587463  59.6981342  53.4204639  85.3596922  60.3317825  53.5734034
  84.1882578  60.0396074  52.6600279  92.7841859  58.0399292  41.7052546
  93.0601702  57.9255887  42.6146420  91.9146357  57.6416777  41.6664719
  92.4588749  52.2525950  51.2457190  91.8060199  52.5001857  50.5909642
  92.8369129  51.4390088  50.9119667  89.4195923  62.2885643  45.3485360
  89.6018317  61.4707299  45.8113112  90.2428909  62.5053335  44.9110250
  89.7538088  61.2153828  42.6100408  90.2825854  60.7046283  41.9970571
  90.0166308  60.8996358  43.4745941  88.5076322  52.9945761  57.7323227
  87.8316959  52.8939890  58.4025602  89.3303956  52.8384974  58.1959224
  83.1093836  62.2668945  45.3698184  82.4404211  62.7515072  44.8862224
  82.9706706  62.5138165  46.2841563  87.2499105  64.3012688  51.9680843
  87.8017413  64.4644310  52.7329928  87.5905298  64.8917126  51.2960868
  81.7015870  48.7210970  56.2175762  82.3287909  48.3388048  56.8313286
  80.8443789  48.5025172  56.5831454  92.1009979  59.1273946  57.8229497
  92.6449883  59.7403904  57.3284452  91.5196824  59.6853524  58.3396510
  90.3867492  62.2494664  48.9544525  90.2618631  61.4484404  48.4455470
  91.0446583  62.7440857  48.4658495  82.0075660  48.6043396  48.1321665
  81.2862246  49.2179364  47.9929138  82.7968916  49.1401161  48.0538311
  92.4502400  60.0503684  50.5824075  91.5032736  59.9309035  50.5102402
  92.7985173  59.1626182  50.6650336  89.4548834  59.8456400  46.7828427
  89.3073796  58.9173107  46.9635997  90.2802327  59.8676491  46.2985502
  93.0582955  60.6684959  47.8693300  93.9829503  60.4627820  47.7317751
  92.8898259  60.4201360  48.7782641  84.1909569  50.6579951  48.3531289
  84.0454150  50.9720254  49.2455571  83.7134773  51.2764851  47.8002188
  86.0505952  47.6482499  48.4012179  86.0367521  46.7523592  48.0644477
  86.7678380  47.6553163  49.0350465  87.9032083  48.0819839  50.4465306
  87.6449861  49.0036910  50.4449636  87.3717123  47.6850274  51.1365770
  92.8478272  61.1870626  43.2255391  93.0215149  60.6217049  42.4729244
  93.3407163  61.9871521  43.0434881  98.7017663  53.9507049  44.8445691
  99.1448809  53.2014374  44.4464814  97.8244173  53.9417185  44.4619423
  93.8353444  60.5037391  40.3252290  94.5304349  61.1244083  40.5439604
  94.1776594  59.6532742  40.6004668  95.7344867  57.9537096  41.8539620
  96.2596191  58.2924369  41.1288940  95.6467220  57.0184111  41.6702755
  87.3964916  61.8671170  53.9829497  87.7052042  61.6220317  54.8552197
  88.1940398  62.0717808  53.4948367  87.4185528  64.0209079  46.2134874
  86.9790518  63.5285458  46.9067730  88.1693645  63.4782047  45.9726949
  84.8659400  59.5647088  48.2857175  84.2439409  58.9017793  47.9859403
  85.5364267  59.5908220  47.6030823  84.9383928  48.0428876  57.8789681
  84.9872083  48.9190999  57.4967451  85.4806442  47.5006270  57.3061325
  95.4238773  58.5870000  57.1590818  94.6334317  58.5694139  56.6195318
  95.1872128  59.1258293  57.9139855  95.5436648  55.4362466  54.4723547
  95.5934653  55.2712474  55.4139070  95.4350572  54.5689725  54.0821428
  92.8340411  51.4193394  55.7882854  93.7350273  51.2799859  55.4966851
  92.9088385  51.5847849  56.7281031  97.0454845  57.8559408  54.7165569
  96.7539653  58.2189388  55.5529029  96.4326976  57.1426416  54.5378901
  98.2450527  55.4212287  47.2368139  99.0797419  55.8602091  47.4005699
  98.3809656  54.9450941  46.4176385  95.2942033  52.9792022  53.1845626
  95.7696155  53.1719669  52.3764478  94.3707599  53.0351208  52.9389010
  87.9268313  60.6099142  39.2327383  87.3542280  61.2289329  38.7797855
  88.5001106  61.1598504  39.7667305  93.9943702  49.8557782  51.4173932
  94.9461125  49.9555880  51.4386156  93.8247153  49.0636051  51.9272016
  92.0158082  46.9413366  51.6033333  91.4208014  47.2218378  50.9079822
  91.7307779  47.4307266  52.3750074  91.1465572  60.8936292  40.3635966
  92.0796245  60.8281854  40.5668841  91.0588785  61.7292559  39.9050498
  93.7753589  60.2102163  37.3239913  93.6967220  59.8762026  38.2175671
  94.5963256  60.7023931  37.3231385  96.4731780  53.0763902  50.5316232
  96.4408100  52.1379903  50.7175916  97.0832404  53.1547939  49.7982057
  88.3115111  51.9459955  36.5743436  89.2574216  51.8166163  36.6431854
  87.9329356  51.2074617  37.0512864  96.6226269  49.8674945  50.5774515
  96.1065317  49.0833402  50.3904444  97.5066217  49.5393662  50.7421034
 102.2908330  54.1379909  49.6722269 103.0211718  53.8765197  50.2329972
 101.6815275  53.4008631  49.7124337 100.3723627  52.2787771  50.2696720
  99.6456791  52.1443736  49.6613211  99.9570914  52.5864600  51.0753438
  88.1953804  55.9977701  58.0344093  89.1156813  56.1756300  58.2284139
  88.1603387  55.0533746  57.8823792  81.1915876  53.9078736  50.6766874
  81.4101886  54.8395844  50.6954908  81.6041650  53.5486710  51.4621678
  86.0643741  49.4811942  60.0669623  85.9640468  50.4306299  59.9981714
  85.8465283  49.1530180  59.1945693  85.9275011  52.9109080  58.8834685
  85.4442093  53.7109441  59.0898574  86.0135950  52.9217025  57.9302129
  95.5528863  47.7872004  46.5656211  96.3289254  48.2768457  46.8380828
  94.8276998  48.2130059  47.0228080  97.9901422  48.4999624  47.6230151
  98.5845913  48.2595360  46.9123460  98.0628006  47.7806754  48.2503688
  80.2098578  62.3433235  47.9373316  80.0753046  61.5833635  47.3711314
  79.7930640  63.0674134  47.4702105  91.3457541  57.5270158  36.9449891
  92.0493391  57.7320161  37.5607547  90.6220190  58.0946920  37.2098975
  92.1755351  53.2780019  43.0652162  92.1190552  53.7348571  42.2259794
  92.7283693  52.5170704  42.8875004  95.9860157  49.0669751  43.8902281
  95.7297091  48.6666387  44.7210489  95.3613025  49.7813545  43.7652420
 100.2972495  51.8065824  46.3973573  99.7372053  51.8759014  47.1705135
  99.6915998  51.6306809  45.6773069  83.3667704  63.2402552  48.1491759
  83.2500088  64.1847984  48.0470449  82.5460150  62.9376113  48.5377558
  93.2544238  57.9652687  38.9948352  94.0889842  57.5333886  38.8125826
  93.0928581  57.7934701  39.9225246  92.9090130  54.4684801  40.3604691
  92.8538934  54.3029072  39.4193135  92.2836186  55.1760834  40.5166881
  90.2236038  56.7733712  59.6858254  91.0927197  56.9474365  59.3244889
  89.7442789  57.5928129  59.5633983  84.3922218  63.8930813  51.3647687
  85.2949464  63.9254424  51.6814182  84.1659588  62.9631264  51.3794023
  86.1475820  62.6461800  48.0257766  85.1971451  62.6463662  47.9122138
  86.4508306  61.8994535  47.5093800  82.0380136  46.8520482  58.2841127
  82.9011598  46.4957287  58.4944452  81.4645547  46.5134377  58.9716532
 101.8828513  68.4822338  49.0903528 102.5206923  68.3629086  48.3866868
 101.7649356  69.4303182  49.1491480  98.6918220  68.4349767  49.0265053
  98.3536731  68.3190831  48.1385588  99.5607988  68.0340932  49.0066059
  94.5505035  70.2885243  45.0161944  93.9869900  70.1975180  44.2478232
  94.4357430  69.4685147  45.4964436  99.1738003  69.5884618  54.9851258
  99.1626643  69.1937417  54.1131762  99.3358642  68.8550691  55.5785030
  92.0969467  71.7836435  47.8546164  92.8890759  71.4427259  47.4392464
  92.3366117  71.8931410  48.7748318 100.1304594  73.9556211  40.3276409
  99.4792574  74.5410291  39.9410423 100.9248957  74.4862406  40.3871446
  94.0560221  71.0445348  40.7263543  94.8291097  70.4974335  40.5876419
  94.4085620  71.9089597  40.9378005  95.8945264  72.3721730  53.9330442
  95.6035130  73.2767361  53.8177109  96.5302248  72.4138258  54.6474512
  96.8201471  69.7498579  50.5231802  97.4165043  69.5254601  49.8088765
  96.8776442  69.0083324  51.1257250  96.3926499  67.2038014  38.3581993
  96.6452020  66.6819535  37.5965456  95.4551058  67.0404159  38.4608677
 101.4369782  66.2073792  46.1656736 102.2232871  65.7893215  45.8147153
 101.7008486  67.1119884  46.3338385 101.6079859  71.6446643  40.8645393
 100.9725692  71.7181269  41.5766298 101.2777265  72.2340241  40.1864472
 106.8378209  66.1449025  47.0689715 107.5703381  65.5748242  47.3027544
 106.0817565  65.7570626  47.5096220  96.1122788  69.1066120  40.5606368
  95.9959046  68.4311023  41.2287452  96.2225048  68.6198494  39.7438521
  98.4554329  68.5676267  44.2653057  98.0912536  68.0406888  44.9765979
  99.3121444  68.1774736  44.0919543 104.3603629  59.8570600  51.5284323
 104.0286954  60.7266011  51.3045538 103.7649243  59.5406884  52.2078354
  98.0959816  63.5966167  39.2614406  98.2634218  64.4646403  39.6284877
  97.9056985  63.7593448  38.3375695 100.8535149  72.0583146  50.9280236
 100.5535872  72.9608184  50.8196043 100.5086208  71.7915329  51.7801389
  94.3047630  68.5096942  46.9616941  93.3798127  68.3773157  47.1694632
  94.5532043  69.2891162  47.4586883 104.2532293  64.5765686  48.6077673
 103.3449170  64.5081094  48.3136434 104.2019888  65.0537631  49.4359499
  98.0749036  66.0523824  40.2461073  97.9548662  66.4980875  41.0846553
  97.3801625  66.4009142  39.6874611  91.6656441  68.1530216  47.7960730
  91.7948822  68.4064695  48.7100141  90.9853893  68.7457924  47.4765385
  95.8355929  78.8227466  43.8951204  95.7579958  79.7735291  43.9739684
  95.2317572  78.4773338  44.5526130  98.3273158  65.9955331  56.5512571
  97.5506492  66.5549251  56.5415435  98.9663721  66.4812114  57.0727441
 106.1193939  62.7782124  50.3855547 105.4768319  63.0714657  49.7395342
 105.6148867  62.6635044  51.1908744 103.7734103  66.5245297  41.0741407
 104.6851959  66.7572684  40.8989104 103.2643750  67.1082342  40.5116485
  96.5819531  68.8040785  56.1130538  97.3234215  69.3425829  55.8365361
  95.8756516  69.4307073  56.2702090 102.0574870  70.9469925  54.7102699
 102.4658226  70.5052336  53.9657332 101.3352132  70.3722553  54.9636892
  98.4105940  65.8842532  52.0836256  99.2567136  66.3081946  52.2270905
  98.3504578  65.2276156  52.7774819 102.3803685  71.5071116  48.4654988
 101.7512547  71.6716830  47.7631056 101.9929347  71.9212725  49.2365952
 106.2592917  72.4425554  45.8199352 105.5743955  72.8224455  45.2696385
 106.3436766  73.0520880  46.5531300 101.5605386  63.5446900  53.7417430
 101.3166318  64.2988961  53.2051706 101.8365316  63.9232248  54.5764677
 103.5143848  70.0885513  52.4194695 103.7260744  70.7317273  51.7429076
 103.4673597  69.2547829  51.9516625 101.1170077  62.7003333  49.3231268
 100.2554556  62.9984587  49.6148005 101.1432512  62.9173732  48.3912300
  97.9331647  71.2445524  45.7305073  98.3969992  71.5233227  44.9409696
  97.6688445  70.3428968  45.5478164  94.8255728  70.7917005  48.6684836
  95.3957085  71.2204274  48.0302321  95.4163840  70.5099590  49.3669022
  96.8700533  67.3668676  42.5394638  97.5724576  67.8189720  43.0068565
  96.5381161  66.7252495  43.1674531  95.3180894  65.9580433  56.9145848
  94.6879555  66.6396714  57.1481245  95.2116982  65.8463514  55.9698986
  90.6125867  65.6252229  47.8411772  89.8224921  65.8809757  47.3651883
  91.1037114  66.4400567  47.9463812 104.6289676  72.9657468  50.5917053
 105.4507120  72.5637655  50.3099734 104.6252079  72.8625702  51.5433169
  92.5640612  65.9896808  44.7995249  91.7671775  66.1015502  45.3178744
  92.3366204  66.3283460  43.9336139  98.3946280  72.5141511  52.7477763
  98.4590712  72.9761919  53.5835935  97.6857204  71.8838876  52.8760073
  88.8963570  65.8782719  50.2726763  89.1471608  66.7629729  50.5384339
  89.4323118  65.6987321  49.5001855 112.7195669  69.3096217  46.9402024
 111.9659378  68.7403615  46.7846029 112.8543211  69.2758881  47.8872659
  98.1094297  74.1809619  42.6156744  97.9739972  75.0261155  43.0441591
  98.6504110  74.3828897  41.8522677  94.5961637  60.2601199  59.2771099
  94.2028583  59.7067397  59.9518743  95.4127777  60.5711777  59.6677616
  91.5623695  71.6985057  43.1884669  92.0748215  72.4928307  43.3390233
  92.2146408  71.0011347  43.1218270  93.3718580  74.8150813  45.2707422
  93.5485208  75.7368778  45.0828406  94.1675413  74.5009232  45.7001802
  97.5129598  61.6759078  56.8691355  98.2539311  62.2766231  56.7895818
  97.7447521  60.9336716  56.3109398  92.6570936  66.8615445  55.1469585
  92.5424451  65.9600702  55.4476684  91.8015454  67.1079142  54.7954402
  99.7362774  74.8033185  56.7457086  99.2926628  74.0169564  56.4277990
 100.3979987  74.9912336  56.0800976  94.4949895  76.3328987  51.2717764
  95.0457320  76.2046050  50.4994758  93.6561371  76.6323876  50.9212657
 101.8344012  75.0835985  54.7738487 101.8162487  75.9044866  54.2818756
 102.7563932  74.9590061  54.9988628  98.2917066  72.5980115  55.6161995
  98.8245403  71.8368403  55.3861303  97.7631147  72.3053767  56.3586150
 101.4586761  57.7040181  51.1455637 101.1151030  58.5941822  51.0694748
 101.8265724  57.5141838  50.2825222  89.5272612  70.0273711  43.9644239
  90.3647834  70.4370720  43.7477947  89.7050879  69.0873153  43.9344433
 101.4237044  67.6948792  39.6528072 100.9083667  68.4653397  39.8916460
 101.1514352  67.0213928  40.2761134  99.0084155  62.5398493  44.7113311
  98.1525751  62.1505343  44.5318949  99.4211107  62.6190453  43.8513096
 100.5383301  60.0744836  49.1104870 100.0348097  60.0374971  48.2972676
 100.8313908  60.9837579  49.1701527  96.7826187  60.1583566  48.1171052
  97.6479184  59.9626374  47.7576941  96.8503696  59.9293917  49.0440409
 106.3971318  70.4481147  41.5881246 105.6200761  70.1092306  41.1436408
 107.0762799  70.4533770  40.9136211 101.2123347  65.5675884  41.4787853
 100.9073482  65.8822033  42.3297997 102.1653789  65.6457304  41.5215186
  99.6569779  71.7266107  43.1280807  99.1291140  70.9918867  42.8154045
  99.1557281  72.5040784  42.8820776 104.6362625  69.9215128  48.2447854
 103.9786299  70.6114389  48.3327982 105.4403024  70.3111560  48.5881840
  94.3888506  62.3885774  45.4887419  94.9632258  62.1660955  44.7560612
  94.9759489  62.4574468  46.2416020 103.4468084  68.2759500  46.2951795
 103.9599965  68.9089492  46.7973505 104.0969307  67.6760696  45.9295155
  94.7158093  64.4190235  39.5083304  93.8795406  64.7564921  39.8292579
  94.5762863  64.2839214  38.5710441  96.6911174  59.2627022  44.2162488
  96.0375586  58.9476040  43.5919103  96.6491648  58.6402763  44.9422311
  97.8022379  69.5446318  36.1315780  96.8949441  69.3135571  36.3306929
  98.2993411  68.7483937  36.3189762 100.7090458  78.2543825  39.0512467
 100.0352157  78.5575521  39.6597424 101.0956280  79.0572905  38.7017924
  99.9248914  65.7508956  48.5410136  99.0071476  65.9723903  48.3831824
 100.3409058  65.8255266  47.6821843 100.7083962  67.1500372  43.6712816
 101.4555781  67.6621769  43.3619938 100.9775552  66.8284424  44.5317210
  98.9810612  69.6458912  40.6539770  98.0721832  69.3617945  40.7512240
  99.0105696  70.0657991  39.7943077 104.2129880  73.2565502  44.4230938
 103.7592207  72.4156412  44.4796128 103.5823847  73.8926900  44.7605718
 103.1562799  64.1857488  45.6531605 102.4185556  63.6734874  45.9841848
 103.4089573  63.7457870  44.8414882 102.6562819  75.0941999  45.3580756
 102.9485793  75.6547056  44.6393122 103.1661440  75.3870560  46.1133915
 103.2574427  56.9633740  46.2473375 103.5633303  56.1031103  45.9599290
 103.9827031  57.5551360  46.0472369  89.5498783  67.3664427  44.6354973
  89.3523183  66.7733787  43.9106039  88.9945447  67.0616637  45.3530911
  97.5295506  67.2587533  46.7549566  97.5844116  66.3061369  46.6792042
  96.7186708  67.4146972  47.2390864  98.6786700  71.1867656  37.9927849
  98.2406130  70.4703515  37.5333486  99.4197141  71.4143771  37.4312940
  95.4687866  65.8764593  44.5139945  94.6555732  66.1758763  44.9205137
  95.9646861  65.4820282  45.2314427  97.6196444  75.8722350  46.4474209
  97.5772623  76.0983196  45.5182741  98.5359143  75.6385724  46.5960010
 101.0662078  66.3406417  53.3454839 101.4211466  66.5677890  54.2049304
 101.7134209  66.6724794  52.7232094 106.7959815  69.4624853  44.0504168
 106.6577714  69.6526449  43.1225357 106.4396034  70.2244236  44.5072219
  94.9601941  63.4482948  50.1301180  95.6001320  63.3071707  49.4324143
  94.1279472  63.1617462  49.7539782 106.8229195  71.5301380  49.0615439
 107.2565701  71.4376669  49.9098493 107.5360775  71.5058881  48.4235455
  95.7362245  72.7485379  46.2436172  96.5302843  72.2535699  46.0418747
  95.0253937  72.2203242  45.8803878 100.5557089  75.1303474  50.5948540
 100.6094112  75.6994411  51.3626256  99.6871871  75.3005359  50.2302577
  92.0445008  66.8928460  42.3195925  91.1142597  66.8312916  42.5365887
  92.1402480  66.3704413  41.5232566  91.9630558  63.4183273  44.9074166
  92.2237375  64.3328607  44.7983327  92.7847730  62.9507716  45.0570779
  93.4355483  64.8321030  52.0772991  94.1078536  64.6238393  51.4285640
  92.6085269  64.6343116  51.6378223 107.6844744  71.5725081  51.5948324
 107.8780634  72.4770891  51.8407599 107.5845362  71.1132500  52.4286910
  99.3381055  61.4582971  54.0938652  98.6908970  62.1572921  54.0003128
 100.1082070  61.8919115  54.4614900 102.7459853  71.7231824  57.1689205
 102.5945359  71.4942375  56.2519289 102.7364532  72.6802425  57.1820550
  99.5145189  69.2963736  52.1535472 100.4437249  69.4474896  51.9804439
  99.0936219  69.3847757  51.2984118  98.3133521  73.3214401  49.9234009
  98.1744607  72.9533185  50.7959947  97.5248117  73.8362040  49.7517967
  98.9081673  78.4223497  41.2659546  99.0833429  77.9511540  42.0805168
  98.2214461  79.0489263  41.4940806  99.8638736  72.6996003  47.3122847
  99.5288569  72.6596773  48.2080497  99.3642682  72.0340719  46.8393257
  93.8382980  68.1063633  52.8375428  93.7002778  67.3743872  53.4386967
  94.7487904  68.0172534  52.5559616 102.7997928  70.0452038  37.5859907
 102.1827098  69.3198866  37.4892959 102.3314416  70.8061398  37.2426981
  96.4665281  67.8183593  52.3259108  97.1764899  67.1776785  52.2845726
  96.4234589  68.0696488  53.2485289 104.4552059  74.7550946  55.2465687
 104.3964606  74.0710166  54.5796270 104.8571578  75.4969936  54.7946313
  95.1794215  64.8048811  54.1454747  94.6431572  64.3539549  54.7976344
  94.5910923  64.9394719  53.4025212  93.4742758  81.5712860  48.0399406
  93.7139356  82.2031384  48.7178424  92.6311955  81.2200900  48.3264765
  94.5896474  64.2637462  36.7081211  93.7125940  64.1426263  36.3443458
  95.0654227  63.4723540  36.4560100 104.4569467  72.7190530  53.4779667
 103.5696245  72.3816452  53.6006066 105.0268018  71.9873561  53.7148432
  86.1098614  69.0514622  46.8022718  86.7969654  68.7376352  46.2143733
  85.9546743  69.9555986  46.5289969  90.9133336  63.9404818  51.2307742
  90.8291525  63.3330488  50.4958152  90.0916042  64.4313837  51.2317238
  97.9870620  77.3791982  50.4440910  97.9140792  78.1846954  50.9560214
  97.5448013  77.5783948  49.6188931  97.7760400  76.6163752  43.9543731
  96.9927922  77.1585433  44.0481956  98.4753145  77.1337732  44.3537973
 101.0857050  62.4258382  46.5977937 101.5825749  61.6728344  46.2779007
 100.3144031  62.4622699  46.0321146 108.9386807  68.1298747  48.2396228
 108.9276684  69.0123463  47.8690161 108.0704187  67.7770298  48.0450765
 100.4469304  77.2778816  52.5999069 101.1597276  77.9126281  52.5274970
  99.9559332  77.3742682  51.7839070 102.1686831  71.1830069  44.1716360
 101.2343109  71.3031532  44.0021064 102.3463499  70.2802536  43.9076370
  97.6692019  64.5675765  46.3249621  97.2989806  64.0146805  47.0130527
  98.1651111  63.9633898  45.7724621 105.5559382  67.0247388  44.7066394
 106.0219834  67.8575380  44.6326697 106.0066882  66.5592370  45.4111653
  95.4981217  75.0273260  53.4204639  96.1990677  75.6609743  53.5734034
  95.0276332  75.3687991  52.6600279 103.6235613  73.3691210  41.7052546
 103.8995457  73.2547804  42.6146420 102.7540112  72.9708695  41.6664719
 103.5276045  59.3927975  48.7457296 102.6139124  59.6232202  48.9139503
 103.9569146  59.4766419  49.5971328 103.2982503  67.5817867  51.2457190
 102.6453953  67.8293775  50.5909642 103.6762883  66.7682006  50.9119667
 100.2589677  77.6177560  45.3485360 100.4412072  76.7999216  45.8113112
 101.0822663  77.8345253  44.9110250 100.5931843  76.5445746  42.6100408
 101.1219609  76.0338200  41.9970571 100.8560062  76.2288276  43.4745941
  99.3470076  68.3237678  57.7323227  98.6710713  68.2231808  58.4025602
 100.1697710  68.1676892  58.1959224  91.0948935  74.5609615  50.3535742
  91.6802372  73.8153303  50.4863646  90.8973774  74.8713572  51.2372406
  93.9487590  77.5960862  45.3698184  93.2797966  78.0806990  44.8862224
  93.8100460  77.8430083  46.2841563  85.6866590  67.1315215  49.0740185
  85.7250689  66.5978806  49.8677303  85.1806883  66.6050421  48.4551162
  98.0892859  79.6304606  51.9680843  98.6411167  79.7936227  52.7329928
  98.4299052  80.2209044  51.2960868  93.0657352  61.9779756  52.5702727
  93.1298679  62.8394587  52.1580125  93.0024473  61.3653757  51.8375086
  92.5409625  64.0502888  56.2175762  93.1681664  63.6679965  56.8313286
  91.6837544  63.8317090  56.5831454 102.9403733  74.4565863  57.8229497
 103.4843637  75.0695822  57.3284452 102.3590578  75.0145442  58.3396510
  89.3175168  65.8579317  42.1494117  89.6128609  64.9489996  42.0961170
  88.4163203  65.8367057  41.8275119 101.2261246  77.5786581  48.9544525
 101.1012386  76.7776321  48.4455470 101.8840337  78.0732775  48.4658495
  92.8469415  63.9335314  48.1321665  92.1256000  64.5471282  47.9929138
  93.6362670  64.4693079  48.0538311 103.2896155  75.3795601  50.5824075
 102.3426490  75.2600953  50.5102402 103.6378928  74.4918099  50.6650336
  95.6495728  61.2689740  54.4062317  96.1730130  61.5152037  55.1688626
  95.4308061  62.1009775  53.9865454  91.0463009  63.5393415  42.2733442
  90.7175715  62.6590794  42.0908548  91.4002380  63.4841084  43.1609831
 100.2942588  75.1748318  46.7828427 100.1467550  74.2465025  46.9635997
 101.1196082  75.1968408  46.2985502  94.1604832  63.8266385  42.6408919
  94.5000905  64.3552306  41.9187528  94.6076953  64.1646791  43.4167486
 103.8976710  75.9976876  47.8693300 104.8223257  75.7919738  47.7317751
 103.7292013  75.7493278  48.7782641  96.8548273  62.2103435  52.0911987
  96.5145093  61.4111249  52.4932667  96.1487279  62.5105146  51.5188821
  97.5064745  59.2952748  50.5439310  98.3290814  58.8213226  50.4218201
  97.7502808  60.0743232  51.0437997  96.1472979  62.3241006  40.8402212
  96.8681342  62.7022259  40.3365929  95.5238284  63.0429883  40.9437190
 100.2904102  63.0286155  41.7760544 100.5067717  63.9110793  41.4749373
  99.8098169  62.6372369  41.0466186  95.0303324  65.9871869  48.3531289
  94.8847904  66.3012172  49.2455571  94.5528527  66.6056769  47.8002188
  96.8899707  62.9774417  48.4012179  96.8761275  62.0815510  48.0644477
  97.6072135  62.9845080  49.0350465  98.7425837  63.4111757  50.4465306
  98.4843615  64.3328827  50.4449636  98.2110878  63.0142191  51.1365770
 103.6872026  76.5162544  43.2255391 103.8608904  75.9508966  42.4729244
 104.1800917  77.3163439  43.0434881  89.5048986  68.5277213  51.2918950
  88.9602454  69.3037021  51.4239225  90.3828336  68.8748017  51.1338072
  96.2936603  61.8588797  43.6699749  96.4152514  60.9305443  43.8690636
  96.0038645  61.8727483  42.7578064  99.1627793  59.5443707  46.8066469
  99.1849490  59.6083040  45.8518448  99.5795852  58.7048216  47.0006975
 109.5411417  69.2798967  44.8445691 109.9842563  68.5306292  44.4464814
 108.6637928  69.2709103  44.4619423 104.6747199  75.8329308  40.3252290
 105.3698103  76.4536001  40.5439604 105.0170349  74.9824659  40.6004668
  90.2915008  67.6547109  54.1849107  89.5496744  67.8029745  54.7713738
  89.9707752  67.9155375  53.3215857 106.5738622  73.2829014  41.8539620
 107.0989946  73.6216287  41.1288940 106.4860974  72.3476029  41.6702755
  98.2358670  77.1963087  53.9829497  98.5445797  76.9512234  54.8552197
  99.0334152  77.4009726  53.4948367  98.2579282  79.3500997  46.2134874
  97.8184273  78.8577376  46.9067730  99.0087399  78.8073965  45.9726949
  90.7371621  75.5412538  46.2159502  91.5629641  75.2416310  45.8358145
  90.3865673  74.7720160  46.6649290  95.7053155  74.8939006  48.2857175
  95.0833164  74.2309711  47.9859403  96.3758021  74.9200138  47.6030823
  88.9380226  73.4598864  47.1748435  88.1012135  73.0321039  46.9932437
  88.9103872  73.6531308  48.1119227  95.7777682  63.3720794  57.8789681
  95.8265838  64.2482917  57.4967451  96.3200196  62.8298187  57.3061325
 106.2632528  73.9161917  57.1590818 105.4728071  73.8986056  56.6195318
 106.0265882  74.4550211  57.9139855 106.3830403  70.7654384  54.4723547
 106.4328408  70.6004391  55.4139070 106.2744326  69.8981643  54.0821428
  95.2666661  73.4442929  41.7615636  95.4154782  74.1278394  41.1082309
  96.0733105  73.4248020  42.2765092 103.6734165  66.7485312  55.7882854
 104.5744028  66.6091777  55.4966851 103.7482140  66.9139767  56.7281031
  98.0076970  64.1252167  54.6336040  97.1380280  64.4185733  54.3618629
  98.2436451  64.7092612  55.3543304 107.8848600  73.1851325  54.7165569
 107.5933408  73.5481306  55.5529029 107.2720731  72.4718334  54.5378901
 109.0844282  70.7504205  47.2368139 109.9191173  71.1894009  47.4005699
 109.2203411  70.2742858  46.4176385 106.1335788  68.3083940  53.1845626
 106.6089909  68.5011586  52.3764478 105.2101353  68.3643126  52.9389010
  93.0219294  69.4708107  42.7676705  92.7765336  68.5670437  42.9656915
  93.1915209  69.4725258  41.8256183 100.7116004  60.3431783  52.1501460
 101.2297948  61.0792810  51.8247949 100.3571137  60.6495777  52.9848220
  92.2914942  65.2036465  40.2662866  91.5984187  65.2780820  39.6102902
  92.0466694  64.4396808  40.7884383 100.9628598  56.7632066  47.6702357
 101.2430352  56.0955255  48.2962784 101.7479205  56.9561162  47.1577021
  98.7662067  75.9391060  39.2327383  98.1936034  76.5581247  38.7797855
  99.3394861  76.4890422  39.7667305 104.8337457  65.1849700  51.4173932
 105.7854880  65.2847798  51.4386156 104.6640907  64.3927969  51.9272016
 102.8551836  62.2705283  51.6033333 102.2601768  62.5510296  50.9079822
 102.5701533  62.7599184  52.3750074 101.9859327  76.2228210  40.3635966
 102.9190000  76.1573772  40.5668841 101.8982540  77.0584477  39.9050498
 104.6147343  75.5394080  37.3239913 104.5360975  75.2053944  38.2175671
 105.4357010  76.0315848  37.3231385 107.3125535  68.4055820  50.5316232
 107.2801855  67.4671820  50.7175916 107.9226158  68.4839856  49.7982057
  99.1508865  67.2751873  36.5743436 100.0967970  67.1458081  36.6431854
  98.7723110  66.5366535  37.0512864 107.4620023  65.1966863  50.5774515
 106.9459072  64.4125320  50.3904444 108.3459972  64.8685580  50.7421034
 105.1230750  58.9407879  46.5370328 104.9255571  58.6322967  47.4213660
 105.7330456  59.6669518  46.6668257 113.1302084  69.4671827  49.6722269
 113.8605473  69.2057115  50.2329972 112.5209030  68.7300548  49.7124337
 111.2117382  67.6079689  50.2696720 110.4850545  67.4735654  49.6613211
 110.7964668  67.9156518  51.0753438  99.0347558  71.3269619  58.0344093
  99.9550567  71.5048218  58.2284139  98.9997141  70.3825664  57.8823792
  97.3351783  65.2001849  36.5098321  96.4283238  64.9034962  36.5861035
  97.6127764  64.9031667  35.6432607  88.2529723  66.5208212  46.9597367
  87.9332507  65.6673521  46.6671741  87.7063151  66.7356791  47.7155335
  92.0309631  69.2370653  50.6766874  92.2495640  70.1687761  50.6954908
  92.4435404  68.8778628  51.4621678  98.9513848  59.7438739  42.6642562
  98.1414577  59.3985824  43.0397808  99.6398265  59.4346283  43.2530174
 100.8804397  58.8216786  44.2866859 101.4335435  59.2412239  44.9456882
 101.1174483  57.8952534  44.3289815  96.9037496  64.8103859  60.0669623
  96.8034223  65.7598216  59.9981714  96.6859038  64.4822098  59.1945693
  96.1050567  62.0588784  36.6510300  96.9669731  62.3843683  36.9106118
  96.2900911  61.2720280  36.1383366  88.1217983  70.1411124  48.9290489
  87.4281454  69.7265077  48.4160443  88.8690974  70.1831660  48.3323908
 104.2583204  60.9317311  43.7945523 103.6781873  61.5902115  43.4123576
 103.9919136  60.1094655  43.3832941 102.7086770  60.3322368  45.9966844
 103.2086548  60.4438903  45.1881162 103.3522378  60.0283421  46.6367652
  96.7668766  68.2400998  58.8834685  96.2835848  69.0401358  59.0898574
  96.8529705  68.2508943  57.9302129  90.0354726  70.0729378  46.8056504
  90.0125414  70.1717065  45.8538387  90.3455362  70.9194529  47.1273670
  92.6942103  72.1305533  50.9203118  93.6485357  72.0989475  50.8533050
  92.4954627  71.6696157  51.7353344  93.2841486  70.7006649  53.4873916
  94.1034375  71.1950727  53.5108753  93.5578293  69.7838617  53.4591483
 103.0408082  63.0917401  42.8501871 102.1533937  63.3767052  42.6322066
 103.4562071  62.9311164  42.0029148 106.3922618  63.1163922  46.5656211
 107.1683008  63.6060375  46.8380828 105.6670752  63.5421976  47.0228080
 108.8295177  63.8291541  47.6230151 109.4239667  63.5887277  46.9123460
 108.9021760  63.1098672  48.2503688  91.0492332  77.6725152  47.9373316
  90.9146800  76.9125553  47.3711314  90.6324394  78.3966052  47.4702105
 102.1851295  72.8562076  36.9449891 102.8887145  73.0612078  37.5607547
 101.4613944  73.4238838  37.2098975 103.0149106  68.6071937  43.0652162
 102.9584307  69.0640488  42.2259794 103.5677448  67.8462622  42.8875004
 106.8253911  64.3961669  43.8902281 106.5690846  63.9958305  44.7210489
 106.2006779  65.1105463  43.7652420 111.1366249  67.1357742  46.3973573
 110.5765807  67.2050931  47.1705135 110.5309753  66.9598727  45.6773069
  94.2061458  78.5694469  48.1491759  94.0893842  79.5139902  48.0470449
  93.3853904  78.2668031  48.5377558 104.0937993  73.2944605  38.9948352
 104.9283597  72.8625803  38.8125826 103.9322336  73.1226619  39.9225246
 103.7483885  69.7976718  40.3604691 103.6932689  69.6320990  39.4193135
 103.1229940  70.5052751  40.5166881  88.5376400  65.0344783  54.1866113
  89.1835263  64.5243737  54.6753338  88.3293551  65.7713464  54.7609538
 101.0629792  72.1025630  59.6858254 101.9320952  72.2766282  59.3244889
 100.5836543  72.9220047  59.5633983  97.0580010  59.2984827  39.9390009
  97.0458680  60.2426667  40.0958280  97.9503432  59.1154973  39.6449470
  95.2315972  79.2222731  51.3647687  96.1343219  79.2546341  51.6814182
  95.0053342  78.2923182  51.3794023  96.9869574  77.9753718  48.0257766
  96.0365205  77.9755579  47.9122138  97.2902060  77.2286452  47.5093800
 100.8732130  55.8927604  44.1935946 100.1064526  55.3386091  44.3392628
 101.2842835  55.9649473  45.0550098  92.8773891  62.1812400  58.2841127
  93.7405352  61.8249205  58.4944452  92.3039301  61.8426295  58.9716532
 112.7222268  83.8114256  49.0903528 113.3600678  83.6921003  48.3866868
 112.6043111  84.7595100  49.1491480 109.5311974  83.7641684  49.0265053
 109.1930486  83.6482749  48.1385588 110.4001742  83.3632849  49.0066059
 105.3898790  85.6177161  45.0161944 104.8263655  85.5267098  44.2478232
 105.2751185  84.7977065  45.4964436 110.0131757  84.9176536  54.9851258
 110.0020398  84.5229334  54.1131762 110.1752396  84.1842609  55.5785030
 102.9363222  87.1128352  47.8546164 103.7284514  86.7719177  47.4392464
 103.1759872  87.2223327  48.7748318 110.9698348  89.2848128  40.3276409
 110.3186328  89.8702209  39.9410423 111.7642711  89.8154323  40.3871446
 104.8953976  86.3737265  40.7263543 105.6684852  85.8266253  40.5876419
 105.2479374  87.2381515  40.9378005 106.7339018  87.7013648  53.9330442
 106.4428884  88.6059279  53.8177109 107.3696003  87.7430175  54.6474512
 107.6595225  85.0790496  50.5231802 108.2558797  84.8546519  49.8088765
 107.7170197  84.3375242  51.1257250 107.2320253  82.5329932  38.3581993
 107.4845774  82.0111453  37.5965456 106.2944812  82.3696077  38.4608677
 112.2763536  81.5365710  46.1656736 113.0626625  81.1185133  45.8147153
 112.5402241  82.4411802  46.3338385 112.4473614  86.9738560  40.8645393
 111.8119447  87.0473187  41.5766298 112.1171020  87.5632159  40.1864472
 117.6771963  81.4740943  47.0689715 118.4097135  80.9040160  47.3027544
 116.9211319  81.0862544  47.5096220 106.9516542  84.4358038  40.5606368
 106.8352800  83.7602941  41.2287452 107.0618802  83.9490411  39.7438521
 109.2948083  83.8968185  44.2653057 108.9306290  83.3698806  44.9765979
 110.1515199  83.5066654  44.0919543 115.1997384  75.1862517  51.5284323
 114.8680708  76.0557928  51.3045538 114.6042997  74.8698801  52.2078354
 108.9353570  78.9258084  39.2614406 109.1027972  79.7938321  39.6284877
 108.7450739  79.0885366  38.3375695 111.6928903  87.3875063  50.9280236
 111.3929626  88.2900102  50.8196043 111.3479963  87.1207246  51.7801389
 105.1441385  83.8388860  46.9616941 104.2191881  83.7065074  47.1694632
 105.3925798  84.6183079  47.4586883 115.0926047  79.9057603  48.6077673
 114.1842924  79.8373012  48.3136434 115.0413643  80.3829548  49.4359499
 108.9142791  81.3815742  40.2461073 108.7942416  81.8272793  41.0846553
 108.2195379  81.7301060  39.6874611 102.5050196  83.4822134  47.7960730
 102.6342577  83.7356613  48.7100141 101.8247647  84.0749842  47.4765385
 106.6749683  94.1519384  43.8951204 106.5973713  95.1027209  43.9739684
 106.0711327  93.8065256  44.5526130 109.1666913  81.3247249  56.5512571
 108.3900247  81.8841169  56.5415435 109.8057476  81.8104032  57.0727441
 116.9587693  78.1074042  50.3855547 116.3162074  78.4006575  49.7395342
 116.4542622  77.9926962  51.1908744 114.6127857  81.8537215  41.0741407
 115.5245713  82.0864602  40.8989104 114.1037504  82.4374259  40.5116485
 107.4213285  84.1332702  56.1130538 108.1627969  84.6717746  55.8365361
 106.7150271  84.7598991  56.2702090 112.8968625  86.2761843  54.7102699
 113.3051981  85.8344253  53.9657332 112.1745886  85.7014470  54.9636892
 109.2499695  81.2134450  52.0836256 110.0960890  81.6373863  52.2270905
 109.1898332  80.5568074  52.7774819 113.2197439  86.8363033  48.4654988
 112.5906302  87.0008748  47.7631056 112.8323101  87.2504643  49.2365952
 117.0986671  87.7717471  45.8199352 116.4137709  88.1516373  45.2696385
 117.1830521  88.3812798  46.5531300 112.3999140  78.8738818  53.7417430
 112.1560072  79.6280879  53.2051706 112.6759071  79.2524166  54.5764677
 114.3537603  85.4177430  52.4194695 114.5654498  86.0609190  51.7429076
 114.3067351  84.5839747  51.9516625 111.9563832  78.0295251  49.3231268
 111.0948311  78.3276505  49.6148005 111.9826267  78.2465650  48.3912300
 108.7725401  86.5737442  45.7305073 109.2363747  86.8525145  44.9409696
 108.5082199  85.6720886  45.5478164 105.6649482  86.1208923  48.6684836
 106.2350839  86.5496191  48.0302321 106.2557594  85.8391508  49.3669022
 107.7094287  82.6960594  42.5394638 108.4118331  83.1481638  43.0068565
 107.3774916  82.0544413  43.1674531 106.1574649  81.2872351  56.9145848
 105.5273309  81.9688631  57.1481245 106.0510737  81.1755432  55.9698986
 101.4519621  80.9544147  47.8411772 100.6618675  81.2101675  47.3651883
 101.9430869  81.7692484  47.9463812 115.4683431  88.2949386  50.5917053
 116.2900875  87.8929573  50.3099734 115.4645834  88.1917620  51.5433169
 103.4034367  81.3188726  44.7995249 102.6065530  81.4307420  45.3178744
 103.1759959  81.6575378  43.9336139 109.2340034  87.8433429  52.7477763
 109.2984467  88.3053836  53.5835935 108.5250958  87.2130794  52.8760073
  99.7357324  81.2074637  50.2726763  99.9865363  82.0921647  50.5384339
 100.2716873  81.0279239  49.5001855 108.9488052  89.5101537  42.6156744
 108.8133727  90.3553072  43.0441591 109.4897864  89.7120814  41.8522677
 105.4355392  75.5893116  59.2771099 105.0422337  75.0359315  59.9518743
 106.2521532  75.9003695  59.6677616 102.4017449  87.0276975  43.1884669
 102.9141970  87.8220225  43.3390233 103.0540162  86.3303265  43.1218270
 104.2112334  90.1442731  45.2707422 104.3878962  91.0660696  45.0828406
 105.0069168  89.8301150  45.7001802 108.3523353  77.0050996  56.8691355
 109.0933066  77.6058149  56.7895818 108.5841275  76.2628633  56.3109398
 103.4964691  82.1907363  55.1469585 103.3818206  81.2892620  55.4476684
 102.6409208  82.4371060  54.7954402 110.5756528  90.1325103  56.7457086
 110.1320383  89.3461482  56.4277990 111.2373742  90.3204254  56.0800976
 105.3343650  91.6620905  51.2717764 105.8851075  91.5337968  50.4994758
 104.4955125  91.9615794  50.9212657 112.6737766  90.4127903  54.7738487
 112.6556242  91.2336784  54.2818756 113.5957686  90.2881978  54.9988628
 109.1310821  87.9272032  55.6161995 109.6639157  87.1660321  55.3861303
 108.6024902  87.6345684  56.3586150 112.2980516  73.0332098  51.1455637
 111.9544785  73.9233740  51.0694748 112.6659478  72.8433756  50.2825222
 100.3666366  85.3565629  43.9644239 101.2041588  85.7662637  43.7477947
 100.5444634  84.4165071  43.9344433 112.2630798  83.0240710  39.6528072
 111.7477422  83.7945314  39.8916460 111.9908107  82.3505846  40.2761134
 109.8477909  77.8690410  44.7113311 108.9919506  77.4797261  44.5318949
 110.2604861  77.9482371  43.8513096 111.3777056  75.4036754  49.1104870
 110.8741851  75.3666889  48.2972676 111.6707663  76.3129496  49.1701527
 107.6219942  75.4875483  48.1171052 108.4872939  75.2918292  47.7576941
 107.6897451  75.2585835  49.0440409 117.2365072  85.7773064  41.5881246
 116.4594515  85.4384224  41.1436408 117.9156553  85.7825687  40.9136211
 112.0517101  80.8967802  41.4787853 111.7467237  81.2113951  42.3297997
 113.0047544  80.9749222  41.5215186 110.4963533  87.0558025  43.1280807
 109.9684895  86.3210785  42.8154045 109.9951036  87.8332701  42.8820776
 115.4756379  85.2507045  48.2447854 114.8180054  85.9406307  48.3327982
 116.2796778  85.6403477  48.5881840 105.2282261  77.7177691  45.4887419
 105.8026013  77.4952873  44.7560612 105.8153243  77.7866386  46.2416020
 114.2861838  83.6051418  46.2951795 114.7993720  84.2381410  46.7973505
 114.9363062  83.0052614  45.9295155 105.5551848  79.7482152  39.5083304
 104.7189160  80.0856839  39.8292579 105.4156618  79.6131132  38.5710441
 107.5304929  74.5918940  44.2162488 106.8769341  74.2767957  43.5919103
 107.4885403  73.9694681  44.9422311 108.6416133  84.8738235  36.1315780
 107.7343195  84.6427489  36.3306929 109.1387165  84.0775854  36.3189762
 111.5484212  93.5835742  39.0512467 110.8745911  93.8867439  39.6597424
 111.9350034  94.3864823  38.7017924 110.7642669  81.0800874  48.5410136
 109.8465230  81.3015821  48.3831824 111.1802813  81.1547184  47.6821843
 111.5477717  82.4792289  43.6712816 112.2949536  82.9913687  43.3619938
 111.8169306  82.1576342  44.5317210 109.8204367  84.9750830  40.6539770
 108.9115586  84.6909863  40.7512240 109.8499451  85.3949909  39.7943077
 115.0523634  88.5857420  44.4230938 114.5985961  87.7448329  44.4796128
 114.4217601  89.2218818  44.7605718 113.9956554  79.5149406  45.6531605
 113.2579311  79.0026792  45.9841848 114.2483327  79.0749787  44.8414882
 113.4956574  90.4233916  45.3580756 113.7879548  90.9838973  44.6393122
 114.0055194  90.7162477  46.1133915 114.0968181  72.2925658  46.2473375
 114.4027058  71.4323021  45.9599290 114.8220786  72.8843278  46.0472369
 100.3892537  82.6956344  44.6354973 100.1916937  82.1025705  43.9106039
  99.8339201  82.3908554  45.3530911 108.3689261  82.5879451  46.7549566
 108.4237871  81.6353287  46.6792042 107.5580463  82.7438890  47.2390864
 109.5180455  86.5159574  37.9927849 109.0799885  85.7995433  37.5333486
 110.2590896  86.7435689  37.4312940 106.3081621  81.2056510  44.5139945
 105.4949486  81.5050681  44.9205137 106.8040615  80.8112199  45.2314427
 108.4590199  91.2014267  46.4474209 108.4166378  91.4275114  45.5182741
 109.3752898  90.9677642  46.5960010 111.9055833  81.6698335  53.3454839
 112.2605220  81.8969808  54.2049304 112.5527964  82.0016712  52.7232094
 117.6353569  84.7916771  44.0504168 117.4971468  84.9818367  43.1225357
 117.2789788  85.5536154  44.5072219 105.7995696  78.7774866  50.1301180
 106.4395075  78.6363625  49.4324143 104.9673226  78.4909379  49.7539782
 117.6622949  86.8593298  49.0615439 118.0959456  86.7668587  49.9098493
 118.3754530  86.8350798  48.4235455 106.5755999  88.0777296  46.2436172
 107.3696598  87.5827617  46.0418747 105.8647692  87.5495160  45.8803878
 111.3950844  90.4595392  50.5948540 111.4487866  91.0286328  51.3626256
 110.5265625  90.6297277  50.2302577 102.8838763  82.2220378  42.3195925
 101.9536351  82.1604834  42.5365887 102.9796235  81.6996331  41.5232566
 102.8024312  78.7475191  44.9074166 103.0631129  79.6620524  44.7983327
 103.6241484  78.2799634  45.0570779 104.2749237  80.1612948  52.0772991
 104.9472291  79.9530310  51.4285640 103.4479024  79.9635034  51.6378223
 118.5238499  86.9016998  51.5948324 118.7174389  87.8062809  51.8407599
 118.4239117  86.4424418  52.4286910 110.1774809  76.7874889  54.0938652
 109.5302724  77.4864839  54.0003128 110.9475825  77.2211033  54.4614900
 113.5853607  87.0523741  57.1689205 113.4339114  86.8234293  56.2519289
 113.5758287  88.0094343  57.1820550 110.3538944  84.6255654  52.1535472
 111.2831004  84.7766814  51.9804439 109.9329974  84.7139675  51.2984118
 109.1527275  88.6506318  49.9234009 109.0138361  88.2825103  50.7959947
 108.3641872  89.1653958  49.7517967 109.7475427  93.7515415  41.2659546
 109.9227183  93.2803458  42.0805168 109.0608215  94.3781181  41.4940806
 110.7032491  88.0287921  47.3122847 110.3682323  87.9888691  48.2080497
 110.2036436  87.3632637  46.8393257 104.6776735  83.4355551  52.8375428
 104.5396533  82.7035790  53.4386967 105.5881658  83.3464451  52.5559616
 113.6391682  85.3743955  37.5859907 113.0220853  84.6490784  37.4892959
 113.1708171  86.1353316  37.2426981 107.3059035  83.1475510  52.3259108
 108.0158654  82.5068703  52.2845726 107.2628343  83.3988405  53.2485289
 115.2945814  90.0842864  55.2465687 115.2358360  89.4002084  54.5796270
 115.6965332  90.8261854  54.7946313 106.0187969  80.1340728  54.1454747
 105.4825326  79.6831467  54.7976344 105.4304678  80.2686637  53.4025212
 104.3136513  96.9004778  48.0399406 104.5533111  97.5323302  48.7178424
 103.4705709  96.5492818  48.3264765 105.4290228  79.5929380  36.7081211
 104.5519695  79.4718180  36.3443458 105.9047981  78.8015458  36.4560100
 115.2963221  88.0482448  53.4779667 114.4090000  87.7108369  53.6006066
 115.8661772  87.3165479  53.7148432  96.9492368  84.3806539  46.8022718
  97.6363408  84.0668269  46.2143733  96.7940497  85.2847904  46.5289969
 101.7527090  79.2696736  51.2307742 101.6685279  78.6622406  50.4958152
 100.9309797  79.7605754  51.2317238 108.8264375  92.7083900  50.4440910
 108.7534546  93.5138872  50.9560214 108.3841768  92.9075866  49.6188931
 108.6154154  91.9455670  43.9543731 107.8321676  92.4877350  44.0481956
 109.3146899  92.4629650  44.3537973 111.9250804  77.7550300  46.5977937
 112.4219504  77.0020262  46.2779007 111.1537786  77.7914616  46.0321146
 119.7780562  83.4590665  48.2396228 119.7670438  84.3415380  47.8690161
 118.9097941  83.1062216  48.0450765 111.2863058  92.6070734  52.5999069
 111.9991030  93.2418199  52.5274970 110.7953087  92.7034600  51.7839070
 113.0080585  86.5121987  44.1716360 112.0736864  86.6323449  44.0021064
 113.1857254  85.6094454  43.9076370 108.5085773  79.8967683  46.3249621
 108.1383561  79.3438723  47.0130527 109.0044866  79.2925816  45.7724621
 116.3953136  82.3539306  44.7066394 116.8613589  83.1867298  44.6326697
 116.8460637  81.8884288  45.4111653 106.3374972  90.3565178  53.4204639
 107.0384431  90.9901661  53.5734034 105.8670087  90.6979909  52.6600279
 114.4629367  88.6983127  41.7052546 114.7389211  88.5839722  42.6146420
 113.5933866  88.3000612  41.6664719 114.3669799  74.7219893  48.7457296
 113.4532879  74.9524120  48.9139503 114.7962901  74.8058337  49.5971328
 114.1376258  82.9109785  51.2457190 113.4847708  83.1585692  50.5909642
 114.5156638  82.0973923  50.9119667 111.0983432  92.9469478  45.3485360
 111.2805826  92.1291134  45.8113112 111.9216418  93.1637170  44.9110250
 111.4325597  91.8737663  42.6100408 111.9613363  91.3630118  41.9970571
 111.6953817  91.5580194  43.4745941 110.1863831  83.6529596  57.7323227
 109.5104468  83.5523725  58.4025602 111.0091465  83.4968810  58.1959224
 101.9342690  89.8901533  50.3535742 102.5196127  89.1445220  50.4863646
 101.7367528  90.2005489  51.2372406 104.7881345  92.9252780  45.3698184
 104.1191720  93.4098908  44.8862224 104.6494215  93.1722000  46.2841563
  96.5260344  82.4607133  49.0740185  96.5644444  81.9270723  49.8677303
  96.0200637  81.9342338  48.4551162 108.9286614  94.9596523  51.9680843
 109.4804922  95.1228145  52.7329928 109.2692807  95.5500961  51.2960868
 103.9051107  77.3071673  52.5702727 103.9692433  78.1686504  52.1580125
 103.8418227  76.6945675  51.8375086 103.3803379  79.3794806  56.2175762
 104.0075418  78.9971883  56.8313286 102.5231298  79.1609008  56.5831454
 113.7797488  89.7857781  57.8229497 114.3237392  90.3987739  57.3284452
 113.1984333  90.3437359  58.3396510 100.1568922  81.1871235  42.1494117
 100.4522363  80.2781913  42.0961170  99.2556958  81.1658974  41.8275119
 112.0655001  92.9078499  48.9544525 111.9406140  92.1068239  48.4455470
 112.7234092  93.4024692  48.4658495 103.6863169  79.2627232  48.1321665
 102.9649755  79.8763199  47.9929138 104.4756425  79.7984996  48.0538311
 114.1289909  90.7087519  50.5824075 113.1820245  90.5892870  50.5102402
 114.4772682  89.8210017  50.6650336 106.4889483  76.5981658  54.4062317
 107.0123884  76.8443955  55.1688626 106.2701816  77.4301693  53.9865454
 101.8856764  78.8685333  42.2733442 101.5569470  77.9882712  42.0908548
 102.2396134  78.8133001  43.1609831 111.1336342  90.5040235  46.7828427
 110.9861305  89.5756943  46.9635997 111.9589836  90.5260326  46.2985502
 104.9998587  79.1558302  42.6408919 105.3394659  79.6844224  41.9187528
 105.4470707  79.4938709  43.4167486 114.7370464  91.3268794  47.8693300
 115.6617012  91.1211655  47.7317751 114.5685768  91.0785195  48.7782641
 107.6942028  77.5395353  52.0911987 107.3538848  76.7403166  52.4932667
 106.9881034  77.8397064  51.5188821 108.3458499  74.6244666  50.5439310
 109.1684569  74.1505144  50.4218201 108.5896563  75.4035149  51.0437997
 106.9866734  77.6532924  40.8402212 107.7075096  78.0314177  40.3365929
 106.3632038  78.3721801  40.9437190 111.1297857  78.3578073  41.7760544
 111.3461471  79.2402711  41.4749373 110.6491924  77.9664286  41.0466186
 105.8697078  81.3163786  48.3531289 105.7241659  81.6304089  49.2455571
 105.3922282  81.9348687  47.8002188 107.7293461  78.3066334  48.4012179
 107.7155030  77.4107427  48.0644477 108.4465889  78.3136998  49.0350465
 109.5819592  78.7403674  50.4465306 109.3237370  79.6620745  50.4449636
 109.0504632  78.3434109  51.1365770 114.5265781  91.8454462  43.2255391
 114.7002658  91.2800884  42.4729244 115.0194672  92.6455356  43.0434881
 100.3442740  83.8569131  51.2918950  99.7996208  84.6328939  51.4239225
 101.2222090  84.2039935  51.1338072 107.1330357  77.1880714  43.6699749
 107.2546268  76.2597361  43.8690636 106.8432399  77.2019400  42.7578064
 110.0021547  74.8735625  46.8066469 110.0243244  74.9374958  45.8518448
 110.4189606  74.0340134  47.0006975 120.3805172  84.6090884  44.8445691
 120.8236318  83.8598210  44.4464814 119.5031682  84.6001021  44.4619423
 115.5140953  91.1621226  40.3252290 116.2091858  91.7827919  40.5439604
 115.8564103  90.3116577  40.6004668 101.1308762  82.9839027  54.1849107
 100.3890498  83.1321662  54.7713738 100.8101506  83.2447292  53.3215857
 117.4132376  88.6120931  41.8539620 117.9383700  88.9508204  41.1288940
 117.3254729  87.6767947  41.6702755 109.0752425  92.5255005  53.9829497
 109.3839551  92.2804152  54.8552197 109.8727907  92.7301644  53.4948367
 109.0973037  94.6792915  46.2134874 108.6578027  94.1869293  46.9067730
 109.8481154  94.1365882  45.9726949 101.5765376  90.8704456  46.2159502
 102.4023396  90.5708227  45.8358145 101.2259428  90.1012078  46.6649290
 106.5446909  90.2230924  48.2857175 105.9226918  89.5601629  47.9859403
 107.2151776  90.2492056  47.6030823  99.7773981  88.7890782  47.1748435
  98.9405889  88.3612956  46.9932437  99.7497626  88.9823225  48.1119227
 106.6171437  78.7012712  57.8789681 106.6659592  79.5774835  57.4967451
 107.1593951  78.1590105  57.3061325 117.1026282  89.2453835  57.1590818
 116.3121826  89.2277974  56.6195318 116.8659637  89.7842129  57.9139855
 117.2224157  86.0946301  54.4723547 117.2722162  85.9296309  55.4139070
 117.1138081  85.2273560  54.0821428 106.1060416  88.7734847  41.7615636
 106.2548536  89.4570312  41.1082309 106.9126859  88.7539937  42.2765092
 114.5127920  82.0777229  55.7882854 115.4137782  81.9383694  55.4966851
 114.5875894  82.2431684  56.7281031 108.8470725  79.4544084  54.6336040
 107.9774034  79.7477650  54.3618629 109.0830205  80.0384529  55.3543304
 118.7242354  88.5143243  54.7165569 118.4327162  88.8773224  55.5529029
 118.1114485  87.8010251  54.5378901 119.9238036  86.0796123  47.2368139
 120.7584928  86.5185927  47.4005699 120.0597165  85.6034776  46.4176385
 116.9729542  83.6375858  53.1845626 117.4483664  83.8303504  52.3764478
 116.0495108  83.6935043  52.9389010 103.8613049  84.8000025  42.7676705
 103.6159091  83.8962355  42.9656915 104.0308963  84.8017175  41.8256183
 111.5509759  75.6723701  52.1501460 112.0691703  76.4084728  51.8247949
 111.1964892  75.9787694  52.9848220 103.1308696  80.5328382  40.2662866
 102.4377941  80.6072737  39.6102902 102.8860448  79.7688726  40.7884383
 111.8022353  72.0923984  47.6702357 112.0824107  71.4247173  48.2962784
 112.5872960  72.2853079  47.1577021 109.6055821  91.2682978  39.2327383
 109.0329789  91.8873165  38.7797855 110.1788615  91.8182339  39.7667305
 115.6731211  80.5141618  51.4173932 116.6248634  80.6139715  51.4386156
 115.5034662  79.7219886  51.9272016 113.6945591  77.5997201  51.6033333
 113.0995523  77.8802214  50.9079822 113.4095288  78.0891102  52.3750074
 112.8253081  91.5520128  40.3635966 113.7583754  91.4865689  40.5668841
 112.7376294  92.3876395  39.9050498 115.4541098  90.8685998  37.3239913
 115.3754729  90.5345862  38.2175671 116.2750765  91.3607766  37.3231385
 118.1519289  83.7347737  50.5316232 118.1195609  82.7963738  50.7175916
 118.7619913  83.8131774  49.7982057 109.9902620  82.6043790  36.5743436
 110.9361725  82.4749998  36.6431854 109.6116865  81.8658452  37.0512864
 118.3013778  80.5258781  50.5774515 117.7852826  79.7417237  50.3904444
 119.1853726  80.1977497  50.7421034 115.9624505  74.2699796  46.5370328
 115.7649326  73.9614885  47.4213660 116.5724210  74.9961435  46.6668257
 109.8741313  86.6561536  58.0344093 110.7944322  86.8340135  58.2284139
 109.8390896  85.7117582  57.8823792 108.1745537  80.5293767  36.5098321
 107.2676993  80.2326879  36.5861035 108.4521518  80.2323585  35.6432607
  99.0923478  81.8500130  46.9597367  98.7726262  80.9965438  46.6671741
  98.5456906  82.0648708  47.7155335 102.8703385  84.5662571  50.6766874
 103.0889395  85.4979679  50.6954908 103.2829159  84.2070546  51.4621678
 109.7907603  75.0730656  42.6642562 108.9808331  74.7277741  43.0397808
 110.4792020  74.7638200  43.2530174 111.7198151  74.1508703  44.2866859
 112.2729190  74.5704157  44.9456882 111.9568238  73.2244451  44.3289815
 107.7431250  80.1395777  60.0669623 107.6427977  81.0890134  59.9981714
 107.5252792  79.8114016  59.1945693 106.9444322  77.3880702  36.6510300
 107.8063486  77.7135600  36.9106118 107.1294666  76.6012198  36.1383366
  98.9611738  85.4703042  48.9290489  98.2675209  85.0556994  48.4160443
  99.7084729  85.5123578  48.3323908 115.0976958  76.2609228  43.7945523
 114.5175627  76.9194032  43.4123576 114.8312891  75.4386573  43.3832941
 113.5480525  75.6614286  45.9966844 114.0480303  75.7730821  45.1881162
 114.1916133  75.3575339  46.6367652 107.6062520  83.5692916  58.8834685
 107.1229602  84.3693276  59.0898574 107.6923459  83.5800861  57.9302129
 100.8748480  85.4021295  46.8056504 100.8519168  85.5008983  45.8538387
 101.1849117  86.2486446  47.1273670 103.5335858  87.4597450  50.9203118
 104.4879111  87.4281393  50.8533050 103.3348382  86.9988074  51.7353344
 104.1235240  86.0298566  53.4873916 104.9428129  86.5242645  53.5108753
 104.3972048  85.1130535  53.4591483 113.8801836  78.4209319  42.8501871
 112.9927691  78.7058969  42.6322066 114.2955825  78.2603082  42.0029148
 117.2316372  78.4455840  46.5656211 118.0076763  78.9352292  46.8380828
 116.5064507  78.8713894  47.0228080 119.6688931  79.1583459  47.6230151
 120.2633422  78.9179195  46.9123460 119.7415515  78.4390590  48.2503688
 101.8886087  93.0017070  47.9373316 101.7540555  92.2417471  47.3711314
 101.4718149  93.7257970  47.4702105 113.0245050  88.1853993  36.9449891
 113.7280900  88.3903996  37.5607547 112.3007698  88.7530755  37.2098975
 113.8542860  83.9363855  43.0652162 113.7978061  84.3932406  42.2259794
 114.4071202  83.1754539  42.8875004 117.6647666  79.7253587  43.8902281
 117.4084600  79.3250222  44.7210489 117.0400534  80.4397381  43.7652420
 105.0455213  93.8986387  48.1491759 104.9287597  94.8431819  48.0470449
 104.2247659  93.5959949  48.5377558 114.9331747  88.6236523  38.9948352
 115.7677351  88.1917721  38.8125826 114.7716090  88.4518536  39.9225246
 114.5877639  85.1268636  40.3604691 114.5326443  84.9612907  39.4193135
 113.9623695  85.8344669  40.5166881  99.3770154  80.3636700  54.1866113
 100.0229018  79.8535654  54.6753338  99.1687305  81.1005382  54.7609538
 111.9023546  87.4317548  59.6858254 112.7714706  87.6058200  59.3244889
 111.4230298  88.2511965  59.5633983 107.8973765  74.6276745  39.9390009
 107.8852435  75.5718585  40.0958280 108.7897187  74.4446890  39.6449470
 106.0709727  94.5514649  51.3647687 106.9736973  94.5838259  51.6814182
 105.8447097  93.6215100  51.3794023 107.8263329  93.3045635  48.0257766
 106.8758960  93.3047497  47.9122138 108.1295815  92.5578370  47.5093800
 111.7125884  71.2219522  44.1935946 110.9458280  70.6678008  44.3392628
 112.1236589  71.2941390  45.0550098 103.7167645  77.5104317  58.2841127
 104.5799107  77.1541122  58.4944452 103.1433056  77.1718212  58.9716532
 120.3705729  99.0933602  49.0265053 120.0324240  98.9774667  48.1385588
 121.2395497  98.6924767  49.0066059 116.2292544 100.9469078  45.0161944
 115.6657409 100.8559015  44.2478232 116.1144939 100.1268983  45.4964436
 120.8525512 100.2468454  54.9851258 120.8414152  99.8521252  54.1131762
 121.0146151  99.5134526  55.5785030 113.7756976 102.4420270  47.8546164
 114.5678268 102.1011095  47.4392464 114.0153626 102.5515245  48.7748318
 115.7347730 101.7029183  40.7263543 116.5078606 101.1558170  40.5876419
 116.0873129 102.5673432  40.9378005 117.5732773 103.0305565  53.9330442
 117.2822639 103.9351196  53.8177109 118.2089757 103.0722093  54.6474512
 118.4988979 100.4082414  50.5231802 119.0952552 100.1838436  49.8088765
 118.5563951  99.6667159  51.1257250 118.0714008  97.8621849  38.3581993
 118.3239529  97.3403371  37.5965456 117.1338567  97.6987995  38.4608677
 117.7910297  99.7649955  40.5606368 117.6746555  99.0894859  41.2287452
 117.9012557  99.2782329  39.7438521 120.1341838  99.2260102  44.2653057
 119.7700045  98.6990723  44.9765979 120.9908953  98.8358571  44.0919543
 119.7747325  94.2550002  39.2614406 119.9421727  95.1230238  39.6284877
 119.5844494  94.4177284  38.3375695 115.9835139  99.1680778  46.9616941
 115.0585636  99.0356992  47.1694632 116.2319552  99.9474997  47.4586883
 119.7536545  96.7107660  40.2461073 119.6336171  97.1564710  41.0846553
 119.0589134  97.0592977  39.6874611 113.3443950  98.8114051  47.7960730
 113.4736331  99.0648530  48.7100141 112.6641402  99.4041759  47.4765385
 120.0060667  96.6539167  56.5512571 119.2294001  97.2133087  56.5415435
 120.6451230  97.1395950  57.0727441 118.2607040  99.4624620  56.1130538
 119.0021724 100.0009664  55.8365361 117.5544025 100.0890909  56.2702090
 120.0893449  96.5426367  52.0836256 120.9354644  96.9665781  52.2270905
 120.0292087  95.8859992  52.7774819 119.6119156 101.9029359  45.7305073
 120.0757501 102.1817062  44.9409696 119.3475954 101.0012804  45.5478164
 116.5043237 101.4500841  48.6684836 117.0744594 101.8788109  48.0302321
 117.0951349 101.1683425  49.3669022 118.5488042  98.0252512  42.5394638
 119.2512085  98.4773555  43.0068565 118.2168670  97.3836330  43.1674531
 116.9968403  96.6164268  56.9145848 116.3667064  97.2980549  57.1481245
 116.8904491  96.5047350  55.9698986 112.2913376  96.2836064  47.8411772
 111.5012430  96.5393593  47.3651883 112.7824623  97.0984402  47.9463812
 114.2428121  96.6480644  44.7995249 113.4459284  96.7599338  45.3178744
 114.0153713  96.9867296  43.9336139 120.0733789 103.1725347  52.7477763
 120.1378221 103.6345754  53.5835935 119.3644713 102.5422712  52.8760073
 110.5751079  96.5366555  50.2726763 110.8259117  97.4213565  50.5384339
 111.1110627  96.3571156  49.5001855 116.2749146  90.9185034  59.2771099
 115.8816092  90.3651233  59.9518743 117.0915286  91.2295613  59.6677616
 113.2411204 102.3568892  43.1884669 113.7535724 103.1512143  43.3390233
 113.8933917 101.6595183  43.1218270 115.0506089 105.4734649  45.2707422
 115.2272717 106.3952613  45.0828406 115.8462922 105.1593068  45.7001802
 119.1917107  92.3342913  56.8691355 119.9326820  92.9350066  56.7895818
 119.4235030  91.5920551  56.3109398 114.3358445  97.5199280  55.1469585
 114.2211960  96.6184538  55.4476684 113.4802963  97.7662977  54.7954402
 116.1737404 106.9912822  51.2717764 116.7244829 106.8629886  50.4994758
 115.3348880 107.2907711  50.9212657 119.9704575 103.2563950  55.6161995
 120.5032912 102.4952238  55.3861303 119.4418656 102.9637602  56.3586150
 111.2060121 100.6857547  43.9644239 112.0435343 101.0954555  43.7477947
 111.3838388  99.7456989  43.9344433 120.6871664  93.1982328  44.7113311
 119.8313260  92.8089178  44.5318949 121.0998616  93.2774289  43.8513096
 118.4613696  90.8167401  48.1171052 119.3266693  90.6210210  47.7576941
 118.5291205  90.5877753  49.0440409 121.3357288 102.3849943  43.1280807
 120.8078649 101.6502702  42.8154045 120.8344790 103.1624619  42.8820776
 116.0676015  93.0469609  45.4887419 116.6419767  92.8244790  44.7560612
 116.6546998  93.1158303  46.2416020 116.3945602  95.0774070  39.5083304
 115.5582915  95.4148756  39.8292579 116.2550372  94.9423050  38.5710441
 118.3698683  89.9210858  44.2162488 117.7163095  89.6059875  43.5919103
 118.3279157  89.2986598  44.9422311 119.4809888 100.2030153  36.1315780
 118.5736950  99.9719406  36.3306929 119.9780920  99.4067772  36.3189762
 120.6598121 100.3042748  40.6539770 119.7509341 100.0201781  40.7512240
 120.6893205 100.7241826  39.7943077 111.2286292  98.0248262  44.6354973
 111.0310692  97.4317623  43.9106039 110.6732956  97.7200472  45.3530911
 119.2083015  97.9171368  46.7549566 119.2631625  96.9645205  46.6792042
 118.3974217  98.0730807  47.2390864 120.3574209 101.8451491  37.9927849
 119.9193639 101.1287350  37.5333486 121.0984650 102.0727606  37.4312940
 117.1475375  96.5348428  44.5139945 116.3343241  96.8342599  44.9205137
 117.6434370  96.1404117  45.2314427 116.6389450  94.1066784  50.1301180
 117.2788829  93.9655543  49.4324143 115.8066981  93.8201297  49.7539782
 117.4149754 103.4069214  46.2436172 118.2090352 102.9119534  46.0418747
 116.7041446 102.8787077  45.8803878 113.7232517  97.5512296  42.3195925
 112.7930106  97.4896751  42.5365887 113.8189989  97.0288249  41.5232566
 113.6418066  94.0767109  44.9074166 113.9024884  94.9912442  44.7983327
 114.4635239  93.6091551  45.0570779 115.1142992  95.4904866  52.0772991
 115.7866045  95.2822228  51.4285640 114.2872778  95.2926952  51.6378223
 119.9921030 103.9798236  49.9234009 119.8532116 103.6117020  50.7959947
 119.2035626 104.4945875  49.7517967 115.5170489  98.7647469  52.8375428
 115.3790287  98.0327708  53.4386967 116.4275413  98.6756369  52.5559616
 118.1452790  98.4767428  52.3259108 118.8552408  97.8360620  52.2845726
 118.1022098  98.7280323  53.2485289 116.8581724  95.4632646  54.1454747
 116.3219081  95.0123384  54.7976344 116.2698432  95.5978555  53.4025212
 116.2683983  94.9221297  36.7081211 115.3913449  94.8010098  36.3443458
 116.7441736  94.1307376  36.4560100 107.7886123  99.7098457  46.8022718
 108.4757163  99.3960187  46.2143733 107.6334252 100.6139822  46.5289969
 112.5920845  94.5988654  51.2307742 112.5079034  93.9914323  50.4958152
 111.7703551  95.0897672  51.2317238 119.3479528  95.2259600  46.3249621
 118.9777315  94.6730641  47.0130527 119.8438620  94.6217734  45.7724621
 117.1768726 105.6857095  53.4204639 117.8778186 106.3193578  53.5734034
 116.7063841 106.0271827  52.6600279 112.7736444 105.2193450  50.3535742
 113.3589881 104.4737138  50.4863646 112.5761283 105.5297407  51.2372406
 107.3654099  97.7899050  49.0740185 107.4038198  97.2562641  49.8677303
 106.8594392  97.2634256  48.4551162 114.7444861  92.6363591  52.5702727
 114.8086188  93.4978422  52.1580125 114.6811981  92.0237593  51.8375086
 114.2197134  94.7086724  56.2175762 114.8469173  94.3263801  56.8313286
 113.3625053  94.4900925  56.5831454 110.9962677  96.5163153  42.1494117
 111.2916118  95.6073831  42.0961170 110.0950712  96.4950892  41.8275119
 114.5256924  94.5919149  48.1321665 113.8043509  95.2055117  47.9929138
 115.3150179  95.1276914  48.0538311 117.3283237  91.9273576  54.4062317
 117.8517639  92.1735872  55.1688626 117.1095570  92.7593611  53.9865454
 112.7250518  94.1977250  42.2733442 112.3963224  93.3174629  42.0908548
 113.0789889  94.1424919  43.1609831 115.8392341  94.4850220  42.6408919
 116.1788414  95.0136141  41.9187528 116.2864462  94.8230626  43.4167486
 118.5335782  92.8687271  52.0911987 118.1932602  92.0695084  52.4932667
 117.8274788  93.1688982  51.5188821 119.1852254  89.9536583  50.5439310
 120.0078323  89.4797061  50.4218201 119.4290317  90.7327067  51.0437997
 117.8260488  92.9824842  40.8402212 118.5468851  93.3606094  40.3365929
 117.2025793  93.7013718  40.9437190 116.7090833  96.6455704  48.3531289
 116.5635413  96.9596007  49.2455571 116.2316036  97.2640604  47.8002188
 118.5687216  93.6358252  48.4012179 118.5548784  92.7399345  48.0644477
 119.2859644  93.6428916  49.0350465 120.4213346  94.0695592  50.4465306
 120.1631124  94.9912663  50.4449636 119.8898387  93.6726027  51.1365770
 111.1836495  99.1861048  51.2918950 110.6389963  99.9620856  51.4239225
 112.0615845  99.5331853  51.1338072 117.9724111  92.5172632  43.6699749
 118.0940023  91.5889278  43.8690636 117.6826154  92.5311318  42.7578064
 120.8415302  90.2027543  46.8066469 120.8636999  90.2666876  45.8518448
 121.2583361  89.3632051  47.0006975 111.9702517  98.3130945  54.1849107
 111.2284253  98.4613580  54.7713738 111.6495261  98.5739210  53.3215857
 112.4159130 106.1996373  46.2159502 113.2417150 105.9000145  45.8358145
 112.0653182 105.4303996  46.6649290 117.3840664 105.5522841  48.2857175
 116.7620673 104.8893547  47.9859403 118.0545530 105.5783973  47.6030823
 110.6167735 104.1182700  47.1748435 109.7799644 103.6904874  46.9932437
 110.5891381 104.3115143  48.1119227 117.4565191  94.0304630  57.8789681
 117.5053347  94.9066752  57.4967451 117.9987705  93.4882023  57.3061325
 116.9454170 104.1026765  41.7615636 117.0942291 104.7862229  41.1082309
 117.7520614 104.0831855  42.2765092 119.6864479  94.7836002  54.6336040
 118.8167789  95.0769568  54.3618629 119.9223960  95.3676447  55.3543304
 114.7006803 100.1291942  42.7676705 114.4552845  99.2254272  42.9656915
 114.8702718 100.1309093  41.8256183 113.9702451  95.8620300  40.2662866
 113.2771696  95.9364655  39.6102902 113.7254203  95.0980644  40.7884383
 119.0139292  95.8585684  36.5098321 118.1070747  95.5618797  36.5861035
 119.2915273  95.5615502  35.6432607 109.9317232  97.1792048  46.9597367
 109.6120016  96.3257356  46.6671741 109.3850660  97.3940626  47.7155335
 113.7097140  99.8954489  50.6766874 113.9283149 100.8271597  50.6954908
 114.1222913  99.5362463  51.4621678 120.6301357  90.4022574  42.6642562
 119.8202086  90.0569659  43.0397808 121.3185774  90.0930118  43.2530174
 118.5825005  95.4687695  60.0669623 118.4821732  96.4182052  59.9981714
 118.3646547  95.1405933  59.1945693 117.7838076  92.7172620  36.6510300
 118.6457240  93.0427518  36.9106118 117.9688420  91.9304116  36.1383366
 109.8005492 100.7994959  48.9290489 109.1068963 100.3848912  48.4160443
 110.5478483 100.8415496  48.3323908 118.4456275  98.8984833  58.8834685
 117.9623357  99.6985194  59.0898574 118.5317214  98.9092778  57.9302129
 111.7142235 100.7313213  46.8056504 111.6912923 100.8300900  45.8538387
 112.0242871 101.5778364  47.1273670 114.3729612 102.7889368  50.9203118
 115.3272866 102.7573310  50.8533050 114.1742136 102.3279992  51.7353344
 114.9628995 101.3590484  53.4873916 115.7821884 101.8534563  53.5108753
 115.2365802 100.4422452  53.4591483 112.7279841 108.3308988  47.9373316
 112.5934309 107.5709388  47.3711314 112.3111903 109.0549887  47.4702105
 110.2163909  95.6928618  54.1866113 110.8622772  95.1827572  54.6753338
 110.0081060  96.4297300  54.7609538 118.7367519  89.9568663  39.9390009
 118.7246189  90.9010503  40.0958280 119.6290941  89.7738808  39.6449470
 114.5561400  92.8396235  58.2841127 115.4192861  92.4833040  58.4944452
 113.9826810  92.5010130  58.9716532  52.4780912  -5.4878082  30.6196510
  52.4004942  -4.5370257  30.6984991  51.8742555  -5.8332210  31.2771437
  50.1167742  -2.7392688  34.7644713  50.3564340  -2.1074164  35.4423731
  49.2736938  -3.0904648  35.0510072  50.5912574  -6.7144686  32.0943491
  49.9222949  -6.2298558  31.6107531  50.4525443  -6.4675465  33.0086870
  54.7317842  -4.6800942  38.6926149  55.2836150  -4.5169321  39.4575235
  55.0724036  -4.0896504  38.0206174  47.6917316  -6.6380396  34.6618623
  47.5571783  -7.3979995  34.0956621  47.2749378  -5.9139496  34.1947412
  50.8486441  -5.7411079  34.8737065  50.7318826  -4.7965646  34.7715756
  50.0278888  -6.0437517  35.2622865  51.8740956  -5.0882817  38.0892994
  52.7768202  -5.0559207  38.4059489  51.6478326  -6.0182366  38.1039330
  66.1736957  -0.5463864  35.7510360  65.8355469  -0.6622799  34.8630894
  67.0426726  -0.9472699  35.7311366  62.0323773   1.3071613  31.7407251
  61.4688638   1.2161549  30.9723538  61.9176168   0.4871517  32.2209743
  66.6556740   0.6070988  41.7096565  66.6445381   0.2123786  40.8377069
  66.8177380  -0.1262940  42.3030337  59.5788205   2.8022804  34.5791471
  60.3709497   2.4613629  34.1637770  59.8184855   2.9117779  35.4993624
  67.6123332   4.9742580  27.0521715  66.9611311   5.5596661  26.6655729
  68.4067695   5.5048775  27.1116753  61.5378959   2.0631717  27.4508850
  62.3109835   1.5160704  27.3121726  61.8904358   2.9275967  27.6623311
  63.3764001   3.3908100  40.6575749  63.0853867   4.2953730  40.5422415
  64.0120986   3.4324627  41.3719819  64.3020208   0.7684948  37.2477109
  64.8983781   0.5440971  36.5334072  64.3595180   0.0269694  37.8502557
  69.0898597   2.6633012  27.5890700  68.4544430   2.7367639  28.3011604
  68.7596003   3.2526611  26.9109779  63.5941525   0.1252489  27.2851675
  63.4777784  -0.5502607  27.9532759  63.7043785  -0.3615137  26.4683828
  65.9373066  -0.4137363  30.9898364  65.5731274  -0.9406742  31.7011285
  66.7940182  -0.8038894  30.8164849  68.3353887   3.0769515  37.6525543
  68.0354610   3.9794554  37.5441350  67.9904946   2.8101698  38.5046696
  61.7866368  -0.4716688  33.6862247  60.8616864  -0.6040474  33.8939939
  62.0350781   0.3077531  34.1832190  59.1475179  -0.8283414  34.5206036
  59.2767560  -0.5748936  35.4345448  58.4672630  -0.2355706  34.2010691
  63.3174666   9.8413835  30.6196510  63.2398696  10.7921661  30.6984991
  62.7136310   9.4959708  31.2771437  64.0638268  -0.1772846  42.8375844
  64.8052953   0.3612198  42.5610668  63.3575254   0.4493443  42.9947396
  69.5393608   1.9656295  41.4348006  69.9476964   1.5238705  40.6902638
  68.8170870   1.3908922  41.6882199  69.8622423   2.5257485  35.1900295
  69.2331285   2.6903200  34.4876363  69.4748085   2.9399095  35.9611259
  73.7411655   3.4611923  32.5444659  73.0562693   3.8410825  31.9941692
  73.8255504   4.0707250  33.2776606  70.9962586   1.1071882  39.1440002
  71.2079481   1.7503642  38.4674383  70.9492334   0.2734199  38.6761932
  65.4150385   2.2631893  32.4550380  65.8788730   2.5419596  31.6655002
  65.1507183   1.3615338  32.2723471  62.3074466   1.8103375  35.3930143
  62.8775823   2.2390643  34.7547628  62.8982577   1.5285960  36.0914329
  58.0944605  -3.3561402  34.5657079  57.3043659  -3.1003873  34.0897189
  58.5855852  -2.5413064  34.6709119  72.1108414   3.9843838  37.3162359
  72.9325858   3.5824025  37.0345041  72.1070817   3.8812072  38.2678475
  60.0459350  -2.9916822  31.5240555  59.2490513  -2.8798128  32.0424051
  59.8184942  -2.6530170  30.6581446  65.8765018   3.5327881  39.4723070
  65.9409450   3.9948288  40.3081242  65.1675941   2.9025246  39.6005380
  56.3782308  -3.1030911  36.9972069  56.6290346  -2.2183901  37.2629645
  56.9141856  -3.2826310  36.2247161  65.5913035   5.1995988  29.3402050
  65.4558710   6.0447524  29.7686898  66.1322848   5.4015266  28.5767984
  59.0442433   2.7171426  29.9129975  59.5566953   3.5114677  30.0635540
  59.6965145   2.0197717  29.8463577  60.8537317   5.8337183  31.9952728
  61.0303946   6.7555147  31.8073712  61.6494151   5.5195602  32.4247108
  60.1389674  -2.1198185  41.8714892  60.0243189  -3.0212928  42.1721991
  59.2834192  -1.8734489  41.5199708  67.2181512   5.8219555  43.4702392
  66.7745366   5.0355934  43.1523297  67.8798725   6.0098705  42.8046283
  61.9768633   7.3515357  37.9963071  62.5276058   7.2232420  37.2240065
  61.1380109   7.6510246  37.6457964  69.3162750   6.1022355  41.4983794
  69.2981225   6.9231236  41.0064063  70.2382670   5.9776430  41.7233935
  65.7735804   3.6166484  42.3407302  66.3064141   2.8554773  42.1106610
  65.2449885   3.3240136  43.0831456  57.0091349   1.0460081  30.6889546
  57.8466571   1.4557089  30.4723254  57.1869617   0.1059523  30.6589740
  67.1388517   2.7452477  29.8526114  66.6109878   2.0105236  29.5399351
  66.6376019   3.5227153  29.6066082  72.1181363   0.9401497  34.9693160
  71.4605037   1.6300759  35.0573289  72.9221762   1.3297929  35.3127147
  65.2841117   0.5632687  22.8561087  64.3768178   0.3321941  23.0552236
  65.7812149  -0.2329694  23.0435069  68.1909196   9.2730194  25.7757773
  67.5170894   9.5761891  26.3842731  68.5775018  10.0759275  25.4263230
  66.4629350   0.6645282  27.3785077  65.5540569   0.3804315  27.4757547
  66.4924434   1.0844361  26.5188384  71.6948618   4.2751871  31.1476245
  71.2410945   3.4342781  31.2041435  71.0642584   4.9113270  31.4851025
  70.1381557   6.1128368  32.0826063  70.4304531   6.6733425  31.3638428
  70.6480177   6.4056929  32.8379222  57.0317521  -1.6149204  31.3600279
  56.8341920  -2.2079843  30.6351346  56.4764185  -1.9196994  32.0776218
  66.1605438   2.2054026  24.7173156  65.7224868   1.4889885  24.2578793
  66.9015879   2.4330140  24.1558247  65.1015182   6.8908719  33.1719516
  65.0591361   7.1169566  32.2428048  66.0177881   6.6572094  33.3205317
  74.3047932   2.5487750  35.7860746  74.7384439   2.4563039  36.6343800
  75.0179513   2.5245250  35.1480762  63.2180983   3.7671748  32.9681479
  64.0121581   3.2722068  32.7664054  62.5072675   3.2389611  32.6049184
  68.0375827   6.1489844  37.3193846  68.0912850   6.7180780  38.0871562
  67.1690609   6.3191729  36.9547883  59.5263746  -2.0885170  29.0441231
  58.5961334  -2.1500715  29.2611194  59.6221218  -2.6109217  28.2477873
  75.1663482   2.5911450  38.3193631  75.3599372   3.4957261  38.5652906
  75.0664100   2.1318869  39.1532216  70.2278591   2.7418193  43.8934512
  70.0764097   2.5128745  42.9764595  70.2183270   3.6988795  43.9065857
  66.9963927   0.3150106  38.8780778  67.9255987   0.4661265  38.7049745
  66.5754957   0.4034127  38.0229425  65.7952259   4.3400770  36.6479316
  65.6563344   3.9719555  37.5205254  65.0066855   4.8548410  36.4763274
  66.3900411   9.4409867  27.9904852  66.5652166   8.9697910  28.8050475
  65.7033199  10.0675633  28.2186113  67.3457474   3.7182373  34.0368154
  67.0107307   3.6783143  34.9325803  66.8461420   3.0527089  33.5638564
  61.3201718  -0.8749997  39.5620735  61.1821516  -1.6069758  40.1632274
  62.2306641  -0.9641097  39.2804922  70.2816666   1.0638407  24.3105213
  69.6645836   0.3385235  24.2138266  69.8133154   1.8247768  23.9672288
  63.9484019  -1.1630038  39.0504414  64.6583637  -1.8036845  39.0091033
  63.9053327  -0.9117143  39.9730595  71.9370797   5.7737316  41.9710994
  71.8783343   5.0896536  41.3041577  72.3390316   6.5156306  41.5191620
  60.9561496  12.5899229  34.7644713  61.1958094  13.2217754  35.4423731
  60.1130693  12.2387270  35.0510072  71.9388205   3.7376900  40.2024973
  71.0514983   3.4002821  40.3251372  72.5086756   3.0059931  40.4393739
  53.5917352   0.0700991  33.5268025  54.2788391  -0.2437279  32.9389040
  53.4365480   0.9742356  33.2535276  65.4689358   8.3978352  37.1686216
  65.3959529   9.2033323  37.6805521  65.0266751   8.5970318  36.3434238
  65.2579138   7.6350122  30.6789038  64.4746659   8.1771802  30.7727263
  65.9571883   8.1524102  31.0783279  67.9288041   8.2965186  39.3244375
  68.6416014   8.9312651  39.2520277  67.4378070   8.3929052  38.5084377
  69.6505568   2.2016439  30.8961667  68.7161847   2.3217901  30.7266371
  69.8282237   1.2988905  30.6321677  62.9799955   6.0459629  40.1449946
  63.6809414   6.6796112  40.2979340  62.5095070   6.3874361  39.3845585
  71.1054351   4.3877579  28.4297853  71.3814195   4.2734174  29.3391727
  70.2358850   3.9895064  28.3910026  67.7408415   8.6363930  32.0730667
  67.9230809   7.8185586  32.5358419  68.5641401   8.8531622  31.6355557
  68.0750580   7.5632115  29.3345715  68.6038347   7.0524570  28.7215877
  68.3378800   7.2474645  30.1991248  66.8288814  -0.6575952  44.4568533
  66.1529451  -0.7581823  45.1270909  67.6516448  -0.8136738  44.9204531
  58.5767673   5.5795984  37.0781049  59.1621110   4.8339672  37.2108953
  58.3792511   5.8899941  37.9617713  61.4306328   8.6147232  32.0943491
  60.7616704   9.0993359  31.6107531  61.2919198   8.8616452  33.0086870
  53.1685328  -1.8498415  35.7985492  53.2069427  -2.3834825  36.5922610
  52.6625621  -2.3763210  35.1796469  65.5711597  10.6490975  38.6926149
  66.1229905  10.8122597  39.4575235  65.9117790  11.2395413  38.0206174
  70.4222471   5.4752233  44.5474804  70.9662375   6.0882191  44.0529759
  69.8409316   6.0331811  45.0641817  56.7993905  -3.1234313  28.8739423
  57.0947346  -4.0323635  28.8206477  55.8981941  -3.1446574  28.5520426
  68.7079984   8.5972951  35.6789832  68.5831124   7.7962691  35.1700777
  69.3659075   9.0919144  35.1903802  70.7714892   6.3981971  37.3069382
  69.8245228   6.2787322  37.2347708  71.1197666   5.5104469  37.3895643
  67.7761326   6.1934687  33.5073734  67.6286288   5.2651395  33.6881304
  68.6014819   6.2154778  33.0230809  71.3795448   7.0163246  34.5938607
  72.3041995   6.8106107  34.4563058  71.2110751   6.7679647  35.5027948
  71.1690764   7.5348913  29.9500698  71.3427641   6.9695336  29.1974551
  71.6619655   8.3349808  29.7680188  56.9867724  -0.4536418  38.0164257
  56.4421192   0.3223390  38.1484531  57.8647074  -0.1065613  37.8583378
  72.1565936   6.8515678  27.0497596  72.8516841   7.4722370  27.2684911
  72.4989086   6.0011029  27.3249974  57.7733746  -1.3266521  40.9094414
  57.0315482  -1.1783886  41.4959044  57.4526490  -1.0658256  40.0461163
  74.0557359   4.3015383  28.5784927  74.5808684   4.6402656  27.8534247
  73.9679712   3.3662399  28.3948062  65.7177408   8.2149457  40.7074804
  66.0264535   7.9698604  41.5797503  66.5152890   8.4196095  40.2193674
  65.7398020  10.3687367  32.9380180  65.3003010   9.8763745  33.6313037
  66.4906137   9.8260334  32.6972256  58.2190359   6.5598907  32.9404808
  59.0448379   6.2602679  32.5603452  57.8684411   5.7906530  33.3894597
  63.1871892   5.9125376  35.0102482  62.5651902   5.2496081  34.7104710
  63.8576759   5.9386508  34.3276130  56.4198964   4.4785234  33.8993742
  55.5830873   4.0507408  33.7177743  56.3922610   4.6717677  34.8364533
  73.7451266   4.9348287  43.8836125  72.9546809   4.9172426  43.3440624
  73.5084620   5.4736581  44.6385162  62.7485399   4.4629299  28.4860943
  62.8973520   5.1464763  27.8327615  63.5551843   4.4434389  29.0010398
  75.3667337   4.2037695  41.4410875  75.0752146   4.5667675  42.2774336
  74.7539469   3.4904703  41.2624207  60.5038032   0.4894477  29.4922011
  60.2584074  -0.4143193  29.6902222  60.6733947   0.4911627  28.5501489
  66.2480805   6.9577429  25.9572690  65.6754772   7.5767617  25.5043162
  66.8213598   7.5076791  26.4912612  69.4678065   7.2414580  27.0881272
  70.4008738   7.1760141  27.2914148  69.3801277   8.0770846  26.6295805
  72.0966081   6.5580450  24.0485220  72.0179713   6.2240314  24.9420978
  72.9175748   7.0502218  24.0476692  66.5166296   2.3455988  44.7589399
  67.4369305   2.5234587  44.9529446  66.4815879   1.4012034  44.6069099
  55.7348461  -2.4605418  33.6842674  55.4151245  -3.3140110  33.3917048
  55.1881889  -2.2456840  34.4400641  59.5128368   0.2557023  37.4012181
  59.7314378   1.1874131  37.4200214  59.9254142  -0.1035003  38.1866984
  55.6036721   1.1597494  35.6535796  54.9100192   0.7451446  35.1405750
  56.3509712   1.2018030  35.0569215  64.2487504  -0.7412632  45.6079991
  63.7654585   0.0587728  45.8143880  64.3348443  -0.7304688  44.6547435
  57.5173463   1.0915747  33.5301811  57.4944151   1.1903435  32.5783694
  57.8274100   1.9380898  33.8518977  60.1760841   3.1491902  37.6448425
  61.1304095   3.1175845  37.5778357  59.9773365   2.6882526  38.4598651
  60.7660223   1.7193018  40.2119223  61.5853112   2.2137097  40.2354060
  61.0397031   0.8024987  40.1836790  58.5311070   8.6911522  34.6618623
  58.3965538   7.9311923  34.0956621  58.1143132   9.4152422  34.1947412
  69.6670033   3.8748445  23.6695198  70.3705883   4.0798448  24.2852854
  68.9432682   4.4425207  23.9344282  61.6880196   9.5880839  34.8737065
  61.5712580  10.5326271  34.7715756  60.8672642   9.2854400  35.2622865
  71.5756730   4.3130975  25.7193658  72.4102334   3.8812173  25.5371133
  71.4141073   4.1412988  26.6470553  71.2302623   0.8163088  27.0849997
  71.1751426   0.6507359  26.1438442  70.6048678   1.5239121  27.2412187
  56.0195138  -3.9468848  40.9111420  56.6654001  -4.4569894  41.3998645
  55.8112289  -3.2100166  41.4854845  68.5448530   3.1212000  46.4103560
  69.4139689   3.2952652  46.0490195  68.0655281   3.9406417  46.2879290
  62.7134710  10.2409101  38.0892994  63.6161957  10.2732711  38.4059489
  62.4872080   9.3109552  38.1039330  64.4688312   8.9940087  34.7503073
  63.5183943   8.9941949  34.6367445  64.7720798   8.2472822  34.2339107
  80.2041006  14.8300626  35.8148835  80.8419415  14.7107373  35.1112175
  80.0861848  15.7781470  35.8736787  77.0130712  14.7828054  35.7510360
  76.6749223  14.6669118  34.8630894  77.8820480  14.3819219  35.7311366
  72.8717527  16.6363530  31.7407251  72.3082393  16.5453467  30.9723538
  72.7569923  15.8163435  32.2209743  77.4950495  15.9362906  41.7096565
  77.4839136  15.5415704  40.8377069  77.6571134  15.2028978  42.3030337
  70.4181959  18.1314722  34.5791471  71.2103251  17.7905546  34.1637770
  70.6578610  18.2409697  35.4993624  78.4517086  20.3034498  27.0521715
  77.8005066  20.8888578  26.6655729  79.2461449  20.8340693  27.1116753
  72.3772713  17.3923635  27.4508850  73.1503589  16.8452622  27.3121726
  72.7298112  18.2567884  27.6623311  74.2157756  18.7200017  40.6575749
  73.9247622  19.6245648  40.5422415  74.8514740  18.7616545  41.3719819
  75.1413963  16.0976866  37.2477109  75.7377535  15.8732888  36.5334072
  75.1988934  15.3561611  37.8502557  74.7138991  13.5516301  25.0827300
  74.9664512  13.0297822  24.3210763  73.7763550  13.3882447  25.1853983
  79.7582274  12.5552080  32.8902043  80.5445363  12.1371503  32.5392460
  80.0220978  13.4598172  33.0583691  79.9292351  17.9924930  27.5890700
  79.2938184  18.0659556  28.3011604  79.5989758  18.5818529  26.9109779
  85.1590701  12.4927313  33.7935021  85.8915873  11.9226530  34.0272851
  84.4030057  12.1048913  34.2341527  74.4335280  15.4544407  27.2851675
  74.3171538  14.7789310  27.9532759  74.5437540  14.9676781  26.4683828
  76.7766821  14.9154554  30.9898364  76.4125028  14.3885175  31.7011285
  77.6333937  14.5253023  30.8164849  82.6816121   6.2048887  38.2529630
  82.3499446   7.0744298  38.0290845  82.0861735   5.8885171  38.9323660
  76.4172308   9.9444454  25.9859712  76.5846710  10.8124690  26.3530183
  76.2269477  10.1071736  25.0621002  79.1747641  18.4061433  37.6525543
  78.8748364  19.3086472  37.5441350  78.8298701  18.1393616  38.5046696
  72.6260122  14.8575230  33.6862247  71.7010619  14.7251444  33.8939939
  72.8744536  15.6369449  34.1832190  82.5744785  10.9243973  35.3322980
  81.6661662  10.8559381  35.0381741  82.5232381  11.4015918  36.1604806
  76.3961529  12.4002111  26.9706379  76.2761154  12.8459162  27.8091860
  75.7014117  12.7487429  26.4119917  69.9868934  14.5008503  34.5206036
  70.1161315  14.7542982  35.4345448  69.3066385  15.0936211  34.2010691
  74.1568421  25.1705753  30.6196510  74.0792451  26.1213578  30.6984991
  73.5530064  24.8251626  31.2771437  76.6485651  12.3433619  43.2757877
  75.8718985  12.9027539  43.2660742  77.2876214  12.8290402  43.7972748
  84.4406431   9.1260411  37.1100854  83.7980811   9.4192945  36.4640649
  83.9361360   9.0113332  37.9154051  82.0946595  12.8723585  27.7986713
  83.0064451  13.1050971  27.6234411  81.5856242  13.4560629  27.2361792
  74.9032023  15.1519072  42.8375844  75.6446707  15.6904116  42.5610668
  74.1969008  15.7785361  42.9947396  80.3787363  17.2948212  41.4348006
  80.7870719  16.8530623  40.6902638  79.6564624  16.7200840  41.6882199
  76.7318433  12.2320819  38.8081563  77.5779628  12.6560233  38.9516212
  76.6717070  11.5754444  39.5020126  80.7016177  17.8549403  35.1900295
  80.0725040  18.0195117  34.4876363  80.3141839  18.2691013  35.9611259
  84.5805409  18.7903841  32.5444659  83.8956447  19.1702742  31.9941692
  84.6649258  19.3999168  33.2776606  79.8817878   9.8925188  40.4662736
  79.6378810  10.6467248  39.9297012  80.1577808  10.2710535  41.3009984
  81.8356341  16.4363800  39.1440002  82.0473236  17.0795560  38.4674383
  81.7886089  15.6026116  38.6761932  79.4382570   9.0481621  36.0476574
  78.5767049   9.3462874  36.3393312  79.4645004   9.2652019  35.1157607
  76.2544139  17.5923811  32.4550380  76.7182485  17.8711514  31.6655002
  75.9900937  16.6907256  32.2723471  73.1468220  17.1395293  35.3930143
  73.7169577  17.5682561  34.7547628  73.7376332  16.8577877  36.0914329
  75.1913025  13.7146964  29.2639945  75.8937068  14.1668007  29.7313871
  74.8593654  13.0730782  29.8919838  73.6393387  12.3058720  43.6391154
  73.0092047  12.9875001  43.8726551  73.5329475  12.1941802  42.6944293
  68.9338359  11.9730516  34.5657079  68.1437413  12.2288045  34.0897189
  69.4249606  12.7878854  34.6709119  82.9502169  19.3135755  37.3162359
  83.7719612  18.9115943  37.0345041  82.9464571  19.2103990  38.2678475
  70.8853104  12.3375095  31.5240555  70.0884268  12.4493790  32.0424051
  70.6578697  12.6761748  30.6581446  76.7158772  18.8619799  39.4723070
  76.7803205  19.3240206  40.3081242  76.0069696  18.2317164  39.6005380
  67.2176062  12.2261007  36.9972069  67.4684100  13.1108017  37.2629645
  67.7535610  12.0465608  36.2247161  91.0408162  15.6574504  33.6647331
  90.2871870  15.0881902  33.5091335  91.1755703  15.6237168  34.6117966
  76.4306790  20.5287906  29.3402050  76.2952465  21.3739442  29.7686898
  76.9716602  20.7307184  28.5767984  72.9174129   6.6079486  46.0016405
  72.5241075   6.0545685  46.6764050  73.7340270   6.9190064  46.3922923
  69.8836187  18.0463344  29.9129975  70.3960708  18.8406594  30.0635540
  70.5358900  17.3489635  29.8463577  71.6931072  21.1629100  31.9952728
  71.8697700  22.0847065  31.8073712  72.4887905  20.8487520  32.4247108
  75.8342090   8.0237365  43.5936662  76.5751804   8.6244518  43.5141124
  76.0660013   7.2815003  43.0354705  70.9783428  13.2093732  41.8714892
  70.8636944  12.3078990  42.1721991  70.1227946  13.4557429  41.5199708
  78.0575266  21.1511473  43.4702392  77.6139120  20.3647851  43.1523297
  78.7192480  21.3390623  42.8046283  72.8162387  22.6807274  37.9963071
  73.3669812  22.5524338  37.2240065  71.9773863  22.9802163  37.6457964
  80.1556504  21.4314273  41.4983794  80.1374980  22.2523154  41.0064063
  81.0776424  21.3068348  41.7233935  76.6129558  18.9458402  42.3407302
  77.1457895  18.1846690  42.1106610  76.0843639  18.6532054  43.0831456
  79.7799253   4.0518468  37.8700944  79.4363523   4.9420110  37.7940054
  80.1478216   3.8620126  37.0070529  67.8485104  16.3751998  30.6889546
  68.6860326  16.7849007  30.4723254  68.0263372  15.4351441  30.6589740
  79.7449536  14.0427079  26.3773379  79.2296159  14.8131684  26.6161766
  79.4726844  13.3692215  27.0006440  77.3296647   8.8876780  31.4358617
  76.4738243   8.4983630  31.2564256  77.7423599   8.9668741  30.5758403
  78.8595794   6.4223123  35.8350177  78.3560589   6.3853258  35.0217982
  79.1526401   7.3315866  35.8946834  75.1038680   6.5061853  34.8416359
  75.9691676   6.3104662  34.4822248  75.1716188   6.2772205  35.7685715
  84.7183810  16.7959434  28.3126552  83.9413253  16.4570593  27.8681714
  85.3975291  16.8012057  27.6381517  79.5335839  11.9154171  28.2033160
  79.2285975  12.2300320  29.0543303  80.4866281  11.9935591  28.2460493
  77.9782271  18.0744395  29.8526114  77.4503633  17.3397154  29.5399351
  77.4769774  18.8519071  29.6066082  82.9575117  16.2693415  34.9693160
  82.2998791  16.9592676  35.0573289  83.7615516  16.6589847  35.3127147
  72.7100999   8.7364061  32.2132725  73.2844751   8.5139242  31.4805918
  73.2971981   8.8052755  32.9661327  81.7680576  14.6237788  33.0197102
  82.2812458  15.2567780  33.5218812  82.4181800  14.0238983  32.6540462
  73.0370586  10.7668522  26.2328611  72.2007898  11.1043208  26.5537885
  72.8975355  10.6317502  25.2955748  75.0123666   5.6105310  30.9407795
  74.3588079   5.2954327  30.3164410  74.9704140   4.9881050  31.6667618
  76.1234871  15.8924605  22.8561087  75.2161933  15.6613858  23.0552236
  76.6205903  15.0962224  23.0435069  79.0302950  24.6022112  25.7757773
  78.3564649  24.9053809  26.3842731  79.4168772  25.4051192  25.4263230
  78.2461407  12.0987243  35.2655443  77.3283968  12.3202190  35.1077131
  78.6621550  12.1733554  34.4067150  79.0296454  13.4978659  30.3958123
  79.7768273  14.0100056  30.0865245  79.2988044  13.1762712  31.2562516
  77.3023105  15.9937200  27.3785077  76.3934324  15.7096232  27.4757547
  77.3318188  16.4136278  26.5188384  82.5342372  19.6043789  31.1476245
  82.0804699  18.7634699  31.2041435  81.9036339  20.2405188  31.4851025
  81.4775292  10.5335775  32.3776912  80.7398048  10.0213161  32.7087155
  81.7302065  10.0936157  31.5660189  80.9775311  21.4420286  32.0826063
  81.2698286  22.0025343  31.3638428  81.4873932  21.7348847  32.8379222
  67.8711275  13.7142714  31.3600279  67.6735675  13.1212074  30.6351346
  67.3157939  13.4094924  32.0776218  75.8507999  13.6065820  33.4794872
  75.9056608  12.6539657  33.4037349  75.0399201  13.7625259  33.9636171
  76.9999192  17.5345943  24.7173156  76.5618622  16.8181802  24.2578793
  77.7409633  17.7622058  24.1558247  73.7900359  12.2242880  31.2385251
  72.9768224  12.5237051  31.6450443  74.2859353  11.8298569  31.9559734
  75.9408937  22.2200637  33.1719516  75.8985115  22.4461483  32.2428048
  76.8571635  21.9864012  33.3205317  79.3874570  12.6884704  40.0700145
  79.7423958  12.9156178  40.9294611  80.0346702  13.0203081  39.4477400
  85.1172307  15.8103140  30.7749474  84.9790206  16.0004736  29.8470663
  84.7608526  16.5722523  31.2317525  73.2814433   9.7961236  36.8546486
  73.9213813   9.6549995  36.1569450  72.4491964   9.5095749  36.4785088
  85.1441687  17.8779667  35.7860746  85.5778194  17.7854956  36.6343800
  85.8573268  17.8537168  35.1480762  74.0574737  19.0963666  32.9681479
  74.8515336  18.6013986  32.7664054  73.3466430  18.5681529  32.6049184
  78.8769582  21.4781761  37.3193846  78.9306604  22.0472698  38.0871562
  78.0084363  21.6483647  36.9547883  70.3657501  13.2406748  29.0441231
  69.4355089  13.1791203  29.2611194  70.4614973  12.7182700  28.2477873
  70.2843050   9.7661561  31.6319473  70.5449867  10.6806894  31.5228634
  71.1060222   9.2986003  31.7816086  71.7567975  11.1799318  38.8018298
  72.4291029  10.9716680  38.1530946  70.9297762  10.9821404  38.3623530
  86.0057236  17.9203368  38.3193631  86.1993126  18.8249179  38.5652906
  85.9057855  17.4610787  39.1532216  77.6593547   7.8061259  40.8183958
  77.0121462   8.5051208  40.7248435  78.4294563   8.2397403  41.1860207
  81.0672345  18.0710111  43.8934512  80.9157851  17.8420662  42.9764595
  81.0577025  19.0280712  43.9065857  77.8357681  15.6442024  38.8780778
  78.7649741  15.7953183  38.7049745  77.4148712  15.7326044  38.0229425
  76.6346013  19.6692688  36.6479316  76.4957099  19.3011472  37.5205254
  75.8460610  20.1840327  36.4763274  77.2294165  24.7701784  27.9904852
  77.4045921  24.2989828  28.8050475  76.5426953  25.3967551  28.2186113
  78.1851228  19.0474291  34.0368154  77.8501061  19.0075061  34.9325803
  77.6855174  18.3819007  33.5638564  72.1595472  14.4541921  39.5620735
  72.0215270  13.7222159  40.1632274  73.0700396  14.3650821  39.2804922
  81.1210420  16.3930325  24.3105213  80.5039591  15.6677153  24.2138266
  80.6526909  17.1539685  23.9672288  74.7877773  14.1661880  39.0504414
  75.4977392  13.5255072  39.0091033  74.7447081  14.4174775  39.9730595
  73.5006707  11.1527098  40.8700054  72.9644064  10.7017836  41.5221650
  72.9123415  11.2873007  40.1270518  71.7955251  27.9191147  34.7644713
  72.0351849  28.5509671  35.4423731  70.9524447  27.5679187  35.0510072
  72.9108966  10.6115749  23.4326518  72.0338432  10.4904550  23.0688764
  73.3866719   9.8201828  23.1805406  82.7781959  19.0668817  40.2024973
  81.8908738  18.7294739  40.3251372  83.3480510  18.3351848  40.4393739
  64.4311106  15.3992909  33.5268025  65.1182146  15.0854639  32.9389040
  64.2759235  16.3034274  33.2535276  69.2345828  10.2883106  37.9553048
  69.1504017   9.6808775  37.2203458  68.4128535  10.7792124  37.9562545
  76.3083112  23.7270270  37.1686216  76.2353284  24.5325241  37.6805521
  75.8660505  23.9262235  36.3434238  76.0972892  22.9642040  30.6789038
  75.3140414  23.5063720  30.7727263  76.7965637  23.4816019  31.0783279
  79.4069542   8.7736669  33.3223243  79.9038242   8.0206631  33.0024314
  78.6356524   8.8100986  32.7566453  87.2599300  14.4777035  34.9641535
  87.2489176  15.3601750  34.5935468  86.3916679  14.1248585  34.7696072
  78.7681796  23.6257104  39.3244375  79.4809768  24.2604568  39.2520277
  78.2771825  23.7220970  38.5084377  80.4899323  17.5308356  30.8961667
  79.5555602  17.6509819  30.7266371  80.6675991  16.6280823  30.6321677
  75.9904511  10.9154052  33.0494928  75.6202298  10.3625092  33.7375834
  76.4863603  10.3112186  32.4969928  83.8771874  13.3725676  31.4311701
  84.3432326  14.2053667  31.3572004  84.3279375  12.9070657  32.1356959
  73.8193709  21.3751547  40.1449946  74.5203169  22.0088030  40.2979340
  73.3488824  21.7166279  39.3845585  81.9448105  19.7169497  28.4297853
  82.2207949  19.6026091  29.3391727  81.0752604  19.3186982  28.3910026
  81.8488537   5.7406263  35.4702602  80.9351617   5.9710489  35.6384809
  82.2781638   5.8244707  36.3216635  81.6194995  13.9296155  37.9702496
  80.9666446  14.1772062  37.3154949  81.9975375  13.1160293  37.6364974
  78.5802169  23.9655848  32.0730667  78.7624564  23.1477504  32.5358419
  79.4035155  24.1823540  31.6355557  78.9144335  22.8924033  29.3345715
  79.4432101  22.3816487  28.7215877  79.1772554  22.5766563  30.1991248
  77.6682568  14.6715966  44.4568533  76.9923205  14.5710095  45.1270909
  78.4910202  14.5155179  44.9204531  69.4161428  20.9087902  37.0781049
  70.0014864  20.1631590  37.2108953  69.2186266  21.2191859  37.9617713
  72.2700083  23.9439150  32.0943491  71.6010458  24.4285277  31.6107531
  72.1312952  24.1908370  33.0086870  64.0079082  13.4793502  35.7985492
  64.0463182  12.9457093  36.5922610  63.5019375  12.9528708  35.1796469
  71.3869845   8.3258043  39.2948034  71.4511171   9.1872874  38.8825432
  71.3236965   7.7132045  38.5620393  70.8622117  10.3981175  42.9421068
  71.4894156  10.0158253  43.5558593  70.0050036  10.1795377  43.3076761
  67.6387660  12.2057605  28.8739423  67.9341101  11.2968283  28.8206477
  66.7375696  12.1845344  28.5520426  71.1681907  10.2813601  34.8566972
  70.4468493  10.8949569  34.7174445  71.9575163  10.8171366  34.7783618
  73.9708220   7.6168028  41.1307624  74.4942622   7.8630324  41.8933933
  73.7520554   8.4488062  40.7110761  69.3675501   9.8871702  28.9978748
  69.0388208   9.0069081  28.8153854  69.7214872   9.8319371  29.8855138
  78.6155080  21.5226605  33.5073734  78.4680043  20.5943312  33.6881304
  79.4408574  21.5446696  33.0230809  72.4817325  10.1744672  29.3654226
  72.8213397  10.7030593  28.6432834  72.9289445  10.5125078  30.1412793
  75.1760765   8.5581723  38.8157294  74.8357586   7.7589536  39.2177974
  74.4699772   8.8583434  38.2434127  75.8277237   5.6431035  37.2684617
  76.6503307   5.1691513  37.1463507  76.0715301   6.4221519  37.7683303
  74.4685472   8.6719294  27.5647519  75.1893834   9.0500546  27.0611236
  73.8450776   9.3908170  27.6682497  78.6116595   9.3764443  28.5005851
  78.8280209  10.2589080  28.1994679  78.1310662   8.9850656  27.7711493
  73.3515816  12.3350156  35.0776596  73.2060397  12.6490459  35.9700877
  72.8741020  12.9535056  34.5247494  75.2112199   9.3252704  35.1257485
  75.1973768   8.4293797  34.7889783  75.9284627   9.3323367  35.7595771
  77.0638330   9.7590044  37.1710613  76.8056107  10.6807115  37.1694943
  76.5323370   9.3620478  37.8611077  82.0084518  22.8640831  29.9500698
  82.1821396  22.2987254  29.1974551  82.5013410  23.6641726  29.7680188
  67.8261478  14.8755500  38.0164257  67.2814946  15.6515308  38.1484531
  68.7040828  15.2226305  37.8583378  74.6149095   8.2067084  30.3945055
  74.7365006   7.2783730  30.5935943  74.3251137   8.2205770  29.4823371
  77.4840285   5.8921994  33.5311775  77.5061982   5.9561328  32.5763755
  77.9008344   5.0526503  33.7252281  87.8623910  15.6277254  31.5690998
  88.3055056  14.8784579  31.1710121  86.9850420  15.6187390  31.1864730
  82.9959691  22.1807595  27.0497596  83.6910595  22.8014288  27.2684911
  83.3382841  21.3302947  27.3249974  68.6127500  14.0025396  40.9094414
  67.8709236  14.1508032  41.4959044  68.2920244  14.2633662  40.0461163
  84.8951114  19.6307301  28.5784927  85.4202438  19.9694574  27.8534247
  84.8073466  18.6954316  28.3948062  76.5791775  25.6979284  32.9380180
  76.1396765  25.2055663  33.6313037  77.3299892  25.1552252  32.6972256
  69.0584114  21.8890825  32.9404808  69.8842134  21.5894597  32.5603452
  68.7078166  21.1198448  33.3894597  74.0265647  21.2417293  35.0102482
  73.4045656  20.5787998  34.7104710  74.6970514  21.2678425  34.3276130
  67.2592719  19.8077152  33.8993742  66.4224627  19.3799326  33.7177743
  67.2316364  20.0009595  34.8364533  74.0990174   9.7199081  44.6034988
  74.1478330  10.5961204  44.2212758  74.6412689   9.1776474  44.0306631
  84.7042895  17.1132671  41.1968854  84.7540900  16.9482678  42.1384376
  84.5956818  16.2459930  40.8066734  73.5879154  19.7921217  28.4860943
  73.7367274  20.4756681  27.8327615  74.3945597  19.7726307  29.0010398
  81.9946657  13.0963599  42.5128160  82.8956520  12.9570064  42.2212158
  82.0694632  13.2618054  43.4526338  76.3289463  10.4730454  41.3581347
  75.4592772  10.7664020  41.0863935  76.5648943  11.0570899  42.0788610
  86.2061092  19.5329613  41.4410875  85.9145900  19.8959593  42.2774336
  85.5933223  18.8196621  41.2624207  87.4056774  17.0982492  33.9613445
  88.2403666  17.5372296  34.1251006  87.5415903  16.6221146  33.1421691
  84.4548280  14.6562227  39.9090933  84.9302402  14.8489873  39.1009785
  83.5313846  14.7121413  39.6634317  71.3431787  15.8186394  29.4922011
  71.0977829  14.9148724  29.6902222  71.5127701  15.8203545  28.5501489
  79.0328497   6.6910071  38.8746767  79.5510440   7.4271098  38.5493256
  78.6783629   6.9974064  39.7093526  70.6127434  11.5514752  26.9908173
  69.9196679  11.6259107  26.3348209  70.3679186  10.7875096  27.5129690
  77.0874559  22.2869347  25.9572690  76.5148526  22.9059534  25.5043162
  77.6607353  22.8368709  26.4912612  83.1549949  11.5327987  38.1419239
  84.1067372  11.6326085  38.1631463  82.9853400  10.7406256  38.6517323
  81.1764329   8.6183570  38.3278640  80.5814261   8.8988583  37.6325128
  80.8914025   9.1077471  39.0995381  80.3071819  22.5706497  27.0881272
  81.2402492  22.5052059  27.2914148  80.2195032  23.4062764  26.6295805
  82.9359836  21.8872368  24.0485220  82.8573467  21.5532231  24.9420978
  83.7569503  22.3794136  24.0476692  85.6338027  14.7534107  37.2561538
  85.6014347  13.8150108  37.4421222  86.2438651  14.8318144  36.5227363
  77.4721358  13.6230160  23.2988742  78.4180462  13.4936368  23.3677160
  77.0935603  12.8844822  23.7758171  85.7832515  11.5445150  37.3019822
  85.2671564  10.7603607  37.1149750  86.6672464  11.2163867  37.4666341
  83.4443242   5.2886166  33.2615634  83.2468063   4.9801254  34.1458966
  84.0542948   6.0147805  33.3913564  91.4514577  15.8150114  36.3967575
  92.1817965  15.5535402  36.9575279  90.8421522  15.0778836  36.4369643
  89.5329874  13.9557976  36.9942026  88.8063037  13.8213941  36.3858518
  89.1177161  14.2634805  37.7998744  77.3560050  17.6747906  44.7589399
  78.2763060  17.8526505  44.9529446  77.3209633  16.7303951  44.6069099
  75.6564275  11.5480136  23.2343628  74.7495730  11.2513249  23.3106341
  75.9340256  11.2509954  22.3677914  66.5742215  12.8686500  33.6842674
  66.2545000  12.0151808  33.3917048  66.0275643  13.0835078  34.4400641
  70.3522123  15.5848941  37.4012181  70.5708133  16.5166049  37.4200214
  70.7647897  15.2256915  38.1866984  77.2726341   6.0917026  29.3887869
  76.4627069   5.7464111  29.7643115  77.9610758   5.7824570  29.9775481
  79.2016889   5.1695073  31.0112166  79.7547928   5.5890526  31.6702189
  79.4386975   4.2430821  31.0535122  75.2249988  11.1582146  46.7914930
  75.1246715  12.1076503  46.7227021  75.0071530  10.8300385  45.9191000
  74.4263060   8.4067072  23.3755607  75.2882224   8.7321970  23.6351424
  74.6113404   7.6198567  22.8628673  66.4430475  16.4889411  35.6535796
  65.7493947  16.0743364  35.1405750  67.1903466  16.5309948  35.0569215
  82.5795696   7.2795598  30.5190830  81.9994365   7.9380402  30.1368882
  82.3131629   6.4572943  30.1078247  81.0299262   6.6800656  32.7212150
  81.5299041   6.7917190  31.9126469  81.6734870   6.3761709  33.3612959
  75.0881258  14.5879285  45.6079991  74.6048340  15.3879645  45.8143880
  75.1742197  14.5987230  44.6547435  68.3567218  16.4207665  33.5301811
  68.3337906  16.5195352  32.5783694  68.6667854  17.2672816  33.8518977
  71.0154596  18.4783820  37.6448425  71.9697849  18.4467762  37.5778357
  70.8167119  18.0174444  38.4598651  71.6053978  17.0484936  40.2119223
  72.4246867  17.5429015  40.2354060  71.8790786  16.1316904  40.1836790
  81.3620574   9.4395688  29.5747178  80.4746429   9.7245339  29.3567373
  81.7774563   9.2789452  28.7274455  84.7135110   9.4642209  33.2901517
  85.4895500   9.9538662  33.5626134  83.9883244   9.8900264  33.7473387
  87.1507669  10.1769829  34.3475458  87.7452160   9.9365565  33.6368766
  87.2234253   9.4576959  34.9748994  69.3704825  24.0203440  34.6618623
  69.2359292  23.2603840  34.0956621  68.9536887  24.7444339  34.1947412
  80.5063788  19.2040363  23.6695198  81.2099638  19.4090366  24.2852854
  79.7826436  19.7717125  23.9344282  81.3361598  14.9550224  29.7897468
  81.2796799  15.4118776  28.9505101  81.8889940  14.1940909  29.6120311
  85.1466404  10.7439956  30.6147588  84.8903338  10.3436592  31.4455795
  84.5219272  11.4583750  30.4897727  89.4578742  13.4836029  33.1218879
  88.8978300  13.5529219  33.8950441  88.8522245  13.3077014  32.4018375
  72.5273950  24.9172757  34.8737065  72.4106335  25.8618189  34.7715756
  71.7066397  24.6146318  35.2622865  82.4150485  19.6422892  25.7193658
  83.2496089  19.2104091  25.5371133  82.2534828  19.4704906  26.6470553
  82.0696377  16.1455006  27.0849997  82.0145181  15.9799277  26.1438442
  81.4442432  16.8531038  27.2412187  66.8588892  11.3823070  40.9111420
  67.5047756  10.8722024  41.3998645  66.6506043  12.1191752  41.4854845
  79.3842284  18.4503917  46.4103560  80.2533444  18.6244570  46.0490195
  78.9049036  19.2698334  46.2879290  75.3792503   5.6463115  26.6635316
  75.3671172   6.5904954  26.8203587  76.2715924   5.4633260  26.3694777
  75.3082067  24.3232005  34.7503073  74.3577698  24.3233867  34.6367445
  75.6114553  23.5764740  34.2339107  71.1986383   8.5290687  45.0086434
  72.0617845   8.1727492  45.2189758  70.6251794   8.1904582  45.6961838
  83.2166468  32.7215553  27.4508850  83.9897344  32.1744540  27.3121726
  83.5691867  33.5859802  27.6623311  85.5532746  28.8808219  25.0827300
  85.8058266  28.3589740  24.3210763  84.6157305  28.7174364  25.1853983
  95.9984456  27.8219230  33.7935021  96.7309628  27.2518447  34.0272851
  95.2423811  27.4340831  34.2341527  85.2729034  30.7836325  27.2851675
  85.1565293  30.1081228  27.9532759  85.3831294  30.2968699  26.4683828
  87.2566062  25.2736372  25.9859712  87.4240465  26.1416608  26.3530183
  87.0663231  25.4363653  25.0621002  92.9340349  28.2015502  27.7986713
  93.8458205  28.4342889  27.6234411  92.4249996  28.7852546  27.2361792
 101.8801916  30.9866421  33.6647331 101.1265625  30.4173820  33.5091335
 102.0149457  30.9529086  34.6117966  90.6193008  19.3810386  37.8700944
  90.2757277  20.2712027  37.7940054  90.9871970  19.1912043  37.0070529
  90.5843291  29.3718997  26.3773379  90.0689914  30.1423601  26.6161766
  90.3120599  28.6984133  27.0006440  89.6989548  21.7515041  35.8350177
  89.1954344  21.7145176  35.0217982  89.9920155  22.6607784  35.8946834
  85.9432434  21.8353771  34.8416359  86.8085431  21.6396579  34.4822248
  86.0109943  21.6064122  35.7685715  95.5577565  32.1251351  28.3126552
  94.7807007  31.7862511  27.8681714  96.2369046  32.1303975  27.6381517
  83.5494753  24.0655978  32.2132725  84.1238505  23.8431160  31.4805918
  84.1365736  24.1344673  32.9661327  83.8764340  26.0960440  26.2328611
  83.0401653  26.4335126  26.5537885  83.7369110  25.9609419  25.2955748
  85.8517421  20.9397227  30.9407795  85.1981833  20.6246245  30.3164410
  85.8097895  20.3172968  31.6667618  86.9628626  31.2216522  22.8561087
  86.0555687  30.9905776  23.0552236  87.4599658  30.4254142  23.0435069
  88.1416859  31.3229117  27.3785077  87.2328078  31.0388150  27.4757547
  88.1711943  31.7428196  26.5188384  92.4180673  18.6403945  32.9718681
  92.7239550  17.7801308  32.6844596  93.1433278  19.2321565  32.7717675
  87.8392947  32.8637861  24.7173156  87.4012377  32.1473720  24.2578793
  88.5803388  33.0913976  24.1558247  95.9566062  31.1395058  30.7749474
  95.8183960  31.3296654  29.8470663  95.6002281  31.9014441  31.2317525
  81.2051255  28.5698665  29.0441231  80.2748843  28.5083121  29.2611194
  81.3008727  28.0474618  28.2477873  81.1236804  25.0953478  31.6319473
  81.3843622  26.0098811  31.5228634  81.9453977  24.6277921  31.7816086
  91.9604175  31.7222243  24.3105213  91.3433345  30.9969071  24.2138266
  91.4920663  32.4831603  23.9672288  83.7502720  25.9407667  23.4326518
  82.8732187  25.8196468  23.0688764  84.2260474  25.1493745  23.1805406
  98.0993054  29.8068952  34.9641535  98.0882930  30.6893668  34.5935468
  97.2310433  29.4540503  34.7696072  94.7165629  28.7017593  31.4311701
  95.1826081  29.5345585  31.3572004  95.1673129  28.2362575  32.1356959
  92.6882291  21.0698180  35.4702602  91.7745371  21.3002407  35.6384809
  93.1175393  21.1536624  36.3216635  78.4781414  27.5349522  28.8739423
  78.7734855  26.6260201  28.8206477  77.5769450  27.5137262  28.5520426
  80.2069256  25.2163620  28.9978748  79.8781962  24.3360999  28.8153854
  80.5608627  25.1611289  29.8855138  83.3211079  25.5036590  29.3654226
  83.6607152  26.0322511  28.6432834  83.7683200  25.8416996  30.1412793
  86.6670992  20.9722953  37.2684617  87.4897061  20.4983431  37.1463507
  86.9109055  21.7513437  37.7683303  85.3079226  24.0011211  27.5647519
  86.0287589  24.3792464  27.0611236  84.6844530  24.7200088  27.6682497
  85.4542849  23.5359002  30.3945055  85.5758760  22.6075648  30.5935943
  85.1644892  23.5497688  29.4823371  88.3234040  21.2213912  33.5311775
  88.3455736  21.2853245  32.5763755  88.7402099  20.3818421  33.7252281
  98.7017664  30.9569172  31.5690998  99.1448810  30.2076497  31.1710121
  97.8244174  30.9479308  31.1864730  93.8353445  37.5099513  27.0497596
  94.5304350  38.1306206  27.2684911  94.1776595  36.6594864  27.3249974
  81.4521189  26.8806670  26.9908173  80.7590434  26.9551025  26.3348209
  81.2072941  26.1167013  27.5129690  90.1234845  18.4402271  34.3947664
  90.4036599  17.7725460  35.0208090  90.9085452  18.6331367  33.8822327
  93.7753590  37.2164285  24.0485220  93.6967222  36.8824149  24.9420978
  94.5963257  37.7086053  24.0476692  88.3115112  28.9522078  23.2988742
  89.2574217  28.8228286  23.3677160  87.9329357  28.2136740  23.7758171
  96.6226270  26.8737068  37.3019822  96.1065319  26.0895525  37.1149750
  97.5066218  26.5455785  37.4666341  94.2836997  20.6178084  33.2615634
  94.0861818  20.3093172  34.1458966  94.8936702  21.3439723  33.3913564
 102.2908331  31.1442031  36.3967575 103.0211720  30.8827320  36.9575279
 101.6815277  30.4070753  36.4369643  86.4958029  26.8772054  23.2343628
  85.5889485  26.5805167  23.3106341  86.7734010  26.5801872  22.3677914
  88.1120095  21.4208944  29.3887869  87.3020823  21.0756029  29.7643115
  88.8004512  21.1116487  29.9775481  90.0410643  20.4986991  31.0112166
  90.5941682  20.9182444  31.6702189  90.2780730  19.5722739  31.0535122
  85.2656814  23.7358989  23.3755607  86.1275978  24.0613888  23.6351424
  85.4507158  22.9490485  22.8628673  93.4189451  22.6087516  30.5190830
  92.8388120  23.2672320  30.1368882  93.1525383  21.7864860  30.1078247
  91.8693017  22.0092573  32.7212150  92.3692795  22.1209108  31.9126469
  92.5128625  21.7053626  33.3612959  95.5528865  24.7934127  33.2901517
  96.3289255  25.2830579  33.5626134  94.8276999  25.2192181  33.7473387
  97.9901423  25.5061746  34.3475458  98.5845914  25.2657482  33.6368766
  98.0628007  24.7868877  34.9748994  91.3457542  34.5332281  23.6695198
  92.0493392  34.7382283  24.2852854  90.6220191  35.1009043  23.9344282
  95.9860158  26.0731874  30.6147588  95.7297092  25.6728510  31.4455795
  95.3613026  26.7875668  30.4897727 100.2972496  28.8127947  33.1218879
  99.7372054  28.8821136  33.8950441  99.6915999  28.6368932  32.4018375
  93.2544239  34.9714810  25.7193658  94.0889843  34.5396008  25.5371133
  93.0928582  34.7996824  26.6470553  92.9090132  31.4746923  27.0849997
  92.8538935  31.3091195  26.1438442  92.2836187  32.1822956  27.2412187
  86.2186257  20.9755032  26.6635316  86.2064927  21.9196872  26.8203587
  87.1109679  20.7925178  26.3694777  90.0338377  17.5697809  30.9181253
  89.2670772  17.0156296  31.0637935  90.4449081  17.6419678  31.7795404
 101.8828514  45.4884461  35.8148835 102.5206924  45.3691208  35.1112175
 101.7649357  46.4365305  35.8736787  98.6918221  45.4411889  35.7510360
  98.3536732  45.3252954  34.8630894  99.5607989  45.0403054  35.7311366
  94.5505036  47.2947366  31.7407251  93.9869902  47.2037302  30.9723538
  94.4357432  46.4747270  32.2209743  99.1738004  46.5946741  41.7096565
  99.1626645  46.1999539  40.8377069  99.3358643  45.8612813  42.3030337
  92.0969468  48.7898557  34.5791471  92.8890760  48.4489382  34.1637770
  92.3366119  48.8993532  35.4993624 100.1304595  50.9618333  27.0521715
  99.4792575  51.5472414  26.6655729 100.9248958  51.4924528  27.1116753
  94.0560222  48.0507470  27.4508850  94.8291098  47.5036457  27.3121726
  94.4085621  48.9151720  27.6623311  95.8945265  49.3783853  40.6575749
  95.6035131  50.2829484  40.5422415  96.5302249  49.4200380  41.3719819
  96.8201472  46.7560701  37.2477109  97.4165044  46.5316724  36.5334072
  96.8776443  46.0145447  37.8502557  96.3926500  44.2100137  25.0827300
  96.6452021  43.6881658  24.3210763  95.4551059  44.0466282  25.1853983
 101.4369783  43.2135915  32.8902043 102.2232872  42.7955338  32.5392460
 101.7008487  44.1182007  33.0583691 101.6079860  48.6508765  27.5890700
 100.9725693  48.7243392  28.3011604 101.2777267  49.2402364  26.9109779
 106.8378210  43.1511148  33.7935021 107.5703382  42.5810365  34.0272851
 106.0817566  42.7632749  34.2341527  96.1122789  46.1128242  27.2851675
  95.9959047  45.4373146  27.9532759  96.2225049  45.6260616  26.4683828
  98.4554330  45.5738390  30.9898364  98.0912537  45.0469011  31.7011285
  99.3121446  45.1836859  30.8164849 104.3603630  36.8632722  38.2529630
 104.0286955  37.7328133  38.0290845 103.7649244  36.5469006  38.9323660
  98.0959817  40.6028289  25.9859712  98.2634219  41.4708526  26.3530183
  97.9056986  40.7655571  25.0621002 100.8535150  49.0645268  37.6525543
 100.5535873  49.9670307  37.5441350 100.5086210  48.7977451  38.5046696
  94.3047631  45.5159065  33.6862247  93.3798128  45.3835279  33.8939939
  94.5532045  46.2953284  34.1832190 104.2532294  41.5827808  35.3322980
 103.3449171  41.5143217  35.0381741 104.2019890  42.0599753  36.1604806
  98.0749038  43.0585947  26.9706379  97.9548663  43.5042998  27.8091860
  97.3801626  43.4071264  26.4119917  95.8355930  55.8289589  30.6196510
  95.7579959  56.7797414  30.6984991  95.2317573  55.4835461  31.2771437
 106.1193940  39.7844247  37.1100854 105.4768320  40.0776780  36.4640649
 105.6148869  39.6697167  37.9154051 103.7734104  43.5307420  27.7986713
 104.6851960  43.7634807  27.6234411 103.2643751  44.1144464  27.2361792
  96.5819532  45.8102907  42.8375844  97.3234216  46.3487951  42.5610668
  95.8756517  46.4369196  42.9947396 102.0574872  47.9532048  41.4348006
 102.4658228  47.5114458  40.6902638 101.3352133  47.3784675  41.6882199
 102.3803686  48.5133238  35.1900295 101.7512549  48.6778953  34.4876363
 101.9929348  48.9274848  35.9611259 106.2592918  49.4487676  32.5444659
 105.5743956  49.8286578  31.9941692 106.3436767  50.0583003  33.2776606
 103.5143850  47.0947635  39.1440002 103.7260745  47.7379395  38.4674383
 103.4673598  46.2609952  38.6761932  97.9331648  48.2507646  32.4550380
  98.3969994  48.5295349  31.6655002  97.6688446  47.3491091  32.2723471
  94.8255729  47.7979128  35.3930143  95.3957086  48.2266396  34.7547628
  95.4163841  47.5161713  36.0914329  96.8700534  44.3730799  29.2639945
  97.5724577  44.8251843  29.7313871  96.5381163  43.7314618  29.8919838
 104.6289678  49.9719591  37.3162359 105.4507121  49.5699778  37.0345041
 104.6252080  49.8687825  38.2678475  98.3946281  49.5203634  39.4723070
  98.4590714  49.9824041  40.3081242  97.6857205  48.8900999  39.6005380
 112.7195671  46.3158339  33.6647331 111.9659379  45.7465737  33.5091335
 112.8543212  46.2821004  34.6117966  98.1094299  51.1871741  29.3402050
  97.9739973  52.0323277  29.7686898  98.6504111  51.3891019  28.5767984
  91.5623696  48.7047180  29.9129975  92.0748217  49.4990430  30.0635540
  92.2146409  48.0073470  29.8463577  93.3718581  51.8212936  31.9952728
  93.5485209  52.7430900  31.8073712  94.1675414  51.5071355  32.4247108
  99.7362775  51.8095308  43.4702392  99.2926629  51.0231687  43.1523297
 100.3979989  51.9974458  42.8046283  94.4949896  53.3391110  37.9963071
  95.0457321  53.2108173  37.2240065  93.6561372  53.6385999  37.6457964
 101.8344013  52.0898108  41.4983794 101.8162489  52.9106989  41.0064063
 102.7563933  51.9652183  41.7233935  98.2917067  49.6042237  42.3407302
  98.8245404  48.8430526  42.1106610  97.7631148  49.3115889  43.0831456
  89.5272613  47.0335834  30.6889546  90.3647835  47.4432842  30.4723254
  89.7050881  46.0935276  30.6589740 101.4237045  44.7010914  26.3773379
 100.9083668  45.4715519  26.6161766 101.1514353  44.0276051  27.0006440
 106.3971319  47.4543269  28.3126552 105.6200762  47.1154429  27.8681714
 107.0762800  47.4595892  27.6381517 101.2123348  42.5738007  28.2033160
 100.9073484  42.8884156  29.0543303 102.1653790  42.6519426  28.2460493
  99.6569780  48.7328230  29.8526114  99.1291142  47.9980989  29.5399351
  99.1557283  49.5102906  29.6066082 104.6362626  46.9277250  34.9693160
 103.9786300  47.6176512  35.0573289 105.4403025  47.3173682  35.3127147
 103.4468085  45.2821623  33.0197102 103.9599967  45.9151615  33.5218812
 104.0969309  44.6822819  32.6540462  94.7158095  41.4252357  26.2328611
  93.8795407  41.7627044  26.5537885  94.5762864  41.2901337  25.2955748
  97.8022380  46.5508440  22.8561087  96.8949442  46.3197694  23.0552236
  98.2993412  45.7546059  23.0435069 100.7090459  55.2605947  25.7757773
 100.0352158  55.5637644  26.3842731 101.0956281  56.0635028  25.4263230
  99.9248916  42.7571079  35.2655443  99.0071477  42.9786026  35.1077131
 100.3409059  42.8317389  34.4067150 100.7083963  44.1562494  30.3958123
 101.4555782  44.6683892  30.0865245 100.9775553  43.8346547  31.2562516
  98.9810614  46.6521035  27.3785077  98.0721833  46.3680068  27.4757547
  99.0105697  47.0720114  26.5188384 104.2129881  50.2627625  31.1476245
 103.7592208  49.4218534  31.2041435 103.5823848  50.8989023  31.4851025
 103.1562801  41.1919611  32.3776912 102.4185557  40.6796997  32.7087155
 103.4089574  40.7519992  31.5660189 102.6562820  52.1004121  32.0826063
 102.9485795  52.6609178  31.3638428 103.1661441  52.3932682  32.8379222
 103.2574428  33.9695863  32.9718681 103.5633305  33.1093226  32.6844596
 103.9827033  34.5613483  32.7717675  97.5295508  44.2649656  33.4794872
  97.5844117  43.3123492  33.4037349  96.7186710  44.4209095  33.9636171
  98.6786701  48.1929779  24.7173156  98.2406131  47.4765638  24.2578793
  99.4197142  48.4205894  24.1558247  95.4687868  42.8826715  31.2385251
  94.6555733  43.1820886  31.6450443  95.9646862  42.4882404  31.9559734
  97.6196445  52.8784472  33.1719516  97.5772624  53.1045319  32.2428048
  98.5359144  52.6447847  33.3205317 101.0662079  43.3468540  40.0700145
 101.4211467  43.5740013  40.9294611 101.7134211  43.6786917  39.4477400
 106.7959816  46.4686976  30.7749474 106.6577715  46.6588572  29.8470663
 106.4396035  47.2306359  31.2317525 106.8229196  48.5363503  35.7860746
 107.2565702  48.4438792  36.6343800 107.5360777  48.5121003  35.1480762
  95.7362246  49.7547501  32.9681479  96.5302845  49.2597821  32.7664054
  95.0253939  49.2265364  32.6049184 100.5557091  52.1365597  37.3193846
 100.6094113  52.7056533  38.0871562  99.6871872  52.3067482  36.9547883
  92.0445010  43.8990583  29.0441231  91.1142598  43.8375039  29.2611194
  92.1402482  43.3766536  28.2477873 107.6844745  48.5787203  38.3193631
 107.8780635  49.4833014  38.5652906 107.5845364  48.1194622  39.1532216
 102.7459854  48.7293946  43.8934512 102.5945360  48.5004498  42.9764595
 102.7364534  49.6864548  43.9065857  99.5145190  46.3025859  38.8780778
 100.4437250  46.4537018  38.7049745  99.0936220  46.3909880  38.0229425
  98.3133522  50.3276523  36.6479316  98.1744608  49.9595308  37.5205254
  97.5248118  50.8424163  36.4763274  98.9081674  55.4285620  27.9904852
  99.0833430  54.9573663  28.8050475  98.2214462  56.0551386  28.2186113
  99.8638737  49.7058126  34.0368154  99.5288570  49.6658896  34.9325803
  99.3642683  49.0402842  33.5638564 102.7997929  47.0514160  24.3105213
 102.1827100  46.3260988  24.2138266 102.3314418  47.8123521  23.9672288
 104.4552061  51.7613069  41.9710994 104.3964607  51.0772289  41.3041577
 104.8571579  52.5032059  41.5191620  93.4742760  58.5774983  34.7644713
  93.7139358  59.2093507  35.4423731  92.6311956  58.2263023  35.0510072
  94.5896475  41.2699585  23.4326518  93.7125941  41.1488385  23.0688764
  95.0654228  40.4785663  23.1805406 104.4569468  49.7252653  40.2024973
 103.5696247  49.3878574  40.3251372 105.0268019  48.9935684  40.4393739
  97.9870621  54.3854105  37.1686216  97.9140793  55.1909076  37.6805521
  97.5448014  54.5846071  36.3434238  97.7760401  53.6225875  30.6789038
  96.9927923  54.1647555  30.7727263  98.4753146  54.1399855  31.0783279
 108.9386809  45.1360870  34.9641535 108.9276685  46.0185585  34.5935468
 108.0704188  44.7832421  34.7696072 100.4469305  54.2840939  39.3244375
 101.1597277  54.9188404  39.2520277  99.9559334  54.3804805  38.5084377
 102.1686832  48.1892192  30.8961667 101.2343111  48.3093654  30.7266371
 102.3463500  47.2864658  30.6321677  97.6692020  41.5737887  33.0494928
  97.2989807  41.0208928  33.7375834  98.1651112  40.9696021  32.4969928
 105.5559383  44.0309511  31.4311701 106.0219835  44.8637503  31.3572004
 106.0066884  43.5654493  32.1356959  95.4981218  52.0335382  40.1449946
  96.1990678  52.6671865  40.2979340  95.0276333  52.3750114  39.3845585
 103.6235614  50.3753332  28.4297853 103.8995458  50.2609927  29.3391727
 102.7540113  49.9770817  28.3910026 103.5276046  36.3990098  35.4702602
 102.6139126  36.6294325  35.6384809 103.9569147  36.4828542  36.3216635
 103.2982504  44.5879990  37.9702496 102.6453955  44.8355897  37.3154949
 103.6762884  43.7744128  37.6364974 100.2589678  54.6239683  32.0730667
 100.4412073  53.8061339  32.5358419 101.0822664  54.8407375  31.6355557
 100.5931844  53.5507868  29.3345715 101.1219610  53.0400323  28.7215877
 100.8560063  53.2350398  30.1991248  99.3470077  45.3299801  44.4568533
  98.6710714  45.2293930  45.1270909 100.1697711  45.1739015  44.9204531
  91.0948936  51.5671738  37.0781049  91.6802373  50.8215425  37.2108953
  90.8973775  51.8775694  37.9617713  93.9487592  54.6022985  32.0943491
  93.2797967  55.0869113  31.6107531  93.8100461  54.8492205  33.0086870
  98.0892860  56.6366728  38.6926149  98.6411168  56.7998350  39.4575235
  98.4299054  57.2271166  38.0206174 102.9403735  51.4627986  44.5474804
 103.4843639  52.0757944  44.0529759 102.3590579  52.0207564  45.0641817
 101.2261248  54.5848704  35.6789832 101.1012387  53.7838444  35.1700777
 101.8840339  55.0794897  35.1903802 103.2896156  52.3857724  37.3069382
 102.3426491  52.2663075  37.2347708 103.6378929  51.4980222  37.3895643
 100.2942589  52.1810440  33.5073734 100.1467552  51.2527148  33.6881304
 101.1196083  52.2030531  33.0230809  94.1604834  40.8328507  29.3654226
  94.5000906  41.3614429  28.6432834  94.6076954  41.1708913  30.1412793
 103.8976711  53.0038999  34.5938607 104.8223259  52.7981860  34.4563058
 103.7292014  52.7555400  35.5027948  96.1472981  39.3303129  27.5647519
  96.8681343  39.7084382  27.0611236  95.5238285  40.0492006  27.6682497
 100.2904104  40.0348278  28.5005851 100.5067718  40.9172916  28.1994679
  99.8098171  39.6434491  27.7711493 103.6872027  53.5224666  29.9500698
 103.8608905  52.9571089  29.1974551 104.1800919  54.3225561  29.7680188
 109.5411418  46.2861089  31.5690998 109.9842565  45.5368415  31.1710121
 108.6637929  46.2771226  31.1864730 104.6747200  52.8391431  27.0497596
 105.3698104  53.4598124  27.2684911 105.0170350  51.9886782  27.3249974
 106.5738623  50.2891136  28.5784927 107.0989947  50.6278409  27.8534247
 106.4860975  49.3538152  28.3948062  98.2358672  54.2025210  40.7074804
  98.5445798  53.9574357  41.5797503  99.0334154  54.4071848  40.2193674
  98.2579284  56.3563120  32.9380180  97.8184274  55.8639498  33.6313037
  99.0087401  55.8136087  32.6972256  90.7371623  52.5474660  32.9404808
  91.5629643  52.2478432  32.5603452  90.3865675  51.7782283  33.3894597
  95.7053156  51.9001129  35.0102482  95.0833165  51.2371834  34.7104710
  96.3758023  51.9262261  34.3276130  88.9380228  50.4660987  33.8993742
  88.1012136  50.0383161  33.7177743  88.9103873  50.6593430  34.8364533
 106.2632529  50.9224040  43.8836125 105.4728073  50.9048179  43.3440624
 106.0265884  51.4612334  44.6385162 106.3830404  47.7716506  41.1968854
 106.4328409  47.6066514  42.1384376 106.2744327  46.9043765  40.8066734
  95.2666663  50.4505052  28.4860943  95.4154783  51.1340516  27.8327615
  96.0733106  50.4310142  29.0010398 103.6734166  43.7547434  42.5128160
 104.5744029  43.6153899  42.2212158 103.7482141  43.9201889  43.4526338
 107.8848601  50.1913448  41.4410875 107.5933409  50.5543428  42.2774336
 107.2720732  49.4780456  41.2624207 109.0844283  47.7566328  33.9613445
 109.9191175  48.1956132  34.1251006 109.2203412  47.2804981  33.1421691
 106.1335789  45.3146063  39.9090933 106.6089911  45.5073709  39.1009785
 105.2101354  45.3705248  39.6634317  93.0219296  46.4770230  29.4922011
  92.7765338  45.5732560  29.6902222  93.1915210  46.4787380  28.5501489
  92.2914943  42.2098587  26.9908173  91.5984188  42.2842942  26.3348209
  92.0466695  41.4458931  27.5129690  98.7662068  52.9453183  25.9572690
  98.1936035  53.5643370  25.5043162  99.3394862  53.4952544  26.4912612
 104.8337458  42.1911823  38.1419239 105.7854881  42.2909920  38.1631463
 104.6640909  41.3990091  38.6517323 101.9859328  53.2290333  27.0881272
 102.9190001  53.1635894  27.2914148 101.8982541  54.0646599  26.6295805
 104.6147345  52.5456203  24.0485220 104.5360976  52.2116067  24.9420978
 105.4357012  53.0377971  24.0476692 107.3125536  45.4117942  37.2561538
 107.2801856  44.4733943  37.4421222 107.9226160  45.4901979  36.5227363
  99.1508867  44.2813995  23.2988742 100.0967971  44.1520203  23.3677160
  98.7723112  43.5428657  23.7758171 107.4620024  42.2028986  37.3019822
 106.9459073  41.4187442  37.1149750 108.3459973  41.8747702  37.4666341
 105.1230751  35.9470001  33.2615634 104.9255572  35.6385089  34.1458966
 105.7330457  36.6731640  33.3913564 113.1302086  46.4733949  36.3967575
 113.8605474  46.2119237  36.9575279 112.5209031  45.7362671  36.4369643
 111.2117383  44.6141812  36.9942026 110.4850546  44.4797777  36.3858518
 110.7964670  44.9218640  37.7998744  99.0347559  48.3331741  44.7589399
  99.9550569  48.5110340  44.9529446  98.9997142  47.3887787  44.6069099
  97.3351784  42.2063972  23.2343628  96.4283239  41.9097084  23.3106341
  97.6127765  41.9093790  22.3677914 100.8804398  35.8278908  31.0112166
 101.4335437  36.2474362  31.6702189 101.1174484  34.9014656  31.0535122
  96.1050569  39.0650907  23.3755607  96.9669733  39.3905805  23.6351424
  96.2900913  38.2782403  22.8628673 104.2583205  37.9379433  30.5190830
 103.6781874  38.5964237  30.1368882 103.9919138  37.1156778  30.1078247
 102.7086771  37.3384491  32.7212150 103.2086550  37.4501026  31.9126469
 103.3522379  37.0345544  33.3612959  96.7668767  45.2463121  45.6079991
  96.2835849  46.0463481  45.8143880  96.8529706  45.2571066  44.6547435
  90.0354727  47.0791500  33.5301811  90.0125415  47.1779188  32.5783694
  90.3455363  47.9256651  33.8518977  92.6942105  49.1367655  37.6448425
  93.6485358  49.1051598  37.5778357  92.4954628  48.6758279  38.4598651
 103.0408083  40.0979524  29.5747178 102.1533938  40.3829174  29.3567373
 103.4562072  39.9373287  28.7274455 106.3922619  40.1226045  33.2901517
 107.1683009  40.6122497  33.5626134 105.6670753  40.5484099  33.7473387
 108.8295178  40.8353664  34.3475458 109.4239669  40.5949400  33.6368766
 108.9021761  40.1160794  34.9748994  91.0492333  54.6787275  34.6618623
  90.9146801  53.9187676  34.0956621  90.6324396  55.4028175  34.1947412
 102.1851296  49.8624198  23.6695198 102.8887147  50.0674201  24.2852854
 101.4613945  50.4300960  23.9344282 103.0149107  45.6134060  29.7897468
 102.9584308  46.0702611  28.9505101 103.5677449  44.8524744  29.6120311
 106.8253913  41.4023792  30.6147588 106.5690847  41.0020427  31.4455795
 106.2006781  42.1167585  30.4897727 111.1366251  44.1419865  33.1218879
 110.5765809  44.2113054  33.8950441 110.5309754  43.9660849  32.4018375
  94.2061459  55.5756592  34.8737065  94.0893844  56.5202024  34.7715756
  93.3853906  55.2730153  35.2622865 104.0937994  50.3006728  25.7193658
 104.9283598  49.8687926  25.5371133 103.9322337  50.1288741  26.6470553
 103.7483886  46.8038841  27.0849997 103.6932690  46.6383112  26.1438442
 103.1229941  47.5114874  27.2412187 101.0629793  49.1087753  46.4103560
 101.9320953  49.2828405  46.0490195 100.5836545  49.9282170  46.2879290
  97.0580012  36.3046950  26.6635316  97.0458681  37.2488790  26.8203587
  97.9503433  36.1217095  26.3694777  95.2315973  56.2284854  38.0892994
  96.1343220  56.2608464  38.4059489  95.0053344  55.2985305  38.1039330
  96.9869576  54.9815840  34.7503073  96.0365207  54.9817702  34.6367445
  97.2902062  54.2348575  34.2339107 100.8732131  32.8989727  30.9181253
 100.1064527  32.3448213  31.0637935 101.2842836  32.9711595  31.7795404
 112.7222269  60.8176379  35.8148835 113.3600679  60.6983126  35.1112175
 112.6043112  61.7657223  35.8736787 109.5311975  60.7703807  35.7510360
 109.1930487  60.6544872  34.8630894 110.4001743  60.3694972  35.7311366
 105.3898791  62.6239283  31.7407251 104.8263656  62.5329220  30.9723538
 105.2751186  61.8039188  32.2209743 110.0131758  61.9238659  41.7096565
 110.0020399  61.5291457  40.8377069 110.1752398  61.1904731  42.3030337
 102.9363223  64.1190475  34.5791471 103.7284515  63.7781299  34.1637770
 103.1759873  64.2285450  35.4993624 110.9698350  66.2910251  27.0521715
 110.3186329  66.8764331  26.6655729 111.7642712  66.8216446  27.1116753
 104.8953977  63.3799388  27.4508850 105.6684853  62.8328375  27.3121726
 105.2479376  64.2443637  27.6623311 106.7339019  64.7075770  40.6575749
 106.4428885  65.6121401  40.5422415 107.3696004  64.7492298  41.3719819
 107.6595226  62.0852619  37.2477109 108.2558799  61.8608641  36.5334072
 107.7170198  61.3437364  37.8502557 107.2320255  59.5392054  25.0827300
 107.4845775  59.0173575  24.3210763 106.2944814  59.3758200  25.1853983
 112.2763537  58.5427833  32.8902043 113.0626627  58.1247256  32.5392460
 112.5402242  59.4473925  33.0583691 112.4473615  63.9800683  27.5890700
 111.8119448  64.0535309  28.3011604 112.1171021  64.5694282  26.9109779
 117.6771965  58.4803066  33.7935021 118.4097137  57.9102283  34.0272851
 116.9211320  58.0924666  34.2341527 106.9516543  61.4420160  27.2851675
 106.8352801  60.7665064  27.9532759 107.0618803  60.9552534  26.4683828
 109.2948084  60.9030307  30.9898364 108.9306292  60.3760928  31.7011285
 110.1515200  60.5128776  30.8164849 115.1997385  52.1924640  38.2529630
 114.8680710  53.0620051  38.0290845 114.6042998  51.8760924  38.9323660
 108.9353571  55.9320207  25.9859712 109.1027974  56.8000443  26.3530183
 108.7450740  56.0947489  25.0621002 111.6928904  64.3937186  37.6525543
 111.3929628  65.2962225  37.5441350 111.3479964  64.1269369  38.5046696
 105.1441386  60.8450983  33.6862247 104.2191882  60.7127197  33.8939939
 105.3925799  61.6245202  34.1832190 115.0926048  56.9119726  35.3322980
 114.1842926  56.8435134  35.0381741 115.0413644  57.3891671  36.1604806
 108.9142792  58.3877864  26.9706379 108.7942417  58.8334915  27.8091860
 108.2195381  58.7363182  26.4119917 102.5050197  60.4884256  34.5206036
 102.6342578  60.7418735  35.4345448 101.8247648  61.0811964  34.2010691
 106.6749684  71.1581506  30.6196510 106.5973714  72.1089331  30.6984991
 106.0711328  70.8127379  31.2771437 109.1666914  58.3309372  43.2757877
 108.3900248  58.8903292  43.2660742 109.8057477  58.8166155  43.7972748
 116.9587695  55.1136164  37.1100854 116.3162075  55.4068698  36.4640649
 116.4542623  54.9989085  37.9154051 114.6127858  58.8599338  27.7986713
 115.5245714  59.0926724  27.6234411 114.1037505  59.4436382  27.2361792
 107.4213286  61.1394825  42.8375844 108.1627971  61.6779869  42.5610668
 106.7150272  61.7661114  42.9947396 112.8968626  63.2823965  41.4348006
 113.3051982  62.8406376  40.6902638 112.1745888  62.7076593  41.6882199
 109.2499696  58.2196572  38.8081563 110.0960891  58.6435986  38.9516212
 109.1898334  57.5630197  39.5020126 113.2197441  63.8425156  35.1900295
 112.5906303  64.0070870  34.4876363 112.8323103  64.2566766  35.9611259
 117.0986673  64.7779594  32.5444659 116.4137711  65.1578495  31.9941692
 117.1830522  65.3874921  33.2776606 112.3999141  55.8800941  40.4662736
 112.1560073  56.6343001  39.9297012 112.6759072  56.2586288  41.3009984
 114.3537604  62.4239553  39.1440002 114.5654499  63.0671313  38.4674383
 114.3067352  61.5901870  38.6761932 111.9563833  55.0357374  36.0476574
 111.0948312  55.3338627  36.3393312 111.9826268  55.2527772  35.1157607
 108.7725403  63.5799564  32.4550380 109.2363748  63.8587267  31.6655002
 108.5082201  62.6783009  32.2723471 105.6649484  63.1271046  35.3930143
 106.2350841  63.5558314  34.7547628 106.2557595  62.8453630  36.0914329
 107.7094289  59.7022717  29.2639945 108.4118332  60.1543760  29.7313871
 107.3774917  59.0606535  29.8919838 106.1574650  58.2934473  43.6391154
 105.5273311  58.9750754  43.8726551 106.0510738  58.1817555  42.6944293
 101.4519623  57.9606269  34.5657079 100.6618677  58.2163798  34.0897189
 101.9430870  58.7754607  34.6709119 115.4683432  65.3011508  37.3162359
 116.2900876  64.8991696  37.0345041 115.4645835  65.1979743  38.2678475
 103.4034368  58.3250848  31.5240555 102.6065531  58.4369543  32.0424051
 103.1759960  58.6637501  30.6581446 109.2340036  64.8495552  39.4723070
 109.2984468  65.3115959  40.3081242 108.5250959  64.2192917  39.6005380
  99.7357326  58.2136760  36.9972069  99.9865364  59.0983770  37.2629645
 100.2716874  58.0341361  36.2247161 108.9488053  66.5163659  29.3402050
 108.8133728  67.3615195  29.7686898 109.4897866  66.7182937  28.5767984
 105.4355393  52.5955239  46.0016405 105.0422338  52.0421438  46.6764050
 106.2521533  52.9065817  46.3922923 102.4017451  64.0339097  29.9129975
 102.9141971  64.8282347  30.0635540 103.0540163  63.3365388  29.8463577
 104.2112335  67.1504853  31.9952728 104.3878964  68.0722818  31.8073712
 105.0069169  66.8363273  32.4247108 108.3523354  54.0113118  43.5936662
 109.0933067  54.6120271  43.5141124 108.5841277  53.2690756  43.0354705
 103.4964692  59.1969485  41.8714892 103.3818207  58.2954743  42.1721991
 102.6409210  59.4433182  41.5199708 110.5756530  67.1387226  43.4702392
 110.1320384  66.3523604  43.1523297 111.2373743  67.3266376  42.8046283
 105.3343651  68.6683027  37.9963071 105.8851076  68.5400091  37.2240065
 104.4955127  68.9677916  37.6457964 112.6737768  67.4190026  41.4983794
 112.6556243  68.2398907  41.0064063 113.5957688  67.2944101  41.7233935
 109.1310822  64.9334155  42.3407302 109.6639159  64.1722443  42.1106610
 108.6024903  64.6407807  43.0831456 112.2980517  50.0394221  37.8700944
 111.9544786  50.9295863  37.7940054 112.6659479  49.8495879  37.0070529
 100.3666367  62.3627751  30.6889546 101.2041589  62.7724760  30.4723254
 100.5444635  61.4227194  30.6589740 112.2630799  60.0302832  26.3773379
 111.7477423  60.8007437  26.6161766 111.9908108  59.3567968  27.0006440
 109.8477911  54.8752533  31.4358617 108.9919507  54.4859383  31.2564256
 110.2604862  54.9544494  30.5758403 111.3777057  52.4098876  35.8350177
 110.8741853  52.3729011  35.0217982 111.6707664  53.3191619  35.8946834
 107.6219943  52.4937606  34.8416359 108.4872940  52.2980415  34.4822248
 107.6897452  52.2647958  35.7685715 117.2365074  62.7835187  28.3126552
 116.4594516  62.4446346  27.8681714 117.9156555  62.7887810  27.6381517
 112.0517103  57.9029924  28.2033160 111.7467238  58.2176073  29.0543303
 113.0047545  57.9811344  28.2460493 110.4963535  64.0620148  29.8526114
 109.9684896  63.3272907  29.5399351 109.9951037  64.8394824  29.6066082
 115.4756381  62.2569168  34.9693160 114.8180055  62.9468429  35.0573289
 116.2796780  62.6465600  35.3127147 105.2282262  54.7239814  32.2132725
 105.8026014  54.5014995  31.4805918 105.8153245  54.7928508  32.9661327
 114.2861839  60.6113541  33.0197102 114.7993721  61.2443533  33.5218812
 114.9363063  60.0114736  32.6540462 105.5551849  56.7544275  26.2328611
 104.7189161  57.0918961  26.5537885 105.4156619  56.6193255  25.2955748
 107.5304930  51.5981063  30.9407795 106.8769342  51.2830080  30.3164410
 107.4885404  50.9756803  31.6667618 108.6416135  61.8800358  22.8561087
 107.7343196  61.6489611  23.0552236 109.1387167  61.0837977  23.0435069
 111.5484214  70.5897865  25.7757773 110.8745912  70.8929562  26.3842731
 111.9350036  71.3926945  25.4263230 110.7642670  58.0862996  35.2655443
 109.8465232  58.3077943  35.1077131 111.1802814  58.1609307  34.4067150
 111.5477718  59.4854412  30.3958123 112.2949537  59.9975809  30.0865245
 111.8169308  59.1638465  31.2562516 109.8204368  61.9812953  27.3785077
 108.9115587  61.6971986  27.4757547 109.8499452  62.4012031  26.5188384
 115.0523636  65.5919542  31.1476245 114.5985963  64.7510452  31.2041435
 114.4217602  66.2280941  31.4851025 113.9956555  56.5211528  32.3776912
 113.2579312  56.0088914  32.7087155 114.2483329  56.0811910  31.5660189
 113.4956575  67.4296039  32.0826063 113.7879549  67.9901096  31.3638428
 114.0055195  67.7224600  32.8379222 114.0968182  49.2987780  32.9718681
 114.4027059  48.4385144  32.6844596 114.8220787  49.8905400  32.7717675
 100.3892539  59.7018467  31.3600279 100.1916938  59.1087828  30.6351346
  99.8339203  59.3970677  32.0776218 108.3689262  59.5941573  33.4794872
 108.4237872  58.6415410  33.4037349 107.5580464  59.7501012  33.9636171
 109.5180456  63.5221696  24.7173156 109.0799886  62.8057555  24.2578793
 110.2590897  63.7497811  24.1558247 106.3081622  58.2118633  31.2385251
 105.4949488  58.5112804  31.6450443 106.8040616  57.8174322  31.9559734
 108.4590200  68.2076390  33.1719516 108.4166379  68.4337236  32.2428048
 109.3752899  67.9739765  33.3205317 111.9055834  58.6760458  40.0700145
 112.2605221  58.9031931  40.9294611 112.5527965  59.0078834  39.4477400
 117.6353571  61.7978893  30.7749474 117.4971469  61.9880489  29.8470663
 117.2789790  62.5598276  31.2317525 105.7995697  55.7836989  36.8546486
 106.4395076  55.6425748  36.1569450 104.9673227  55.4971502  36.4785088
 117.6622950  63.8655420  35.7860746 118.0959457  63.7730709  36.6343800
 118.3754531  63.8412921  35.1480762 106.5756001  65.0839419  32.9681479
 107.3696599  64.5889739  32.7664054 105.8647693  64.5557282  32.6049184
 111.3950845  67.4657515  37.3193846 111.4487868  68.0348451  38.0871562
 110.5265627  67.6359400  36.9547883 102.8838764  59.2282501  29.0441231
 101.9536352  59.1666956  29.2611194 102.9796236  58.7058453  28.2477873
 102.8024313  55.7537314  31.6319473 103.0631131  56.6682647  31.5228634
 103.6241486  55.2861756  31.7816086 104.2749239  57.1675071  38.8018298
 104.9472292  56.9592433  38.1530946 103.4479025  56.9697157  38.3623530
 118.5238500  63.9079121  38.3193631 118.7174390  64.8124932  38.5652906
 118.4239118  63.4486540  39.1532216 110.1774811  53.7937012  40.8183958
 109.5302726  54.4926961  40.7248435 110.9475826  54.2273156  41.1860207
 113.5853609  64.0585864  43.8934512 113.4339115  63.8296415  42.9764595
 113.5758288  65.0156465  43.9065857 110.3538945  61.6317777  38.8780778
 111.2831005  61.7828936  38.7049745 109.9329975  61.7201797  38.0229425
 109.1527277  65.6568441  36.6479316 109.0138362  65.2887225  37.5205254
 108.3641873  66.1716080  36.4763274 109.7475429  70.7577537  27.9904852
 109.9227184  70.2865581  28.8050475 109.0608217  71.3843304  28.2186113
 110.7032492  65.0350044  34.0368154 110.3682325  64.9950814  34.9325803
 110.2036438  64.3694760  33.5638564 104.6776736  60.4417674  39.5620735
 104.5396534  59.7097913  40.1632274 105.5881659  60.3526574  39.2804922
 113.6391684  62.3806078  24.3105213 113.0220854  61.6552906  24.2138266
 113.1708172  63.1415438  23.9672288 107.3059037  60.1537633  39.0504414
 108.0158655  59.5130825  39.0091033 107.2628345  60.4050528  39.9730595
 115.2945815  67.0904986  41.9710994 115.2358361  66.4064206  41.3041577
 115.6965334  67.8323976  41.5191620 106.0187970  57.1402851  40.8700054
 105.4825328  56.6893589  41.5221650 105.4304679  57.2748760  40.1270518
 104.3136514  73.9066900  34.7644713 104.5533112  74.5385424  35.4423731
 103.4705710  73.5554940  35.0510072 105.4290229  56.5991502  23.4326518
 104.5519696  56.4780303  23.0688764 105.9047983  55.8077581  23.1805406
 115.2963222  65.0544570  40.2024973 114.4090001  64.7170492  40.3251372
 115.8661774  64.3227602  40.4393739  96.9492370  61.3868662  33.5268025
  97.6363409  61.0730392  32.9389040  96.7940498  62.2910027  33.2535276
 101.7527092  56.2758859  37.9553048 101.6685280  55.6684528  37.2203458
 100.9309798  56.7667877  37.9562545 108.8264376  69.7146023  37.1686216
 108.7534547  70.5200994  37.6805521 108.3841769  69.9137988  36.3434238
 108.6154155  68.9517793  30.6789038 107.8321677  69.4939473  30.7727263
 109.3146901  69.4691772  31.0783279 111.9250806  54.7612422  33.3223243
 112.4219505  54.0082384  33.0024314 111.1537787  54.7976739  32.7566453
 119.7780563  60.4652788  34.9641535 119.7670439  61.3477503  34.5935468
 118.9097942  60.1124338  34.7696072 111.2863059  69.6132857  39.3244375
 111.9991032  70.2480321  39.2520277 110.7953088  69.7096723  38.5084377
 113.0080586  63.5184109  30.8961667 112.0736865  63.6385572  30.7266371
 113.1857255  62.6156576  30.6321677 108.5085774  56.9029805  33.0494928
 108.1383562  56.3500846  33.7375834 109.0044867  56.2987939  32.4969928
 116.3953138  59.3601429  31.4311701 116.8613590  60.1929420  31.3572004
 116.8460638  58.8946410  32.1356959 106.3374973  67.3627300  40.1449946
 107.0384432  67.9963783  40.2979340 105.8670088  67.7042032  39.3845585
 114.4629369  65.7045250  28.4297853 114.7389213  65.5901845  29.3391727
 113.5933867  65.3062735  28.3910026 114.3669800  51.7282016  35.4702602
 113.4532880  51.9586242  35.6384809 114.7962902  51.8120460  36.3216635
 114.1376259  59.9171908  37.9702496 113.4847709  60.1647815  37.3154949
 114.5156639  59.1036046  37.6364974 111.0983433  69.9531601  32.0730667
 111.2805827  69.1353257  32.5358419 111.9216419  70.1699293  31.6355557
 111.4325598  68.8799786  29.3345715 111.9613365  68.3692240  28.7215877
 111.6953818  68.5642316  30.1991248 110.1863832  60.6591719  44.4568533
 109.5104469  60.5585848  45.1270909 111.0091466  60.5030932  44.9204531
 101.9342691  66.8963655  37.0781049 102.5196128  66.1507343  37.2108953
 101.7367529  67.2067612  37.9617713 104.7881346  69.9314903  32.0943491
 104.1191721  70.4161030  31.6107531 104.6494216  70.1784123  33.0086870
  96.5260346  59.4669255  35.7985492  96.5644445  58.9332846  36.5922610
  96.0200639  58.9404461  35.1796469 108.9286615  71.9658646  38.6926149
 109.4804923  72.1290268  39.4575235 109.2692808  72.5563084  38.0206174
 103.9051108  54.3133796  39.2948034 103.9692435  55.1748627  38.8825432
 103.8418228  53.7007798  38.5620393 103.3803381  56.3856928  42.9421068
 104.0075419  56.0034006  43.5558593 102.5231299  56.1671130  43.3076761
 113.7797489  66.7919904  44.5474804 114.3237393  67.4049862  44.0529759
 113.1984334  67.3499482  45.0641817 100.1568923  58.1933358  28.8739423
 100.4522364  57.2844036  28.8206477  99.2556959  58.1721097  28.5520426
 112.0655002  69.9140622  35.6789832 111.9406142  69.1130361  35.1700777
 112.7234093  70.4086815  35.1903802 103.6863170  56.2689354  34.8566972
 102.9649756  56.8825322  34.7174445 104.4756426  56.8047119  34.7783618
 114.1289910  67.7149642  37.3069382 113.1820246  67.5954993  37.2347708
 114.4772684  66.8272140  37.3895643 106.4889484  53.6043781  41.1307624
 107.0123886  53.8506077  41.8933933 106.2701817  54.4363815  40.7110761
 101.8856765  55.8747455  28.9978748 101.5569471  54.9944834  28.8153854
 102.2396136  55.8195124  29.8855138 111.1336344  67.5102358  33.5073734
 110.9861306  66.5819065  33.6881304 111.9589837  67.5322449  33.0230809
 104.9998588  56.1620425  29.3654226 105.3394661  56.6906346  28.6432834
 105.4470709  56.5000831  30.1412793 114.7370466  68.3330917  34.5938607
 115.6617013  68.1273778  34.4563058 114.5685769  68.0847318  35.5027948
 107.6942029  54.5457476  38.8157294 107.3538849  53.7465289  39.2177974
 106.9881035  54.8459187  38.2434127 108.3458501  51.6306788  37.2684617
 109.1684570  51.1567266  37.1463507 108.5896564  52.4097272  37.7683303
 106.9866735  54.6595047  27.5647519 107.7075098  55.0376299  27.0611236
 106.3632039  55.3783923  27.6682497 111.1297858  55.3640196  28.5005851
 111.3461472  56.2464833  28.1994679 110.6491925  54.9726409  27.7711493
 105.8697079  58.3225909  35.0776596 105.7241660  58.6366212  35.9700877
 105.3922283  58.9410809  34.5247494 107.7293462  55.3128457  35.1257485
 107.7155031  54.4169550  34.7889783 108.4465890  55.3199121  35.7595771
 109.5819593  55.7465797  37.1710613 109.3237371  56.6682868  37.1694943
 109.0504633  55.3496232  37.8611077 114.5265782  68.8516584  29.9500698
 114.7002659  68.2863007  29.1974551 115.0194673  69.6517479  29.7680188
 100.3442742  60.8631253  38.0164257  99.7996210  61.6391061  38.1484531
 101.2222091  61.2102058  37.8583378 107.1330358  54.1942837  30.3945055
 107.2546269  53.2659483  30.5935943 106.8432401  54.2081523  29.4823371
 110.0021549  51.8797747  33.5311775 110.0243245  51.9437081  32.5763755
 110.4189608  51.0402256  33.7252281 120.3805173  61.6153007  31.5690998
 120.8236319  60.8660332  31.1710121 119.5031683  61.6063143  31.1864730
 115.5140954  68.1683349  27.0497596 116.2091859  68.7890041  27.2684911
 115.8564104  67.3178700  27.3249974 101.1308763  59.9901149  40.9094414
 100.3890500  60.1383785  41.4959044 100.8101508  60.2509415  40.0461163
 117.4132377  65.6183054  28.5784927 117.9383701  65.9570327  27.8534247
 117.3254730  64.6830069  28.3948062 109.0752426  69.5317128  40.7074804
 109.3839553  69.2866274  41.5797503 109.8727908  69.7363766  40.2193674
 109.0973038  71.6855037  32.9380180 108.6578028  71.1931416  33.6313037
 109.8481155  71.1428005  32.6972256 101.5765377  67.8766578  32.9404808
 102.4023397  67.5770350  32.5603452 101.2259429  67.1074201  33.3894597
 106.5446910  67.2293046  35.0102482 105.9226920  66.5663751  34.7104710
 107.2151777  67.2554178  34.3276130  99.7773982  65.7952905  33.8993742
  98.9405890  65.3675079  33.7177743  99.7497628  65.9885348  34.8364533
 106.6171438  55.7074834  44.6034988 106.6659593  56.5836957  44.2212758
 107.1593952  55.1652227  44.0306631 117.1026283  66.2515958  43.8836125
 116.3121827  66.2340097  43.3440624 116.8659638  66.7904251  44.6385162
 117.2224159  63.1008424  41.1968854 117.2722163  62.9358431  42.1384376
 117.1138082  62.2335683  40.8066734 106.1060417  65.7796970  28.4860943
 106.2548538  66.4632434  27.8327615 106.9126861  65.7602060  29.0010398
 114.5127921  59.0839352  42.5128160 115.4137784  58.9445817  42.2212158
 114.5875895  59.2493807  43.4526338 108.8470726  56.4606207  41.3581347
 107.9774036  56.7539773  41.0863935 109.0830207  57.0446652  42.0788610
 118.7242355  65.5205366  41.4410875 118.4327164  65.8835346  42.2774336
 118.1114487  64.8072374  41.2624207 119.9238038  63.0858245  33.9613445
 120.7584929  63.5248049  34.1251006 120.0597166  62.6096899  33.1421691
 116.9729544  60.6437980  39.9090933 117.4483665  60.8365627  39.1009785
 116.0495109  60.6997166  39.6634317 103.8613050  61.8062147  29.4922011
 103.6159092  60.9024477  29.6902222 104.0308965  61.8079298  28.5501489
 111.5509760  52.6785824  38.8746767 112.0691704  53.4146851  38.5493256
 111.1964893  52.9849817  39.7093526 103.1308698  57.5390505  26.9908173
 102.4377943  57.6134860  26.3348209 102.8860450  56.7750849  27.5129690
 111.8022354  49.0986106  34.3947664 112.0824108  48.4309295  35.0208090
 112.5872961  49.2915202  33.8822327 109.6055823  68.2745100  25.9572690
 109.0329790  68.8935287  25.5043162 110.1788616  68.8244462  26.4912612
 115.6731213  57.5203740  38.1419239 116.6248635  57.6201838  38.1631463
 115.5034663  56.7282009  38.6517323 113.6945592  54.6059323  38.3278640
 113.0995524  54.8864336  37.6325128 113.4095289  55.0953224  39.0995381
 112.8253083  68.5582250  27.0881272 113.7583756  68.4927812  27.2914148
 112.7376295  69.3938517  26.6295805 115.4541099  67.8748121  24.0485220
 115.3754731  67.5407984  24.9420978 116.2750766  68.3669889  24.0476692
 118.1519290  60.7409860  37.2561538 118.1195610  59.8025861  37.4421222
 118.7619914  60.8193897  36.5227363 109.9902621  59.6105913  23.2988742
 110.9361726  59.4812121  23.3677160 109.6116866  58.8720575  23.7758171
 118.3013779  57.5320903  37.3019822 117.7852828  56.7479360  37.1149750
 119.1853727  57.2039620  37.4666341 115.9624506  51.2761919  33.2615634
 115.7649327  50.9677007  34.1458966 116.5724211  52.0023558  33.3913564
 109.8741314  63.6623659  44.7589399 110.7944323  63.8402258  44.9529446
 109.8390897  62.7179704  44.6069099 108.1745538  57.5355889  23.2343628
 107.2676994  57.2389002  23.3106341 108.4521519  57.2385707  22.3677914
  99.0923479  58.8562253  33.6842674  98.7726263  58.0027561  33.3917048
  98.5456907  59.0710831  34.4400641 102.8703386  61.5724694  37.4012181
 103.0889396  62.5041802  37.4200214 103.2829160  61.2132668  38.1866984
 109.7907604  52.0792779  29.3887869 108.9808332  51.7339864  29.7643115
 110.4792021  51.7700323  29.9775481 111.7198152  51.1570826  31.0112166
 112.2729191  51.5766279  31.6702189 111.9568239  50.2306574  31.0535122
 107.7431252  57.1457899  46.7914930 107.6427979  58.0952256  46.7227021
 107.5252794  56.8176138  45.9191000 106.9444323  54.3942825  23.3755607
 107.8063487  54.7197723  23.6351424 107.1294667  53.6074320  22.8628673
  98.9611739  62.4765164  35.6535796  98.2675210  62.0619117  35.1405750
  99.7084730  62.5185701  35.0569215 115.0976959  53.2671351  30.5190830
 114.5175629  53.9256155  30.1368882 114.8312892  52.4448696  30.1078247
 113.5480526  52.6676409  32.7212150 114.0480304  52.7792943  31.9126469
 114.1916134  52.3637462  33.3612959 107.6062522  60.5755038  45.6079991
 107.1229603  61.3755398  45.8143880 107.6923461  60.5862983  44.6547435
 100.8748481  62.4083418  33.5301811 100.8519169  62.5071105  32.5783694
 101.1849118  63.2548569  33.8518977 103.5335859  64.4659573  37.6448425
 104.4879113  64.4343515  37.5778357 103.3348383  64.0050197  38.4598651
 104.1235241  63.0360689  40.2119223 104.9428130  63.5304768  40.2354060
 104.3972049  62.1192657  40.1836790 113.8801838  55.4271441  29.5747178
 112.9927693  55.7121092  29.3567373 114.2955827  55.2665205  28.7274455
 117.2316374  55.4517962  33.2901517 118.0076764  55.9414415  33.5626134
 116.5064508  55.8776017  33.7473387 119.6688932  56.1645582  34.3475458
 120.2633423  55.9241318  33.6368766 119.7415516  55.4452712  34.9748994
 101.8886088  70.0079193  34.6618623 101.7540556  69.2479593  34.0956621
 101.4718150  70.7320092  34.1947412 113.0245051  65.1916116  23.6695198
 113.7280901  65.3966119  24.2852854 112.3007700  65.7592878  23.9344282
 113.8542861  60.9425977  29.7897468 113.7978063  61.3994529  28.9505101
 114.4071204  60.1816662  29.6120311 117.6647667  56.7315709  30.6147588
 117.4084601  56.3312345  31.4455795 117.0400535  57.4459503  30.4897727
 105.0455214  70.9048510  34.8737065 104.9287598  71.8493942  34.7715756
 104.2247660  70.6022071  35.2622865 114.9331748  65.6298645  25.7193658
 115.7677352  65.1979844  25.5371133 114.7716091  65.4580659  26.6470553
 114.5877641  62.1330759  27.0849997 114.5326444  61.9675030  26.1438442
 113.9623696  62.8406791  27.2412187  99.3770156  57.3698823  40.9111420
 100.0229019  56.8597777  41.3998645  99.1687307  58.1067505  41.4854845
 111.9023548  64.4379670  46.4103560 112.7714707  64.6120323  46.0490195
 111.4230299  65.2574087  46.2879290 107.8973766  51.6338868  26.6635316
 107.8852436  52.5780707  26.8203587 108.7897188  51.4509013  26.3694777
 106.0709728  71.5576771  38.0892994 106.9736975  71.5900382  38.4059489
 105.8447098  70.6277222  38.1039330 107.8263330  70.3107758  34.7503073
 106.8758961  70.3109620  34.6367445 108.1295816  69.5640493  34.2339107
 111.7125885  48.2281644  30.9181253 110.9458281  47.6740131  31.0637935
 112.1236590  48.3003513  31.7795404 103.7167647  54.5166440  45.0086434
 104.5799108  54.1603245  45.2189758 103.1433057  54.1780335  45.6961838
 120.3705730  76.0995724  35.7510360 120.0324241  75.9836789  34.8630894
 121.2395498  75.6986890  35.7311366 116.2292545  77.9531201  31.7407251
 115.6657411  77.8621138  30.9723538 116.1144940  77.1331105  32.2209743
 120.8525513  77.2530576  41.7096565 120.8414154  76.8583374  40.8377069
 121.0146152  76.5196649  42.3030337 113.7756977  79.4482392  34.5791471
 114.5678269  79.1073217  34.1637770 114.0153628  79.5577368  35.4993624
 115.7347731  78.7091306  27.4508850 116.5078607  78.1620293  27.3121726
 116.0873130  79.5735555  27.6623311 117.5732774  80.0367688  40.6575749
 117.2822640  80.9413319  40.5422415 118.2089758  80.0784216  41.3719819
 118.4988981  77.4144537  37.2477109 119.0952553  77.1900559  36.5334072
 118.5563952  76.6729282  37.8502557 118.0714009  74.8683972  25.0827300
 118.3239530  74.3465493  24.3210763 117.1338568  74.7050117  25.1853983
 117.7910298  76.7712078  27.2851675 117.6746556  76.0956981  27.9532759
 117.9012558  76.2844452  26.4683828 120.1341839  76.2322225  30.9898364
 119.7700046  75.7052846  31.7011285 120.9908955  75.8420694  30.8164849
 119.7747326  71.2612125  25.9859712 119.9421728  72.1292361  26.3530183
 119.5844495  71.4239406  25.0621002 115.9835140  76.1742900  33.6862247
 115.0585637  76.0419114  33.8939939 116.2319554  76.9537120  34.1832190
 119.7536547  73.7169782  26.9706379 119.6336172  74.1626833  27.8091860
 119.0589135  74.0655100  26.4119917 113.3443951  75.8176174  34.5206036
 113.4736333  76.0710653  35.4345448 112.6641403  76.4103882  34.2010691
 117.5143439  86.4873424  30.6196510 117.4367468  87.4381249  30.6984991
 116.9105082  86.1419296  31.2771437 120.0060669  73.6601289  43.2757877
 119.2294003  74.2195209  43.2660742 120.6451232  74.1458072  43.7972748
 118.2607041  76.4686743  42.8375844 119.0021725  77.0071787  42.5610668
 117.5544026  77.0953031  42.9947396 120.0893451  73.5488490  38.8081563
 120.9354646  73.9727903  38.9516212 120.0292088  72.8922114  39.5020126
 119.6119157  78.9091482  32.4550380 120.0757503  79.1879185  31.6655002
 119.3475955  78.0074926  32.2723471 116.5043238  78.4562963  35.3930143
 117.0744595  78.8850232  34.7547628 117.0951350  78.1745548  36.0914329
 118.5488043  75.0314634  29.2639945 119.2512086  75.4835678  29.7313871
 118.2168672  74.3898453  29.8919838 116.9968405  73.6226391  43.6391154
 116.3667065  74.3042672  43.8726551 116.8904492  73.5109472  42.6944293
 112.2913377  73.2898187  34.5657079 111.5012431  73.5455715  34.0897189
 112.7824624  74.1046525  34.6709119 114.2428122  73.6542766  31.5240555
 113.4459286  73.7661460  32.0424051 114.0153715  73.9929418  30.6581446
 120.0733790  80.1787469  39.4723070 120.1378223  80.6407877  40.3081242
 119.3644714  79.5484834  39.6005380 110.5751080  73.5428677  36.9972069
 110.8259118  74.4275687  37.2629645 111.1110628  73.3633279  36.2247161
 119.7881808  81.8455577  29.3402050 119.6527482  82.6907113  29.7686898
 120.3291620  82.0474854  28.5767984 116.2749147  67.9247157  46.0016405
 115.8816093  67.3713355  46.6764050 117.0915288  68.2357735  46.3922923
 113.2411205  79.3631015  29.9129975 113.7535726  80.1574265  30.0635540
 113.8933918  78.6657305  29.8463577 115.0506090  82.4796771  31.9952728
 115.2272718  83.4014736  31.8073712 115.8462923  82.1655190  32.4247108
 119.1917108  69.3405036  43.5936662 119.9326822  69.9412189  43.5141124
 119.4235031  68.5982674  43.0354705 114.3358446  74.5261403  41.8714892
 114.2211961  73.6246660  42.1721991 113.4802964  74.7725100  41.5199708
 116.1737405  83.9974945  37.9963071 116.7244830  83.8692008  37.2240065
 115.3348881  84.2969834  37.6457964 119.9704576  80.2626073  42.3407302
 120.5032913  79.5014361  42.1106610 119.4418657  79.9699725  43.0831456
 111.2060122  77.6919669  30.6889546 112.0435344  78.1016678  30.4723254
 111.3838390  76.7519111  30.6589740 120.6871665  70.2044451  31.4358617
 119.8313261  69.8151301  31.2564256 121.0998617  70.2836411  30.5758403
 118.4613698  67.8229524  34.8416359 119.3266694  67.6272332  34.4822248
 118.5291206  67.5939875  35.7685715 121.3357289  79.3912065  29.8526114
 120.8078651  78.6564825  29.5399351 120.8344792  80.1686742  29.6066082
 116.0676017  70.0531732  32.2132725 116.6419769  69.8306913  31.4805918
 116.6546999  70.1220426  32.9661327 116.3945604  72.0836193  26.2328611
 115.5582916  72.4210879  26.5537885 116.2550373  71.9485172  25.2955748
 118.3698684  66.9272980  30.9407795 117.7163097  66.6121998  30.3164410
 118.3279158  66.3048721  31.6667618 119.4809889  77.2092275  22.8561087
 118.5736951  76.9781529  23.0552236 119.9780921  76.4129895  23.0435069
 120.6598123  77.3104870  27.3785077 119.7509342  77.0263903  27.4757547
 120.6893206  77.7303949  26.5188384 111.2286293  75.0310384  31.3600279
 111.0310693  74.4379745  30.6351346 110.6732957  74.7262595  32.0776218
 119.2083017  74.9233491  33.4794872 119.2631626  73.9707327  33.4037349
 118.3974219  75.0792930  33.9636171 120.3574210  78.8513614  24.7173156
 119.9193640  78.1349473  24.2578793 121.0984651  79.0789729  24.1558247
 117.1475377  73.5410551  31.2385251 116.3343242  73.8404721  31.6450443
 117.6434371  73.1466239  31.9559734 119.2983954  83.5368308  33.1719516
 119.2560133  83.7629154  32.2428048 120.2146653  83.3031682  33.3205317
 116.6389451  71.1128906  36.8546486 117.2788831  70.9717665  36.1569450
 115.8066982  70.8263420  36.4785088 117.4149755  80.4131337  32.9681479
 118.2090354  79.9181657  32.7664054 116.7041448  79.8849200  32.6049184
 113.7232519  74.5574418  29.0441231 112.7930107  74.4958874  29.2611194
 113.8189991  74.0350371  28.2477873 113.6418068  71.0829231  31.6319473
 113.9024885  71.9974564  31.5228634 114.4635240  70.6153674  31.7816086
 115.1142993  72.4966988  38.8018298 115.7866047  72.2884351  38.1530946
 114.2872780  72.2989074  38.3623530 119.9921031  80.9860359  36.6479316
 119.8532117  80.6179143  37.5205254 119.2035627  81.5007998  36.4763274
 120.5869183  86.0869455  27.9904852 120.7620939  85.6157498  28.8050475
 119.9001971  86.7135221  28.2186113 115.5170490  75.7709591  39.5620735
 115.3790288  75.0389830  40.1632274 116.4275414  75.6818491  39.2804922
 118.1452791  75.4829551  39.0504414 118.8552410  74.8422743  39.0091033
 118.1022099  75.7342446  39.9730595 116.8581725  72.4694769  40.8700054
 116.3219082  72.0185507  41.5221650 116.2698433  72.6040677  40.1270518
 115.1530268  89.2358818  34.7644713 115.3926867  89.8677342  35.4423731
 114.3099465  88.8846858  35.0510072 116.2683984  71.9283420  23.4326518
 115.3913450  71.8072221  23.0688764 116.7441737  71.1369498  23.1805406
 107.7886124  76.7160580  33.5268025 108.4757164  76.4022310  32.9389040
 107.6334253  77.6201944  33.2535276 112.5920846  71.6050776  37.9553048
 112.5079035  70.9976446  37.2203458 111.7703553  72.0959795  37.9562545
 119.6658130  85.0437940  37.1686216 119.5928302  85.8492912  37.6805521
 119.2235523  85.2429906  36.3434238 119.4547910  84.2809710  30.6789038
 118.6715432  84.8231391  30.7727263 120.1540655  84.7983690  31.0783279
 119.3479529  72.2321723  33.0494928 118.9777316  71.6792763  33.7375834
 119.8438621  71.6279856  32.4969928 117.1768727  82.6919218  40.1449946
 117.8778187  83.3255701  40.2979340 116.7063842  83.0333949  39.3845585
 112.7736445  82.2255573  37.0781049 113.3589882  81.4799261  37.2108953
 112.5761284  82.5359530  37.9617713 115.6275101  85.2606820  32.0943491
 114.9585476  85.7452948  31.6107531 115.4887970  85.5076041  33.0086870
 107.3654100  74.7961173  35.7985492 107.4038200  74.2624764  36.5922610
 106.8594393  74.2696379  35.1796469 119.7680369  87.2950564  38.6926149
 120.3198677  87.4582185  39.4575235 120.1086563  87.8855002  38.0206174
 114.7444863  69.6425714  39.2948034 114.8086189  70.5040544  38.8825432
 114.6811983  69.0299715  38.5620393 114.2197135  71.7148846  42.9421068
 114.8469174  71.3325923  43.5558593 113.3625054  71.4963048  43.3076761
 110.9962678  73.5225275  28.8739423 111.2916119  72.6135954  28.8206477
 110.0950714  73.5013015  28.5520426 114.5256925  71.5981272  34.8566972
 113.8043511  72.2117240  34.7174445 115.3150181  72.1339037  34.7783618
 117.3283238  68.9335698  41.1307624 117.8517640  69.1797995  41.8933933
 117.1095572  69.7655733  40.7110761 112.7250519  71.2039373  28.9978748
 112.3963226  70.3236752  28.8153854 113.0789890  71.1487042  29.8855138
 115.8392343  71.4912343  29.3654226 116.1788415  72.0198264  28.6432834
 116.2864463  71.8292749  30.1412793 118.5335783  69.8749393  38.8157294
 118.1932604  69.0757206  39.2177974 117.8274790  70.1751104  38.2434127
 119.1852255  66.9598706  37.2684617 120.0078324  66.4859184  37.1463507
 119.4290319  67.7389190  37.7683303 117.8260490  69.9886964  27.5647519
 118.5468852  70.3668217  27.0611236 117.2025794  70.7075841  27.6682497
 116.7090834  73.6517826  35.0776596 116.5635415  73.9658130  35.9700877
 116.2316038  74.2702727  34.5247494 118.5687217  70.6420374  35.1257485
 118.5548786  69.7461468  34.7889783 119.2859645  70.6491038  35.7595771
 120.4213348  71.0757715  37.1710613 120.1631125  71.9974785  37.1694943
 119.8898388  70.6788149  37.8611077 111.1836496  76.1923171  38.0164257
 110.6389964  76.9682979  38.1484531 112.0615846  76.5393975  37.8583378
 117.9724113  69.5234755  30.3945055 118.0940024  68.5951401  30.5935943
 117.6826155  69.5373441  29.4823371 120.8415303  67.2089665  33.5311775
 120.8637000  67.2728998  32.5763755 121.2583362  66.3694174  33.7252281
 111.9702518  75.3193067  40.9094414 111.2284254  75.4675702  41.4959044
 111.6495262  75.5801333  40.0461163 119.9146181  84.8609045  40.7074804
 120.2233307  84.6158192  41.5797503 120.7121663  85.0655684  40.2193674
 119.9366793  87.0146955  32.9380180 119.4971783  86.5223334  33.6313037
 120.6874910  86.4719923  32.6972256 112.4159132  83.2058496  32.9404808
 113.2417152  82.9062268  32.5603452 112.0653184  82.4366118  33.3894597
 117.3840665  82.5584964  35.0102482 116.7620674  81.8955669  34.7104710
 118.0545532  82.5846096  34.3276130 110.6167737  81.1244822  33.8993742
 109.7799645  80.6966997  33.7177743 110.5891382  81.3177266  34.8364533
 117.4565192  71.0366752  44.6034988 117.5053348  71.9128875  44.2212758
 117.9987706  70.4944145  44.0306631 116.9454172  81.1088887  28.4860943
 117.0942292  81.7924352  27.8327615 117.7520615  81.0893977  29.0010398
 119.6864481  71.7898125  41.3581347 118.8167790  72.0831691  41.0863935
 119.9223961  72.3738570  42.0788610 114.7006805  77.1354065  29.4922011
 114.4552847  76.2316395  29.6902222 114.8702719  77.1371216  28.5501489
 113.9702452  72.8682423  26.9908173 113.2771697  72.9426778  26.3348209
 113.7254204  72.1042766  27.5129690 120.4449577  83.6037018  25.9572690
 119.8723544  84.2227205  25.5043162 121.0182371  84.1536380  26.4912612
 119.0139293  72.8647807  23.2343628 118.1070748  72.5680920  23.3106341
 119.2915274  72.5677625  22.3677914 109.9317233  74.1854170  33.6842674
 109.6120018  73.3319479  33.3917048 109.3850661  74.4002749  34.4400641
 113.7097141  76.9016611  37.4012181 113.9283151  77.8333719  37.4200214
 114.1222915  76.5424586  38.1866984 120.6301359  67.4084697  29.3887869
 119.8202087  67.0631782  29.7643115 121.3185776  67.0992240  29.9775481
 118.5825006  72.4749817  46.7914930 118.4821733  73.4244174  46.7227021
 118.3646548  72.1468056  45.9191000 117.7838078  69.7234742  23.3755607
 118.6457242  70.0489641  23.6351424 117.9688422  68.9366238  22.8628673
 109.8005493  77.8057082  35.6535796 109.1068965  77.3911035  35.1405750
 110.5478484  77.8477618  35.0569215 118.4456276  75.9046956  45.6079991
 117.9623358  76.7047316  45.8143880 118.5317215  75.9154901  44.6547435
 111.7142236  77.7375336  33.5301811 111.6912924  77.8363023  32.5783694
 112.0242872  78.5840486  33.8518977 114.3729614  79.7951491  37.6448425
 115.3272867  79.7635433  37.5778357 114.1742137  79.3342114  38.4598651
 114.9628996  78.3652607  40.2119223 115.7821885  78.8596685  40.2354060
 115.2365804  77.4484575  40.1836790 112.7279842  85.3371110  34.6618623
 112.5934310  84.5771511  34.0956621 112.3111905  86.0612010  34.1947412
 115.8848968  86.2340427  34.8737065 115.7681352  87.1785860  34.7715756
 115.0641415  85.9313989  35.2622865 110.2163910  72.6990741  40.9111420
 110.8622774  72.1889695  41.3998645 110.0081061  73.4359422  41.4854845
 118.7367521  66.9630785  26.6635316 118.7246190  67.9072625  26.8203587
 119.6290942  66.7800931  26.3694777 116.9103482  86.8868689  38.0892994
 117.8130729  86.9192299  38.4059489 116.6840853  85.9569140  38.1039330
 118.6657084  85.6399676  34.7503073 117.7152715  85.6401537  34.6367445
 118.9689571  84.8932410  34.2339107 114.5561401  69.8458358  45.0086434
 115.4192863  69.4895163  45.2189758 113.9826812  69.5072253  45.6961838
 118.6279879  92.0452497  33.5268025 119.3150918  91.7314227  32.9389040
 118.4728007  92.9493862  33.2535276 118.2047855  90.1253091  35.7985492
 118.2431954  89.5916681  36.5922610 117.6988148  89.5988296  35.1796469
 121.4561491  96.4536740  33.8993742 120.6193399  96.0258914  33.7177743
 121.4285137  96.6469183  34.8364533 120.7710988  89.5146088  33.6842674
 120.4513772  88.6611396  33.3917048 120.2244416  89.7294666  34.4400641
 120.6399248  93.1349000  35.6535796 119.9462719  92.7202952  35.1405750
 121.3872239  93.1769536  35.0569215  74.1568422   2.1767876  17.3441817
  74.0792452   3.1275701  17.4230298  73.5530066   1.8313748  18.0016743
  71.7955252   4.9253270  21.4890019  72.0351850   5.5571794  22.1669038
  70.9524448   4.5741310  21.7755378  72.2700084   0.9501272  18.8188798
  71.6010459   1.4347400  18.3352838  72.1312954   1.1970493  19.7332176
  76.4105353   2.9845016  25.4171456  76.9623661   3.1476637  26.1820541
  76.7511546   3.5749453  24.7451481  69.3704826   1.0265562  21.3863929
  69.2359294   0.2665963  20.8201928  68.9536888   1.7506462  20.9192718
  72.5273952   1.9234879  21.5982372  72.4106336   2.8680312  21.4961062
  71.7066398   1.6208441  21.9868171  73.5528466   2.5763141  24.8138301
  74.4555712   2.6086751  25.1304795  73.3265836   1.6463592  24.8284636
  87.8524468   7.1182094  22.4755666  87.5142979   7.0023159  21.5876201
  88.7214236   6.7173259  22.4556672  83.7111283   8.9717570  18.4652557
  83.1476148   8.8807507  17.6968845  83.5963678   8.1517475  18.9455050
  88.3344251   8.2716946  28.4341872  88.3232891   7.8769744  27.5622375
  88.4964890   7.5383018  29.0275643  81.2575715  10.4668762  21.3036778
  82.0497007  10.1259587  20.8883077  81.4972365  10.5763737  22.2238931
  89.2910842  12.6388538  13.7767022  88.6398822  13.2242619  13.3901036
  90.0855205  13.1694733  13.8362060  83.2166469   9.7277675  14.1754156
  83.9897345   9.1806662  14.0367032  83.5691868  10.5921925  14.3868618
  85.0551512  11.0554058  27.3821056  84.7641378  11.9599688  27.2667722
  85.6908496  11.0970585  28.0965125  85.9807719   8.4330906  23.9722415
  86.5771291   8.2086929  23.2579378  86.0382690   7.6915652  24.5747863
  85.2729036   7.7898447  14.0096981  85.1565294   7.1143351  14.6778066
  85.3831296   7.3030821  13.1929134  87.6160577   7.2508594  17.7143671
  87.2518784   6.7239215  18.4256592  88.4727693   6.8607064  17.5410156
  90.0141397  10.7415473  24.3770849  89.7142120  11.6440512  24.2686657
  89.6692456  10.4747656  25.2292002  83.4653878   7.1929270  20.4107554
  82.5404375   7.0605484  20.6185246  83.7138291   7.9723489  20.9077496
  80.8262689   6.8362543  21.2451343  80.9555070   7.0897022  22.1590755
  80.1460141   7.4290251  20.9255998  84.9962177  17.5059793  17.3441817
  84.9186206  18.4567619  17.4230298  84.3923820  17.1605666  18.0016743
  85.7425779   7.4873112  29.5621151  86.4840463   8.0258156  29.2855975
  85.0362764   8.1139401  29.7192703  91.2181118   9.6302253  28.1593313
  91.6264474   9.1884663  27.4147945  90.4958380   9.0554880  28.4127505
  91.5409933  10.1903443  21.9145601  90.9118795  10.3549157  21.2121669
  91.1535595  10.6045053  22.6856565  95.4199165  11.1257881  19.2689965
  94.7350203  11.5056783  18.7186998  95.5043014  11.7353208  20.0021913
  92.6750096   8.7717840  25.8685309  92.8866992   9.4149600  25.1919690
  92.6279845   7.9380157  25.4007239  87.0937895   9.9277851  19.1795687
  87.5576240  10.2065554  18.3900309  86.8294693   9.0261296  18.9968777
  83.9861976   9.4749333  22.1175450  84.5563333   9.9036601  21.4792934
  84.5770088   9.1931918  22.8159635  79.7732115   4.3084556  21.2902385
  78.9831169   4.5642085  20.8142496  80.2643362   5.1232894  21.3954426
  93.7895924  11.6489796  24.0407666  94.6113368  11.2469983  23.7590348
  93.7858327  11.5458030  24.9923782  81.7246860   4.6729136  18.2485862
  80.9278023   4.7847830  18.7669358  81.4972452   5.0115788  17.3826752
  87.5552528  11.1973839  26.1968377  87.6196960  11.6594246  27.0326548
  86.8463452  10.5671204  26.3250686  78.0569818   4.5615047  23.7217376
  78.3077856   5.4462057  23.9874952  78.5929366   4.3819648  22.9492468
  87.2700545  12.8641946  16.0647357  87.1346220  13.7093482  16.4932205
  87.8110358  13.0661224  15.3013291  80.7229943  10.3817384  16.6375282
  81.2354463  11.1760635  16.7880847  81.3752656   9.6843675  16.5708883
  82.5324828  13.4983141  18.7198035  82.7091456  14.4201105  18.5319019
  83.3281661  13.1841560  19.1492415  81.8177184   5.5447773  28.5960198
  81.7030699   4.6433030  28.8967297  80.9621702   5.7911469  28.2445015
  88.8969022  13.4865513  30.1947699  88.4532876  12.7001891  29.8768603
  89.5586235  13.6744663  29.5291590  83.6556143  15.0161314  24.7208377
  84.2063568  14.8878378  23.9485371  82.8167619  15.3156204  24.3703270
  90.9950260  13.7668313  28.2229100  90.9768735  14.5877194  27.7309369
  91.9170180  13.6422388  28.4479241  87.4523314  11.2812442  29.0652609
  87.9851651  10.5200731  28.8351917  86.9237395  10.9886094  29.8076763
  78.6878860   8.7106039  17.4134852  79.5254082   9.1203047  17.1968560
  78.8657127   7.7705481  17.3835046  88.8176027  10.4098435  16.5771421
  88.2897388   9.6751194  16.2644658  88.3163530  11.1873111  16.3311389
  93.7968873   8.6047455  21.6938467  93.1392547   9.2946717  21.7818596
  94.6009272   8.9943887  22.0372453  89.8696706  16.9376152  12.5003080
  89.1958405  17.2407849  13.1088038  90.2562528  17.7405233  12.1508537
  93.3736128  11.9397829  17.8721551  92.9198455  11.0988739  17.9286742
  92.7430095  12.5759228  18.2096331  91.8169067  13.7774326  18.8071369
  92.1092041  14.3379383  18.0883735  92.3267688  14.0702887  19.5624529
  78.7105031   6.0496754  18.0845586  78.5129431   5.4566115  17.3596652
  78.1551695   5.7448964  18.8021525  86.7802692  14.5554677  19.8964823
  86.7378871  14.7815524  18.9673355  87.6965391  14.3218052  20.0450624
  95.9835443  10.2133708  22.5106052  96.4171949  10.1208997  23.3589106
  96.6967023  10.1891208  21.8726068  84.8968493  11.4317706  19.6926785
  85.6909092  10.9368026  19.4909360  84.1860185  10.9035569  19.3294491
  89.7163338  13.8135802  24.0439153  89.7700360  14.3826738  24.8116869
  88.8478119  13.9837687  23.6793190  81.2051256   5.5760788  15.7686538
  80.2748845   5.5145243  15.9856500  81.3008728   5.0536741  14.9723179
  96.8450992  10.2557408  25.0438938  97.0386882  11.1603219  25.2898213
  96.7451610   9.7964827  25.8777523  91.9066101  10.4064151  30.6179818
  91.7551607  10.1774703  29.7009902  91.8970780  11.3634752  30.6311163
  88.6751437   7.9796064  25.6026085  89.6043497   8.1307223  25.4295052
  88.2542467   8.0680085  24.7474731  87.4739769  12.0046728  23.3724622
  87.3350855  11.6365513  24.2450561  86.6854365  12.5194368  23.2008580
  88.0687921  17.1055825  14.7150159  88.2439677  16.6343868  15.5295782
  87.3820709  17.7321591  14.9431420  89.0244984  11.3828331  20.7613460
  88.6894817  11.3429101  21.6571110  88.5248930  10.7173047  20.2883870
  82.9989228   6.7895961  26.2866041  82.8609026   6.0576200  26.8877580
  83.9094152   6.7004861  26.0050229  85.6271529   6.5015920  25.7749721
  86.3371147   5.8609112  25.7336339  85.5840837   6.7528815  26.6975902
  93.6158307  13.4383274  28.6956300  93.5570854  12.7542494  28.0286883
  94.0177826  14.1802264  28.2436926  82.6349006  20.2545187  21.4890019
  82.8745605  20.8863712  22.1669038  81.7918203  19.9033227  21.7755378
  93.6175715  11.4022858  26.9270280  92.7302494  11.0648779  27.0496679
  94.1874266  10.6705889  27.1639045  75.2704862   7.7346949  20.2513331
  75.9575902   7.4208679  19.6634347  75.1152991   8.6388314  19.9780583
  87.1476868  16.0624310  23.8931523  87.0747040  16.8679281  24.4050828
  86.7054261  16.2616276  23.0679545  86.9366648  15.2996080  17.4034345
  86.1534170  15.8417760  17.4972569  87.6359393  15.8170060  17.8028586
  89.6075552  15.9611144  26.0489682  90.3203524  16.5958609  25.9765583
  89.1165580  16.0575010  25.2329684  91.3293079   9.8662397  17.6206973
  90.3949357   9.9863859  17.4511678  91.5069747   8.9634863  17.3566983
  84.6587465  13.7105587  26.8695253  85.3596925  14.3442070  27.0224647
  84.1882580  14.0520319  26.1090892  89.4195925  16.3009888  18.7975973
  89.6018320  15.4831544  19.2603726  90.2428911  16.5177580  18.3600863
  89.7538091  15.2278073  16.0591022  90.2825857  14.7170528  15.4461184
  90.0166310  14.9120603  16.9236555  88.5076324   7.0070006  31.1813840
  87.8316961   6.9064135  31.8516215  89.3303958   6.8509220  31.6449837
  80.2555183  13.2441942  23.8026355  80.8408620  12.4985630  23.9354259
  80.0580022  13.5545899  24.6863019  83.1093838  16.2793190  18.8188798
  82.4404214  16.7639317  18.3352838  82.9706708  16.5262410  19.7332176
  74.8472838   5.8147543  22.5230798  74.8856938   5.2811133  23.3167917
  74.3413131   5.2882748  21.9041776  87.2499107  18.3136933  25.4171456
  87.8017415  18.4768555  26.1820541  87.5905301  18.9041371  24.7451481
  92.1009981  13.1398191  31.2720110  92.6449885  13.7528149  30.7775065
  91.5196826  13.6977769  31.7887123  78.4781416   4.5411645  15.5984730
  78.7734857   3.6322323  15.5451784  77.5769451   4.5199384  15.2765732
  90.3867494  16.2618909  22.4035138  90.2618634  15.4608649  21.8946084
  91.0446585  16.7565102  21.9149108  92.4502403  14.0627929  24.0314688
  91.5032738  13.9433280  23.9593015  92.7985176  13.1750427  24.1140950
  89.4548836  13.8580645  20.2319041  89.3073798  12.9297353  20.4126611
  90.2802330  13.8800736  19.7476116  93.0582958  14.6809204  21.3183913
  93.9829505  14.4752065  21.1808364  92.8898261  14.4325605  22.2273255
  92.8478274  15.1994871  16.6746005  93.0215152  14.6341294  15.9219857
  93.3407165  15.9995766  16.4925495  78.6655234   7.2109540  24.7409564
  78.1208702   7.9869348  24.8729838  79.5434584   7.5580345  24.5828685
  79.4521256   6.3379437  27.6339720  78.7102992   6.4862072  28.2204351
  79.1314000   6.5987702  26.7706470  87.3964918  15.8795415  27.4320110
  87.7052045  15.6344562  28.3042810  88.1940400  16.0842053  26.9438981
  87.4185530  18.0333325  19.6625487  86.9790521  17.5409703  20.3558344
  88.1693647  17.4906292  19.4217562  79.8977869  14.2244865  19.6650115
  80.7235889  13.9248637  19.2848759  79.5471921  13.4552488  20.1139904
  84.8659403  13.5771334  21.7347789  84.2439412  12.9142039  21.4350016
  85.5364269  13.6032466  21.0521436  78.0986474  12.1431192  20.6239049
  77.2618383  11.7153366  20.4423050  78.0710120  12.3363635  21.5609840
  95.4238776  12.5994245  30.6081432  94.6334319  12.5818384  30.0685931
  95.1872130  13.1382539  31.3630468  84.4272909  12.1275257  15.2106249
  84.5761030  12.8110721  14.5572922  85.2339353  12.1080347  15.7255705
  97.0454848  11.8683653  28.1656182  96.7539656  12.2313633  29.0019643
  96.4326979  11.1550661  27.9869514  82.1825542   8.1540435  16.2167318
  81.9371584   7.2502765  16.4147528  82.3521457   8.1557585  15.2746796
  87.9268315  14.6223387  12.6817997  87.3542282  15.2413575  12.2288468
  88.5001109  15.1722749  13.2157919  88.1953806  10.0101946  31.4834706
  89.1156816  10.1880545  31.6774753  88.1603389   9.0657992  31.3314405
  77.4135971   5.2040540  20.4087981  77.0938755   4.3505848  20.1162355
  76.8669399   5.4189118  21.1645948  81.1915879   7.9202981  24.1257487
  81.4101888   8.8520089  24.1445521  81.6041652   7.5610955  24.9112291
  77.2824231   8.8243451  22.3781102  76.5887702   8.4097404  21.8651057
  78.0297222   8.8663988  21.7814521  85.9275014   6.9233326  32.3325298
  85.4442096   7.7233686  32.5389187  86.0135953   6.9341270  31.3792742
  79.1960974   8.7561705  20.2547117  79.1731662   8.8549393  19.3029000
  79.5061610   9.6026856  20.5764283  81.8548351  10.8137860  24.3693732
  82.8091605  10.7821803  24.3023663  81.6560875  10.3528484  25.1843957
  82.4447734   9.3838976  26.9364529  83.2640623   9.8783055  26.9599367
  82.7184541   8.4670944  26.9082097  80.2098580  16.3557480  21.3863929
  80.0753048  15.5957881  20.8201928  79.7930643  17.0798380  20.9192718
  83.3667706  17.2526797  21.5982372  83.2500090  18.1972229  21.4961062
  82.5460152  16.9500358  21.9868171  77.6982648   3.7177110  27.6356726
  78.3441511   3.2076064  28.1243951  77.4899799   4.4545792  28.2100152
  90.2236040  10.7857958  33.1348867  91.0927200  10.9598610  32.7735502
  89.7442792  11.6052375  33.0124596  84.3922220  17.9055059  24.8138301
  85.2949467  17.9378669  25.1304795  84.1659590  16.9755510  24.8284636
  86.1475822  16.6586045  21.4748379  85.1971453  16.6587907  21.3612751
  86.4508308  15.9118780  20.9584414 101.8828516  22.4946584  22.5394142
 102.5206926  22.3753331  21.8357482 101.7649359  23.4427428  22.5982094
  98.6918222  22.4474012  22.4755666  98.3536734  22.3315076  21.5876201
  99.5607990  22.0465177  22.4556672  94.5505038  24.3009488  18.4652557
  93.9869903  24.2099425  17.6968845  94.4357433  23.4809393  18.9455050
  99.1738005  23.6008863  28.4341872  99.1626646  23.2061662  27.5622375
  99.3358645  22.8674936  29.0275643  92.0969470  25.7960680  21.3036778
  92.8890762  25.4551504  20.8883077  92.3366120  25.9055655  22.2238931
 100.1304596  27.9680456  13.7767022  99.4792576  28.5534536  13.3901036
 100.9248959  28.4986651  13.8362060  94.0560224  25.0569593  14.1754156
  94.8291100  24.5098580  14.0367032  94.4085622  25.9213842  14.3868618
  95.8945266  26.3845975  27.3821056  95.6035132  27.2891606  27.2667722
  96.5302251  26.4262503  28.0965125  96.8201473  23.7622824  23.9722415
  97.4165045  23.5378846  23.2579378  96.8776445  23.0207569  24.5747863
  96.1122790  23.1190365  14.0096981  95.9959048  22.4435268  14.6778066
  96.2225050  22.6322739  13.1929134  98.4554331  22.5800512  17.7143671
  98.0912538  22.0531133  18.4256592  99.3121447  22.1898981  17.5410156
 104.3603632  13.8694845  24.9774937 104.0286957  14.7390256  24.7536152
 103.7649245  13.5531129  25.6568967 100.8535151  26.0707391  24.3770849
 100.5535874  26.9732430  24.2686657 100.5086211  25.8039574  25.2292002
  94.3047633  22.5221188  20.4107554  93.3798129  22.3897402  20.6185246
  94.5532046  23.3015407  20.9077496 104.2532295  18.5889931  22.0568287
 103.3449172  18.5205339  21.7627048 104.2019891  19.0661876  22.8850112
  91.6656444  22.1654461  21.2451343  91.7948825  22.4188940  22.1590755
  90.9853895  22.7582169  20.9255998  95.8355931  32.8351711  17.3441817
  95.7579961  33.7859536  17.4230298  95.2317575  32.4897584  18.0016743
  98.3273161  20.0079577  30.0003184  97.5506495  20.5673497  29.9906049
  98.9663724  20.4936360  30.5218054  96.5819533  22.8165030  29.5621151
  97.3234218  23.3550074  29.2855975  95.8756519  23.4431319  29.7192703
 102.0574873  24.9594170  28.1593313 102.4658229  24.5176581  27.4147945
 101.3352134  24.3846798  28.4127505  98.4105943  19.8966777  25.5326869
  99.2567138  20.3206191  25.6761518  98.3504580  19.2400401  26.2265433
 102.3803687  25.5195361  21.9145601 101.7512550  25.6841075  21.2121669
 101.9929349  25.9336971  22.6856565 106.2592919  26.4549799  19.2689965
 105.5743957  26.8348700  18.7186998 106.3436769  27.0645126  20.0021913
 101.5605388  17.5571145  27.1908043 101.3166320  18.3113206  26.6542319
 101.8365319  17.9356493  28.0255290 103.5143851  24.1009758  25.8685309
 103.7260746  24.7441518  25.1919690 103.4673599  23.2672074  25.4007239
 101.1170080  16.7127579  22.7721881 100.2554559  17.0108832  23.0638618
 101.1432515  16.9297977  21.8402913  97.9331649  25.2569769  19.1795687
  98.3969995  25.5357472  18.3900309  97.6688447  24.3553214  18.9968777
  94.8255730  24.8041251  22.1175450  95.3957087  25.2328519  21.4792934
  95.4163842  24.5223835  22.8159635  96.8700535  21.3792921  15.9885252
  97.5724579  21.8313965  16.4559178  96.5381164  20.7376740  16.6165145
  95.3180897  19.9704678  30.3636461  94.6879557  20.6520959  30.5971858
  95.2116985  19.8587760  29.4189599  90.6125869  19.6376474  21.2902385
  89.8224923  19.8934003  20.8142496  91.1037117  20.4524812  21.3954426
 104.6289679  26.9781713  24.0407666 105.4507123  26.5761901  23.7590348
 104.6252082  26.8749947  24.9923782  92.5640615  20.0021053  18.2485862
  91.7671778  20.1139748  18.7669358  92.3366207  20.3407706  17.3826752
  98.3946282  26.5265757  26.1968377  98.4590715  26.9886164  27.0326548
  97.6857206  25.8963122  26.3250686  88.8963572  19.8906965  23.7217376
  89.1471611  20.7753974  23.9874952  89.4323121  19.7111566  22.9492468
  98.1094300  28.1933864  16.0647357  97.9739975  29.0385400  16.4932205
  98.6504112  28.3953142  15.3013291  94.5961640  14.2725444  32.7261712
  94.2028585  13.7191642  33.4009356  95.4127780  14.5836022  33.1168230
  91.5623697  25.7109302  16.6375282  92.0748218  26.5052552  16.7880847
  92.2146410  25.0135593  16.5708883  93.3718582  28.8275058  18.7198035
  93.5485210  29.7493023  18.5319019  94.1675416  28.5133478  19.1492415
  97.5129601  15.6883323  30.3181969  98.2539314  16.2890476  30.2386431
  97.7447523  14.9460961  29.7600011  92.6570939  20.8739690  28.5960198
  92.5424454  19.9724948  28.8967297  91.8015456  21.1203387  28.2445015
  99.7362776  28.8157431  30.1947699  99.2926631  28.0293809  29.8768603
 100.3979990  29.0036581  29.5291590  94.4949898  30.3453232  24.7208377
  95.0457323  30.2170296  23.9485371  93.6561373  30.6448121  24.3703270
 101.8344014  29.0960231  28.2229100 101.8162490  29.9169112  27.7309369
 102.7563934  28.9714306  28.4479241  98.2917069  26.6104360  29.0652609
  98.8245405  25.8492648  28.8351917  97.7631150  26.3178012  29.8076763
  89.5272614  24.0397956  17.4134852  90.3647836  24.4494965  17.1968560
  89.7050882  23.0997399  17.3835046 100.5383304  14.0869081  22.5595484
 100.0348100  14.0499216  21.7463289 100.8313911  14.9961824  22.6192140
  96.7826190  14.1707811  21.5661665  97.6479187  13.9750620  21.2067555
  96.8503699  13.9418163  22.4931022  99.6569781  25.7390352  16.5771421
  99.1291143  25.0043112  16.2644658  99.1557284  26.5165029  16.3311389
 104.6362627  23.9339373  21.6938467 103.9786302  24.6238634  21.7818596
 105.4403027  24.3235805  22.0372453  94.3888509  16.4010019  18.9378032
  94.9632261  16.1785200  18.2051225  94.9759491  16.4698713  19.6906633
 100.7090460  32.2668070  12.5003080 100.0352159  32.5699767  13.1088038
 101.0956282  33.0697150  12.1508537  99.9248917  19.7633201  21.9900749
  99.0071478  19.9848148  21.8322437 100.3409061  19.8379512  21.1312457
 104.2129882  27.2689747  17.8721551 103.7592209  26.4280657  17.9286742
 103.5823849  27.9051145  18.2096331 102.6562822  29.1066244  18.8071369
 102.9485796  29.6671301  18.0883735 103.1661442  29.3994805  19.5624529
  89.5498785  21.3788672  18.0845586  89.3523185  20.7858032  17.3596652
  88.9945449  21.0740882  18.8021525  97.5295509  21.2711778  20.2040179
  97.5844119  20.3185615  20.1282656  96.7186711  21.4271217  20.6881477
  95.4687869  19.8888838  17.9630558  94.6555734  20.1883009  18.3695750
  95.9646863  19.4944527  18.6805040  97.6196447  29.8846595  19.8964823
  97.5772626  30.1107441  18.9673355  98.5359146  29.6509969  20.0450624
 101.0662081  20.3530662  26.7945452 101.4211468  20.5802136  27.6539918
 101.7134212  20.6849039  26.1722707  94.9601944  17.4607193  23.5791793
  95.6001323  17.3195953  22.8814756  94.1279474  17.1741707  23.2030395
 106.8229197  25.5425625  22.5106052 107.2565704  25.4500914  23.3589106
 107.5360778  25.5183126  21.8726068  95.7362248  26.7609624  19.6926785
  96.5302846  26.2659944  19.4909360  95.0253940  26.2327487  19.3294491
 100.5557092  29.1427719  24.0439153 100.6094114  29.7118656  24.8116869
  99.6871873  29.3129604  23.6793190  92.0445011  20.9052706  15.7686538
  91.1142599  20.8437161  15.9856500  92.1402483  20.3828658  14.9723179
  91.9630560  17.4307518  18.3564780  92.2237377  18.3452852  18.2473940
  92.7847732  16.9631961  18.5061393  93.4355485  18.8445276  25.5263604
  94.1078539  18.6362638  24.8776253  92.6085272  18.6467362  25.0868837
 107.6844747  25.5849326  25.0438938 107.8780637  26.4895136  25.2898213
 107.5845365  25.1256745  25.8777523  99.3381057  15.4707217  27.5429265
  98.6908972  16.1697166  27.4493742 100.1082073  15.9043360  27.9105513
 102.7459855  25.7356069  30.6179818 102.5945362  25.5066620  29.7009902
 102.7364535  26.6926670  30.6311163  99.5145192  23.3087981  25.6026085
 100.4437252  23.4599141  25.4295052  99.0936222  23.3972002  24.7474731
  98.3133524  27.3338646  23.3724622  98.1744609  26.9657430  24.2450561
  97.5248120  27.8486285  23.2008580  98.9081675  32.4347742  14.7150159
  99.0833431  31.9635786  15.5295782  98.2214464  33.0613509  14.9431420
  99.8638739  26.7120249  20.7613460  99.5288571  26.6721019  21.6571110
  99.3642684  26.0464964  20.2883870  93.8382983  22.1187879  26.2866041
  93.7002781  21.3868117  26.8877580  94.7487906  22.0296779  26.0050229
  96.4665283  21.8307838  25.7749721  97.1764902  21.1901030  25.7336339
  96.4234591  22.0820733  26.6975902 104.4552062  28.7675191  28.6956300
 104.3964608  28.0834411  28.0286883 104.8571580  29.5094181  28.2436926
  95.1794217  18.8173056  27.5945361  94.6431574  18.3663794  28.2466957
  94.5910926  18.9518965  26.8515825  93.4742761  35.5837105  21.4890019
  93.7139359  36.2155629  22.1669038  92.6311957  35.2325145  21.7755378
 104.4569469  26.7314775  26.9270280 103.5696248  26.3940697  27.0496679
 105.0268020  25.9997806  27.1639045  86.1098616  23.0638867  20.2513331
  86.7969656  22.7500597  19.6634347  85.9546745  23.9680232  19.9780583
  90.9133338  17.9529064  24.6798355  90.8291527  17.3454733  23.9448765
  90.0916045  18.4438082  24.6807851  97.9870623  31.3916228  23.8931523
  97.9140794  32.1971199  24.4050828  97.5448016  31.5908193  23.0679545
  97.7760402  30.6287998  17.4034345  96.9927924  31.1709678  17.4972569
  98.4753147  31.1461977  17.8028586 100.4469306  31.2903062  26.0489682
 101.1597278  31.9250526  25.9765583  99.9559335  31.3866928  25.2329684
 102.1686833  25.1954314  17.6206973 101.2343112  25.3155777  17.4511678
 102.3463502  24.2926781  17.3566983  97.6692021  18.5800010  19.7740235
  97.2989809  18.0271050  20.4621140  98.1651114  17.9758144  19.2215235
  95.4981220  29.0397505  26.8695253  96.1990679  29.6733988  27.0224647
  95.0276335  29.3812237  26.1090892 103.2982506  21.5942113  24.6947803
 102.6453956  21.8418020  24.0400256 103.6762886  20.7806251  24.3610280
 100.2589680  31.6301806  18.7975973 100.4412074  30.8123462  19.2603726
 101.0822666  31.8469498  18.3600863 100.5931845  30.5569991  16.0591022
 101.1219611  30.0462445  15.4461184 100.8560065  30.2412521  16.9236555
  99.3470079  22.3361924  31.1813840  98.6710716  22.2356053  31.8516215
 100.1697713  22.1801137  31.6449837  91.0948938  28.5733860  23.8026355
  91.6802375  27.8277548  23.9354259  90.8973776  28.8837817  24.6863019
  93.9487593  31.6085107  18.8188798  93.2797968  32.0931235  18.3352838
  93.8100463  31.8554328  19.7332176  85.6866592  21.1439460  22.5230798
  85.7250692  20.6103051  23.3167917  85.1806885  20.6174666  21.9041776
  98.0892862  33.6428851  25.4171456  98.6411170  33.8060473  26.1820541
  98.4299055  34.2333289  24.7451481  93.0657355  15.9904001  26.0193341
  93.1298681  16.8518832  25.6070738  93.0024475  15.3778002  25.2865699
  92.5409627  18.0627133  29.6666375  93.1681666  17.6804211  30.2803899
  91.6837546  17.8441335  30.0322067 102.9403736  28.4690109  31.2720110
 103.4843640  29.0820067  30.7775065 102.3590581  29.0269687  31.7887123
  89.3175170  19.8703562  15.5984730  89.6128611  18.9614241  15.5451784
  88.4163206  19.8491302  15.2765732 101.2261249  31.5910827  22.4035138
 101.1012388  30.7900566  21.8946084 101.8840340  32.0857020  21.9149108
  92.8469417  17.9459559  21.5812278  92.1256003  18.5595527  21.4419752
  93.6362673  18.4817324  21.5028924 103.2896157  29.3919847  24.0314688
 102.3426493  29.2725198  23.9593015 103.6378930  28.5042345  24.1140950
  95.6495731  15.2813986  27.8552930  96.1730132  15.5276282  28.6179239
  95.4308064  16.1134020  27.4356068  91.0463012  17.5517660  15.7224055
  90.7175718  16.6715039  15.5399161  91.4002382  17.4965329  16.6100444
 100.2942591  29.1872563  20.2319041 100.1467553  28.2589270  20.4126611
 101.1196084  29.2092654  19.7476116  94.1604835  17.8390630  16.0899533
  94.5000907  18.3676551  15.3678141  94.6076955  18.1771036  16.8658099
 103.8976712  30.0101122  21.3183913 104.8223260  29.8043983  21.1808364
 103.7292016  29.7617523  22.2273255  96.8548276  16.2227681  25.5402601
  96.5145096  15.4235494  25.9423281  96.1487282  16.5229391  24.9679434
  97.5064747  13.3076993  23.9929924  98.3290817  12.8337471  23.8708814
  97.7502811  14.0867477  24.4928610  95.0303326  19.9996114  21.8021902
  94.8847907  20.3136417  22.6946184  94.5528530  20.6181014  21.2492801
  96.8899709  16.9898662  21.8502792  96.8761278  16.0939755  21.5135090
  97.6072137  16.9969325  22.4841078  98.7425840  17.4236002  23.8955919
  98.4843618  18.3453073  23.8940250  98.2110880  17.0266436  24.5856383
 103.6872029  30.5286789  16.6746005 103.8608906  29.9633212  15.9219857
 104.1800920  31.3287684  16.4925495  89.5048988  22.5401458  24.7409564
  88.9602456  23.3161266  24.8729838  90.3828338  22.8872263  24.5828685
  90.2915010  21.6671354  27.6339720  89.5496746  21.8153990  28.2204351
  89.9707755  21.9279620  26.7706470  98.2358673  31.2087333  27.4320110
  98.5445799  30.9636479  28.3042810  99.0334155  31.4133971  26.9438981
  98.2579285  33.3625242  19.6625487  97.8184275  32.8701621  20.3558344
  99.0087402  32.8198210  19.4217562  90.7371624  29.5536783  19.6650115
  91.5629644  29.2540555  19.2848759  90.3865676  28.7844406  20.1139904
  95.7053157  28.9063251  21.7347789  95.0833166  28.2433956  21.4350016
  96.3758024  28.9324383  21.0521436  88.9380229  27.4723110  20.6239049
  88.1012137  27.0445284  20.4423050  88.9103874  27.6655553  21.5609840
  95.7777685  17.3845039  31.3280295  95.8265840  18.2607162  30.9458064
  96.3200199  16.8422432  30.7551938 106.2632530  27.9286163  30.6081432
 105.4728074  27.9110301  30.0685931 106.0265885  28.4674456  31.3630468
 106.3830405  24.7778629  27.9214160 106.4328410  24.6128636  28.8629683
 106.2744329  23.9105888  27.5312041  95.2666664  27.4567175  15.2106249
  95.4154784  28.1402639  14.5572922  96.0733107  27.4372265  15.7255705
 103.6734168  20.7609557  29.2373467 104.5744030  20.6216022  28.9457465
 103.7482142  20.9264012  30.1771644  98.0076973  18.1376412  28.0826653
  97.1380282  18.4309978  27.8109242  98.2436453  18.7216857  28.8033917
 107.8848602  27.1975570  28.1656182 107.5933410  27.5605551  29.0019643
 107.2720733  26.4842579  27.9869514 106.1335790  22.3208185  26.6336240
 106.6089912  22.5135831  25.8255091 105.2101356  22.3767371  26.3879623
  93.0219297  23.4832352  16.2167318  92.7765339  22.5794682  16.4147528
  93.1915212  23.4849503  15.2746796 100.7116007  14.3556029  25.5992074
 101.2297951  15.0917056  25.2738562 100.3571140  14.6620022  26.4338833
  92.2914944  19.2160710  13.7153480  91.5984189  19.2905065  13.0593516
  92.0466696  18.4521054  14.2374996  98.7662070  29.9515305  12.6817997
  98.1936037  30.5705492  12.2288468  99.3394863  30.5014667  13.2157919
 104.8337459  19.1973945  24.8664545 105.7854882  19.2972043  24.8876769
 104.6640910  18.4052214  25.3762630 102.8551839  16.2829528  25.0523946
 102.2601771  16.5634541  24.3570435 102.5701536  16.7723429  25.8240687
 107.3125537  22.4180065  23.9806845 107.2801857  21.4796066  24.1666529
 107.9226161  22.4964102  23.2472670  99.0347561  25.3393864  31.4834706
  99.9550570  25.5172463  31.6774753  98.9997144  24.3949909  31.3314405
  88.2529726  20.5332458  20.4087981  87.9332510  19.6797766  20.1162355
  87.7063154  20.7481036  21.1645948  92.0309633  23.2494899  24.1257487
  92.2495643  24.1812006  24.1445521  92.4435407  22.8902873  24.9112291
  96.9037498  18.8228104  33.5160236  96.8034225  19.7722461  33.4472327
  96.6859040  18.4946343  32.6436306  88.1217986  24.1535369  22.3781102
  87.4281457  23.7389322  21.8651057  88.8690977  24.1955906  21.7814521
  96.7668768  22.2525243  32.3325298  96.2835850  23.0525603  32.5389187
  96.8529708  22.2633188  31.3792742  90.0354728  24.0853623  20.2547117
  90.0125416  24.1841310  19.3029000  90.3455365  24.9318774  20.5764283
  92.6942106  26.1429778  24.3693732  93.6485359  26.1113720  24.3023663
  92.4954630  25.6820402  25.1843957  93.2841488  24.7130894  26.9364529
  94.1034377  25.2074973  26.9599367  93.5578296  23.7962862  26.9082097
  91.0492335  31.6849397  21.3863929  90.9146803  30.9249798  20.8201928
  90.6324397  32.4090297  20.9192718  94.2061461  32.5818714  21.5982372
  94.0893845  33.5264147  21.4961062  93.3853907  32.2792276  21.9868171
  88.5376402  19.0469028  27.6356726  89.1835266  18.5367982  28.1243951
  88.3293553  19.7837710  28.2100152 101.0629795  26.1149875  33.1348867
 101.9320954  26.2890528  32.7735502 100.5836546  26.9344292  33.0124596
  95.2315975  33.2346976  24.8138301  96.1343221  33.2670587  25.1304795
  95.0053345  32.3047427  24.8284636  96.9869577  31.9877963  21.4748379
  96.0365208  31.9879825  21.3612751  97.2902063  31.2410697  20.9584414
  92.8773893  16.1936645  31.7331741  93.7405355  15.8373450  31.9435065
  92.3039304  15.8550540  32.4207145 112.7222270  37.8238501  22.5394142
 113.3600680  37.7045249  21.8357482 112.6043113  38.7719345  22.5982094
 109.5311977  37.7765929  22.4755666 109.1930488  37.6606994  21.5876201
 110.4001745  37.3757094  22.4556672 105.3898792  39.6301406  18.4652557
 104.8263657  39.5391343  17.6968845 105.2751187  38.8101310  18.9455050
 110.0131760  38.9300781  28.4341872 110.0020400  38.5353579  27.5622375
 110.1752399  38.1966854  29.0275643 102.9363224  41.1252597  21.3036778
 103.7284516  40.7843422  20.8883077 103.1759874  41.2347572  22.2238931
 110.9698351  43.2972374  13.7767022 110.3186331  43.8826454  13.3901036
 111.7642714  43.8278568  13.8362060 104.8953978  40.3861511  14.1754156
 105.6684854  39.8390498  14.0367032 105.2479377  41.2505760  14.3868618
 106.7339021  41.7137893  27.3821056 106.4428887  42.6183524  27.2667722
 107.3696005  41.7554421  28.0965125 107.6595228  39.0914741  23.9722415
 108.2558800  38.8670764  23.2579378 107.7170199  38.3499487  24.5747863
 106.9516545  38.4482283  14.0096981 106.8352803  37.7727186  14.6778066
 107.0618805  37.9614657  13.1929134 109.2948086  37.9092430  17.7143671
 108.9306293  37.3823051  18.4256592 110.1515201  37.5190899  17.5410156
 115.1997386  29.1986762  24.9774937 114.8680711  30.0682173  24.7536152
 114.6043000  28.8823046  25.6568967 111.6928906  41.3999308  24.3770849
 111.3929629  42.3024347  24.2686657 111.3479965  41.1331492  25.2292002
 105.1441387  37.8513105  20.4107554 104.2191884  37.7189319  20.6185246
 105.3925800  38.6307325  20.9077496 115.0926050  33.9181849  22.0568287
 114.1842927  33.8497257  21.7627048 115.0413645  34.3953794  22.8850112
 102.5050198  37.4946379  21.2451343 102.6342579  37.7480858  22.1590755
 101.8247650  38.0874087  20.9255998 106.6749686  48.1643629  17.3441817
 106.5973715  49.1151454  17.4230298 106.0711329  47.8189501  18.0016743
 109.1666915  35.3371494  30.0003184 108.3900249  35.8965414  29.9906049
 109.8057478  35.8228277  30.5218054 107.4213288  38.1456948  29.5621151
 108.1627972  38.6841992  29.2855975 106.7150273  38.7723236  29.7192703
 112.8968627  40.2886088  28.1593313 113.3051983  39.8468499  27.4147945
 112.1745889  39.7138716  28.4127505 109.2499697  35.2258695  25.5326869
 110.0960893  35.6498108  25.6761518 109.1898335  34.5692319  26.2265433
 113.2197442  40.8487279  21.9145601 112.5906304  41.0132993  21.2121669
 112.8323104  41.2628888  22.6856565 117.0986674  41.7841717  19.2689965
 116.4137712  42.1640618  18.7186998 117.1830523  42.3937043  20.0021913
 112.3999143  32.8863063  27.1908043 112.1560075  33.6405124  26.6542319
 112.6759073  33.2648411  28.0255290 114.3537605  39.4301676  25.8685309
 114.5654501  40.0733435  25.1919690 114.3067354  38.5963992  25.4007239
 111.9563834  32.0419496  22.7721881 111.0948313  32.3400750  23.0638618
 111.9826269  32.2589895  21.8402913 108.7725404  40.5861687  19.1795687
 109.2363749  40.8649390  18.3900309 108.5082202  39.6845131  18.9968777
 105.6649485  40.1333168  22.1175450 106.2350842  40.5620437  21.4792934
 106.2557597  39.8515753  22.8159635 107.7094290  36.7084839  15.9885252
 108.4118333  37.1605883  16.4559178 107.3774918  36.0668658  16.6165145
 106.1574651  35.2996596  30.3636461 105.5273312  35.9812877  30.5971858
 106.0510739  35.1879677  29.4189599 101.4519624  34.9668392  21.2902385
 100.6618678  35.2225920  20.8142496 101.9430871  35.7816730  21.3954426
 115.4683433  42.3073631  24.0407666 116.2900877  41.9053818  23.7590348
 115.4645836  42.2041865  24.9923782 103.4034369  35.3312971  18.2485862
 102.6065532  35.4431665  18.7669358 103.1759961  35.6699623  17.3826752
 109.2340037  41.8557674  26.1968377 109.2984469  42.3178081  27.0326548
 108.5250961  41.2255039  26.3250686  99.7357327  35.2198882  23.7217376
  99.9865365  36.1045892  23.9874952 100.2716875  35.0403484  22.9492468
 108.9488054  43.5225782  16.0647357 108.8133729  44.3677317  16.4932205
 109.4897867  43.7245059  15.3013291 105.4355394  29.6017362  32.7261712
 105.0422340  29.0483560  33.4009356 106.2521534  29.9127940  33.1168230
 102.4017452  41.0401220  16.6375282 102.9141972  41.8344470  16.7880847
 103.0540165  40.3427510  16.5708883 104.2112337  44.1566976  18.7198035
 104.3878965  45.0784941  18.5319019 105.0069170  43.8425395  19.1492415
 108.3523355  31.0175241  30.3181969 109.0933068  31.6182394  30.2386431
 108.5841278  30.2752878  29.7600011 103.4964693  36.2031608  28.5960198
 103.3818208  35.3016865  28.8967297 102.6409211  36.4495305  28.2445015
 110.5756531  44.1449348  30.1947699 110.1320385  43.3585727  29.8768603
 111.2373744  44.3328499  29.5291590 105.3343652  45.6745150  24.7208377
 105.8851077  45.5462213  23.9485371 104.4955128  45.9740039  24.3703270
 112.6737769  44.4252148  28.2229100 112.6556244  45.2461029  27.7309369
 113.5957689  44.3006223  28.4479241 109.1310823  41.9396278  29.0652609
 109.6639160  41.1784566  28.8351917 108.6024904  41.6469929  29.8076763
 100.3666369  39.3689874  17.4134852 101.2041591  39.7786882  17.1968560
 100.5444636  38.4289316  17.3835046 111.3777058  29.4160999  22.5595484
 110.8741854  29.3791134  21.7463289 111.6707665  30.3253742  22.6192140
 107.6219944  29.4999729  21.5661665 108.4872941  29.3042537  21.2067555
 107.6897453  29.2710080  22.4931022 110.4963536  41.0682270  16.5771421
 109.9684897  40.3335030  16.2644658 109.9951038  41.8456946  16.3311389
 115.4756382  39.2631291  21.6938467 114.8180056  39.9530552  21.7818596
 116.2796781  39.6527723  22.0372453 105.2282263  31.7301936  18.9378032
 105.8026015  31.5077118  18.2051225 105.8153246  31.7990631  19.6906633
 111.5484215  47.5959988  12.5003080 110.8745914  47.8991684  13.1088038
 111.9350037  48.3989068  12.1508537 110.7642671  35.0925119  21.9900749
 109.8465233  35.3140066  21.8322437 111.1802815  35.1671429  21.1312457
 115.0523637  42.5981665  17.8721551 114.5985964  41.7572575  17.9286742
 114.4217604  43.2343063  18.2096331 113.4956576  44.4358161  18.8071369
 113.7879550  44.9963219  18.0883735 114.0055197  44.7286722  19.5624529
 100.3892540  36.7080589  18.0845586 100.1916940  36.1149950  17.3596652
  99.8339204  36.4032800  18.8021525 108.3689263  36.6003696  20.2040179
 108.4237873  35.6477532  20.1282656 107.5580465  36.7563135  20.6881477
 106.3081623  35.2180756  17.9630558 105.4949489  35.5174926  18.3695750
 106.8040618  34.8236444  18.6805040 108.4590201  45.2138513  19.8964823
 108.4166380  45.4399359  18.9673355 109.3752900  44.9801887  20.0450624
 111.9055835  35.6822580  26.7945452 112.2605223  35.9094053  27.6539918
 112.5527966  36.0140957  26.1722707 105.7995698  32.7899111  23.5791793
 106.4395077  32.6487870  22.8814756 104.9673229  32.5033625  23.2030395
 117.6622952  40.8717543  22.5106052 118.0959458  40.7792832  23.3589106
 118.3754532  40.8475043  21.8726068 106.5756002  42.0901542  19.6926785
 107.3696601  41.5951862  19.4909360 105.8647694  41.5619405  19.3294491
 111.3950846  44.4719637  24.0439153 111.4487869  45.0410573  24.8116869
 110.5265628  44.6421522  23.6793190 102.8838765  36.2344623  15.7686538
 101.9536354  36.1729079  15.9856500 102.9796237  35.7120576  14.9723179
 102.8024315  32.7599436  18.3564780 103.0631132  33.6744769  18.2473940
 103.6241487  32.2923879  18.5061393 104.2749240  34.1737193  25.5263604
 104.9472293  33.9654555  24.8776253 103.4479026  33.9759279  25.0868837
 118.5238501  40.9141244  25.0438938 118.7174391  41.8187054  25.2898213
 118.4239119  40.4548663  25.8777523 110.1774812  30.7999134  27.5429265
 109.5302727  31.4989084  27.4493742 110.9475827  31.2335278  27.9105513
 113.5853610  41.0647986  30.6179818 113.4339116  40.8358538  29.7009902
 113.5758289  42.0218588  30.6311163 110.3538946  38.6379899  25.6026085
 111.2831006  38.7891059  25.4295052 109.9329976  38.7263920  24.7474731
 109.1527278  42.6630564  23.3724622 109.0138364  42.2949348  24.2450561
 108.3641874  43.1778203  23.2008580 109.7475430  47.7639660  14.7150159
 109.9227186  47.2927703  15.5295782 109.0608218  48.3905426  14.9431420
 110.7032493  42.0412166  20.7613460 110.3682326  42.0012936  21.6571110
 110.2036439  41.3756882  20.2883870 104.6776737  37.4479796  26.2866041
 104.5396535  36.7160035  26.8877580 105.5881661  37.3588696  26.0050229
 107.3059038  37.1599756  25.7749721 108.0158656  36.5192948  25.7336339
 107.2628346  37.4112650  26.6975902 115.2945816  44.0967109  28.6956300
 115.2358363  43.4126329  28.0286883 115.6965335  44.8386099  28.2436926
 106.0187972  34.1464973  27.5945361 105.4825329  33.6955712  28.2466957
 105.4304680  34.2810882  26.8515825 104.3136515  50.9129023  21.4890019
 104.5533113  51.5447547  22.1669038 103.4705712  50.5617063  21.7755378
 115.2963224  42.0606693  26.9270280 114.4090002  41.7232615  27.0496679
 115.8661775  41.3289724  27.1639045  96.9492371  38.3930785  20.2513331
  97.6363411  38.0792515  19.6634347  96.7940500  39.2972149  19.9780583
 101.7527093  33.2820981  24.6798355 101.6685282  32.6746651  23.9448765
 100.9309799  33.7730000  24.6807851 108.8264377  46.7208145  23.8931523
 108.7534549  47.5263117  24.4050828 108.3841770  46.9200111  23.0679545
 108.6154157  45.9579915  17.4034345 107.8321679  46.5001595  17.4972569
 109.3146902  46.4753895  17.8028586 111.2863061  46.6194979  26.0489682
 111.9991033  47.2542444  25.9765583 110.7953089  46.7158845  25.2329684
 113.0080588  40.5246232  17.6206973 112.0736866  40.6447694  17.4511678
 113.1857256  39.6218699  17.3566983 108.5085776  33.9091928  19.7740235
 108.1383563  33.3562968  20.4621140 109.0044868  33.3050061  19.2215235
 106.3374974  44.3689423  26.8695253 107.0384434  45.0025906  27.0224647
 105.8670089  44.7104154  26.1090892 114.1376260  36.9234030  24.6947803
 113.4847710  37.1709938  24.0400256 114.5156640  36.1098168  24.3610280
 111.0983434  46.9593723  18.7975973 111.2805829  46.1415379  19.2603726
 111.9216420  47.1761416  18.3600863 111.4325600  45.8861908  16.0591022
 111.9613366  45.3754363  15.4461184 111.6953819  45.5704439  16.9236555
 110.1863833  37.6653841  31.1813840 109.5104470  37.5647971  31.8516215
 111.0091467  37.5093055  31.6449837 101.9342692  43.9025778  23.8026355
 102.5196129  43.1569466  23.9354259 101.7367531  44.2129734  24.6863019
 104.7881347  46.9377025  18.8188798 104.1191723  47.4223153  18.3352838
 104.6494217  47.1846246  19.7332176  96.5260347  36.4731378  22.5230798
  96.5644446  35.9394969  23.3167917  96.0200640  35.9466584  21.9041776
 108.9286616  48.9720769  25.4171456 109.4804924  49.1352390  26.1820541
 109.2692810  49.5625207  24.7451481 103.9051109  31.3195918  26.0193341
 103.9692436  32.1810749  25.6070738 103.8418230  30.7069920  25.2865699
 103.3803382  33.3919051  29.6666375 104.0075421  33.0096128  30.2803899
 102.5231301  33.1733253  30.0322067 113.7797490  43.7982026  31.2720110
 114.3237394  44.4111984  30.7775065 113.1984335  44.3561605  31.7887123
 100.1568925  35.1995480  15.5984730 100.4522366  34.2906159  15.5451784
  99.2556960  35.1783220  15.2765732 112.0655003  46.9202744  22.4035138
 111.9406143  46.1192484  21.8946084 112.7234094  47.4148938  21.9149108
 103.6863172  33.2751477  21.5812278 102.9649757  33.8887444  21.4419752
 104.4756427  33.8109242  21.5028924 114.1289912  44.7211764  24.0314688
 113.1820247  44.6017115  23.9593015 114.4772685  43.8334262  24.1140950
 106.4889485  30.6105903  27.8552930 107.0123887  30.8568200  28.6179239
 106.2701818  31.4425938  27.4356068 101.8856766  32.8809578  15.7224055
 101.5569472  32.0006957  15.5399161 102.2396137  32.8257246  16.6100444
 111.1336345  44.5164481  20.2319041 110.9861307  43.5881188  20.4126611
 111.9589839  44.5384571  19.7476116 104.9998589  33.1682548  16.0899533
 105.3394662  33.6968469  15.3678141 105.4470710  33.5062954  16.8658099
 114.7370467  45.3393039  21.3183913 115.6617014  45.1335901  21.1808364
 114.5685770  45.0909440  22.2273255 107.6942030  31.5519598  25.5402601
 107.3538850  30.7527411  25.9423281 106.9881036  31.8521309  24.9679434
 108.3458502  28.6368911  23.9929924 109.1684571  28.1629389  23.8708814
 108.5896565  29.4159395  24.4928610 105.8697081  35.3288031  21.8021902
 105.7241661  35.6428334  22.6946184 105.3922284  35.9472932  21.2492801
 107.7293464  32.3190579  21.8502792 107.7155032  31.4231673  21.5135090
 108.4465892  32.3261243  22.4841078 109.5819594  32.7527920  23.8955919
 109.3237372  33.6744990  23.8940250 109.0504635  32.3558354  24.5856383
 114.5265783  45.8578707  16.6746005 114.7002661  45.2925129  15.9219857
 115.0194674  46.6579602  16.4925495 100.3442743  37.8693376  24.7409564
  99.7996211  38.6453184  24.8729838 101.2222093  38.2164180  24.5828685
 101.1308765  36.9963272  27.6339720 100.3890501  37.1445907  28.2204351
 100.8101509  37.2571538  26.7706470 109.0752427  46.5379250  27.4320110
 109.3839554  46.2928397  28.3042810 109.8727909  46.7425889  26.9438981
 109.0973039  48.6917160  19.6625487 108.6578030  48.1993539  20.3558344
 109.8481156  48.1490128  19.4217562 101.5765378  44.8828701  19.6650115
 102.4023398  44.5832473  19.2848759 101.2259430  44.1136323  20.1139904
 106.5446912  44.2355169  21.7347789 105.9226921  43.5725874  21.4350016
 107.2151778  44.2616301  21.0521436  99.7773983  42.8015027  20.6239049
  98.9405892  42.3737202  20.4423050  99.7497629  42.9947471  21.5609840
 106.6171439  32.7136957  31.3280295 106.6659595  33.5899080  30.9458064
 107.1593953  32.1714350  30.7551938 117.1026285  43.2578080  30.6081432
 116.3121828  43.2402219  30.0685931 116.8659639  43.7966374  31.3630468
 117.2224160  40.1070547  27.9214160 117.2722165  39.9420554  28.8629683
 117.1138083  39.2397806  27.5312041 106.1060418  42.7859092  15.2106249
 106.2548539  43.4694557  14.5572922 106.9126862  42.7664182  15.7255705
 114.5127922  36.0901475  29.2373467 115.4137785  35.9507940  28.9457465
 114.5875897  36.2555930  30.1771644 108.8470727  33.4668329  28.0826653
 107.9774037  33.7601895  27.8109242 109.0830208  34.0508774  28.8033917
 118.7242357  42.5267488  28.1656182 118.4327165  42.8897469  29.0019643
 118.1114488  41.8134496  27.9869514 116.9729545  37.6500103  26.6336240
 117.4483666  37.8427749  25.8255091 116.0495110  37.7059289  26.3879623
 103.8613051  38.8124270  16.2167318 103.6159093  37.9086600  16.4147528
 104.0308966  38.8141420  15.2746796 111.5509761  29.6847946  25.5992074
 112.0691705  30.4208973  25.2738562 111.1964894  29.9911940  26.4338833
 103.1308699  34.5452628  13.7153480 102.4377944  34.6196983  13.0593516
 102.8860451  33.7812971  14.2374996 109.6055824  45.2807223  12.6817997
 109.0329791  45.8997410  12.2288468 110.1788618  45.8306584  13.2157919
 115.6731214  34.5265863  24.8664545 116.6248637  34.6263961  24.8876769
 115.5034664  33.7344131  25.3762630 113.6945593  31.6121446  25.0523946
 113.0995525  31.8926459  24.3570435 113.4095290  32.1015347  25.8240687
 118.1519292  37.7471983  23.9806845 118.1195612  36.8087983  24.1666529
 118.7619915  37.8256019  23.2472670 109.8741315  40.6685782  31.4834706
 110.7944324  40.8464381  31.6774753 109.8390898  39.7241827  31.3314405
  99.0923480  35.8624375  20.4087981  98.7726264  35.0089684  20.1162355
  98.5456908  36.0772953  21.1645948 102.8703388  38.5786816  24.1257487
 103.0889397  39.5103924  24.1445521 103.2829161  38.2194791  24.9112291
 107.7431253  34.1520022  33.5160236 107.6427980  35.1014379  33.4472327
 107.5252795  33.8238261  32.6436306  98.9611740  39.4827287  22.3781102
  98.2675211  39.0681240  21.8651057  99.7084731  39.5247823  21.7814521
 107.6062523  37.5817161  32.3325298 107.1229605  38.3817521  32.5389187
 107.6923462  37.5925106  31.3792742 100.8748483  39.4145541  20.2547117
 100.8519171  39.5133228  19.3029000 101.1849119  40.2610691  20.5764283
 103.5335860  41.4721696  24.3693732 104.4879114  41.4405638  24.3023663
 103.3348384  41.0112319  25.1843957 104.1235243  40.0422812  26.9364529
 104.9428132  40.5366890  26.9599367 104.3972050  39.1254780  26.9082097
 101.8886089  47.0141315  21.3863929 101.7540557  46.2541716  20.8201928
 101.4718151  47.7382215  20.9192718 105.0455215  47.9110632  21.5982372
 104.9287599  48.8556065  21.4961062 104.2247661  47.6084194  21.9868171
  99.3770157  34.3760946  27.6356726 100.0229020  33.8659900  28.1243951
  99.1687308  35.1129627  28.2100152 111.9023549  41.4441793  33.1348867
 112.7714709  41.6182445  32.7735502 111.4230300  42.2636210  33.0124596
 106.0709729  48.5638894  24.8138301 106.9736976  48.5962504  25.1304795
 105.8447099  47.6339345  24.8284636 107.8263331  47.3169881  21.4748379
 106.8758962  47.3171742  21.3612751 108.1295817  46.5702615  20.9584414
 103.7167648  31.5228563  31.7331741 104.5799109  31.1665367  31.9435065
 103.1433058  31.1842457  32.4207145 120.3705731  53.1057847  22.4755666
 120.0324243  52.9898912  21.5876201 121.2395499  52.7049012  22.4556672
 116.2292547  54.9593323  18.4652557 115.6657412  54.8683260  17.6968845
 116.1144942  54.1393228  18.9455050 120.8525514  54.2592699  28.4341872
 120.8414155  53.8645497  27.5622375 121.0146153  53.5258771  29.0275643
 113.7756979  56.4544515  21.3036778 114.5678271  56.1135340  20.8883077
 114.0153629  56.5639490  22.2238931 115.7347733  55.7153428  14.1754156
 116.5078609  55.1682415  14.0367032 116.0873131  56.5797678  14.3868618
 117.5732775  57.0429811  27.3821056 117.2822641  57.9475441  27.2667722
 118.2089760  57.0846338  28.0965125 118.4988982  54.4206659  23.9722415
 119.0952554  54.1962682  23.2579378 118.5563954  53.6791405  24.5747863
 117.7910299  53.7774200  14.0096981 117.6746557  53.1019104  14.6778066
 117.9012559  53.2906574  13.1929134 120.1341840  53.2384348  17.7143671
 119.7700047  52.7114968  18.4256592 120.9908956  52.8482817  17.5410156
 115.9835142  53.1805023  20.4107554 115.0585638  53.0481237  20.6185246
 116.2319555  53.9599242  20.9077496 113.3443953  52.8238297  21.2451343
 113.4736334  53.0772775  22.1590755 112.6641404  53.4166005  20.9255998
 117.5143440  63.4935546  17.3441817 117.4367470  64.4443372  17.4230298
 116.9105084  63.1481419  18.0016743 120.0060670  50.6663412  30.0003184
 119.2294004  51.2257332  29.9906049 120.6451233  51.1520195  30.5218054
 118.2607042  53.4748865  29.5621151 119.0021726  54.0133909  29.2855975
 117.5544028  54.1015154  29.7192703 120.0893452  50.5550612  25.5326869
 120.9354647  50.9790026  25.6761518 120.0292089  49.8984237  26.2265433
 119.6119158  55.9153604  19.1795687 120.0757504  56.1941307  18.3900309
 119.3475956  55.0137049  18.9968777 116.5043239  55.4625086  22.1175450
 117.0744596  55.8912354  21.4792934 117.0951351  55.1807671  22.8159635
 118.5488044  52.0376757  15.9885252 119.2512088  52.4897800  16.4559178
 118.2168673  51.3960576  16.6165145 116.9968406  50.6288513  30.3636461
 116.3667066  51.3104794  30.5971858 116.8904494  50.5171595  29.4189599
 112.2913378  50.2960309  21.2902385 111.5012432  50.5517838  20.8142496
 112.7824626  51.1108647  21.3954426 114.2428124  50.6604889  18.2485862
 113.4459287  50.7723583  18.7669358 114.0153716  50.9991541  17.3826752
 120.0733791  57.1849592  26.1968377 120.1378224  57.6469999  27.0326548
 119.3644715  56.5546957  26.3250686 110.5751081  50.5490800  23.7217376
 110.8259120  51.4337810  23.9874952 111.1110630  50.3695401  22.9492468
 119.7881809  58.8517699  16.0647357 119.6527484  59.6969235  16.4932205
 120.3291621  59.0536977  15.3013291 116.2749149  44.9309279  32.7261712
 115.8816094  44.3775478  33.4009356 117.0915289  45.2419858  33.1168230
 113.2411206  56.3693137  16.6375282 113.7535727  57.1636388  16.7880847
 113.8933919  55.6719428  16.5708883 115.0506091  59.4858894  18.7198035
 115.2272719  60.4076858  18.5319019 115.8462925  59.1717313  19.1492415
 119.1917110  46.3467158  30.3181969 119.9326823  46.9474312  30.2386431
 119.4235032  45.6044796  29.7600011 114.3358448  51.5323526  28.5960198
 114.2211963  50.6308783  28.8967297 113.4802965  51.7787222  28.2445015
 116.1737407  61.0037068  24.7208377 116.7244832  60.8754131  23.9485371
 115.3348882  61.3031957  24.3703270 119.9704578  57.2688195  29.0652609
 120.5032914  56.5076484  28.8351917 119.4418659  56.9761847  29.8076763
 111.2060123  54.6981792  17.4134852 112.0435345  55.1078800  17.1968560
 111.3838391  53.7581234  17.3835046 118.4613699  44.8291646  21.5661665
 119.3266696  44.6334455  21.2067555 118.5291208  44.6001998  22.4931022
 121.3357290  56.3974188  16.5771421 120.8078652  55.6626947  16.2644658
 120.8344793  57.1748864  16.3311389 116.0676018  47.0593854  18.9378032
 116.6419770  46.8369036  18.2051225 116.6547000  47.1282549  19.6906633
 111.2286294  52.0372507  18.0845586 111.0310694  51.4441868  17.3596652
 110.6732958  51.7324717  18.8021525 119.2083018  51.9295614  20.2040179
 119.2631628  50.9769450  20.1282656 118.3974220  52.0855053  20.6881477
 117.1475378  50.5472673  17.9630558 116.3343243  50.8466844  18.3695750
 117.6434372  50.1528362  18.6805040 119.2983956  60.5430430  19.8964823
 119.2560135  60.7691277  18.9673355 120.2146655  60.3093805  20.0450624
 116.6389453  48.1191029  23.5791793 117.2788832  47.9779788  22.8814756
 115.8066983  47.8325542  23.2030395 117.4149756  57.4193459  19.6926785
 118.2090355  56.9243779  19.4909360 116.7041449  56.8911322  19.3294491
 113.7232520  51.5636541  15.7686538 112.7930108  51.5020996  15.9856500
 113.8189992  51.0412494  14.9723179 113.6418069  48.0891354  18.3564780
 113.9024886  49.0036687  18.2473940 114.4635241  47.6215796  18.5061393
 115.1142994  49.5029111  25.5263604 115.7866048  49.2946473  24.8776253
 114.2872781  49.3051197  25.0868837 119.9921032  57.9922481  23.3724622
 119.8532118  57.6241266  24.2450561 119.2035629  58.5070121  23.2008580
 120.5869184  63.0931578  14.7150159 120.7620940  62.6219621  15.5295782
 119.9001972  63.7197344  14.9431420 115.5170492  52.7771714  26.2866041
 115.3790290  52.0451953  26.8877580 116.4275415  52.6880614  26.0050229
 118.1452792  52.4891673  25.7749721 118.8552411  51.8484865  25.7336339
 118.1022100  52.7404568  26.6975902 116.8581726  49.4756891  27.5945361
 116.3219083  49.0247630  28.2466957 116.2698435  49.6102800  26.8515825
 115.1530270  66.2420940  21.4890019 115.3926868  66.8739465  22.1669038
 114.3099466  65.8908980  21.7755378 107.7886125  53.7222702  20.2513331
 108.4757165  53.4084432  19.6634347 107.6334254  54.6264067  19.9780583
 112.5920847  48.6112899  24.6798355 112.5079036  48.0038568  23.9448765
 111.7703554  49.1021917  24.6807851 119.6658132  62.0500063  23.8931523
 119.5928303  62.8555034  24.4050828 119.2235525  62.2492029  23.0679545
 119.4547911  61.2871833  17.4034345 118.6715433  61.8293513  17.4972569
 120.1540656  61.8045813  17.8028586 119.3479530  49.2383845  19.7740235
 118.9777318  48.6854886  20.4621140 119.8438623  48.6341979  19.2215235
 117.1768729  59.6981340  26.8695253 117.8778188  60.3317823  27.0224647
 116.7063844  60.0396072  26.1090892 112.7736447  59.2317695  23.8026355
 113.3589884  58.4861383  23.9354259 112.5761285  59.5421652  24.6863019
 115.6275102  62.2668943  18.8188798 114.9585477  62.7515070  18.3352838
 115.4887972  62.5138163  19.7332176 107.3654101  51.8023296  22.5230798
 107.4038201  51.2686886  23.3167917 106.8594394  51.2758501  21.9041776
 119.7680371  64.3012686  25.4171456 120.3198679  64.4644308  26.1820541
 120.1086564  64.8917124  24.7451481 114.7444864  46.6487836  26.0193341
 114.8086190  47.5102667  25.6070738 114.6811984  46.0361838  25.2865699
 114.2197136  48.7210969  29.6666375 114.8469175  48.3388046  30.2803899
 113.3625055  48.5025171  30.0322067 110.9962679  50.5287398  15.5984730
 111.2916120  49.6198076  15.5451784 110.0950715  50.5075137  15.2765732
 114.5256926  48.6043394  21.5812278 113.8043512  49.2179362  21.4419752
 115.3150182  49.1401159  21.5028924 117.3283240  45.9397821  27.8552930
 117.8517641  46.1860117  28.6179239 117.1095573  46.7717856  27.4356068
 112.7250521  48.2101495  15.7224055 112.3963227  47.3298874  15.5399161
 113.0789891  48.1549164  16.6100444 115.8392344  48.4974465  16.0899533
 116.1788416  49.0260387  15.3678141 116.2864464  48.8354871  16.8658099
 118.5335785  46.8811516  25.5402601 118.1932605  46.0819329  25.9423281
 117.8274791  47.1813227  24.9679434 119.1852256  43.9660828  23.9929924
 120.0078326  43.4921307  23.8708814 119.4290320  44.7451312  24.4928610
 116.7090835  50.6579949  21.8021902 116.5635416  50.9720252  22.6946184
 116.2316039  51.2764849  21.2492801 118.5687218  47.6482497  21.8502792
 118.5548787  46.7523590  21.5135090 119.2859646  47.6553161  22.4841078
 120.4213349  48.0819837  23.8955919 120.1631127  49.0036908  23.8940250
 119.8898389  47.6850272  24.5856383 111.1836497  53.1985293  24.7409564
 110.6389965  53.9745101  24.8729838 112.0615847  53.5456098  24.5828685
 111.9702519  52.3255190  27.6339720 111.2284255  52.4737825  28.2204351
 111.6495263  52.5863455  26.7706470 119.9146182  61.8671168  27.4320110
 120.2233308  61.6220315  28.3042810 120.7121664  62.0717806  26.9438981
 119.9366794  64.0209078  19.6625487 119.4971784  63.5285456  20.3558344
 120.6874911  63.4782045  19.4217562 112.4159133  60.2120618  19.6650115
 113.2417153  59.9124390  19.2848759 112.0653185  59.4428241  20.1139904
 117.3840666  59.5647087  21.7347789 116.7620675  58.9017792  21.4350016
 118.0545533  59.5908219  21.0521436 110.6167738  58.1306945  20.6239049
 109.7799646  57.7029119  20.4423050 110.5891383  58.3239388  21.5609840
 117.4565194  48.0428875  31.3280295 117.5053349  48.9190998  30.9458064
 117.9987708  47.5006268  30.7551938 116.9454173  58.1151010  15.2106249
 117.0942293  58.7986474  14.5572922 117.7520616  58.0956100  15.7255705
 119.6864482  48.7960247  28.0826653 118.8167791  49.0893813  27.8109242
 119.9223962  49.3800692  28.8033917 114.7006806  54.1416188  16.2167318
 114.4552848  53.2378518  16.4147528 114.8702720  54.1433338  15.2746796
 113.9702453  49.8744545  13.7153480 113.2771698  49.9488900  13.0593516
 113.7254205  49.1104889  14.2374996 120.4449578  60.6099140  12.6817997
 119.8723546  61.2289328  12.2288468 121.0182372  61.1598502  13.2157919
 109.9317235  51.1916293  20.4087981 109.6120019  50.3381601  20.1162355
 109.3850663  51.4064871  21.1645948 113.7097142  53.9078734  24.1257487
 113.9283152  54.8395842  24.1445521 114.1222916  53.5486708  24.9112291
 118.5825007  49.4811940  33.5160236 118.4821734  50.4306297  33.4472327
 118.3646549  49.1530179  32.6436306 109.8005495  54.8119204  22.3781102
 109.1068966  54.3973157  21.8651057 110.5478486  54.8539741  21.7814521
 118.4456277  52.9109079  32.3325298 117.9623359  53.7109439  32.5389187
 118.5317216  52.9217023  31.3792742 111.7142237  54.7437458  20.2547117
 111.6912925  54.8425146  19.3029000 112.0242874  55.5902609  20.5764283
 114.3729615  56.8013613  24.3693732 115.3272868  56.7697556  24.3023663
 114.1742139  56.3404237  25.1843957 114.9628997  55.3714729  26.9364529
 115.7821886  55.8658808  26.9599367 115.2365805  54.4546697  26.9082097
 112.7279844  62.3433233  21.3863929 112.5934312  61.5833634  20.8201928
 112.3111906  63.0674133  20.9192718 115.8848970  63.2402550  21.5982372
 115.7681354  64.1847982  21.4961062 115.0641416  62.9376111  21.9868171
 110.2163911  49.7052863  27.6356726 110.8622775  49.1951817  28.1243951
 110.0081062  50.4421545  28.2100152 116.9103484  63.8930812  24.8138301
 117.8130730  63.9254422  25.1304795 116.6840854  62.9631263  24.8284636
 118.6657086  62.6461798  21.4748379 117.7152717  62.6463660  21.3612751
 118.9689572  61.8994533  20.9584414 114.5561402  46.8520480  31.7331741
 115.4192864  46.4957285  31.9435065 113.9826813  46.5134375  32.4207145
 118.6279880  69.0514620  20.2513331 119.3150920  68.7376350  19.6634347
 118.4728009  69.9555985  19.9780583 118.2047856  67.1315213  22.5230798
 118.2431955  66.5978804  23.3167917 117.6988149  66.6050419  21.9041776
 121.4561492  73.4598863  20.6239049 120.6193401  73.0321037  20.4423050
 121.4285138  73.6531306  21.5609840 120.7710989  66.5208211  20.4087981
 120.4513773  65.6673519  20.1162355 120.2244417  66.7356789  21.1645948
 120.6399249  70.1411122  22.3781102 119.9462720  69.7265075  21.8651057
 121.3872240  70.1831659  21.7814521   4.3258119  53.9804302 100.0420795
   3.5721828  53.4111701  99.8864799   4.4605661  53.9466967 100.9891429
   0.6906732  55.4212291 100.3386909   1.5253623  55.8602095 100.5024469
   0.8265861  54.9450944  99.5195155   4.7364535  54.1379912 102.7741039
   5.4667923  53.8765201 103.3348742   4.1271480  53.4008634 102.8143107
   2.8179832  52.2787775 103.3715490   2.0912995  52.1443740 102.7631982
   2.4027119  52.5864604 104.1772208   2.7428699  51.8065828  99.4992343
   2.1828257  51.8759017 100.2723905   2.1372203  51.6306813  98.7791839
   4.3284718  68.4822342 102.1922299   4.9663128  68.3629089 101.4885639
   4.2105561  69.4303186 102.2510251   1.1374424  68.4349770 102.1283823
   0.7992936  68.3190835 101.2404358   2.0064192  68.0340935 102.1084829
   2.5760799  73.9556214  93.4295179   1.9248778  74.5410295  93.0429193
   3.3705161  74.4862409  93.4890217   3.8825986  66.2073796  99.2675507
   4.6689076  65.7893219  98.9165924   4.1464691  67.1119888  99.4357155
   4.0536064  71.6446646  93.9664163   3.4181897  71.7181273  94.6785068
   3.7233470  72.2340245  93.2883243   9.2834413  66.1449029 100.1708485
  10.0159585  65.5748246 100.4046315   8.5273769  65.7570629 100.6114991
   0.9010533  68.5676271  97.3671828   0.5368740  68.0406892  98.0784749
   1.7577649  68.1774740  97.1938313   6.8059834  59.8570603 104.6303094
   6.4743159  60.7266014 104.4064309   6.2105447  59.5406887 105.3097124
   3.2991353  72.0583149 104.0299007   2.9992076  72.9608188 103.9214814
   2.9542413  71.7915332 104.8820159   6.6988497  64.5765689 101.7096444
   5.7905374  64.5081098 101.4155205   6.6476093  65.0537634 102.5378269
   8.5650143  62.7782128 103.4874318   7.9224524  63.0714661 102.8414112
   8.0605072  62.6635048 104.2927514   6.2190307  66.5245301  94.1760177
   7.1308163  66.7572688  94.0007875   5.7099954  67.1082345  93.6135256
   0.8562145  65.8842536 105.1855027   1.7023340  66.3081949 105.3289676
   0.7960783  65.2276160 105.8793590   4.8259889  71.5071119 101.5673758
   4.1968752  71.6716833 100.8649826   4.4385552  71.9212729 102.3384723
   8.7049121  72.4425557  98.9218122   8.0200160  72.8224459  98.3715156
   8.7892971  73.0520884  99.6550070   4.0061590  63.5446904 106.8436200
   3.7622522  64.2988964 106.3070476   4.2821521  63.9232251 107.6783447
   5.9600053  70.0885516 105.5213466   6.1716948  70.7317276 104.8447847
   5.9129801  69.2547833 105.0535396   3.5626282  62.7003337 102.4250038
   2.7010761  62.9984590 102.7166775   3.5888717  62.9173736 101.4931071
   7.0745881  72.9657472 103.6935823   7.8963325  72.5637659 103.4118505
   7.0708284  72.8625706 104.6451939  15.1651874  69.3096220 100.0420795
  14.4115582  68.7403618  99.8864799  15.2999415  69.2758885 100.9891429
   3.9042966  57.7040184 104.2474407   3.5607235  58.5941826 104.1713518
   4.2721928  57.5141842 103.3843992   3.8693248  67.6948795  92.7546843
   3.3539872  68.4653400  92.9935230   3.5970557  67.0213932  93.3779904
   1.4540359  62.5398496  97.8132081   0.5981956  62.1505347  97.6337720
   1.8667311  62.6190457  96.9531866   2.9839506  60.0744839 102.2123641
   2.4804302  60.0374975 101.3991446   3.2770113  60.9837582 102.2720297
   8.8427522  70.4481150  94.6900016   8.0656965  70.1092310  94.2455178
   9.5219003  70.4533773  94.0154981   3.6579551  65.5675888  94.5806624
   3.3529687  65.8822037  95.4316767   4.6109994  65.6457307  94.6233957
   2.1025983  71.7266111  96.2299578   1.5747345  70.9918870  95.9172815
   1.6013486  72.5040787  95.9839546   7.0818829  69.9215131 101.3466624
   6.4242504  70.6114393 101.4346753   7.8859229  70.3111563 101.6900610
   5.8924288  68.2759504  99.3970566   6.4056170  68.9089496  99.8992275
   6.5425512  67.6760700  99.0313926   3.1546662  78.2543828  92.1531237
   2.4808361  78.5575525  92.7616195   3.5412484  79.0572909  91.8036694
   2.3705119  65.7508960 101.6428906   1.4527680  65.9723907 101.4850594
   2.7865263  65.8255270 100.7840614   3.1540167  67.1500375  96.7731587
   3.9011986  67.6621772  96.4638709   3.4231756  66.8284428  97.6335980
   1.4266817  69.6458916  93.7558541   0.5178036  69.3617949  93.8531011
   1.4561901  70.0657995  92.8961848   6.6586084  73.2565505  97.5249708
   6.2048411  72.4156415  97.5814899   6.0280051  73.8926904  97.8624489
   5.6019004  64.1857492  98.7550376   4.8641761  63.6734878  99.0860618
   5.8545777  63.7457873  97.9433653   5.1019024  75.0942002  98.4599527
   5.3941998  75.6547059  97.7411892   5.6117644  75.3870563  99.2152686
   5.7030631  56.9633744  99.3492145   6.0089508  56.1031107  99.0618060
   6.4283236  57.5551364  99.1491139   1.1242905  71.1867660  91.0946619
   0.6862335  70.4703519  90.6352257   1.8653346  71.4143774  90.5331711
   3.5118283  66.3406421 106.4473609   3.8667670  66.5677894 107.3068075
   4.1590414  66.6724798 105.8250864   9.2416020  69.4624857  97.1522938
   9.1033918  69.6526453  96.2244127   8.8852238  70.2244239  97.6090989
   9.2685399  71.5301384 102.1634209   9.7021906  71.4376673 103.0117263
   9.9816980  71.5058884 101.5254225  10.1300949  71.5725084 104.6967095
  10.3236839  72.4770895 104.9426370  10.0301567  71.1132503 105.5305680
   1.7837259  61.4582975 107.1957422   1.1365174  62.1572925 107.1021899
   2.5538275  61.8919119 107.5633670   1.9601394  69.2963740 105.2554242
   2.8893454  69.4474899 105.0823209   1.5392424  69.3847761 104.4002888
   1.3537878  78.4223501  94.3678316   1.5289633  77.9511544  95.1823939
   0.6670666  79.0489267  94.5959577   2.3094941  72.6996007 100.4141617
   1.9744773  72.6596777 101.3099267   1.8098886  72.0340723  99.9412028
   5.2454132  70.0452041  90.6878677   4.6283303  69.3198869  90.5911730
   4.7770621  70.8061402  90.3445751   6.9025671  72.7190534 106.5798437
   6.0152450  72.3816455 106.7024836   7.4724222  71.9873565 106.8167202
   3.5313254  62.4258385  99.6996707   4.0281954  61.6728348  99.3797777
   2.7600236  62.4622702  99.1339916  11.3843012  68.1298751 101.3414999
  11.3732888  69.0123466 100.9708932  10.5160391  67.7770302 101.1469536
   4.6143035  71.1830073  97.2735131   3.6799314  71.3031535  97.1039835
   4.7919704  70.2802539  97.0095140   8.0015586  67.0247392  97.8085165
   8.4676039  67.8575384  97.7345467   8.4523087  66.5592373  98.5130423
   6.0691818  73.3691213  94.8071317   6.3451661  73.2547808  95.7165191
   5.1996316  72.9708698  94.7683490   5.9732249  59.3927979 101.8476066
   5.0595329  59.6232206 102.0158273   6.4025351  59.4766423 102.6990098
   5.7438708  67.5817871 104.3475960   5.0910158  67.8293778 103.6928413
   6.1219088  66.7682009 104.0138437   2.7045882  77.6177564  98.4504130
   2.8868276  76.7999220  98.9131883   3.5278868  77.8345256  98.0129020
   3.0388047  76.5445749  95.7119179   3.5675813  76.0338204  95.0989341
   3.3016267  76.2288279  96.5764712   3.6717451  77.5786585 102.0563295
   3.5468590  76.7776325 101.5474241   4.3296542  78.0732778 101.5677265
   5.7352359  75.3795605 103.6842845   4.7882695  75.2600956 103.6121172
   6.0835132  74.4918103 103.7669107   2.7398793  75.1748321  99.8847198
   2.5923755  74.2465029 100.0654768   3.5652286  75.1968412  99.4004273
   6.3432914  75.9976880 100.9712070   7.2679462  75.7919741 100.8336521
   6.1748218  75.7493281 101.8801412   2.7360307  63.0286159  94.8779315
   2.9523921  63.9110797  94.5768143   2.2554374  62.6372372  94.1484957
   1.1882042  63.4111760 103.5484076   0.9299820  64.3328831 103.5468407
   0.6567082  63.0142195 104.2384541   6.1328231  76.5162547  96.3274162
   6.3065108  75.9508970  95.5748014   6.6257122  77.3163442  96.1453652
   1.6083997  59.5443711  99.9085239   1.6305694  59.6083044  98.9537219
   2.0252056  58.7048219 100.1025745  11.9867622  69.2798970  97.9464462
  12.4298768  68.5306296  97.5483585  11.1094132  69.2709107  97.5638194
   7.1203403  75.8329312  93.4271060   7.8154308  76.4536004  93.6458375
   7.4626553  74.9824663  93.7023438   9.0194826  73.2829017  94.9558391
   9.5446150  73.6216290  94.2307711   8.9317179  72.3476033  94.7721525
   8.8286607  70.7654387 107.5742317   8.8784612  70.6004395 108.5157840
   8.7200531  69.8981646 107.1840198   6.1190370  66.7485315 108.8901624
   7.0200232  66.6091780 108.5985622   6.1938344  66.9139770 109.8299801
  10.3304804  73.1851329 107.8184339  10.0389612  73.5481309 108.6547800
   9.7176935  72.4718337 107.6397671  11.5300486  70.7504209 100.3386909
  12.3647378  71.1894013 100.5024469  11.6659615  70.2742862  99.5195155
   8.5791992  68.3083943 106.2864397   9.0546114  68.5011590 105.4783248
   7.6557558  68.3643129 106.0407781   3.1572209  60.3431787 105.2520231
   3.6754153  61.0792814 104.9266719   2.8027342  60.6495780 106.0866990
   3.4084803  56.7632070 100.7721127   3.6886557  56.0955259 101.3981554
   4.1935410  56.9561165 100.2595791   1.2118272  75.9391063  92.3346154
   0.6392239  76.5581251  91.8816626   1.7851065  76.4890425  92.8686076
   7.2793661  65.1849704 104.5192702   8.2311084  65.2847801 104.5404927
   7.1097112  64.3927972 105.0290787   5.3008041  62.2705287 104.7052103
   4.7057973  62.5510300 104.0098592   5.0157738  62.7599188 105.4768845
   4.4315531  76.2228214  93.4654736   5.3646204  76.1573775  93.6687611
   4.3438744  77.0584480  93.0069269   7.0603548  75.5394084  90.4258684
   6.9817180  75.2053948  91.3194441   7.8813215  76.0315852  90.4250156
   9.7581739  68.4055823 103.6335002   9.7258059  67.4671824 103.8194686
  10.3682363  68.4839860 102.9000827   1.5965070  67.2751876  89.6762206
   2.5424175  67.1458084  89.7450624   1.2179315  66.5366538  90.1531634
   9.9076228  65.1966867 103.6793285   9.3915276  64.4125323 103.4923214
  10.7916176  64.8685583 103.8439805   7.5686955  58.9407882  99.6389098
   7.3711776  58.6322970 100.5232430   8.1786660  59.6669521  99.7687028
  15.5758289  69.4671830 102.7741039  16.3061678  69.2057118 103.3348742
  14.9665235  68.7300552 102.8143107  13.6573586  67.6079693 103.3715490
  12.9306750  67.4735658 102.7631982  13.2420873  67.9156521 104.1772208
   1.3970053  59.7438742  95.7661333   0.5870781  59.3985827  96.1416579
   2.0854470  59.4346286  96.3548944   3.3260601  58.8216789  97.3885629
   3.8791640  59.2412243  98.0475652   3.5630688  57.8952537  97.4308585
   6.7039408  60.9317314  96.8964294   6.1238077  61.5902118  96.5142346
   6.4375341  60.1094659  96.4851711   5.1542975  60.3322372  99.0985614
   5.6542753  60.4438907  98.2899933   5.7978583  60.0283425  99.7386422
   5.4864286  63.0917405  95.9520642   4.5990141  63.3767055  95.7340837
   5.9018275  62.9311168  95.1047919   8.8378822  63.1163926  99.6674981
   9.6139213  63.6060378  99.9399598   8.1126957  63.5421980 100.1246851
  11.2751381  63.8291545 100.7248922  11.8695872  63.5887281 100.0142230
  11.3477965  63.1098675 101.3522458   4.6307500  72.8562079  90.0468662
   5.3343350  73.0612082  90.6626317   3.9070149  73.4238841  90.3117745
   5.4605310  68.6071941  96.1670932   5.4040511  69.0640492  95.3278564
   6.0133653  67.8462625  95.9893775   9.2710116  64.3961672  96.9921052
   9.0147050  63.9958308  97.8229259   8.6462984  65.1105466  96.8671191
  13.5822454  67.1357746  99.4992343  13.0222012  67.2050935 100.2723905
  12.9765957  66.9598730  98.7791839   6.5394197  73.2944609  92.0967122
   7.3739801  72.8625807  91.9144597   6.3778540  73.1226622  93.0244016
   6.1940089  69.7976722  93.4623461   6.1388893  69.6320993  92.5211905
   5.5686145  70.5052755  93.6185651   3.3188334  55.8927608  97.2954716
   2.5520730  55.3386094  97.4411399   3.7299039  55.9649476  98.1568868
  15.1678472  83.8114260 102.1922299  15.8056882  83.6921007 101.4885639
  15.0499315  84.7595104 102.2510251  11.9768179  83.7641688 102.1283823
  11.6386690  83.6482752 101.2404358  12.8457947  83.3632853 102.1084829
   7.8354994  85.6177164  98.1180714   7.2719859  85.5267101  97.3497002
   7.7207389  84.7977069  98.5983207  13.4154553  89.2848132  93.4295179
  12.7642533  89.8702212  93.0429193  14.2098916  89.8154327  93.4890217
   7.3410180  86.3737269  93.8282314   8.1141056  85.8266256  93.6895189
   7.6935579  87.2381518  94.0396775  10.1051430  85.0790500 103.6250572
  10.7015002  84.8546522 102.9107535  10.1626401  84.3375245 104.2276020
   9.6776458  82.5329935  91.4600763   9.9301979  82.0111456  90.6984226
   8.7401017  82.3696081  91.5627447  14.7219741  81.5365714  99.2675507
  15.5082830  81.1185137  98.9165924  14.9858445  82.4411806  99.4357155
  14.8929818  86.9738564  93.9664163  14.2575651  87.0473190  94.6785068
  14.5627225  87.5632163  93.2883243  20.1228168  81.4740947 100.1708485
  20.8553340  80.9040164 100.4046315  19.3667524  81.0862547 100.6114991
   9.3972747  84.4358041  93.6625138   9.2809005  83.7602944  94.3306223
   9.5075007  83.9490415  92.8457291  11.7404288  83.8968188  97.3671828
  11.3762495  83.3698809  98.0784749  12.5971404  83.5066657  97.1938313
  17.6453588  75.1862521 104.6303094  17.3136913  76.0557932 104.4064309
  17.0499202  74.8698805 105.3097124  11.3809775  78.9258088  92.3633176
  11.5484177  79.7938324  92.7303647  11.1906944  79.0885370  91.4394465
  14.1385108  87.3875067 104.0299007  13.8385831  88.2900106 103.9214814
  13.7936167  87.1207250 104.8820159   7.5897589  83.8388864 100.0635711
   6.6648086  83.7065078 100.2713403   7.8382002  84.6183083 100.5605653
  17.5382252  79.9057607 101.7096444  16.6299129  79.8373015 101.4155205
  17.4869847  80.3829552 102.5378269  11.3598995  81.3815745  93.3479843
  11.2398621  81.8272796  94.1865323  10.6651584  81.7301063  92.7893381
   9.1205888  94.1519387  96.9969974   9.0429917  95.1027212  97.0758455
   8.5167531  93.8065260  97.6544901  19.4043898  78.1074045 103.4874318
  18.7618278  78.4006579 102.8414112  18.8998827  77.9926966 104.2927514
  17.0584062  81.8537219  94.1760177  17.9701918  82.0864605  94.0007875
  16.5493709  82.4374263  93.6135256  11.6955899  81.2134453 105.1855027
  12.5417095  81.6373867 105.3289676  11.6354537  80.5568077 105.8793590
  15.6653644  86.8363037 101.5673758  15.0362506  87.0008751 100.8649826
  15.2779306  87.2504647 102.3384723  19.5442876  87.7717475  98.9218122
  18.8593914  88.1516376  98.3715156  19.6286725  88.3812802  99.6550070
  14.8455345  78.8738822 106.8436200  14.6016277  79.6280882 106.3070476
  15.1215275  79.2524169 107.6783447  16.7993807  85.4177434 105.5213466
  17.0110703  86.0609194 104.8447847  16.7523556  84.5839750 105.0535396
  14.4020036  78.0295255 102.4250038  13.5404515  78.3276508 102.7166775
  14.4282471  78.2465653 101.4931071  11.2181606  86.5737445  98.8323844
  11.6819951  86.8525148  98.0428466  10.9538404  85.6720890  98.6496934
   8.1105687  86.1208927 101.7703607   8.6807044  86.5496195 101.1321091
   8.7013799  85.8391511 102.4687793  10.1550492  82.6960597  95.6413409
  10.8574535  83.1481641  96.1087335   9.8231120  82.0544416  96.2693302
   3.8975826  80.9544150 100.9430542   3.1074880  81.2101679 100.4670653
   4.3887073  81.7692488 101.0482583  17.9139635  88.2949389 103.6935823
  18.7357079  87.8929577 103.4118505  17.9102038  88.1917623 104.6451939
   5.8490571  81.3188729  97.9014019   5.0521734  81.4307424  98.4197515
   5.6216163  81.6575382  97.0354910  26.0045628  84.6388138 100.0420795
  25.2509337  84.0695536  99.8864799  26.1393170  84.6050802 100.9891429
  11.3944256  89.5101540  95.7175514  11.2589931  90.3553076  96.1460362
  11.9354069  89.7120818  94.9541448   4.8473654  87.0276978  96.2903439
   5.3598174  87.8220228  96.4409004   5.4996367  86.3303269  96.2237040
   6.6568539  90.1442734  98.3726192   6.8335167  91.0660699  98.1847176
   7.4525372  89.8301154  98.8020572  14.7436720  73.0332102 104.2474407
  14.4000989  73.9233744 104.1713518  15.1115683  72.8433760 103.3843992
   2.8122571  85.3565632  97.0663010   3.6497793  85.7662641  96.8496717
   2.9900838  84.4165075  97.0363203  14.7087003  83.0240713  92.7546843
  14.1933626  83.7945318  92.9935230  14.4364311  82.3505849  93.3779904
  12.2934114  77.8690414  97.8132081  11.4375710  77.4797264  97.6337720
  12.7061066  77.9482375  96.9531866  13.8233260  75.4036757 102.2123641
  13.3198056  75.3666892 101.3991446  14.1163867  76.3129500 102.2720297
  10.0676146  75.4875487 101.2189822  10.9329143  75.2918296 100.8595712
  10.1353655  75.2585839 102.1459179  19.6821277  85.7773068  94.6900016
  18.9050720  85.4384227  94.2455178  20.3612758  85.7825691  94.0154981
  14.4973306  80.8967805  94.5806624  14.1923442  81.2113954  95.4316767
  15.4503748  80.9749225  94.6233957  12.9419738  87.0558029  96.2299578
  12.4141099  86.3210788  95.9172815  12.4407241  87.8332705  95.9839546
  17.9212584  85.2507049 101.3466624  17.2636258  85.9406310 101.4346753
  18.7252983  85.6403481 101.6900610   7.6738465  77.7177695  98.5906189
   8.2482217  77.4952876  97.8579382   8.2609448  77.7866389  99.3434791
  16.7318043  83.6051422  99.3970566  17.2449924  84.2381414  99.8992275
  17.3819267  83.0052617  99.0313926   8.0008053  79.7482156  92.6102074
   7.1645365  80.0856842  92.9311349   7.8612822  79.6131136  91.6729211
   9.9761133  74.5918944  97.3181259   9.3225545  74.2767961  96.6937873
   9.9341607  73.9694684  98.0441082  11.0872338  84.8738239  89.2334551
  10.1799400  84.6427492  89.4325700  11.5843370  84.0775858  89.4208532
  13.9940417  93.5835746  92.1531237  13.3202116  93.8867443  92.7616195
  14.3806239  94.3864826  91.8036694  13.2098873  81.0800877 101.6428906
  12.2921435  81.3015824 101.4850594  13.6259017  81.1547188 100.7840614
  13.9933921  82.4792293  96.7731587  14.7405740  82.9913690  96.4638709
  14.2625511  82.1576346  97.6335980  12.2660571  84.9750834  93.7558541
  11.3571791  84.6909866  93.8531011  12.2955655  85.3949912  92.8961848
  17.4979839  88.5857423  97.5249708  17.0442166  87.7448333  97.5814899
  16.8673806  89.2218822  97.8624489  16.4412758  79.5149409  98.7550376
  15.7035515  79.0026795  99.0860618  16.6939532  79.0749791  97.9433653
  15.9412778  90.4233920  98.4599527  16.2335752  90.9838977  97.7411892
  16.4511399  90.7162481  99.2152686  16.5424386  72.2925661  99.3492145
  16.8483263  71.4323025  99.0618060  17.2676991  72.8843281  99.1491139
   2.8348742  82.6956348  97.7373743   2.6373142  82.1025708  97.0124810
   2.2795406  82.3908558  98.4549682  10.8145465  82.5879454  99.8568336
  10.8694075  81.6353291  99.7810813  10.0036667  82.7438893 100.3409635
  11.9636659  86.5159577  91.0946619  11.5256089  85.7995436  90.6352257
  12.7047100  86.7435692  90.5331711   8.7537825  81.2056514  97.6158715
   7.9405691  81.5050685  98.0223907   9.2496820  80.8112203  98.3333197
  10.9046403  91.2014271  99.5492980  10.8622582  91.4275117  98.6201512
  11.8209102  90.9677646  99.6978781  14.3512037  81.6698338 106.4473609
  14.7061425  81.8969812 107.3068075  14.9984168  82.0016715 105.8250864
  20.0809774  84.7916774  97.1522938  19.9427673  84.9818370  96.2244127
  19.7245993  85.5536157  97.6090989   8.2451900  78.7774870 103.2319950
   8.8851279  78.6363629 102.5342913   7.4129431  78.4909383 102.8558552
  20.1079154  86.8593301 102.1634209  20.5415660  86.7668590 103.0117263
  20.8210734  86.8350802 101.5254225   9.0212204  88.0777300  99.3454942
   9.8152803  87.5827620  99.1437517   8.3103896  87.5495163  98.9822648
   5.3294968  82.2220382  95.4214695   4.3992556  82.1604837  95.6384657
   5.4252440  81.6996334  94.6251336   5.2480517  78.7475195  98.0092937
   5.5087334  79.6620528  97.9002097   6.0697689  78.2799637  98.1589550
  20.9694703  86.9017002 104.6967095  21.1630593  87.8062813 104.9426370
  20.8695321  86.4424421 105.5305680  12.6231014  76.7874893 107.1957422
  11.9758929  77.4864842 107.1021899  13.3932029  77.2211037 107.5633670
  12.7995148  84.6255658 105.2554242  13.7287208  84.7766817 105.0823209
  12.3786178  84.7139678 104.4002888  12.1931632  93.7515418  94.3678316
  12.3683388  93.2803462  95.1823939  11.5064420  94.3781185  94.5959577
  13.1488695  88.0287925 100.4141617  12.8138528  87.9888695 101.3099267
  12.6492641  87.3632641  99.9412028  16.0847887  85.3743959  90.6878677
  15.4677057  84.6490787  90.5911730  15.6164375  86.1353319  90.3445751
   7.8746433  79.5929383  89.8099981   6.9975899  79.4718184  89.4462228
   8.3504186  78.8015462  89.5578870  17.7419426  88.0482451 106.5798437
  16.8546205  87.7108373 106.7024836  18.3117977  87.3165482 106.8167202
  11.0610359  91.9455674  97.0562502  10.2777881  92.4877354  97.1500726
  11.7603104  92.4629653  97.4556743  14.3707009  77.7550303  99.6996707
  14.8675708  77.0020265  99.3797777  13.5993990  77.7914620  99.1339916
  22.2236766  83.4590669 101.3414999  22.2126643  84.3415384 100.9708932
  21.3554146  83.1062219 101.1469536  15.4536790  86.5121990  97.2735131
  14.5193068  86.6323453  97.1039835  15.6313458  85.6094457  97.0095140
  10.9541978  79.8967686  99.4268392  10.5839765  79.3438726 100.1149297
  11.4501070  79.2925820  98.8743392  18.8409341  82.3539310  97.8085165
  19.3069793  83.1867301  97.7345467  19.2916841  81.8884291  98.5130423
  16.9085572  88.6983131  94.8071317  17.1845416  88.5839725  95.7165191
  16.0390071  88.3000616  94.7683490  16.8126004  74.7219897 101.8476066
  15.8989083  74.9524123 102.0158273  17.2419105  74.8058341 102.6990098
  16.5832462  82.9109789 104.3475960  15.9303912  83.1585696 103.6928413
  16.9612842  82.0973927 104.0138437  13.5439636  92.9469482  98.4504130
  13.7262031  92.1291138  98.9131883  14.3672622  93.1637174  98.0129020
  13.8781802  91.8737667  95.7119179  14.4069568  91.3630121  95.0989341
  14.1410021  91.5580197  96.5764712   6.3507311  77.3071677 105.6721498
   6.4148638  78.1686508 105.2598896   6.2874432  76.6945679 104.9393856
   2.6025127  81.1871239  95.2512887   2.8978568  80.2781917  95.1979941
   1.7013162  81.1658978  94.9293889  14.5111205  92.9078503 102.0563295
  14.3862345  92.1068242 101.5474241  15.1690296  93.4024696 101.5677265
   6.1319374  79.2627235 101.2340436   5.4105959  79.8763203 101.0947909
   6.9212629  79.7985000 101.1557081  16.5746114  90.7087523 103.6842845
  15.6276449  90.5892874 103.6121172  16.9228887  89.8210021 103.7669107
   8.9345687  76.5981662 107.5081087   9.4580089  76.8443958 108.2707397
   8.7158020  77.4301696 107.0884225   4.3312968  78.8685336  95.3752212
   4.0025674  77.9882715  95.1927318   4.6852339  78.8133005  96.2628601
  13.5792547  90.5040239  99.8847198  13.4317509  89.5756946 100.0654768
  14.4046041  90.5260330  99.4004273   7.4454791  79.1558306  95.7427690
   7.7850864  79.6844227  95.0206298   7.8926912  79.4938712  96.5186256
  17.1826669  91.3268798 100.9712070  18.1073216  91.1211659 100.8336521
  17.0141972  91.0785199 101.8801412  10.1398232  77.5395357 105.1930758
   9.7995053  76.7403170 105.5951438   9.4337238  77.8397068 104.6207591
  10.7914704  74.6244669 103.6458081  11.6140773  74.1505147 103.5236971
  11.0352768  75.4035153 104.1456767   9.4322938  77.6532928  93.9420983
  10.1531301  78.0314180  93.4384699   8.8088243  78.3721804  94.0455960
  13.5754061  78.3578077  94.8779315  13.7917676  79.2402714  94.5768143
  13.0948129  77.9664290  94.1484957   8.3153283  81.3163790 101.4550059
   8.1697863  81.6304093 102.3474341   7.8378486  81.9348690 100.9020958
  10.1749666  78.3066338 101.5030949  10.1611234  77.4107431 101.1663247
  10.8922094  78.3137001 102.1369235  12.0275796  78.7403678 103.5484076
  11.7693574  79.6620749 103.5468407  11.4960837  78.3434112 104.2384541
  16.9721985  91.8454465  96.3274162  17.1458863  91.2800888  95.5748014
  17.4650876  92.6455360  96.1453652   9.5786562  77.1880718  96.7718519
   9.7002473  76.2597364  96.9709407   9.2888604  77.2019404  95.8596835
  12.4477752  74.8735628  99.9085239  12.4699449  74.9374962  98.9537219
  12.8645811  74.0340137 100.1025745  22.8261376  84.6090888  97.9464462
  23.2692522  83.8598213  97.5483585  21.9487887  84.6001024  97.5638194
  17.9597158  91.1621229  93.4271060  18.6548062  91.7827922  93.6458375
  18.3020308  90.3116581  93.7023438  19.8588581  88.6120935  94.9558391
  20.3839905  88.9508208  94.2307711  19.7710933  87.6767950  94.7721525
  19.6680362  86.0946305 107.5742317  19.7178367  85.9296312 108.5157840
  19.5594285  85.2273564 107.1840198   8.5516621  88.7734851  94.8634406
   8.7004741  89.4570315  94.2101079   9.3583064  88.7539941  95.3783862
  16.9584124  82.0777233 108.8901624  17.8593987  81.9383698 108.5985622
  17.0332099  82.2431688 109.8299801  11.2926930  79.4544088 107.7354810
  10.4230239  79.7477654 107.4637399  11.5286410  80.0384533 108.4562074
  21.1698559  88.5143247 107.8184339  20.8783367  88.8773227 108.6547800
  20.5570690  87.8010255 107.6397671  22.3694241  86.0796126 100.3386909
  23.2041132  86.5185930 100.5024469  22.5053370  85.6034780  99.5195155
  19.4185747  83.6375861 106.2864397  19.8939868  83.8303507 105.4783248
  18.4951312  83.6935047 106.0407781   6.3069253  84.8000028  95.8695475
   6.0615295  83.8962358  96.0675685   6.4765168  84.8017179  94.9274953
  13.9965963  75.6723705 105.2520231  14.5147907  76.4084732 104.9266719
  13.6421096  75.9787698 106.0866990   5.5764901  80.5328386  93.3681637
   4.8834146  80.6072741  92.7121673   5.3316653  79.7688730  93.8903154
  14.2478558  72.0923987 100.7721127  14.5280311  71.4247176 101.3981554
  15.0329164  72.2853083 100.2595791  12.0512026  91.2682981  92.3346154
  11.4785993  91.8873168  91.8816626  12.6244820  91.8182343  92.8686076
  18.1187416  80.5141621 104.5192702  19.0704839  80.6139719 104.5404927
  17.9490866  79.7219890 105.0290787  16.1401795  77.5997204 104.7052103
  15.5451727  77.8802217 104.0098592  15.8551492  78.0891105 105.4768845
  15.2709286  91.5520131  93.4654736  16.2039959  91.4865693  93.6687611
  15.1832499  92.3876398  93.0069269  17.8997302  90.8686002  90.4258684
  17.8210934  90.5345865  91.3194441  18.7206969  91.3607770  90.4250156
  20.5975494  83.7347741 103.6335002  20.5651814  82.7963742 103.8194686
  21.2076117  83.8131778 102.9000827  12.4358825  82.6043794  89.6762206
  13.3817929  82.4750002  89.7450624  12.0573069  81.8658456  90.1531634
  20.7469982  80.5258784 103.6793285  20.2309031  79.7417241 103.4923214
  21.6309931  80.1977501 103.8439805  18.4080709  74.2699800  99.6389098
  18.2105530  73.9614888 100.5232430  19.0180415  74.9961439  99.7687028
  26.4152044  84.7963748 102.7741039  27.1455432  84.5349036 103.3348742
  25.8058989  84.0592470 102.8143107  24.4967341  82.9371610 103.3715490
  23.7700504  82.8027575 102.7631982  24.0814628  83.2448439 104.1772208
  10.6201742  80.5293770  89.6117091   9.7133197  80.2326883  89.6879805
  10.8977723  80.2323588  88.7451378  12.2363807  75.0730660  95.7661333
  11.4264536  74.7277745  96.1416579  12.9248224  74.7638204  96.3548944
  14.1654356  74.1508707  97.3885629  14.7185394  74.5704160  98.0475652
  14.4024442  73.2244455  97.4308585   9.3900526  77.3880706  89.7529071
  10.2519690  77.7135604  90.0124888   9.5750870  76.6012201  89.2402136
  17.5433163  76.2609232  96.8964294  16.9631832  76.9194036  96.5142346
  17.2769095  75.4386577  96.4851711  15.9936729  75.6614290  99.0985614
  16.4936508  75.7730824  98.2899933  16.6372337  75.3575343  99.7386422
  16.3258041  78.4209322  95.9520642  15.4383896  78.7058973  95.7340837
  16.7412030  78.2603086  95.1047919  19.6772577  78.4455843  99.6674981
  20.4532967  78.9352296  99.9399598  18.9520711  78.8713898 100.1246851
  22.1145136  79.1583463 100.7248922  22.7089626  78.9179199 100.0142230
  22.1871719  78.4390593 101.3522458  15.4701254  88.1853997  90.0468662
  16.1737104  88.3904000  90.6626317  14.7463903  88.7530759  90.3117745
  16.2999065  83.9363858  96.1670932  16.2434266  84.3932410  95.3278564
  16.8527407  83.1754543  95.9893775  20.1103870  79.7253590  96.9921052
  19.8540805  79.3250226  97.8229259  19.4856739  80.4397384  96.8671191
  24.4216208  82.4649663  99.4992343  23.8615766  82.5342853 100.2723905
  23.8159712  82.2890648  98.7791839  17.3787952  88.6236526  92.0967122
  18.2133556  88.1917725  91.9144597  17.2172295  88.4518540  93.0244016
  17.0333844  85.1268640  93.4623461  16.9782648  84.9612911  92.5211905
  16.4079899  85.8344672  93.6185651  10.3429969  74.6276749  93.0408780
  10.3308639  75.5718588  93.1977050  11.2353391  74.4446894  92.7468241
  14.1582089  71.2219525  97.2954716  13.3914485  70.6678012  97.4411399
  14.5692794  71.2941394  98.1568868  26.0072227  99.1406177 102.1922299
  26.6450637  99.0212925 101.4885639  25.8893070 100.0887021 102.2510251
  22.8161933  99.0933605 102.1283823  22.4780445  98.9774670 101.2404358
  23.6851701  98.6924771 102.1084829  18.6748749 100.9469082  98.1180714
  18.1113614 100.8559019  97.3497002  18.5601144 100.1268986  98.5983207
  24.2548307 104.6140050  93.4295179  23.6036287 105.1994130  93.0429193
  25.0492670 105.1446244  93.4890217  18.1803935 101.7029187  93.8282314
  18.9534811 101.1558174  93.6895189  18.5329333 102.5673436  94.0396775
  20.9445184 100.4082417 103.6250572  21.5408756 100.1838440 102.9107535
  21.0020156  99.6667163 104.2276020  20.5170212  97.8621853  91.4600763
  20.7695733  97.3403374  90.6984226  19.5794772  97.6987998  91.5627447
  25.5613495  96.8657631  99.2675507  26.3476584  96.4477054  98.9165924
  25.8252200  97.7703723  99.4357155  25.7323573 102.3030481  93.9664163
  25.0969406 102.3765108  94.6785068  25.4020979 102.8924080  93.2883243
  30.9621922  96.8032864 100.1708485  31.6947094  96.2332081 100.4046315
  30.2061278  96.4154465 100.6114991  20.2366501  99.7649959  93.6625138
  20.1202759  99.0894862  94.3306223  20.3468761  99.2782333  92.8457291
  22.5798042  99.2260106  97.3671828  22.2156249  98.6990727  98.0784749
  23.4365158  98.8358575  97.1938313  28.4847343  90.5154438 104.6303094
  28.1530668  91.3849849 104.4064309  27.8892956  90.1990722 105.3097124
  22.2203529  94.2550006  92.3633176  22.3877931  95.1230242  92.7303647
  22.0300698  94.4177287  91.4394465  24.9778862 102.7166984 104.0299007
  24.6779585 103.6192023 103.9214814  24.6329922 102.4499168 104.8820159
  18.4291344  99.1680781 100.0635711  17.5041840  99.0356995 100.2713403
  18.6775757  99.9475001 100.5605653  28.3776006  95.2349525 101.7096444
  27.4692883  95.1664933 101.4155205  28.3263602  95.7121470 102.5378269
  22.1992750  96.7107663  93.3479843  22.0792375  97.1564714  94.1865323
  21.5045338  97.0592981  92.7893381  19.9599642 109.4811305  96.9969974
  19.8823672 110.4319130  97.0758455  19.3561286 109.1357177  97.6544901
  30.2437652  93.4365963 103.4874318  29.6012033  93.7298496 102.8414112
  29.7392581  93.3218883 104.2927514  27.8977816  97.1829136  94.1760177
  28.8095672  97.4156523  94.0007875  27.3887463  97.7666180  93.6135256
  22.5349654  96.5426371 105.1855027  23.3810849  96.9665784 105.3289676
  22.4748292  95.8859995 105.8793590  26.5047398 102.1654955 101.5673758
  25.8756261 102.3300669 100.8649826  26.1173061 102.5796564 102.3384723
  30.3836630 103.1009393  98.9218122  29.6987668 103.4808294  98.3715156
  30.4680480 103.7104719  99.6550070  25.6849099  94.2030739 106.8436200
  25.4410031  94.9572800 106.3070476  25.9609030  94.5816087 107.6783447
  27.6387562 100.7469352 105.5213466  27.8504457 101.3901111 104.8447847
  27.5917310  99.9131668 105.0535396  25.2413791  93.3587172 102.4250038
  24.3798270  93.6568426 102.7166775  25.2676226  93.5757571 101.4931071
  22.0575360 101.9029363  98.8323844  22.5213706 102.1817066  98.0428466
  21.7932158 101.0012807  98.6496934  18.9499441 101.4500844 101.7703607
  19.5200798 101.8788113 101.1321091  19.5407553 101.1683429 102.4687793
  20.9944246  98.0252515  95.6413409  21.6968290  98.4773559  96.1087335
  20.6624875  97.3836334  96.2693302  14.7369580  96.2836068 100.9430542
  13.9468634  96.5393596 100.4670653  15.2280828  97.0984406 101.0482583
  28.7533390 103.6241307 103.6935823  29.5750834 103.2221494 103.4118505
  28.7495793 103.5209541 104.6451939  16.6884326  96.6480647  97.9014019
  15.8915489  96.7599341  98.4197515  16.4609918  96.9867299  97.0354910
  36.8439383  99.9680055 100.0420795  36.0903091  99.3987454  99.8864799
  36.9786924  99.9342720 100.9891429  22.2338011 104.8393458  95.7175514
  22.0983686 105.6844994  96.1460362  22.7747823 105.0412735  94.9541448
  15.6867408 102.3568896  96.2903439  16.1991929 103.1512146  96.4409004
  16.3390121 101.6595186  96.2237040  17.4962293 105.4734652  98.3726192
  17.6728921 106.3952617  98.1847176  18.2919127 105.1593071  98.8020572
  25.5830475  88.3624020 104.2474407  25.2394744  89.2525661 104.1713518
  25.9509437  88.1725677 103.3843992  13.6516325 100.6857550  97.0663010
  14.4891547 101.0954558  96.8496717  13.8294593  99.7456992  97.0363203
  25.5480757  98.3532631  92.7546843  25.0327381  99.1237235  92.9935230
  25.2758066  97.6797767  93.3779904  23.1327868  93.1982332  97.8132081
  22.2769465  92.8089182  97.6337720  23.5454820  93.2774292  96.9531866
  24.6627015  90.7328675 102.2123641  24.1591811  90.6958810 101.3991446
  24.9557622  91.6421418 102.2720297  20.9069901  90.8167405 101.2189822
  21.7722898  90.6210213 100.8595712  20.9747410  90.5877756 102.1459179
  30.5215031 101.1064985  94.6900016  29.7444474 100.7676145  94.2455178
  31.2006512 101.1117609  94.0154981  25.3367060  96.2259723  94.5806624
  25.0317196  96.5405872  95.4316767  26.2897503  96.3041143  94.6233957
  23.7813492 102.3849946  96.2299578  23.2534854 101.6502706  95.9172815
  23.2800995 103.1624623  95.9839546  28.7606338 100.5798967 101.3466624
  28.1030013 101.2698228 101.4346753  29.5646738 100.9695399 101.6900610
  18.5132220  93.0469612  98.5906189  19.0875972  92.8244794  97.8579382
  19.1003202  93.1158307  99.3434791  27.5711797  98.9343339  99.3970566
  28.0843679  99.5673331  99.8992275  28.2213021  98.3344535  99.0313926
  18.8401807  95.0774074  92.6102074  18.0039119  95.4148760  92.9311349
  18.7006577  94.9423053  91.6729211  20.8154888  89.9210861  97.3181259
  20.1619300  89.6059879  96.6937873  20.7735362  89.2986602  98.0441082
  21.9266092 100.2030156  89.2334551  21.0193154  99.9719410  89.4325700
  22.4237124  99.4067776  89.4208532  24.8334171 108.9127664  92.1531237
  24.1595870 109.2159360  92.7616195  25.2199993 109.7156744  91.8036694
  24.0492628  96.4092795 101.6428906  23.1315189  96.6307742 101.4850594
  24.4652772  96.4839105 100.7840614  24.8327676  97.8084211  96.7731587
  25.5799495  98.3205608  96.4638709  25.1019265  97.4868263  97.6335980
  23.1054326 100.3042751  93.7558541  22.1965545 100.0201784  93.8531011
  23.1349410 100.7241830  92.8961848  28.3373593 103.9149341  97.5249708
  27.8835920 103.0740251  97.5814899  27.7067560 104.5510739  97.8624489
  27.2806513  94.8441327  98.7550376  26.5429270  94.3318713  99.0860618
  27.5333286  94.4041708  97.9433653  26.7806533 105.7525838  98.4599527
  27.0729507 106.3130895  97.7411892  27.2905153 106.0454399  99.2152686
  27.3818140  87.6217579  99.3492145  27.6877017  86.7614942  99.0618060
  28.1070745  88.2135199  99.1491139  13.6742496  98.0248265  97.7373743
  13.4766896  97.4317626  97.0124810  13.1189160  97.7200476  98.4549682
  21.6539220  97.9171372  99.8568336  21.7087830  96.9645208  99.7810813
  20.8430422  98.0730811 100.3409635  22.8030414 101.8451495  91.0946619
  22.3649844 101.1287354  90.6352257  23.5440855 102.0727610  90.5331711
  19.5931580  96.5348432  97.6158715  18.7799445  96.8342602  98.0223907
  20.0890574  96.1404120  98.3333197  21.7440158 106.5306189  99.5492980
  21.7016337 106.7567035  98.6201512  22.6602857 106.2969563  99.6978781
  25.1905792  96.9990256 106.4473609  25.5455179  97.2261729 107.3068075
  25.8377923  97.3308633 105.8250864  30.9203529 100.1208692  97.1522938
  30.7821427 100.3110288  96.2244127  30.5639747 100.8828075  97.6090989
  19.0845655  94.1066787 103.2319950  19.7245034  93.9655546 102.5342913
  18.2523185  93.8201301 102.8558552  30.9472908 102.1885219 102.1634209
  31.3809415 102.0960508 103.0117263  31.6604489 102.1642720 101.5254225
  19.8605959 103.4069218  99.3454942  20.6546557 102.9119538  99.1437517
  19.1497651 102.8787081  98.9822648  16.1688722  97.5512299  95.4214695
  15.2386310  97.4896755  95.6384657  16.2646194  97.0288252  94.6251336
  16.0874271  94.0767112  98.0092937  16.3481088  94.9912445  97.9002097
  16.9091443  93.6091555  98.1589550  31.8088458 102.2308920 104.6967095
  32.0024348 103.1354730 104.9426370  31.7089076 101.7716339 105.5305680
  23.4624768  92.1166810 107.1957422  22.8152683  92.8156760 107.1021899
  24.2325784  92.5502954 107.5633670  23.6388903  99.9547575 105.2554242
  24.5680963 100.1058735 105.0823209  23.2179933 100.0431596 104.4002888
  23.0325387 109.0807336  94.3678316  23.2077142 108.6095379  95.1823939
  22.3458175 109.7073102  94.5959577  23.9882450 103.3579842 100.4141617
  23.6532282 103.3180612 101.3099267  23.4886395 102.6924558  99.9412028
  26.9241641 100.7035877  90.6878677  26.3070812  99.9782705  90.5911730
  26.4558130 101.4645237  90.3445751  18.7140187  94.9221301  89.8099981
  17.8369654  94.8010102  89.4462228  19.1897940  94.1307379  89.5578870
  28.5813180 103.3774369 106.5798437  27.6939959 103.0400291 106.7024836
  29.1511731 102.6457400 106.8167202  21.9004113 107.2747591  97.0562502
  21.1171635 107.8169271  97.1500726  22.5996858 107.7921571  97.4556743
  25.2100763  93.0842221  99.6996707  25.7069463  92.3312183  99.3797777
  24.4387745  93.1206537  99.1339916  33.0630521  98.7882586 101.3414999
  33.0520397  99.6707302 100.9708932  32.1947900  98.4354137 101.1469536
  26.2930544 101.8413908  97.2735131  25.3586823 101.9615370  97.1039835
  26.4707213 100.9386375  97.0095140  21.7935732  95.2259604  99.4268392
  21.4233520  94.6730644 100.1149297  22.2894825  94.6217737  98.8743392
  29.6803095  97.6831227  97.8085165  30.1463548  98.5159219  97.7345467
  30.1310596  97.2176209  98.5130423  27.7479327 104.0275049  94.8071317
  28.0239170 103.9131643  95.7165191  26.8783825 103.6292533  94.7683490
  27.6519758  90.0511814 101.8476066  26.7382838  90.2816041 102.0158273
  28.0812860  90.1350258 102.6990098  27.4226217  98.2401706 104.3475960
  26.7697667  98.4877614 103.6928413  27.8006597  97.4265844 104.0138437
  24.3833391 108.2761399  98.4504130  24.5655785 107.4583055  98.9131883
  25.2066377 108.4929092  98.0129020  24.7175556 107.2029585  95.7119179
  25.2463322 106.6922039  95.0989341  24.9803776 106.8872115  96.5764712
  17.1901066  92.6363595 105.6721498  17.2542392  93.4978425 105.2598896
  17.1268186  92.0237596 104.9393856  13.4418881  96.5163156  95.2512887
  13.7372322  95.6073835  95.1979941  12.5406917  96.4950896  94.9293889
  25.3504960 108.2370420 102.0563295  25.2256099 107.4360160 101.5474241
  26.0084051 108.7316614 101.5677265  16.9713128  94.5919153 101.2340436
  16.2499714  95.2055120 101.0947909  17.7606384  95.1276918 101.1557081
  27.4139868 106.0379440 103.6842845  26.4670204 105.9184792 103.6121172
  27.7622641 105.1501938 103.7669107  19.7739442  91.9273579 107.5081087
  20.2973843  92.1735876 108.2707397  19.5551775  92.7593614 107.0884225
  15.1706723  94.1977254  95.3752212  14.8419429  93.3174633  95.1927318
  15.5246093  94.1424923  96.2628601  24.4186302 105.8332157  99.8847198
  24.2711264 104.9048864 100.0654768  25.2439795 105.8552247  99.4004273
  18.2848546  94.4850224  95.7427690  18.6244618  95.0136145  95.0206298
  18.7320666  94.8230630  96.5186256  28.0220423 106.6560715 100.9712070
  28.9466971 106.4503577 100.8336521  27.8535727 106.4077116 101.8801412
  20.9791987  92.8687274 105.1930758  20.6388807  92.0695087 105.5951438
  20.2730993  93.1688985 104.6207591  21.6308458  89.9536587 103.6458081
  22.4534528  89.4797065 103.5236971  21.8746522  90.7327071 104.1456767
  20.2716693  92.9824845  93.9420983  20.9925055  93.3606098  93.4384699
  19.6481997  93.7013722  94.0455960  24.4147816  93.6869994  94.8779315
  24.6311430  94.5694632  94.5768143  23.9341883  93.2956208  94.1484957
  19.1547037  96.6455707 101.4550059  19.0091618  96.9596010 102.3474341
  18.6772241  97.2640608 100.9020958  21.0143420  93.6358255 101.5030949
  21.0004989  92.7399349 101.1663247  21.7315848  93.6428919 102.1369235
  22.8669551  94.0695596 103.5484076  22.6087329  94.9912666 103.5468407
  22.3354591  93.6726030 104.2384541  27.8115740 107.1746383  96.3274162
  27.9852617 106.6092805  95.5748014  28.3044631 107.9747278  96.1453652
  20.4180316  92.5172636  96.7718519  20.5396227  91.5889282  96.9709407
  20.1282358  92.5311322  95.8596835  23.2871506  90.2027546  99.9085239
  23.3093203  90.2666879  98.9537219  23.7039565  89.3632055 100.1025745
  33.6655131  99.9382806  97.9464462  34.1086277  99.1890131  97.5483585
  32.7881641  99.9292942  97.5638194  28.7990912 106.4913147  93.4271060
  29.4941817 107.1119840  93.6458375  29.1414062 105.6408498  93.7023438
  30.6982335 103.9412853  94.9558391  31.2233659 104.2800125  94.2307711
  30.6104688 103.0059868  94.7721525  30.5074116 101.4238223 107.5742317
  30.5572121 101.2588230 108.5157840  30.3988040 100.5565482 107.1840198
  19.3910375 104.1026768  94.8634406  19.5398495 104.7862233  94.2101079
  20.1976818 104.0831858  95.3783862  27.7977879  97.4069151 108.8901624
  28.6987741  97.2675616 108.5985622  27.8725853  97.5723606 109.8299801
  22.1320684  94.7836005 107.7354810  21.2623993  95.0769572 107.4637399
  22.3680164  95.3676450 108.4562074  32.0092313 103.8435164 107.8184339
  31.7177121 104.2065145 108.6547800  31.3964444 103.1302172 107.6397671
  33.2087995 101.4088044 100.3386909  34.0434887 101.8477848 100.5024469
  33.3447124 100.9326697  99.5195155  30.2579501  98.9667779 106.2864397
  30.7333623  99.1595425 105.4783248  29.3345067  99.0226965 106.0407781
  17.1463008 100.1291946  95.8695475  16.9009050  99.2254276  96.0675685
  17.3158923 100.1309096  94.9274953  24.8359718  91.0015622 105.2520231
  25.3541662  91.7376649 104.9266719  24.4814851  91.3079616 106.0866990
  16.4158656  95.8620304  93.3681637  15.7227900  95.9364659  92.7121673
  16.1710407  95.0980647  93.8903154  25.0872312  87.4215905 100.7721127
  25.3674066  86.7539094 101.3981554  25.8722919  87.6145001 100.2595791
  22.8905781 106.5974899  92.3346154  22.3179748 107.2165086  91.8816626
  23.4638574 107.1474261  92.8686076  28.9581170  95.8433539 104.5192702
  29.9098593  95.9431637 104.5404927  28.7884621  95.0511807 105.0290787
  26.9795550  92.9289122 104.7052103  26.3845482  93.2094135 104.0098592
  26.6945247  93.4183023 105.4768845  26.1103040 106.8812049  93.4654736
  27.0433713 106.8157611  93.6687611  26.0226253 107.7168316  93.0069269
  28.7391057 106.1977919  90.4258684  28.6604689 105.8637783  91.3194441
  29.5600724 106.6899687  90.4250156  31.4369248  99.0639659 103.6335002
  31.4045568  98.1255659 103.8194686  32.0469872  99.1423695 102.9000827
  23.2752579  97.9335712  89.6762206  24.2211684  97.8041920  89.7450624
  22.8966824  97.1950373  90.1531634  31.5863737  95.8550702 103.6793285
  31.0702785  95.0709159 103.4923214  32.4703685  95.5269419 103.8439805
  29.2474464  89.5991718  99.6389098  29.0499285  89.2906806 100.5232430
  29.8574169  90.3253357  99.7687028  37.2545798 100.1255665 102.7741039
  37.9849186  99.8640954 103.3348742  36.6452743  99.3884387 102.8143107
  35.3361095  98.2663528 103.3715490  34.6094259  98.1319493 102.7631982
  34.9208382  98.5740357 104.1772208  21.4595496  95.8585688  89.6117091
  20.5526952  95.5618801  89.6879805  21.7371477  95.5615506  88.7451378
  23.0757562  90.4022578  95.7661333  22.2658290  90.0569663  96.1416579
  23.7641979  90.0930121  96.3548944  25.0048110  89.4800624  97.3885629
  25.5579149  89.8996078  98.0475652  25.2418197  88.5536373  97.4308585
  20.2294281  92.7172623  89.7529071  21.0913445  93.0427522  90.0124888
  20.4144625  91.9304119  89.2402136  28.3826917  91.5901150  96.8964294
  27.8025586  92.2485954  96.5142346  28.1162850  90.7678494  96.4851711
  26.8330484  90.9906207  99.0985614  27.3330262  91.1022742  98.2899933
  27.4766092  90.6867260  99.7386422  27.1651795  93.7501240  95.9520642
  26.2777650  94.0350891  95.7340837  27.5805784  93.5895003  95.1047919
  30.5166331  93.7747761  99.6674981  31.2926722  94.2644213  99.9399598
  29.7914466  94.2005815 100.1246851  32.9538890  94.4875380 100.7248922
  33.5483381  94.2471116 100.0142230  33.0265474  93.7682511 101.3522458
  26.3095009 103.5145915  90.0468662  27.0130859 103.7195917  90.6626317
  25.5857658 104.0822677  90.3117745  27.1392819  99.2655776  96.1670932
  27.0828020  99.7224327  95.3278564  27.6921162  98.5046461  95.9893775
  30.9497625  95.0545508  96.9921052  30.6934559  94.6542144  97.8229259
  30.3250493  95.7689302  96.8671191  35.2609963  97.7941581  99.4992343
  34.7009521  97.8634770 100.2723905  34.6553466  97.6182566  98.7791839
  28.2181706 103.9528444  92.0967122  29.0527310 103.5209642  91.9144597
  28.0566049 103.7810458  93.0244016  27.8727598 100.4560557  93.4623461
  27.8176402 100.2904829  92.5211905  27.2473654 101.1636590  93.6185651
  21.1823724  89.9568666  93.0408780  21.1702394  90.9010506  93.1977050
  22.0747146  89.7738812  92.7468241  24.9975843  86.5511443  97.2954716
  24.2308239  85.9969930  97.4411399  25.4086548  86.6233312  98.1568868
  36.8465981 114.4698095 102.1922299  37.4844391 114.3504842 101.4885639
  36.7286824 115.4178939 102.2510251  33.6555688 114.4225523 102.1283823
  33.3174199 114.3066588 101.2404358  34.5245456 114.0216688 102.1084829
  31.3563967 113.1913771  91.4600763  31.6089488 112.6695292  90.6984226
  30.4188526 113.0279916  91.5627447  36.4007250 112.1949549  99.2675507
  37.1870339 111.7768972  98.9165924  36.6645954 113.0995641  99.4357155
  41.8015677 112.1324782 100.1708485  42.5340849 111.5623999 100.4046315
  41.0455033 111.7446383 100.6114991  33.4191797 114.5552024  97.3671828
  33.0550004 114.0282645  98.0784749  34.2758913 114.1650493  97.1938313
  39.3241097 105.8446356 104.6303094  38.9924422 106.7141767 104.4064309
  38.7286711 105.5282640 105.3097124  33.0597284 109.5841923  92.3633176
  33.2271686 110.4522160  92.7303647  32.8694453 109.7469205  91.4394465
  39.2169761 110.5641442 101.7096444  38.3086638 110.4956851 101.4155205
  39.1657356 111.0413387 102.5378269  33.0386504 112.0399581  93.3479843
  32.9186130 112.4856632  94.1865323  32.3439093 112.3884898  92.7893381
  41.0831407 108.7657881 103.4874318  40.4405787 109.0590414 102.8414112
  40.5786335 108.6510801 104.2927514  38.7371571 112.5121054  94.1760177
  39.6489427 112.7448441  94.0007875  38.2281218 113.0958098  93.6135256
  33.3743408 111.8718289 105.1855027  34.2204604 112.2957702 105.3289676
  33.3142046 111.2151913 105.8793590  36.5242854 109.5322657 106.8436200
  36.2803786 110.2864717 106.3070476  36.8002784 109.9108005 107.6783447
  38.4781316 116.0761269 105.5213466  38.6898212 116.7193029 104.8447847
  38.4311065 115.2423586 105.0535396  36.0807545 108.6879090 102.4250038
  35.2192024 108.9860343 102.7166775  36.1069980 108.9049489 101.4931071
  31.8338001 113.3544433  95.6413409  32.5362044 113.8065477  96.1087335
  31.5018629 112.7128252  96.2693302  25.5763335 111.6127986 100.9430542
  24.7862389 111.8685514 100.4670653  26.0674582 112.4276323 101.0482583
  27.5278080 111.9772565  97.9014019  26.7309243 112.0891259  98.4197515
  27.3003672 112.3159217  97.0354910  47.6833137 115.2971973 100.0420795
  46.9296846 114.7279371  99.8864799  47.8180679 115.2634638 100.9891429
  36.4224229 103.6915937 104.2474407  36.0788498 104.5817579 104.1713518
  36.7903192 103.5017595 103.3843992  36.3874512 113.6824548  92.7546843
  35.8721135 114.4529153  92.9935230  36.1151820 113.0089685  93.3779904
  33.9721623 108.5274249  97.8132081  33.1163219 108.1381100  97.6337720
  34.3848575 108.6066210  96.9531866  35.5020769 106.0620593 102.2123641
  34.9985565 106.0250728 101.3991446  35.7951376 106.9713335 102.2720297
  31.7463655 106.1459322 101.2189822  32.6116652 105.9502131 100.8595712
  31.8141164 105.9169674 102.1459179  41.3608786 116.4356903  94.6900016
  40.5838229 116.0968063  94.2455178  42.0400267 116.4409526  94.0154981
  36.1760815 111.5551641  94.5806624  35.8710951 111.8697790  95.4316767
  37.1291257 111.6333060  94.6233957  39.6000093 115.9090884 101.3466624
  38.9423767 116.5990146 101.4346753  40.4040492 116.2987316 101.6900610
  29.3525974 108.3761530  98.5906189  29.9269726 108.1536712  97.8579382
  29.9396957 108.4450225  99.3434791  38.4105552 114.2635257  99.3970566
  38.9237433 114.8965249  99.8992275  39.0606775 113.6636453  99.0313926
  29.6795562 110.4065991  92.6102074  28.8432874 110.7440678  92.9311349
  29.5400331 110.2714971  91.6729211  31.6548642 105.2502779  97.3181259
  31.0013054 104.9351796  96.6937873  31.6129116 104.6278520  98.0441082
  34.8886382 111.7384713 101.6428906  33.9708944 111.9599660 101.4850594
  35.3046526 111.8131023 100.7840614  35.6721430 113.1376128  96.7731587
  36.4193249 113.6497525  96.4638709  35.9413020 112.8160181  97.6335980
  38.1200267 110.1733245  98.7550376  37.3823024 109.6610631  99.0860618
  38.3727041 109.7333626  97.9433653  38.2211895 102.9509497  99.3492145
  38.5270772 102.0906860  99.0618060  38.9464500 103.5427117  99.1491139
  32.4932974 113.2463290  99.8568336  32.5481584 112.2937126  99.7810813
  31.6824176 113.4022729 100.3409635  30.4325334 111.8640349  97.6158715
  29.6193200 112.1634520  98.0223907  30.9284329 111.4696038  98.3333197
  36.0299546 112.3282174 106.4473609  36.3848934 112.5553647 107.3068075
  36.6771677 112.6600551 105.8250864  41.7597283 115.4500610  97.1522938
  41.6215182 115.6402206  96.2244127  41.4033502 116.2119993  97.6090989
  29.9239409 109.4358705 103.2319950  30.5638788 109.2947464 102.5342913
  29.0916940 109.1493218 102.8558552  41.7866663 117.5177137 102.1634209
  42.2203169 117.4252426 103.0117263  42.4998243 117.4934637 101.5254225
  27.0082476 112.8804217  95.4214695  26.0780065 112.8188673  95.6384657
  27.1039948 112.3580170  94.6251336  26.9268026 109.4059030  98.0092937
  27.1874843 110.3204363  97.9002097  27.7485198 108.9383472  98.1589550
  42.6482212 117.5600837 104.6967095  42.8418102 118.4646648 104.9426370
  42.5482830 117.1008256 105.5305680  34.3018523 107.4458728 107.1957422
  33.6546438 108.1448678 107.1021899  35.0719538 107.8794872 107.5633670
  34.4782657 115.2839493 105.2554242  35.4074717 115.4350652 105.0823209
  34.0573687 115.3723514 104.4002888  29.5533942 110.2513219  89.8099981
  28.6763408 110.1302019  89.4462228  30.0291695 109.4599297  89.5578870
  36.0494518 108.4134138  99.6996707  36.5463217 107.6604101  99.3797777
  35.2781499 108.4498455  99.1339916  43.9024275 114.1174504 101.3414999
  43.8914152 114.9999219 100.9708932  43.0341655 113.7646055 101.1469536
  32.6329487 110.5551521  99.4268392  32.2627274 110.0022562 100.1149297
  33.1288579 109.9509655  98.8743392  40.5196850 113.0123145  97.8085165
  40.9857302 113.8451137  97.7345467  40.9704350 112.5468127  98.5130423
  38.4913513 105.3803732 101.8476066  37.5776592 105.6107959 102.0158273
  38.9206614 105.4642176 102.6990098  38.2619971 113.5693624 104.3475960
  37.6091421 113.8169531 103.6928413  38.6400351 112.7557762 104.0138437
  28.0294820 107.9655512 105.6721498  28.0936147 108.8270343 105.2598896
  27.9661941 107.3529514 104.9393856  24.2812636 111.8455074  95.2512887
  24.5766077 110.9365752  95.1979941  23.3800671 111.8242813  94.9293889
  27.8106883 109.9211070 101.2340436  27.0893468 110.5347038 101.0947909
  28.6000138 110.4568835 101.1557081  30.6133196 107.2565497 107.5081087
  31.1367598 107.5027793 108.2707397  30.3945529 108.0885532 107.0884225
  26.0100477 109.5269172  95.3752212  25.6813183 108.6466550  95.1927318
  26.3639848 109.4716840  96.2628601  29.1242300 109.8142141  95.7427690
  29.4638373 110.3428063  95.0206298  29.5714421 110.1522547  96.5186256
  31.8185741 108.1979192 105.1930758  31.4782562 107.3987005 105.5951438
  31.1124747 108.4980903 104.6207591  32.4702213 105.2828504 103.6458081
  33.2928282 104.8088983 103.5236971  32.7140276 106.0618988 104.1456767
  31.1110447 108.3116763  93.9420983  31.8318810 108.6898016  93.4384699
  30.4875752 109.0305640  94.0455960  35.2541570 109.0161912  94.8779315
  35.4705185 109.8986550  94.5768143  34.7735637 108.6248125  94.1484957
  29.9940792 111.9747625 101.4550059  29.8485372 112.2887928 102.3474341
  29.5165995 112.5932525 100.9020958  31.8537175 108.9650173 101.5030949
  31.8398743 108.0691266 101.1663247  32.5709603 108.9720837 102.1369235
  33.7063305 109.3987513 103.5484076  33.4481083 110.3204584 103.5468407
  33.1748346 109.0017948 104.2384541  31.2574071 107.8464553  96.7718519
  31.3789982 106.9181200  96.9709407  30.9676113 107.8603239  95.8596835
  34.1265261 105.5319464  99.9085239  34.1486958 105.5958797  98.9537219
  34.5433320 104.6923972 100.1025745  44.5048885 115.2674723  97.9464462
  44.9480031 114.5182049  97.5483585  43.6275396 115.2584860  97.5638194
  41.3467871 116.7530140 107.5742317  41.3965876 116.5880148 108.5157840
  41.2381794 115.8857399 107.1840198  38.6371633 112.7361068 108.8901624
  39.5381496 112.5967533 108.5985622  38.7119608 112.9015523 109.8299801
  32.9714439 110.1127923 107.7354810  32.1017748 110.4061489 107.4637399
  33.2073919 110.6968368 108.4562074  44.0481750 116.7379962 100.3386909
  44.8828641 117.1769766 100.5024469  44.1840879 116.2618615  99.5195155
  41.0973256 114.2959697 106.2864397  41.5727377 114.4887343 105.4783248
  40.1738821 114.3518882 106.0407781  35.6753472 106.3307540 105.2520231
  36.1935416 107.0668567 104.9266719  35.3208605 106.6371533 106.0866990
  27.2552410 111.1912221  93.3681637  26.5621655 111.2656576  92.7121673
  27.0104162 110.4272565  93.8903154  35.9266067 102.7507823 100.7721127
  36.2067820 102.0831012 101.3981554  36.7116673 102.9436918 100.2595791
  39.7974925 111.1725457 104.5192702  40.7492348 111.2723554 104.5404927
  39.6278375 110.3803725 105.0290787  37.8189304 108.2581040 104.7052103
  37.2239236 108.5386053 104.0098592  37.5339001 108.7474941 105.4768845
  42.2763003 114.3931576 103.6335002  42.2439323 113.4547577 103.8194686
  42.8863626 114.4715613 102.9000827  34.1146334 113.2627629  89.6762206
  35.0605438 113.1333837  89.7450624  33.7360578 112.5242291  90.1531634
  42.4257491 111.1842620 103.6793285  41.9096540 110.4001076 103.4923214
  43.3097440 110.8561336 103.8439805  40.0868218 104.9283635  99.6389098
  39.8893039 104.6198723 100.5232430  40.6967924 105.6545274  99.7687028
  48.0939553 115.4547583 102.7741039  48.8242941 115.1932871 103.3348742
  47.4846498 114.7176305 102.8143107  46.1754850 113.5955446 103.3715490
  45.4488013 113.4611411 102.7631982  45.7602137 113.9032274 104.1772208
  32.2989251 111.1877606  89.6117091  31.3920706 110.8910718  89.6879805
  32.5765232 110.8907424  88.7451378  33.9151316 105.7314495  95.7661333
  33.1052045 105.3861580  96.1416579  34.6035733 105.4222039  96.3548944
  35.8441865 104.8092542  97.3885629  36.3972903 105.2287996  98.0475652
  36.0811951 103.8828290  97.4308585  31.0688035 108.0464541  89.7529071
  31.9307199 108.3719439  90.0124888  31.2538379 107.2596037  89.2402136
  39.2220672 106.9193067  96.8964294  38.6419341 107.5777871  96.5142346
  38.9556604 106.0970412  96.4851711  37.6724238 106.3198125  99.0985614
  38.1724017 106.4314660  98.2899933  38.3159846 106.0159178  99.7386422
  38.0045550 109.0793158  95.9520642  37.1171405 109.3642808  95.7340837
  38.4199539 108.9186921  95.1047919  41.3560086 109.1039679  99.6674981
  42.1320476 109.5936131  99.9399598  40.6308220 109.5297733 100.1246851
  43.7932645 109.8167298 100.7248922  44.3877135 109.5763034 100.0142230
  43.8659228 109.0974428 101.3522458  37.9786574 114.5947694  96.1670932
  37.9221775 115.0516245  95.3278564  38.5314916 113.8338378  95.9893775
  41.7891379 110.3837426  96.9921052  41.5328314 109.9834061  97.8229259
  41.1644247 111.0981219  96.8671191  46.1003717 113.1233499  99.4992343
  45.5403275 113.1926688 100.2723905  45.4947221 112.9474483  98.7791839
  38.7121353 115.7852475  93.4623461  38.6570157 115.6196746  92.5211905
  38.0867408 116.4928508  93.6185651  32.0217478 105.2860584  93.0408780
  32.0096148 106.2302424  93.1977050  32.9140900 105.1030729  92.7468241
  35.8369598 101.8803361  97.2954716  35.0701994 101.3261847  97.4411399
  36.2480303 101.9525229  98.1568868  47.2617984 119.0207855 104.2474407
  46.9182253 119.9109497 104.1713518  47.6296946 118.8309513 103.3843992
  49.0605649 118.2801414  99.3492145  49.3664526 117.4198778  99.0618060
  49.7858254 118.8719034  99.1491139  46.7659821 118.0799740 100.7721127
  47.0461575 117.4122929 101.3981554  47.5510428 118.2728836 100.2595791
  50.9261973 120.2575553  99.6389098  50.7286794 119.9490641 100.5232430
  51.5361678 120.9837192  99.7687028  46.6763352 117.2095278  97.2954716
  45.9095748 116.6553765  97.4411399  47.0874057 117.2817147  98.1568868
   4.3258121  30.9866425  86.7666101   3.5721829  30.4173823  86.6110106
   4.4605662  30.9529090  87.7136736   0.6906733  32.4274414  87.0632216
   1.5253625  32.8664218  87.2269776   0.8265862  31.9513067  86.2440462
   4.7364536  31.1442035  89.4986346   5.4667924  30.8827323  90.0594049
   4.1271481  30.4070757  89.5388414   2.8179833  29.2849898  90.0960797
   2.0912997  29.1505863  89.4877288   2.4027120  29.5926726  90.9017515
   2.7428701  28.8127951  86.2237650   2.1828259  28.8821140  86.9969212
   2.1372204  28.6368935  85.5037146   4.3284719  45.4884465  88.9167605
   4.9663129  45.3691212  88.2130945   4.2105562  46.4365309  88.9755557
   1.1374425  45.4411893  88.8529130   0.7992937  45.3252957  87.9649665
   2.0064194  45.0403058  88.8330136   1.6194208  46.5946744  94.8115335
   1.6082849  46.1999543  93.9395839   1.7814848  45.8612817  95.4049107
   2.5760800  50.9618337  80.1540486   1.9248780  51.5472417  79.7674500
   3.3705163  51.4924532  80.2135523   3.8825988  43.2135918  85.9920813
   4.6689077  42.7955342  85.6411230   4.1464692  44.1182011  86.1602462
   4.0536065  48.6508769  80.6909470   3.4181898  48.7243395  81.4030375
   3.7233471  49.2402368  80.0128549   9.2834415  43.1511152  86.8953792
  10.0159587  42.5810368  87.1291621   8.5273770  42.7632752  87.3360297
   0.9010534  45.5738393  84.0917134   0.5368742  45.0469014  84.8030056
   1.7577650  45.1836862  83.9183620   6.8059835  36.8632726  91.3548400
   6.4743160  37.7328137  91.1309615   6.2105448  36.5469010  92.0342431
   3.2991355  49.0645272  90.7544313   2.9992078  49.9670311  90.6460120
   2.9542414  48.7977455  91.6065466   6.6988498  41.5827812  88.4341750
   5.7905376  41.5143220  88.1400511   6.6476094  42.0599757  89.2623576
   8.5650145  39.7844250  90.2119624   7.9224525  40.0776783  89.5659419
   8.0605073  39.6697171  91.0172821   6.2190308  43.5307424  80.9005484
   7.1308165  43.7634810  80.7253181   5.7099955  44.1144468  80.3380562
   4.5031076  47.9532051  94.5366776   4.9114432  47.5114462  93.7921409
   3.7808338  47.3784679  94.7900969   0.8562146  42.8904658  91.9100333
   1.7023341  43.3144072  92.0534982   0.7960784  42.2338282  92.6038896
   4.8259891  48.5133242  88.2919065   4.1968753  48.6778956  87.5895133
   4.4385553  48.9274852  89.0630029   8.7049123  49.4487680  85.6463429
   8.0200161  49.8286581  85.0960462   8.7892972  50.0583006  86.3795377
   4.0061591  40.5509026  93.5681507   3.7622523  41.3051087  93.0315783
   4.2821522  40.9294374  94.4028754   5.9600054  47.0947639  92.2458772
   6.1716949  47.7379399  91.5693153   5.9129802  46.2609955  91.7780702
   3.5626283  39.7065459  89.1495345   2.7010762  40.0046713  89.4412082
   3.5888718  39.9235858  88.2176377   7.0745882  49.9719594  90.4181130
   7.8963326  49.5699782  90.1363811   7.0708285  49.8687828  91.3697246
  15.1651875  46.3158343  86.7666101  14.4115584  45.7465741  86.6110106
  15.2999416  46.2821007  87.7136736   2.1818980  51.8095312  96.5721163
   1.7382834  51.0231690  96.2542067   2.8436193  51.9974462  95.9065053
   4.2800218  52.0898111  94.6002564   4.2618693  52.9106993  94.1082833
   5.2020138  51.9652187  94.8252705   3.9042967  34.7102307  90.9719714
   3.5607236  35.6003949  90.8958825   4.2721929  34.5203965  90.1089299
   3.8693250  44.7010918  79.4792149   3.3539873  45.4715523  79.7180537
   3.5970558  44.0276054  80.1025211   1.4540361  39.5460619  84.5377388
   0.5981957  39.1567469  84.3583026   1.8667312  39.6252580  83.6777173
   2.9839507  37.0806962  88.9368947   2.4804303  37.0437097  88.1236753
   3.2770114  37.9899705  88.9965604   8.8427524  47.4543273  81.4145323
   8.0656966  47.1154432  80.9700485   9.5219005  47.4595896  80.7400288
   3.6579553  42.5738010  81.3051930   3.3529688  42.8884159  82.1562074
   4.6109995  42.6519430  81.3479263   2.1025985  48.7328233  82.9544884
   1.5747346  47.9980993  82.6418122   1.6013487  49.5102910  82.7084853
   7.0818831  46.9277254  88.0711931   6.4242505  47.6176515  88.1592059
   7.8859230  47.3173686  88.4145917   5.8924289  45.2821627  86.1215872
   6.4056171  45.9151618  86.6237582   6.5425513  44.6822822  85.7559232
   3.1546664  55.2605951  78.8776544   2.4808362  55.5637648  79.4861501
   3.5412486  56.0635031  78.5282001   2.3705120  42.7571082  88.3674213
   1.4527682  42.9786029  88.2095901   2.7865264  42.8317393  87.5085920
   3.1540168  44.1562498  83.4976893   3.9011987  44.6683895  83.1884015
   3.4231758  43.8346551  84.3581287   1.4266818  46.6521039  80.4803847
   0.5178037  46.3680071  80.5776317   1.4561902  47.0720117  79.6207154
   6.6586086  50.2627628  84.2495015   6.2048413  49.4218538  84.3060205
   6.0280052  50.8989026  84.5869795   5.6019005  41.1919614  85.4795682
   4.8641762  40.6797000  85.8105925   5.8545779  40.7519996  84.6678959
   5.1019025  52.1004125  85.1844833   5.3941999  52.6609182  84.4657199
   5.6117645  52.3932686  85.9397992   5.7030632  33.9695866  86.0737452
   6.0089509  33.1093230  85.7863367   6.4283237  34.5613486  85.8736446
   1.1242906  48.1929782  77.8191926   0.6862336  47.4765641  77.3597563
   1.8653347  48.4205897  77.2577017   3.5118284  43.3468543  93.1718916
   3.8667672  43.5740017  94.0313381   4.1590415  43.6786920  92.5496171
   9.2416021  46.4686979  83.8768245   9.1033919  46.6588575  82.9489434
   8.8852240  47.2306362  84.3336296   9.2685400  48.5363506  88.8879516
   9.7021907  48.4438795  89.7362570   9.9816981  48.5121007  88.2499532
   3.0013295  52.1365600  90.4212617   3.0550318  52.7056537  91.1890333
   2.1328077  52.3067485  90.0566654  10.1300950  48.5787207  91.4212401
  10.3236840  49.4833017  91.6671676  10.0301568  48.1194626  92.2550987
   1.7837261  38.4645098  93.9202729   1.1365176  39.1635047  93.8267205
   2.5538276  38.8981241  94.2878977   5.1916059  48.7293950  96.9953282
   5.0401565  48.5004501  96.0783366   5.1820738  49.6864551  97.0084627
   1.9601395  46.3025862  91.9799549   2.8893455  46.4537022  91.8068516
   1.5392425  46.3909883  91.1248195   1.3537879  55.4285623  81.0923623
   1.5289634  54.9573667  81.9069245   0.6670667  56.0551390  81.3204883
   2.3094942  49.7058130  87.1386924   1.9744775  49.6658900  88.0344574
   1.8098888  49.0402845  86.6657334   5.2454134  47.0514164  77.4123984
   4.6283304  46.3260992  77.3157036   4.7770622  47.8123524  77.0691058
   6.9008265  51.7613072  95.0729764   6.8420811  51.0772292  94.4060347
   7.3027784  52.5032062  94.6210390   6.9025673  49.7252656  93.3043744
   6.0152451  49.3878578  93.4270143   7.4724224  48.9935687  93.5412509
   3.5313256  39.4320508  86.4242014   4.0281955  38.6790470  86.1043084
   2.7600237  39.4684825  85.8585223  11.3843013  45.1360874  88.0660305
  11.3732889  46.0185589  87.6954238  10.5160393  44.7832424  87.8714842
   2.8925509  54.2840943  92.4263146   3.6053482  54.9188407  92.3539047
   2.4015538  54.3804809  91.6103147   4.6143036  48.1892195  83.9980437
   3.6799315  48.3093658  83.8285142   4.7919705  47.2864662  83.7340447
   8.0015588  44.0309515  84.5330471   8.4676040  44.8637506  84.4590774
   8.4523088  43.5654496  85.2375730   6.0691819  50.3753336  81.5316623
   6.3451663  50.2609930  82.4410497   5.1996318  49.9770821  81.4928796
   5.9732250  36.3990102  88.5721373   5.0595330  36.6294328  88.7403580
   6.4025352  36.4828546  89.4235405   5.7438709  44.5879993  91.0721267
   5.0910159  44.8355901  90.4173719   6.1219089  43.7744132  90.7383744
   2.7045883  54.6239687  85.1749437   2.8868277  53.8061343  85.6377189
   3.5278869  54.8407379  84.7374327   3.0388048  53.5507872  82.4364485
   3.5675815  53.0400326  81.8234648   3.3016268  53.2350402  83.3010018
   1.7926282  45.3299805  97.5587304   1.1166919  45.2293934  98.2289679
   2.6153916  45.1739018  98.0223301   0.5349065  56.6366732  91.7944920
   1.0867373  56.7998353  92.5594005   0.8755258  57.2271170  91.1224945
   5.3859939  51.4627989  97.6493574   5.9299843  52.0757948  97.1548529
   4.8046784  52.0207568  98.1660587   3.6717452  54.5848708  88.7808602
   3.5468592  53.7838447  88.2719547   4.3296543  55.0794901  88.2922572
   5.7352361  52.3857728  90.4088152   4.7882696  52.2663079  90.3366479
   6.0835134  51.4980226  90.4914413   2.7398794  52.1810444  86.6092504
   2.5923756  51.2527151  86.7900074   3.5652287  52.2030535  86.1249579
   6.3432916  53.0039003  87.6957377   7.2679463  52.7981864  87.5581828
   6.1748219  52.7555404  88.6046718   2.7360308  40.0348281  81.6024621
   2.9523923  40.9172919  81.3013450   2.2554375  39.6434495  80.8730263
   1.1882043  40.4173883  90.2729383   0.9299821  41.3390954  90.2713713
   0.6567083  40.0204317  90.9629847   6.1328232  53.5224670  83.0519468
   6.3065109  52.9571092  82.2993321   6.6257123  54.3225565  82.8698958
   1.6083999  36.5505833  86.6330546   1.6305696  36.6145166  85.6782525
   2.0252058  35.7110342  86.8271052  11.9867623  46.2861093  84.6709768
  12.4298769  45.5368418  84.2728891  11.1094133  46.2771229  84.2883500
   7.1203404  52.8391434  80.1516367   7.8154309  53.4598127  80.3703681
   7.4626554  51.9886786  80.4268745   9.0194827  50.2891140  81.6803697
   9.5446152  50.6278413  80.9553018   8.9317180  49.3538155  81.4966832
   0.6814876  54.2025214  93.8093574   0.9902003  53.9574360  94.6816274
   1.4790358  54.4071852  93.3212444   8.7088734  50.9224044  96.9854895
   7.9184277  50.9048182  96.4459395   8.4722088  51.4612337  97.7403932
   8.8286609  47.7716510  94.2987624   8.8784614  47.6066517  95.2403147
   8.7200532  46.9043769  93.9085505   6.1190371  43.7547438  95.6146931
   7.0200234  43.6153903  95.3230928   6.1938345  43.9201893  96.5545108
  10.3304805  50.1913451  94.5429646  10.0389614  50.5543432  95.3793106
   9.7176937  49.4780460  94.3642978  11.5300488  47.7566331  87.0632216
  12.3647379  48.1956135  87.2269776  11.6659617  47.2804984  86.2440462
   8.5791994  45.3146066  93.0109704   9.0546115  45.5073712  92.2028555
   7.6557559  45.3705252  92.7653087   3.1572210  37.3493910  91.9765537
   3.6754154  38.0854937  91.6512026   2.8027343  37.6557903  92.8112297
   3.4084804  33.7694192  87.4966434   3.6886558  33.1017381  88.1226861
   4.1935411  33.9623288  86.9841098   1.2118273  52.9453186  79.0591460
   0.6392240  53.5643373  78.6061932   1.7851066  53.4952548  79.5931382
   7.2793663  42.1911826  91.2438009   8.2311086  42.2909924  91.2650233
   7.1097113  41.3990095  91.7536093   5.3008042  39.2767409  91.4297410
   4.7057974  39.5572422  90.7343899   5.0157739  39.7661310  92.2014151
   4.4315533  53.2290336  80.1900043   5.3646206  53.1635898  80.3932918
   4.3438745  54.0646603  79.7314575   7.0603549  52.5456207  77.1503990
   6.9817181  52.2116070  78.0439748   7.8813216  53.0377974  77.1495462
   9.7581740  45.4117946  90.3580309   9.7258061  44.4733947  90.5439993
  10.3682364  45.4901983  89.6246134   1.5965071  44.2813999  76.4007513
   2.5424176  44.1520207  76.4695931   1.2179316  43.5428661  76.8776941
   9.9076229  42.2028989  90.4038592   9.3915278  41.4187446  90.2168521
  10.7916177  41.8747706  90.5685111   7.5686956  35.9470005  86.3634405
   7.3711777  35.6385093  87.2477737   8.1786661  36.6731644  86.4932334
  15.5758290  46.4733953  89.4986346  16.3061679  46.2119241  90.0594049
  14.9665236  45.7362675  89.5388414  13.6573587  44.6141815  90.0960797
  12.9306751  44.4797780  89.4877288  13.2420874  44.9218644  90.9017515
   1.4803764  48.3331745  97.8608170   2.4006773  48.5110344  98.0548216
   1.4453347  47.3887790  97.7087869   1.3970054  36.7500865  82.4906639
   0.5870783  36.4047950  82.8661885   2.0854471  36.4408409  83.0794251
   3.3260602  35.8278912  84.1130936   3.8791641  36.2474365  84.7720959
   3.5630689  34.9014660  84.1553892   6.7039410  37.9379437  83.6209600
   6.1238079  38.5964241  83.2387653   6.4375342  37.1156781  83.2097018
   5.1542976  37.3384495  85.8230921   5.6542754  37.4501029  85.0145239
   5.7978584  37.0345547  86.4631729   5.4864288  40.0979527  82.6765948
   4.5990143  40.3829178  82.4586143   5.9018277  39.9373291  81.8293225
   8.8378824  40.1226048  86.3920288   9.6139214  40.6122501  86.6644905
   8.1126958  40.5484102  86.8492157  11.2751382  40.8353667  87.4494228
  11.8695873  40.5949403  86.7387537  11.3477966  40.1160798  88.0767765
   4.6307501  49.8624202  76.7713968   5.3343351  50.0674204  77.3871624
   3.9070150  50.4300964  77.0363052   5.4605311  45.6134063  82.8916239
   5.4040513  46.0702615  82.0523871   6.0133654  44.8524748  82.7139081
   9.2710117  41.4023795  83.7166358   9.0147051  41.0020431  84.5474566
   8.6462985  42.1167589  83.5916497  13.5822455  44.1419868  86.2237650
  13.0222013  44.2113058  86.9969212  12.9765958  43.9660853  85.5037146
   6.5394198  50.3006731  78.8212429   7.3739802  49.8687930  78.6389903
   6.3778541  50.1288745  79.7489323   6.1940091  46.8038844  80.1868768
   6.1388894  46.6383116  79.2457212   5.5686146  47.5114877  80.3430958
   3.5085998  49.1087756  99.5122331   4.3777157  49.2828409  99.1508966
   3.0292749  49.9282173  99.3898060   3.3188336  32.8989730  84.0200023
   2.5520731  32.3448217  84.1656705   3.7299041  32.9711599  84.8814175
  15.1678474  60.8176382  88.9167605  15.8056884  60.6983130  88.2130945
  15.0499316  61.7657226  88.9755557  11.9768180  60.7703810  88.8529130
  11.6386691  60.6544875  87.9649665  12.8457948  60.3694975  88.8330136
   7.8354996  62.6239287  84.8426021   7.2719861  62.5329224  84.0742309
   7.7207391  61.8039191  85.3228513  12.4587963  61.9238662  94.8115335
  12.4476604  61.5291460  93.9395839  12.6208602  61.1904735  95.4049107
   5.3819427  64.1190478  87.6810241   6.1740719  63.7781303  87.2656541
   5.6216078  64.2285453  88.6012395  13.4154554  66.2910254  80.1540486
  12.7642534  66.8764335  79.7674500  14.2098917  66.8216449  80.2135523
   7.3410181  63.3799392  80.5527620   8.1141057  62.8328379  80.4140496
   7.6935580  64.2443641  80.7642082   9.1795224  64.7075774  93.7594519
   8.8885090  65.6121405  93.6441186   9.8152208  64.7492302  94.4738589
  10.1051431  62.0852622  90.3495879  10.7015003  61.8608645  89.6352842
  10.1626402  61.3437368  90.9521327   9.6776459  59.5392058  78.1846070
   9.9301980  59.0173579  77.4229533   8.7401018  59.3758203  78.2872754
  14.7219742  58.5427836  85.9920813  15.5082831  58.1247259  85.6411230
  14.9858446  59.4473928  86.1602462  14.8929819  63.9800686  80.6909470
  14.2575652  64.0535313  81.4030375  14.5627226  64.5694285  80.0128549
  20.1228169  58.4803069  86.8953792  20.8553341  57.9102286  87.1291621
  19.3667525  58.0924670  87.3360297   9.3972748  61.4420164  80.3870445
   9.2809006  60.7665067  81.0551529   9.5075008  60.9552538  79.5702598
  11.7404289  60.9030311  84.0917134  11.3762496  60.3760932  84.8030056
  12.5971405  60.5128780  83.9183620  17.6453590  52.1924643  91.3548400
  17.3136914  53.0620054  91.1309615  17.0499203  51.8760927  92.0342431
  11.3809776  55.9320210  79.0878483  11.5484178  56.8000447  79.4548954
  11.1906945  56.0947492  78.1639772  14.1385109  64.3937189  90.7544313
  13.8385832  65.2962228  90.6460120  13.7936169  64.1269373  91.6065466
   7.5897591  60.8450986  86.7881018   6.6648087  60.7127200  86.9958709
   7.8382004  61.6245205  87.2850960  17.5382253  56.9119730  88.4341750
  16.6299130  56.8435138  88.1400511  17.4869849  57.3891675  89.2623576
  11.3598997  58.3877868  80.0725150  11.2398622  58.8334919  80.9110630
  10.6651585  58.7363186  79.5138688   4.9506402  60.4884260  87.6224807
   5.0798783  60.7418739  88.5364218   4.2703853  61.0811968  87.3029462
   9.1205889  71.1581510  83.7215281   9.0429919  72.1089335  83.8003761
   8.5167532  70.8127382  84.3790207  11.6123119  58.3309375  96.3776648
  10.8356453  58.8903295  96.3679512  12.2513682  58.8166158  96.8991518
  19.4043899  55.1136168  90.2119624  18.7618279  55.4068701  89.5659419
  18.8998828  54.9989088  91.0172821  17.0584063  58.8599341  80.9005484
  17.9701919  59.0926728  80.7253181  16.5493710  59.4436385  80.3380562
   9.8669491  61.1394829  95.9394615  10.6084175  61.6779873  95.6629438
   9.1606476  61.7661117  96.0966167  15.3424831  63.2823969  94.5366776
  15.7508187  62.8406380  93.7921409  14.6202092  62.7076597  94.7900969
  11.6955901  58.2196576  91.9100333  12.5417096  58.6435989  92.0534982
  11.6354538  57.5630200  92.6038896  15.6653645  63.8425160  88.2919065
  15.0362508  64.0070874  87.5895133  15.2779307  64.2566769  89.0630029
  19.5442877  64.7779597  85.6463429  18.8593915  65.1578499  85.0960462
  19.6286726  65.3874924  86.3795377  14.8455346  55.8800944  93.5681507
  14.6016278  56.6343005  93.0315783  15.1215276  56.2586292  94.4028754
  16.7993809  62.4239557  92.2458772  17.0110704  63.0671316  91.5693153
  16.7523557  61.5901873  91.7780702  14.4020038  55.0357377  89.1495345
  13.5404517  55.3338631  89.4412082  14.4282472  55.2527776  88.2176377
  11.2181607  63.5799568  85.5569150  11.6819953  63.8587271  84.7673773
  10.9538405  62.6783012  85.3742241   8.1105688  63.1271049  88.4948913
   8.6807045  63.5558318  87.8566398   8.7013800  62.8453634  89.1933099
  10.1550493  59.7022720  82.3658715  10.8574536  60.1543764  82.8332642
   9.8231122  59.0606539  82.9938608   8.6030855  58.2934477  96.7409925
   7.9729515  58.9750758  96.9745322   8.4966943  58.1817558  95.7963063
   3.8975827  57.9606273  87.6675849   3.1074881  58.2163801  87.1915960
   4.3887074  58.7754611  87.7727889  17.9139637  65.3011512  90.4181130
  18.7357080  64.8991699  90.1363811  17.9102040  65.1979746  91.3697246
   5.8490572  58.3250852  84.6259326   5.0521736  58.4369546  85.1442821
   5.6216165  58.6637504  83.7600216  11.6796240  64.8495555  92.5741840
  11.7440673  65.3115962  93.4100012  10.9707164  64.2192920  92.7024150
   2.1813530  58.2136763  90.0990840   2.4321568  59.0983773  90.3648416
   2.7173078  58.0341365  89.3265932  26.0045630  61.6450260  86.7666101
  25.2509338  61.0757658  86.6110106  26.1393171  61.6112925  87.7136736
  11.3944258  66.5163663  82.4420821  11.2589933  67.3615198  82.8705668
  11.9354070  66.7182940  81.6786754   7.8811597  52.5955243  99.1035176
   7.4878543  52.0421441  99.7782820   8.6977738  52.9065821  99.4941693
   4.8473655  64.0339101  83.0148746   5.3598176  64.8282351  83.1654310
   5.4996368  63.3365391  82.9482347   6.6568540  67.1504857  85.0971499
   6.8335168  68.0722822  84.9092483   7.4525373  66.8363276  85.5265879
  10.7979558  54.0113122  96.6955432  11.5389272  54.6120275  96.6159895
  11.0297481  53.2690759  96.1373475   5.9420896  59.1969489  94.9733662
   5.8274412  58.2954746  95.2740761   5.0865414  59.4433186  94.6218479
  13.0212734  67.1387229  96.5721163  12.5776588  66.3523608  96.2542067
  13.6829948  67.3266380  95.9065053   7.7799855  68.6683031  91.0981841
   8.3307280  68.5400094  90.3258835   6.9411331  68.9677920  90.7476734
  15.1193972  67.4190029  94.6002564  15.1012448  68.2398910  94.1082833
  16.0413892  67.2944104  94.8252705  11.5767026  64.9334159  95.4426072
  12.1095363  64.1722447  95.2125380  11.0481107  64.6407810  96.1850227
  14.7436721  50.0394225  90.9719714  14.4000991  50.9295866  90.8958825
  15.1115684  49.8495882  90.1089299   2.8122572  62.3627755  83.7908316
   3.6497794  62.7724763  83.5742024   2.9900840  61.4227197  83.7608510
  14.7087004  60.0302836  79.4792149  14.1933627  60.8007440  79.7180537
  14.4364312  59.3567972  80.1025211  12.2934115  54.8752536  84.5377388
  11.4375711  54.4859387  84.3583026  12.7061067  54.9544497  83.6777173
  13.8233262  52.4098880  88.9368947  13.3198057  52.3729015  88.1236753
  14.1163869  53.3191622  88.9965604  10.0676148  52.4937609  87.9435129
  10.9329144  52.2980418  87.5841018  10.1353657  52.2647961  88.8704486
  19.6821278  62.7835190  81.4145323  18.9050721  62.4446350  80.9700485
  20.3612759  62.7887814  80.7400288  14.4973307  57.9029928  81.3051930
  14.1923443  58.2176077  82.1562074  15.4503749  57.9811348  81.3479263
  12.9419739  64.0620151  82.9544884  12.4141101  63.3272911  82.6418122
  12.4407242  64.8394827  82.7084853  17.9212585  62.2569172  88.0711931
  17.2636260  62.9468433  88.1592059  18.7252984  62.6465604  88.4145917
   7.6738467  54.7239817  85.3151496   8.2482219  54.5014999  84.5824689
   8.2609449  54.7928512  86.0680097  16.7318044  60.6113544  86.1215872
  17.2449926  61.2443536  86.6237582  17.3819268  60.0114740  85.7559232
   8.0008054  56.7544278  79.3347381   7.1645366  57.0918965  79.6556656
   7.8612823  56.6193258  78.3974518   9.9761134  51.5981066  84.0426565
   9.3225547  51.2830083  83.4183180   9.9341609  50.9756807  84.7686388
  11.0872339  61.8800361  75.9579857  10.1799401  61.6489615  76.1571006
  11.5843371  61.0837981  76.1453839  13.9940418  70.5897869  78.8776544
  13.3202117  70.8929565  79.4861501  14.3806240  71.3926949  78.5282001
  13.2098875  58.0863000  88.3674213  12.2921436  58.3077947  88.2095901
  13.6259018  58.1609310  87.5085920  13.9933923  59.4854416  83.4976893
  14.7405741  59.9975813  83.1884015  14.2625512  59.1638468  84.3581287
  12.2660573  61.9812956  80.4803847  11.3571792  61.6971989  80.5776317
  12.2955656  62.4012035  79.6207154  17.4979840  65.5919546  84.2495015
  17.0442167  64.7510456  84.3060205  16.8673807  66.2280944  84.5869795
  16.4412760  56.5211532  85.4795682  15.7035516  56.0088918  85.8105925
  16.6939533  56.0811913  84.6678959  15.9412779  67.4296042  85.1844833
  16.2335754  67.9901100  84.4657199  16.4511400  67.7224603  85.9397992
  16.5424387  49.2987784  86.0737452  16.8483264  48.4385147  85.7863367
  17.2676992  49.8905404  85.8736446   2.8348743  59.7018470  84.4619050
   2.6373143  59.1087831  83.7370116   2.2795407  59.3970681  85.1794988
  10.8145467  59.5941577  86.5813643  10.8694077  58.6415413  86.5056119
  10.0036669  59.7501016  87.0654941  11.9636660  63.5221700  77.8191926
  11.5256090  62.8057559  77.3597563  12.7047101  63.7497815  77.2577017
   8.7537827  58.2118637  84.3404022   7.9405692  58.5112807  84.7469214
   9.2496821  57.8174325  85.0578504  10.9046405  68.2076394  86.2738286
  10.8622583  68.4337240  85.3446818  11.8209103  67.9739768  86.4224088
  14.3512038  58.6760461  93.1718916  14.7061426  58.9031934  94.0313381
  14.9984170  59.0078838  92.5496171  20.0809775  61.7978897  83.8768245
  19.9427674  61.9880493  82.9489434  19.7245994  62.5598280  84.3336296
   8.2451901  55.7836992  89.9565257   8.8851281  55.6425751  89.2588220
   7.4129432  55.4971506  89.5803859  20.1079155  63.8655424  88.8879516
  20.5415662  63.7730713  89.7362570  20.8210736  63.8412924  88.2499532
   9.0212205  65.0839423  86.0700249   9.8152804  64.5889743  85.8682824
   8.3103898  64.5557286  85.7067955  13.8407050  67.4657518  90.4212617
  13.8944072  68.0348454  91.1890333  12.9721831  67.6359403  90.0566654
   5.3294969  59.2282504  82.1460002   4.3992557  59.1666960  82.3629964
   5.4252441  58.7058457  81.3496643   5.2480518  55.7537317  84.7338243
   5.5087335  56.6682650  84.6247404   6.0697690  55.2861760  84.8834856
   6.7205443  57.1675074  91.9037068   7.3928497  56.9592436  91.2549717
   5.8935230  56.9697160  91.4642300  20.9694704  63.9079125  91.4212401
  21.1630595  64.8124935  91.6671676  20.8695323  63.4486544  92.2550987
  12.6231015  53.7937015  93.9202729  11.9758930  54.4926965  93.8267205
  13.3932031  54.2273159  94.2878977  16.0309813  64.0585867  96.9953282
  15.8795320  63.8296419  96.0783366  16.0214493  65.0156469  97.0084627
  12.7995150  61.6317780  91.9799549  13.7287210  61.7828940  91.8068516
  12.3786180  61.7201801  91.1248195  11.5983481  65.6568445  89.7498086
  11.4594567  65.2887229  90.6224024  10.8098078  66.1716084  89.5782044
  12.1931633  70.7577541  81.0923623  12.3683389  70.2865584  81.9069245
  11.5064421  71.3843307  81.3204883  13.1488696  65.0350047  87.1386924
  12.8138529  64.9950817  88.0344574  12.6492642  64.3694763  86.6657334
   7.1232940  60.4417677  92.6639505   6.9852738  59.7097916  93.2651044
   8.0337864  60.3526577  92.3823693  16.0847888  62.3806082  77.4123984
  15.4677059  61.6552910  77.3157036  15.6164377  63.1415442  77.0691058
   9.7515241  60.1537637  92.1523185  10.4614860  59.5130829  92.1109803
   9.7084549  60.4050531  93.0749366  17.7402020  67.0904990  95.0729764
  17.6814566  66.4064210  94.4060347  18.1421538  67.8323980  94.6210390
   8.4644175  57.1402854  93.9718824   7.9281532  56.6893593  94.6240421
   7.8760884  57.2748763  93.2289289   6.7592719  73.9066904  87.8663483
   6.9989317  74.5385428  88.5442501   5.9161915  73.5554944  88.1528842
   7.8746434  56.5991506  76.5345288   6.9975900  56.4780307  76.1707535
   8.3504187  55.8077584  76.2824177  17.7419427  65.0544574  93.3043744
  16.8546206  64.7170496  93.4270143  18.3117978  64.3227605  93.5412509
   4.1983296  56.2758862  91.0571819   4.1141485  55.6684532  90.3222229
   3.3766003  56.7667880  91.0581315  11.2720580  69.7146026  90.2704987
  11.1990752  70.5200998  90.7824291  10.8297974  69.9137992  89.4453008
  11.0610360  68.9517796  83.7807808  10.2777882  69.4939476  83.8746033
  11.7603105  69.4691776  84.1802050  14.3707010  54.7612426  86.4242014
  14.8675710  54.0082388  86.1043084  13.5993992  54.7976742  85.8585223
  22.2236768  60.4652791  88.0660305  22.2126644  61.3477507  87.6954238
  21.3554147  60.1124342  87.8714842  13.7319264  69.6132860  92.4263146
  14.4447236  70.2480325  92.3539047  13.2409293  69.7096726  91.6103147
  15.4536791  63.5184113  83.9980437  14.5193070  63.6385575  83.8285142
  15.6313459  62.6156580  83.7340447  10.9541979  56.9029809  86.1513698
  10.5839766  56.3500849  86.8394604  11.4501071  56.2987942  85.5988698
  18.8409342  59.3601432  84.5330471  19.3069794  60.1929424  84.4590774
  19.2916843  58.8946414  85.2375730   8.7831177  67.3627304  93.2468716
   9.4840637  67.9963787  93.3998111   8.3126292  67.7042035  92.4864356
  16.9085573  65.7045253  81.5316623  17.1845417  65.5901848  82.4410497
  16.0390072  65.3062738  81.4928796  16.8126005  51.7282019  88.5721373
  15.8989085  51.9586246  88.7403580  17.2419106  51.8120463  89.4235405
  16.5832463  59.9171911  91.0721267  15.9303914  60.1647819  90.4173719
  16.9612843  59.1036049  90.7383744  13.5439637  69.9531604  85.1749437
  13.7262032  69.1353260  85.6377189  14.3672623  70.1699297  84.7374327
  13.8781803  68.8799789  82.4364485  14.4069569  68.3692244  81.8234648
  14.1410022  68.5642320  83.3010018  12.6320036  60.6591722  97.5587304
  11.9560673  60.5585852  98.2289679  13.4547670  60.5030936  98.0223301
   4.3798896  66.8963659  90.1799819   4.9652332  66.1507347  90.3127723
   4.1823734  67.2067615  91.0636483   7.2337551  69.9314906  85.1962261
   6.5647926  70.4161034  84.7126301   7.0950420  70.1784127  86.1105640
  11.3742819  71.9658650  91.7944920  11.9261127  72.1290271  92.5594005
  11.7149013  72.5563087  91.1224945   6.3507313  54.3133799  92.3966804
   6.4148639  55.1748630  91.9844202   6.2874433  53.7007801  91.6639163
   5.8259585  56.3856932  96.0439839   6.4531624  56.0034009  96.6577363
   4.9687504  56.1671134  96.4095531  16.2253694  66.7919907  97.6493574
  16.7693598  67.4049865  97.1548529  15.6440539  67.3499486  98.1660587
   2.6025128  58.1933361  81.9758194   2.8978569  57.2844040  81.9225247
   1.7013164  58.1721101  81.6539196  14.5111207  69.9140625  88.7808602
  14.3862346  69.1130365  88.2719547  15.1690298  70.4086819  88.2922572
   6.1319375  56.2689358  87.9585742   5.4105961  56.8825325  87.8193215
   6.9212631  56.8047123  87.8802388  16.5746115  67.7149645  90.4088152
  15.6276451  67.5954996  90.3366479  16.9228888  66.8272143  90.4914413
   8.9345688  53.6043784  94.2326394   9.4580090  53.8506081  94.9952703
   8.7158022  54.4363819  93.8129531   4.3312969  55.8747459  82.0997519
   4.0025676  54.9944838  81.9172625   4.6852340  55.8195127  82.9873908
  13.5792548  67.5102361  86.6092504  13.4317511  66.5819069  86.7900074
  14.4046042  67.5322452  86.1249579   7.4454793  56.1620429  82.4672996
   7.7850865  56.6906350  81.7451605   7.8926913  56.5000835  83.2431563
  17.1826670  68.3330920  87.6957377  18.1073218  68.1273782  87.5581828
  17.0141974  68.0847321  88.6046718  10.1398233  54.5457479  91.9176064
   9.7995054  53.7465292  92.3196744   9.4337240  54.8459190  91.3452898
  10.7914705  51.6306792  90.3703387  11.6140775  51.1567270  90.2482278
  11.0352769  52.4097275  90.8702074   9.4322940  54.6595050  80.6666289
  10.1531302  55.0376303  80.1630006   8.8088244  55.3783927  80.7701267
  13.5754063  55.3640199  81.6024621  13.7917677  56.2464837  81.3013450
  13.0948130  54.9726413  80.8730263   8.3153284  58.3225912  88.1795366
   8.1697865  58.6366215  89.0719648   7.8378488  58.9410813  87.6266265
  10.1749667  55.3128460  88.2276256  10.1611236  54.4169554  87.8908554
  10.8922095  55.3199124  88.8614542  12.0275798  55.7465801  90.2729383
  11.7693575  56.6682871  90.2713713  11.4960838  55.3496235  90.9629847
  16.9721986  68.8516588  83.0519468  17.1458864  68.2863010  82.2993321
  17.4650878  69.6517483  82.8698958   2.7898946  60.8631257  91.1183027
   2.2452414  61.6391065  91.2503302   3.6678296  61.2102061  90.9602149
   9.5786563  54.1942841  83.4963826   9.7002474  53.2659487  83.6954713
   9.2888605  54.2081527  82.5842141  12.4477753  51.8797751  86.6330546
  12.4699450  51.9437084  85.6782525  12.8645812  51.0402260  86.8271052
  22.8261378  61.6153011  84.6709768  23.2692524  60.8660336  84.2728891
  21.9487888  61.6063147  84.2883500  17.9597159  68.1683352  80.1516367
  18.6548063  68.7890045  80.3703681  18.3020309  67.3178703  80.4268745
   3.5764968  59.9901153  94.0113184   2.8346704  60.1383788  94.5977815
   3.2557712  60.2509419  93.1479934  19.8588582  65.6183058  81.6803697
  20.3839906  65.9570330  80.9553018  19.7710935  64.6830073  81.4966832
  11.5208631  69.5317131  93.8093574  11.8295757  69.2866278  94.6816274
  12.3184113  69.7363770  93.3212444  11.5429243  71.6855041  86.0398951
  11.1034233  71.1931420  86.7331807  12.2937360  71.1428009  85.7991026
   4.0221582  67.8766582  86.0423579   4.8479602  67.5770354  85.6622222
   3.6715634  67.1074204  86.4913367   8.9903115  67.2293050  88.1121252
   8.3683124  66.5663755  87.8123480   9.6607982  67.2554182  87.4294900
   2.2230187  65.7952908  87.0012512   1.3862095  65.3675083  86.8196514
   2.1953832  65.9885352  87.9383304   9.0627642  55.7074838  97.7053758
   9.1115798  56.5836961  97.3231528   9.6050157  55.1652231  97.1325402
  19.5482488  66.2515961  96.9854895  18.7578032  66.2340100  96.4459395
  19.3115843  66.7904255  97.7403932  19.6680363  63.1008428  94.2987624
  19.7178368  62.9358435  95.2403147  19.5594286  62.2335687  93.9085505
   8.5516622  65.7796973  81.5879713   8.7004742  66.4632438  80.9346386
   9.3583065  65.7602063  82.1029169  16.9584125  59.0839356  95.6146931
  17.8593988  58.9445820  95.3230928  17.0332100  59.2493810  96.5545108
  11.2926931  56.4606210  94.4600117  10.4230240  56.7539776  94.1882706
  11.5286411  57.0446655  95.1807381  21.1698560  65.5205369  94.5429646
  20.8783368  65.8835350  95.3793106  20.5570691  64.8072377  94.3642978
  22.3694242  63.0858249  87.0632216  23.2041134  63.5248053  87.2269776
  22.5053371  62.6096902  86.2440462  19.4185748  60.6437984  93.0109704
  19.8939870  60.8365630  92.2028555  18.4951314  60.6997170  92.7653087
   6.3069255  61.8062151  82.5940782   6.0615297  60.9024481  82.7920992
   6.4765169  61.8079301  81.6520260  13.9965965  52.6785827  91.9765537
  14.5147909  53.4146854  91.6512026  13.6421097  52.9849821  92.8112297
   5.5764902  57.5390509  80.0926943   4.8834147  57.6134863  79.4366979
   5.3316654  56.7750852  80.6148460  14.2478559  49.0986110  87.4966434
  14.5280313  48.4309299  88.1226861  15.0329166  49.2915205  86.9841098
  12.0512027  68.2745104  79.0591460  11.4785994  68.8935291  78.6061932
  12.6244821  68.8244465  79.5931382  18.1187417  57.5203744  91.2438009
  19.0704840  57.6201842  91.2650233  17.9490868  56.7282012  91.7536093
  16.1401797  54.6059327  91.4297410  15.5451729  54.8864340  90.7343899
  15.8551493  55.0953228  92.2014151  15.2709287  68.5582254  80.1900043
  16.2039960  68.4927816  80.3932918  15.1832500  69.3938521  79.7314575
  17.8997304  67.8748124  77.1503990  17.8210935  67.5407988  78.0439748
  18.7206971  68.3669892  77.1495462  20.5975495  60.7409864  90.3580309
  20.5651815  59.8025864  90.5439993  21.2076119  60.8193900  89.6246134
  12.4358826  59.6105917  76.4007513  13.3817931  59.4812125  76.4695931
  12.0573071  58.8720578  76.8776941  20.7469983  57.5320907  90.4038592
  20.2309032  56.7479364  90.2168521  21.6309932  57.2039624  90.5685111
  18.4080710  51.2761923  86.3634405  18.2105531  50.9677011  87.2477737
  19.0180416  52.0023561  86.4932334  26.4152045  61.8025870  89.4986346
  27.1455433  61.5411159  90.0594049  25.8058990  61.0654592  89.5388414
  24.4967342  59.9433733  90.0960797  23.7700505  59.8089698  89.4877288
  24.0814629  60.2510562  90.9017515  12.3197518  63.6623663  97.8608170
  13.2400528  63.8402262  98.0548216  12.2847101  62.7179708  97.7087869
  10.6201743  57.5355893  76.3362398   9.7133198  57.2389006  76.4125112
  10.8977724  57.2385711  75.4696684   1.5379683  58.8562256  86.7861444
   1.2182468  58.0027564  86.4935818   0.9913112  59.0710834  87.5419412
   5.3159591  61.5724697  90.5030951   5.5345601  62.5041805  90.5218985
   5.7285365  61.2132672  91.2885755  12.2363809  52.0792783  82.4906639
  11.4264537  51.7339868  82.8661885  12.9248226  51.7700326  83.0794251
  14.1654357  51.1570829  84.1130936  14.7185396  51.5766283  84.7720959
  14.4024443  50.2306578  84.1553892  10.1887456  57.1457903  99.8933700
  10.0884183  58.0952260  99.8245791   9.9708998  56.8176142  99.0209770
   9.3900528  54.3942828  76.4774377  10.2519692  54.7197726  76.7370195
   9.5750872  53.6074324  75.9647443   1.4067943  62.4765168  88.7554566
   0.7131415  62.0619121  88.2424520   2.1540934  62.5185704  88.1587985
  17.5433164  53.2671355  83.6209600  16.9631833  53.9256159  83.2387653
  17.2769097  52.4448699  83.2097018  15.9936730  52.6676412  85.8230921
  16.4936509  52.7792947  85.0145239  16.6372338  52.3637465  86.4631729
  10.0518726  60.5755042  98.7098762   9.5685808  61.3755402  98.9162651
  10.1379665  60.5862987  97.7566206   3.3204686  62.4083422  86.6320581
   3.2975374  62.5071109  85.6802464   3.6305322  63.2548572  86.9537747
   5.9792064  64.4659577  90.7467195   6.9335317  64.4343519  90.6797127
   5.7804587  64.0050200  91.5617421   6.5691446  63.0360693  93.3137993
   7.3884335  63.5304771  93.3372830   6.8428254  62.1192661  93.2855560
  16.3258042  55.4271445  82.6765948  15.4383897  55.7121096  82.4586143
  16.7412031  55.2665208  81.8293225  19.6772578  55.4517966  86.3920288
  20.4532968  55.9414418  86.6644905  18.9520712  55.8776020  86.8492157
  22.1145137  56.1645585  87.4494228  22.7089628  55.9241321  86.7387537
  22.1871721  55.4452716  88.0767765   4.3342293  70.0079196  87.7637393
   4.1996760  69.2479597  87.1975391   3.9174355  70.7320096  87.2966182
  15.4701256  65.1916120  76.7713968  16.1737106  65.3966122  77.3871624
  14.7463904  65.7592882  77.0363052  16.2999066  60.9425981  82.8916239
  16.2434267  61.3994532  82.0523871  16.8527408  60.1816665  82.7139081
  20.1103872  56.7315713  83.7166358  19.8540806  56.3312348  84.5474566
  19.4856740  57.4459507  83.5916497  24.4216210  59.4711786  86.2237650
  23.8615768  59.5404975  86.9969212  23.8159713  59.2952771  85.5037146
   7.4911418  70.9048513  87.9755836   7.3743803  71.8493946  87.8734526
   6.6703865  70.6022075  88.3641635  17.3787953  65.6298649  78.8212429
  18.2133557  65.1979847  78.6389903  17.2172296  65.4580663  79.7489323
  17.0333845  62.1330762  80.1868768  16.9782649  61.9675034  79.2457212
  16.4079900  62.8406795  80.3430958   1.8226360  57.3698827  94.0130190
   2.4685224  56.8597780  94.5017415   1.6143511  58.1067508  94.5873615
  14.3479752  64.4379674  99.5122331  15.2170912  64.6120326  99.1508966
  13.8686504  65.2574091  99.3898060  10.3429971  51.6338871  79.7654086
  10.3308640  52.5780711  79.9222357  11.2353392  51.4509017  79.4713547
   8.5165933  71.5576775  91.1911764   9.4193179  71.5900385  91.5078259
   8.2903303  70.6277226  91.2058100  10.2719535  70.3107762  87.8521843
   9.3215166  70.3109623  87.7386215  10.5752021  69.5640496  87.3357877
  14.1582090  48.2281648  84.0200023  13.3914486  47.6740134  84.1656705
  14.5692795  48.3003517  84.8814175   6.1623851  54.5166444  98.1105204
   7.0255313  54.1603248  98.3208529   5.5889262  54.1780338  98.7980609
  26.0072228  76.1468300  88.9167605  26.6450638  76.0275047  88.2130945
  25.8893071  77.0949144  88.9755557  22.8161934  76.0995728  88.8529130
  22.4780446  75.9836793  87.9649665  23.6851703  75.6986893  88.8330136
  18.6748750  77.9531204  84.8426021  18.1113615  77.8621141  84.0742309
  18.5601145  77.1331109  85.3228513  23.2981717  77.2530580  94.8115335
  23.2870358  76.8583378  93.9395839  23.4602357  76.5196652  95.4049107
  16.2213182  79.4482396  87.6810241  17.0134474  79.1073221  87.2656541
  16.4609832  79.5577371  88.6012395  24.2548309  81.6202172  80.1540486
  23.6036288  82.2056253  79.7674500  25.0492672  82.1508367  80.2135523
  18.1803936  78.7091309  80.5527620  18.9534812  78.1620296  80.4140496
  18.5329335  79.5735559  80.7642082  20.0188978  80.0367692  93.7594519
  19.7278844  80.9413322  93.6441186  20.6545963  80.0784219  94.4738589
  20.9445185  77.4144540  90.3495879  21.5408758  77.1900562  89.6352842
  21.0020157  76.6729286  90.9521327  20.5170214  74.8683975  78.1846070
  20.7695734  74.3465497  77.4229533  19.5794773  74.7050121  78.2872754
  25.5613497  73.8719754  85.9920813  26.3476586  73.4539177  85.6411230
  25.8252201  74.7765846  86.1602462  25.7323574  79.3092604  80.6909470
  25.0969407  79.3827231  81.4030375  25.4020980  79.8986203  80.0128549
  20.2366502  76.7712081  80.3870445  20.1202761  76.0956985  81.0551529
  20.3468762  76.2844455  79.5702598  22.5798043  76.2322228  84.0917134
  22.2156251  75.7052849  84.8030056  23.4365159  75.8420698  83.9183620
  22.2203530  71.2612128  79.0878483  22.3877933  72.1292365  79.4548954
  22.0300699  71.4239410  78.1639772  24.9778864  79.7229107  90.7544313
  24.6779587  80.6254146  90.6460120  24.6329923  79.4561290  91.6065466
  18.4291345  76.1742904  86.7881018  17.5041841  76.0419118  86.9958709
  18.6775758  76.9537123  87.2850960  22.1992751  73.7169786  80.0725150
  22.0792376  74.1626836  80.9110630  21.5045340  74.0655103  79.5138688
  15.7900156  75.8176177  87.6224807  15.9192537  76.0710656  88.5364218
  15.1097607  76.4103885  87.3029462  19.9599643  86.4873427  83.7215281
  19.8823673  87.4381253  83.8003761  19.3561287  86.1419300  84.3790207
  22.4516873  73.6601293  96.3776648  21.6750207  74.2195213  96.3679512
  23.0907436  74.1458076  96.8991518  27.8977817  74.1891259  80.9005484
  28.8095673  74.4218646  80.7253181  27.3887464  74.7728303  80.3380562
  20.7063245  76.4686746  95.9394615  21.4477930  77.0071790  95.6629438
  20.0000231  77.0953035  96.0966167  26.1818585  78.6115887  94.5366776
  26.5901941  78.1698297  93.7921409  25.4595847  78.0368514  94.7900969
  22.5349655  73.5488493  91.9100333  23.3810850  73.9727907  92.0534982
  22.4748293  72.8922118  92.6038896  26.5047400  79.1717077  88.2919065
  25.8756262  79.3362791  87.5895133  26.1173062  79.5858687  89.0630029
  30.3836632  80.1071515  85.6463429  29.6987670  80.4870417  85.0960462
  30.4680481  80.7166842  86.3795377  27.6387563  77.7531474  92.2458772
  27.8504458  78.3963234  91.5693153  27.5917311  76.9193791  91.7780702
  25.2413792  70.3649295  89.1495345  24.3798271  70.6630548  89.4412082
  25.2676227  70.5819694  88.2176377  22.0575362  78.9091485  85.5569150
  22.5213707  79.1879188  84.7673773  21.7932160  78.0074930  85.3742241
  18.9499443  78.4562967  88.4948913  19.5200800  78.8850235  87.8566398
  19.5407554  78.1745552  89.1933099  20.9944248  75.0314638  82.3658715
  21.6968291  75.4835681  82.8332642  20.6624876  74.3898457  82.9938608
  19.4424609  73.6226394  96.7409925  18.8123270  74.3042675  96.9745322
  19.3360697  73.5109476  95.7963063  14.7369582  73.2898190  87.6675849
  13.9468636  73.5455719  87.1915960  15.2280829  74.1046528  87.7727889
  28.7533391  80.6303430  90.4181130  29.5750835  80.2283617  90.1363811
  28.7495794  80.5271664  91.3697246  16.6884327  73.6542770  84.6259326
  15.8915490  73.7661464  85.1442821  16.4609919  73.9929422  83.7600216
  22.5189995  80.1787473  92.5741840  22.5834427  80.6407880  93.4100012
  21.8100918  79.5484838  92.7024150  13.0207285  73.5428681  90.0990840
  13.2715323  74.4275691  90.3648416  13.5566833  73.3633282  89.3265932
  22.2338012  81.8455580  82.4420821  22.0983687  82.6907116  82.8705668
  22.7747825  82.0474858  81.6786754  18.7205352  67.9247160  99.1035176
  18.3272297  67.3713359  99.7782820  19.5371492  68.2357739  99.4941693
  15.6867410  79.3631018  83.0148746  16.1991930  80.1574269  83.1654310
  16.3390122  78.6657309  82.9482347  17.4962294  82.4796775  85.0971499
  17.6728923  83.4014739  84.9092483  18.2919128  82.1655194  85.5265879
  21.6373313  69.3405039  96.6955432  22.3783026  69.9412192  96.6159895
  21.8691236  68.5982677  96.1373475  16.7814651  74.5261407  94.9733662
  16.6668166  73.6246664  95.2740761  15.9259169  74.7725103  94.6218479
  23.8606489  82.4679147  96.5721163  23.4170343  81.6815525  96.2542067
  24.5223702  82.6558297  95.9065053  18.6193610  83.9974948  91.0981841
  19.1701035  83.8692012  90.3258835  17.7805086  84.2969838  90.7476734
  25.9587727  82.7481947  94.6002564  25.9406202  83.5690828  94.1082833
  26.8807647  82.6236022  94.8252705  22.4160781  80.2626076  95.4426072
  22.9489118  79.5014364  95.2125380  21.8874862  79.9699728  96.1850227
  25.5830476  65.3686142  90.9719714  25.2394745  66.2587784  90.8958825
  25.9509438  65.1787800  90.1089299  13.6516326  77.6919673  83.7908316
  14.4891548  78.1016681  83.5742024  13.8294594  76.7519115  83.7608510
  25.5480759  75.3594753  79.4792149  25.0327382  76.1299358  79.7180537
  25.2758067  74.6859890  80.1025211  23.1327870  70.2044454  84.5377388
  22.2769466  69.8151305  84.3583026  23.5454821  70.2836415  83.6777173
  24.6627016  67.7390797  88.9368947  24.1591812  67.7020933  88.1236753
  24.9557623  68.6483540  88.9965604  20.9069902  67.8229527  87.9435129
  21.7722899  67.6272336  87.5841018  20.9747411  67.5939879  88.8704486
  30.5215033  78.1127108  81.4145323  29.7444475  77.7738268  80.9700485
  31.2006514  78.1179731  80.7400288  25.3367062  73.2321845  81.3051930
  25.0317197  73.5467995  82.1562074  26.2897504  73.3103265  81.3479263
  23.7813494  79.3912069  82.9544884  23.2534855  78.6564828  82.6418122
  23.2800996  80.1686745  82.7084853  28.7606340  77.5861089  88.0711931
  28.1030014  78.2760351  88.1592059  29.5646739  77.9757521  88.4145917
  18.5132221  70.0531735  85.3151496  19.0875973  69.8306917  84.5824689
  19.1003204  70.1220430  86.0680097  27.5711798  75.9405462  86.1215872
  28.0843680  76.5735454  86.6237582  28.2213022  75.3406657  85.7559232
  18.8401808  72.0836196  79.3347381  18.0039121  72.4210883  79.6556656
  18.7006578  71.9485176  78.3974518  20.8154889  66.9272984  84.0426565
  20.1619301  66.6122001  83.4183180  20.7735363  66.3048724  84.7686388
  21.9266094  77.2092279  75.9579857  21.0193155  76.9781533  76.1571006
  22.4237126  76.4129898  76.1453839  24.8334173  85.9189786  78.8776544
  24.1595871  86.2221483  79.4861501  25.2199995  86.7218867  78.5282001
  24.0492629  73.4154918  88.3674213  23.1315191  73.6369865  88.2095901
  24.4652773  73.4901228  87.5085920  24.8327677  74.8146333  83.4976893
  25.5799496  75.3267730  83.1884015  25.1019267  74.4930386  84.3581287
  23.1054327  77.3104874  80.4803847  22.1965546  77.0263907  80.5776317
  23.1349411  77.7303952  79.6207154  28.3373595  80.9211463  84.2495015
  27.8835922  80.0802373  84.3060205  27.7067561  81.5572862  84.5869795
  27.2806514  71.8503449  85.4795682  26.5429271  71.3380836  85.8105925
  27.5333288  71.4103831  84.6678959  26.7806534  82.7587960  85.1844833
  27.0729508  83.3193017  84.4657199  27.2905154  83.0516521  85.9397992
  27.3818141  64.6279701  86.0737452  27.6877018  63.7677065  85.7863367
  28.1070746  65.2197322  85.8736446  13.6742498  75.0310388  84.4619050
  13.4766897  74.4379749  83.7370116  13.1189162  74.7262598  85.1794988
  21.6539221  74.9233495  86.5813643  21.7087831  73.9707331  86.5056119
  20.8430423  75.0792934  87.0654941  22.8030415  78.8513618  77.8191926
  22.3649845  78.1349477  77.3597563  23.5440856  79.0789732  77.2577017
  19.5931581  73.5410554  84.3404022  18.7799447  73.8404725  84.7469214
  20.0890575  73.1466243  85.0578504  21.7440159  83.5368311  86.2738286
  21.7016338  83.7629158  85.3446818  22.6602858  83.3031686  86.4224088
  25.1905793  74.0052379  93.1718916  25.5455181  74.2323852  94.0313381
  25.8377924  74.3370756  92.5496171  30.9203530  77.1270815  83.8768245
  30.7821428  77.3172411  82.9489434  30.5639749  77.8890197  84.3336296
  19.0845656  71.1128910  89.9565257  19.7245035  70.9717669  89.2588220
  18.2523186  70.8263423  89.5803859  19.8605960  80.4131340  86.0700249
  20.6546558  79.9181660  85.8682824  19.1497652  79.8849203  85.7067955
  24.6800804  82.7949436  90.4212617  24.7337827  83.3640372  91.1890333
  23.8115586  82.9651321  90.0566654  16.1688723  74.5574422  82.1460002
  15.2386311  74.4958877  82.3629964  16.2646195  74.0350375  81.3496643
  16.0874272  71.0829235  84.7338243  16.3481090  71.9974568  84.6247404
  16.9091445  70.6153677  84.8834856  17.5599198  72.4966992  91.9037068
  18.2322251  72.2884354  91.2549717  16.7328984  72.2989078  91.4642300
  23.4624770  69.1228933  93.9202729  22.8152685  69.8218883  93.8267205
  24.2325785  69.5565077  94.2878977  26.8703568  79.3877785  96.9953282
  26.7189074  79.1588337  96.0783366  26.8608247  80.3448386  97.0084627
  23.6388904  76.9609698  91.9799549  24.5680964  77.1120857  91.8068516
  23.2179934  77.0493719  91.1248195  22.4377236  80.9860362  89.7498086
  22.2988321  80.6179147  90.6224024  21.6491832  81.5008002  89.5782044
  23.0325388  86.0869459  81.0923623  23.2077143  85.6157502  81.9069245
  22.3458176  86.7135225  81.3204883  23.9882451  80.3641965  87.1386924
  23.6532284  80.3242735  88.0344574  23.4886397  79.6986681  86.6657334
  17.9626695  75.7709595  92.6639505  17.8246493  75.0389834  93.2651044
  18.8731618  75.6818495  92.3823693  26.9241643  77.7097999  77.4123984
  26.3070813  76.9844827  77.3157036  26.4558131  78.4707360  77.0691058
  20.5908996  75.4829554  92.1523185  21.3008614  74.8422746  92.1109803
  20.5478304  75.7342449  93.0749366  28.5795774  82.4196908  95.0729764
  28.5208320  81.7356128  94.4060347  28.9815293  83.1615898  94.6210390
  19.3037930  72.4694772  93.9718824  18.7675287  72.0185511  94.6240421
  18.7154638  72.6040681  93.2289289  17.5986473  89.2358821  87.8663483
  17.8383071  89.8677346  88.5442501  16.7555670  88.8846861  88.1528842
  18.7140189  71.9283424  76.5345288  17.8369655  71.8072224  76.1707535
  19.1897942  71.1369502  76.2824177  28.5813182  80.3836492  93.3043744
  27.6939960  80.0462413  93.4270143  29.1511733  79.6519523  93.5412509
  10.2342329  76.7160583  86.6286795  10.9213368  76.4022313  86.0407810
  10.0790457  77.6201948  86.3554046  15.0377051  71.6050780  91.0571819
  14.9535240  70.9976449  90.3222229  14.2159757  72.0959798  91.0581315
  22.1114335  85.0437944  90.2704987  22.0384506  85.8492915  90.7824291
  21.6691728  85.2429910  89.4453008  21.9004115  84.2809714  83.7807808
  21.1171636  84.8231394  83.8746033  22.5996860  84.7983694  84.1802050
  25.2100765  70.0904343  86.4242014  25.7069464  69.3374306  86.1043084
  24.4387746  70.1268660  85.8585223  24.5713018  84.9424778  92.4263146
  25.2840991  85.5772243  92.3539047  24.0803047  85.0388644  91.6103147
  26.2930545  78.8476031  83.9980437  25.3586824  78.9677493  83.8285142
  26.4707214  77.9448497  83.7340447  21.7935733  72.2321726  86.1513698
  21.4233521  71.6792767  86.8394604  22.2894826  71.6279860  85.5988698
  29.6803097  74.6893350  84.5330471  30.1463549  75.5221341  84.4590774
  30.1310597  74.2238331  85.2375730  19.6224932  82.6919221  93.2468716
  20.3234391  83.3255704  93.3998111  19.1520047  83.0333953  92.4864356
  27.7479328  81.0337171  81.5316623  28.0239172  80.9193766  82.4410497
  26.8783827  80.6354656  81.4928796  27.6519759  67.0573937  88.5721373
  26.7382839  67.2878164  88.7403580  28.0812861  67.1412381  89.4235405
  24.3833392  85.2823522  85.1749437  24.5655786  84.4645178  85.6377189
  25.2066378  85.4991214  84.7374327  24.7175557  84.2091707  82.4364485
  25.2463324  83.6984162  81.8234648  24.9803777  83.8934237  83.3010018
  23.4713791  75.9883640  97.5587304  22.7954428  75.8877769  98.2289679
  24.2941425  75.8322854  98.0223301  15.2192650  82.2255576  90.1799819
  15.8046087  81.4799264  90.3127723  15.0217488  82.5359533  91.0636483
  18.0731305  85.2606824  85.1962261  17.4041681  85.7452951  84.7126301
  17.9344175  85.5076044  86.1105640   9.8110305  74.7961177  88.9004262
   9.8494404  74.2624767  89.6941380   9.3050598  74.2696382  88.2815239
  22.2136574  87.2950567  91.7944920  22.7654882  87.4582189  92.5594005
  22.5542767  87.8855005  91.1224945  17.1901067  69.6425717  92.3966804
  17.2542394  70.5040548  91.9844202  17.1268187  69.0299719  91.6639163
  16.6653340  71.7148850  96.0439839  17.2925378  71.3325927  96.6577363
  15.8081258  71.4963052  96.4095531  27.0647448  82.1211825  97.6493574
  27.6087352  82.7341783  97.1548529  26.4834293  82.6791403  98.1660587
  13.4418882  73.5225279  81.9758194  13.7372323  72.6135957  81.9225247
  12.5406918  73.5013018  81.6539196  25.3504961  85.2432543  88.7808602
  25.2256101  84.4422283  88.2719547  26.0084052  85.7378736  88.2922572
  16.9713129  71.5981275  87.9585742  16.2499715  72.2117243  87.8193215
  17.7606385  72.1339040  87.8802388  27.4139869  83.0441563  90.4088152
  26.4670205  82.9246914  90.3366479  27.7622643  82.1564061  90.4914413
  19.7739443  68.9335702  94.2326394  20.2973845  69.1797998  94.9952703
  19.5551776  69.7655737  93.8129531  15.1706724  71.2039376  82.0997519
  14.8419430  70.3236755  81.9172625  15.5246095  71.1487045  82.9873908
  24.4186303  82.8394279  86.6092504  24.2711265  81.9110987  86.7900074
  25.2439796  82.8614370  86.1249579  18.2848547  71.4912346  82.4672996
  18.6244620  72.0198267  81.7451605  18.7320668  71.8292752  83.2431563
  28.0220425  83.6622838  87.6957377  28.9466972  83.4565699  87.5581828
  27.8535728  83.4139239  88.6046718  20.9791988  69.8749397  91.9176064
  20.6388808  69.0757210  92.3196744  20.2730994  70.1751108  91.3452898
  21.6308460  66.9598709  90.3703387  22.4534529  66.4859188  90.2482278
  21.8746523  67.7389193  90.8702074  20.2716694  69.9886968  80.6666289
  20.9925057  70.3668221  80.1630006  19.6481998  70.7075845  80.7701267
  24.4147817  70.6932117  81.6024621  24.6311432  71.5756755  81.3013450
  23.9341884  70.3018330  80.8730263  19.1547038  73.6517830  88.1795366
  19.0091619  73.9658133  89.0719648  18.6772242  74.2702730  87.6266265
  21.0143421  70.6420378  88.2276256  21.0004990  69.7461471  87.8908554
  21.7315849  70.6491042  88.8614542  22.8669552  71.0757718  90.2729383
  22.6087330  71.9974789  90.2713713  22.3354592  70.6788153  90.9629847
  27.8115741  84.1808505  83.0519468  27.9852618  83.6154928  82.2993321
  28.3044632  84.9809400  82.8698958  13.6292701  76.1923174  91.1183027
  13.0846169  76.9682982  91.2503302  14.5072051  76.5393979  90.9602149
  20.4180317  69.5234758  83.4963826  20.5396229  68.5951404  83.6954713
  20.1282360  69.5373444  82.5842141  23.2871508  67.2089669  86.6330546
  23.3093205  67.2729002  85.6782525  23.7039567  66.3694177  86.8271052
  33.6655132  76.9444928  84.6709768  34.1086278  76.1952253  84.2728891
  32.7881642  76.9355065  84.2883500  28.7990913  83.4975270  80.1516367
  29.4941818  84.1181962  80.3703681  29.1414063  82.6470621  80.4268745
  14.4158723  75.3193071  94.0113184  13.6740459  75.4675706  94.5977815
  14.0951467  75.5801336  93.1479934  30.6982336  80.9474975  81.6803697
  31.2233661  81.2862248  80.9553018  30.6104689  80.0121991  81.4966832
  22.3602385  84.8609049  93.8093574  22.6689512  84.6158196  94.6816274
  23.1577867  85.0655687  93.3212444  22.3822997  87.0146959  86.0398951
  21.9427987  86.5223337  86.7331807  23.1331114  86.4719926  85.7991026
  14.8615336  83.2058499  86.0423579  15.6873356  82.9062271  85.6622222
  14.5109388  82.4366122  86.4913367  19.8296869  82.5584968  88.1121252
  19.2076879  81.8955673  87.8123480  20.5001736  82.5846100  87.4294900
  13.0623941  81.1244826  87.0012512  12.2255850  80.6967000  86.8196514
  13.0347587  81.3177269  87.9383304  19.9021397  71.0366756  97.7053758
  19.9509552  71.9128878  97.3231528  20.4443911  70.4944149  97.1325402
  19.3910376  81.1088891  81.5879713  19.5398497  81.7924355  80.9346386
  20.1976820  81.0893981  82.1029169  22.1320685  71.7898128  94.4600117
  21.2623995  72.0831694  94.1882706  22.3680166  72.3738573  95.1807381
  33.2087997  78.4150167  87.0632216  34.0434888  78.8539971  87.2269776
  33.3447126  77.9388820  86.2440462  17.1463009  77.1354069  82.5940782
  16.9009051  76.2316399  82.7920992  17.3158924  77.1371219  81.6520260
  24.8359719  68.0077745  91.9765537  25.3541663  68.7438772  91.6512026
  24.4814852  68.3141738  92.8112297  16.4158657  72.8682426  80.0926943
  15.7227902  72.9426781  79.4366979  16.1710409  72.1042770  80.6148460
  25.0872313  64.4278028  87.4966434  25.3674067  63.7601217  88.1226861
  25.8722920  64.6207123  86.9841098  22.8905782  83.6037021  79.0591460
  22.3179749  84.2227209  78.6061932  23.4638575  84.1536383  79.5931382
  26.1103042  83.8874172  80.1900043  27.0433715  83.8219733  80.3932918
  26.0226254  84.7230438  79.7314575  28.7391058  83.2040042  77.1503990
  28.6604690  82.8699906  78.0439748  29.5600725  83.6961810  77.1495462
  23.2752580  74.9397834  76.4007513  24.2211685  74.8104042  76.4695931
  22.8966825  74.2012496  76.8776941  29.2474465  66.6053840  86.3634405
  29.0499286  66.2968928  87.2477737  29.8574170  67.3315479  86.4932334
  23.1591273  78.9915580  97.8608170  24.0794282  79.1694179  98.0548216
  23.1240856  78.0471626  97.7087869  21.4595497  72.8647811  76.3362398
  20.5526953  72.5680923  76.4125112  21.7371478  72.5677629  75.4696684
  12.3773438  74.1854174  86.7861444  12.0576222  73.3319482  86.4935818
  11.8306866  74.4002752  87.5419412  16.1553345  76.9016615  90.5030951
  16.3739355  77.8333723  90.5218985  16.5679119  76.5424589  91.2885755
  23.0757563  67.4084700  82.4906639  22.2658291  67.0631785  82.8661885
  23.7641980  67.0992244  83.0794251  25.0048111  66.4862747  84.1130936
  25.5579150  66.9058201  84.7720959  25.2418198  65.5598495  84.1553892
  21.0281211  72.4749821  99.8933700  20.9277938  73.4244178  99.8245791
  20.8102753  72.1468060  99.0209770  20.2294282  69.7234746  76.4774377
  21.0913446  70.0489644  76.7370195  20.4144626  68.9366242  75.9647443
  12.2461698  77.8057085  88.7554566  11.5525169  77.3911038  88.2424520
  12.9934689  77.8477622  88.1587985  28.3826919  68.5963272  83.6209600
  27.8025588  69.2548076  83.2387653  28.1162851  67.7740617  83.2097018
  26.8330485  67.9968330  85.8230921  27.3330263  68.1084864  85.0145239
  27.4766093  67.6929383  86.4631729  20.8912481  75.9046960  98.7098762
  20.4079562  76.7047320  98.9162651  20.9773420  75.9154904  97.7566206
  14.1598440  77.7375339  86.6320581  14.1369128  77.8363027  85.6802464
  14.4699077  78.5840490  86.9537747  16.8185818  79.7951494  90.7467195
  17.7729072  79.7635437  90.6797127  16.6198342  79.3342118  91.5617421
  17.4085200  78.3652610  93.3137993  18.2278089  78.8596689  93.3372830
  17.6822008  77.4484578  93.2855560  27.1651797  70.7563363  82.6765948
  26.2777652  71.0413013  82.4586143  27.5805786  70.5957126  81.8293225
  15.1736047  85.3371114  87.7637393  15.0390515  84.5771515  87.1975391
  14.7568109  86.0612014  87.2966182  26.3095010  80.5208037  76.7713968
  27.0130860  80.7258040  77.3871624  25.5857659  81.0884799  77.0363052
  27.1392820  76.2717899  82.8916239  27.0828022  76.7286450  82.0523871
  27.6921163  75.5108583  82.7139081  30.9497626  72.0607630  83.7166358
  30.6934560  71.6604266  84.5474566  30.3250494  72.7751424  83.5916497
  18.3305173  86.2340431  87.9755836  18.2137557  87.1785863  87.8734526
  17.5097619  85.9313992  88.3641635  28.2181707  80.9590567  78.8212429
  29.0527311  80.5271765  78.6389903  28.0566050  80.7872580  79.7489323
  27.8727600  77.4622680  80.1868768  27.8176403  77.2966951  79.2457212
  27.2473655  78.1698713  80.3430958  12.6620115  72.6990744  94.0130190
  13.3078978  72.1889698  94.5017415  12.4537266  73.4359426  94.5873615
  25.1873507  79.7671592  99.5122331  26.0564666  79.9412244  99.1508966
  24.7080258  80.5866008  99.3898060  21.1823725  66.9630789  79.7654086
  21.1702395  67.9072629  79.9222357  22.0747147  66.7800934  79.4713547
  19.3559687  86.8868693  91.1911764  20.2586934  86.9192303  91.5078259
  19.1297057  85.9569144  91.2058100  21.1113289  85.6399679  87.8521843
  20.1608920  85.6401541  87.7386215  21.4145775  84.8932414  87.3357877
  24.9975845  63.5573565  84.0200023  24.2308240  63.0032052  84.1656705
  25.4086550  63.6295434  84.8814175  17.0017606  69.8458361  98.1105204
  17.8649067  69.4895166  98.3208529  16.4283016  69.5072256  98.7980609
  36.8465983  91.4760218  88.9167605  37.4844392  91.3566965  88.2130945
  36.7286825  92.4241062  88.9755557  33.6555689  91.4287646  88.8529130
  33.3174200  91.3128710  87.9649665  34.5245457  91.0278811  88.8330136
  29.5142504  93.2823122  84.8426021  28.9507370  93.1913059  84.0742309
  29.3994900  92.4623027  85.3228513  34.1375472  92.5822497  94.8115335
  34.1264113  92.1875296  93.9395839  34.2996111  91.8488570  95.4049107
  27.0606936  94.7774314  87.6810241  27.8528228  94.4365138  87.2656541
  27.3003587  94.8869289  88.6012395  35.0942063  96.9494090  80.1540486
  34.4430043  97.5348170  79.7674500  35.8886426  97.4800285  80.2135523
  29.0197690  94.0383227  80.5527620  29.7928566  93.4912214  80.4140496
  29.3723089  94.9027476  80.7642082  30.8582733  95.3659609  93.7594519
  30.5672599  96.2705240  93.6441186  31.4939717  95.4076137  94.4738589
  31.7838940  92.7436458  90.3495879  32.3802512  92.5192480  89.6352842
  31.8413911  92.0021203  90.9521327  31.3563968  90.1975893  78.1846070
  31.6089489  89.6757414  77.4229533  30.4188527  90.0342039  78.2872754
  36.4007251  89.2011671  85.9920813  37.1870340  88.7831095  85.6411230
  36.6645955  90.1057764  86.1602462  36.5717328  94.6384522  80.6909470
  35.9363161  94.7119148  81.4030375  36.2414735  95.2278121  80.0128549
  41.8015678  89.1386905  86.8953792  42.5340850  88.5686121  87.1291621
  41.0455034  88.7508505  87.3360297  31.0760257  92.1003999  80.3870445
  30.9596515  91.4248902  81.0551529  31.1862517  91.6136373  79.5702598
  33.4191798  91.5614146  84.0917134  33.0550005  91.0344767  84.8030056
  34.2758914  91.1712615  83.9183620  39.3241098  82.8508479  91.3548400
  38.9924423  83.7203890  91.1309615  38.7286712  82.5344763  92.0342431
  33.0597285  86.5904046  79.0878483  33.2271687  87.4584282  79.4548954
  32.8694454  86.7531328  78.1639772  35.8172618  95.0521025  90.7544313
  35.5173341  95.9546064  90.6460120  35.4723678  94.7853208  91.6065466
  29.2685099  91.5034822  86.7881018  28.3435596  91.3711036  86.9958709
  29.5169513  92.2829041  87.2850960  39.2169762  87.5703565  88.4341750
  38.3086639  87.5018973  88.1400511  39.1657358  88.0475510  89.2623576
  33.0386506  89.0461703  80.0725150  32.9186131  89.4918754  80.9110630
  32.3439094  89.3947021  79.5138688  26.6293911  91.1468095  87.6224807
  26.7586292  91.4002574  88.5364218  25.9491362  91.7395803  87.3029462
  30.7993398 101.8165345  83.7215281  30.7217428 102.7673170  83.8003761
  30.1955041 101.4711218  84.3790207  33.2910628  88.9893211  96.3776648
  32.5143962  89.5487131  96.3679512  33.9301191  89.4749994  96.8991518
  41.0831408  85.7720003  90.2119624  40.4405788  86.0652537  89.5659419
  40.5786337  85.6572924  91.0172821  38.7371572  89.5183177  80.9005484
  39.6489428  89.7510563  80.7253181  38.2281219  90.1020221  80.3380562
  31.5457000  91.7978664  95.9394615  32.2871684  92.3363708  95.6629438
  30.8393985  92.4244953  96.0966167  37.0212340  93.9407804  94.5366776
  37.4295696  93.4990215  93.7921409  36.2989601  93.3660432  94.7900969
  33.3743410  88.8780411  91.9100333  34.2204605  89.3019825  92.0534982
  33.3142047  88.2214035  92.6038896  37.3441154  94.5008995  88.2919065
  36.7150017  94.6654709  87.5895133  36.9566816  94.9150605  89.0630029
  41.2230386  95.4363433  85.6463429  40.5381424  95.8162334  85.0960462
  41.3074235  96.0458759  86.3795377  36.5242855  86.5384779  93.5681507
  36.2803787  87.2926840  93.0315783  36.8002785  86.9170127  94.4028754
  38.4781318  93.0823392  92.2458772  38.6898213  93.7255152  91.5693153
  38.4311066  92.2485708  91.7780702  36.0807547  85.6941213  89.1495345
  35.2192026  85.9922466  89.4412082  36.1069981  85.9111611  88.2176377
  32.8969116  94.2383403  85.5569150  33.3607462  94.5171106  84.7673773
  32.6325914  93.3366848  85.3742241  29.7893197  93.7854885  88.4948913
  30.3594554  94.2142153  87.8566398  30.3801309  93.5037469  89.1933099
  31.8338002  90.3606555  82.3658715  32.5362045  90.8127599  82.8332642
  31.5018631  89.7190374  82.9938608  30.2818364  88.9518312  96.7409925
  29.6517024  89.6334593  96.9745322  30.1754452  88.8401394  95.7963063
  25.5763336  88.6190108  87.6675849  24.7862390  88.8747637  87.1915960
  26.0674583  89.4338446  87.7727889  39.5927146  95.9595347  90.4181130
  40.4144589  95.5575535  90.1363811  39.5889549  95.8563581  91.3697246
  27.5278081  88.9834687  84.6259326  26.7309245  89.0953382  85.1442821
  27.3003674  89.3221340  83.7600216  33.3583749  95.5079391  92.5741840
  33.4228182  95.9699798  93.4100012  32.6494673  94.8776755  92.7024150
  23.8601039  88.8720599  90.0990840  24.1109077  89.7567608  90.3648416
  24.3960587  88.6925200  89.3265932  47.6833139  92.3034096  86.7666101
  46.9296847  91.7341494  86.6110106  47.8180680  92.2696760  87.7136736
  33.0731767  97.1747498  82.4420821  32.9377442  98.0199034  82.8705668
  33.6141579  97.3766776  81.6786754  26.5261164  94.6922936  83.0148746
  27.0385685  95.4866186  83.1654310  27.1783877  93.9949227  82.9482347
  28.3356049  97.8088692  85.0971499  28.5122677  98.7306657  84.9092483
  29.1312882  97.4947112  85.5265879  27.6208405  89.8553324  94.9733662
  27.5061921  88.9538582  95.2740761  26.7652923  90.1017021  94.6218479
  34.7000243  97.7971065  96.5721163  34.2564097  97.0107443  96.2542067
  35.3617457  97.9850215  95.9065053  29.4587364  99.3266866  91.0981841
  30.0094789  99.1983930  90.3258835  28.6198840  99.6261755  90.7476734
  36.7981481  98.0773865  94.6002564  36.7799957  98.8982746  94.1082833
  37.7201401  97.9527940  94.8252705  33.2554535  95.5917994  95.4426072
  33.7882872  94.8306282  95.2125380  32.7268616  95.2991646  96.1850227
  24.4910081  93.0211590  83.7908316  25.3285303  93.4308599  83.5742024
  24.6688349  92.0811033  83.7608510  36.3874513  90.6886671  79.4792149
  35.8721136  91.4591276  79.7180537  36.1151821  90.0151807  80.1025211
  33.9721624  85.5336372  84.5377388  33.1163220  85.1443222  84.3583026
  34.3848576  85.6128333  83.6777173  31.7463657  83.1521445  87.9435129
  32.6116653  82.9564254  87.5841018  31.8141165  82.9231797  88.8704486
  41.3608787  93.4419026  81.4145323  40.5838230  93.1030185  80.9700485
  42.0400268  93.4471649  80.7400288  36.1760816  88.5613763  81.3051930
  35.8710952  88.8759912  82.1562074  37.1291258  88.6395183  81.3479263
  34.6207248  94.7203986  82.9544884  34.0928610  93.9856746  82.6418122
  34.1194751  95.4978663  82.7084853  39.6000094  92.9153007  88.0711931
  38.9423769  93.6052268  88.1592059  40.4040493  93.3049439  88.4145917
  29.3525976  85.3823653  85.3151496  29.9269728  85.1598834  84.5824689
  29.9396958  85.4512347  86.0680097  38.4105553  91.2697380  86.1215872
  38.9237435  91.9027371  86.6237582  39.0606777  90.6698575  85.7559232
  29.6795563  87.4128114  79.3347381  28.8432875  87.7502800  79.6556656
  29.5400332  87.2777094  78.3974518  31.6548643  82.2564902  84.0426565
  31.0013056  81.9413919  83.4183180  31.6129118  81.6340642  84.7686388
  32.7659848  92.5384197  75.9579857  31.8586910  92.3073450  76.1571006
  33.2630880  91.7421816  76.1453839  35.6727927 101.2481704  78.8776544
  34.9989626 101.5513401  79.4861501  36.0593749 102.0510784  78.5282001
  34.8886384  88.7446835  88.3674213  33.9708945  88.9661782  88.2095901
  35.3046527  88.8193146  87.5085920  35.6721431  90.1438251  83.4976893
  36.4193250  90.6559648  83.1884015  35.9413021  89.8222304  84.3581287
  33.9448082  92.6396792  80.4803847  33.0359301  92.3555824  80.5776317
  33.9743165  93.0595870  79.6207154  39.1767349  96.2503381  84.2495015
  38.7229676  95.4094291  84.3060205  38.5461316  96.8864779  84.5869795
  38.1200269  87.1795367  85.4795682  37.3823025  86.6672753  85.8105925
  38.3727042  86.7395749  84.6678959  37.6200288  98.0879878  85.1844833
  37.9123263  98.6484935  84.4657199  38.1298909  98.3808439  85.9397992
  38.2211896  79.9571619  86.0737452  38.5270773  79.0968983  85.7863367
  38.9464501  80.5489239  85.8736446  24.5136252  90.3602306  84.4619050
  24.3160652  89.7671666  83.7370116  23.9582916  90.0554516  85.1794988
  32.4932976  90.2525412  86.5813643  32.5481585  89.2999249  86.5056119
  31.6824178  90.4084851  87.0654941  33.6424169  94.1805535  77.8191926
  33.2043599  93.4641394  77.3597563  34.3834610  94.4081650  77.2577017
  30.4325336  88.8702472  84.3404022  29.6193201  89.1696642  84.7469214
  30.9284330  88.4758161  85.0578504  32.5833914  98.8660229  86.2738286
  32.5410092  99.0921075  85.3446818  33.4996612  98.6323603  86.4224088
  36.0299547  89.3344296  93.1718916  36.3848935  89.5615770  94.0313381
  36.6771679  89.6662673  92.5496171  41.7597284  92.4562732  83.8768245
  41.6215183  92.6464328  82.9489434  41.4033503  93.2182115  84.3336296
  29.9239410  86.4420827  89.9565257  30.5638790  86.3009587  89.2588220
  29.0916941  86.1555341  89.5803859  41.7866664  94.5239259  88.8879516
  42.2203171  94.4314548  89.7362570  42.4998245  94.4996760  88.2499532
  30.6999714  95.7423258  86.0700249  31.4940313  95.2473578  85.8682824
  29.9891407  95.2141121  85.7067955  35.5194559  98.1241353  90.4212617
  35.5731581  98.6932290  91.1890333  34.6509340  98.2943238  90.0566654
  27.0082478  89.8866340  82.1460002  26.0780066  89.8250795  82.3629964
  27.1039950  89.3642292  81.3496643  26.9268027  86.4121152  84.7338243
  27.1874844  87.3266486  84.6247404  27.7485199  85.9445595  84.8834856
  28.3992952  87.8258910  91.9037068  29.0716006  87.6176272  91.2549717
  27.5722739  87.6280996  91.4642300  42.6482213  94.5662960  91.4212401
  42.8418103  95.4708770  91.6671676  42.5482832  94.1070379  92.2550987
  34.3018524  84.4520851  93.9202729  33.6546439  85.1510800  93.8267205
  35.0719540  84.8856994  94.2878977  37.7097322  94.7169703  96.9953282
  37.5582829  94.4880254  96.0783366  37.7002002  95.6740304  97.0084627
  34.4782659  92.2901615  91.9799549  35.4074719  92.4412775  91.8068516
  34.0573689  92.3785636  91.1248195  33.2770990  96.3152280  89.7498086
  33.1382076  95.9471064  90.6224024  32.4885587  96.8299919  89.5782044
  33.8719142 101.4161376  81.0923623  34.0470898 100.9449420  81.9069245
  33.1851930 102.0427143  81.3204883  34.8276205  95.6933883  87.1386924
  34.4926038  95.6534653  88.0344574  34.3280151  95.0278598  86.6657334
  28.8020449  91.1001513  92.6639505  28.6640247  90.3681751  93.2651044
  29.7125373  91.0110413  92.3823693  37.7635397  93.0389917  77.4123984
  37.1464568  92.3136745  77.3157036  37.2951886  93.7999277  77.0691058
  31.4302750  90.8121472  92.1523185  32.1402369  90.1714664  92.1109803
  31.3872058  91.0634367  93.0749366  39.4189529  97.7488825  95.0729764
  39.3602075  97.0648045  94.4060347  39.8209047  98.4907815  94.6210390
  30.1431684  87.7986690  93.9718824  29.6069041  87.3477428  94.6240421
  29.5548392  87.9332599  93.2289289  28.4380228 104.5650739  87.8663483
  28.6776826 105.1969263  88.5442501  27.5949424 104.2138779  88.1528842
  29.5533943  87.2575341  76.5345288  28.6763409  87.1364142  76.1707535
  30.0291696  86.4661420  76.2824177  39.4206936  95.7128409  93.3043744
  38.5333715  95.3754331  93.4270143  39.9905487  94.9811440  93.5412509
  21.0736083  92.0452501  86.6286795  21.7607123  91.7314231  86.0407810
  20.9184212  92.9493866  86.3554046  25.8770805  86.9342698  91.0571819
  25.7928994  86.3268367  90.3222229  25.0553512  87.4251716  91.0581315
  32.9508089 100.3729862  90.2704987  32.8778261 101.1784833  90.7824291
  32.5085483 100.5721827  89.4453008  32.7397869  99.6101632  83.7807808
  31.9565391 100.1523312  83.8746033  33.4390614 100.1275611  84.1802050
  36.0494519  85.4196261  86.4242014  36.5463219  84.6666223  86.1043084
  35.2781501  85.4560578  85.8585223  43.9024277  91.1236627  88.0660305
  43.8914153  92.0061342  87.6954238  43.0341656  90.7708177  87.8714842
  35.4106773 100.2716696  92.4263146  36.1234745 100.9064160  92.3539047
  34.9196802 100.3680562  91.6103147  37.1324300  94.1767948  83.9980437
  36.1980579  94.2969411  83.8285142  37.3100968  93.2740415  83.7340447
  32.6329488  87.5613644  86.1513698  32.2627275  87.0084684  86.8394604
  33.1288580  86.9571778  85.5988698  40.5196851  90.0185268  84.5330471
  40.9857303  90.8513259  84.4590774  40.9704352  89.5530249  85.2375730
  30.4618686  98.0211139  93.2468716  31.1628146  98.6547622  93.3998111
  29.9913801  98.3625871  92.4864356  38.5873082  96.3629089  81.5316623
  38.8632926  96.2485683  82.4410497  37.7177581  95.9646574  81.4928796
  38.4913514  82.3865855  88.5721373  37.5776594  82.6170081  88.7403580
  38.9206615  82.4704299  89.4235405  38.2619972  90.5755746  91.0721267
  37.6091423  90.8231654  90.4173719  38.6400352  89.7619885  90.7383744
  35.2227146 100.6115440  85.1749437  35.4049541  99.7937096  85.6377189
  36.0460132 100.8283132  84.7374327  35.5569312  99.5383625  82.4364485
  36.0857078  99.0276079  81.8234648  35.8197531  99.2226155  83.3010018
  34.3107545  91.3175558  97.5587304  33.6348182  91.2169687  98.2289679
  35.1335179  91.1614771  98.0223301  26.0586405  97.5547494  90.1799819
  26.6439841  96.8091182  90.3127723  25.8611243  97.8651451  91.0636483
  28.9125060 100.5898741  85.1962261  28.2435435 101.0744869  84.7126301
  28.7737929 100.8367962  86.1105640  20.6504059  90.1253094  88.9004262
  20.6888159  89.5916685  89.6941380  20.1444352  89.5988300  88.2815239
  33.0530328 102.6242485  91.7944920  33.6048636 102.7874107  92.5594005
  33.3936522 103.2146923  91.1224945  28.0294822  84.9717635  92.3966804
  28.0936148  85.8332466  91.9844202  27.9661942  84.3591636  91.6639163
  27.5047094  87.0440767  96.0439839  28.1319133  86.6617845  96.6577363
  26.6475013  86.8254969  96.4095531  37.9041203  97.4503743  97.6493574
  38.4481107  98.0633701  97.1548529  37.3228047  98.0083321  98.1660587
  24.2812637  88.8517196  81.9758194  24.5766078  87.9427875  81.9225247
  23.3800673  88.8304936  81.6539196  36.1898716 100.5724461  88.7808602
  36.0649855  99.7714200  88.2719547  36.8477807 101.0670654  88.2922572
  27.8106884  86.9273193  87.9585742  27.0893470  87.5409161  87.8193215
  28.6000140  87.4630958  87.8802388  38.2533624  98.3733481  90.4088152
  37.3063960  98.2538832  90.3366479  38.6016397  97.4855979  90.4914413
  30.6133197  84.2627620  94.2326394  31.1367599  84.5089916  94.9952703
  30.3945531  85.0947654  93.8129531  26.0100478  86.5331294  82.0997519
  25.6813185  85.6528673  81.9172625  26.3639849  86.4778963  82.9873908
  35.2580057  98.1686197  86.6092504  35.1105020  97.2402904  86.7900074
  36.0833551  98.1906288  86.1249579  29.1242302  86.8204264  82.4672996
  29.4638374  87.3490185  81.7451605  29.5714422  87.1584670  83.2431563
  38.8614179  98.9914756  87.6957377  39.7860727  98.7857617  87.5581828
  38.6929483  98.7431157  88.6046718  31.8185742  85.2041315  91.9176064
  31.4782563  84.4049128  92.3196744  31.1124749  85.5043025  91.3452898
  31.1110449  85.3178886  80.6666289  31.8318811  85.6960138  80.1630006
  30.4875753  86.0367762  80.7701267  35.2541572  86.0224034  81.6024621
  35.4705186  86.9048672  81.3013450  34.7735639  85.6310248  80.8730263
  29.9940793  88.9809748  88.1795366  29.8485374  89.2950051  89.0719648
  29.5165997  89.5994648  87.6266265  31.8537176  85.9712296  88.2276256
  31.8398745  85.0753389  87.8908554  32.5709604  85.9782959  88.8614542
  33.7063307  86.4049636  90.2729383  33.4481084  87.3266707  90.2713713
  33.1748347  86.0080070  90.9629847  38.6509495  99.5100423  83.0519468
  38.8246373  98.9446845  82.2993321  39.1438387 100.3101318  82.8698958
  24.4686455  91.5215092  91.1183027  23.9239923  92.2974900  91.2503302
  25.3465805  91.8685897  90.9602149  31.2574072  84.8526676  83.4963826
  31.3789983  83.9243322  83.6954713  30.9676114  84.8665362  82.5842141
  34.1265262  82.5381586  86.6330546  34.1486959  82.6020919  85.6782525
  34.5433321  81.6986095  86.8271052  44.5048887  92.2736846  84.6709768
  44.9480033  91.5244171  84.2728891  43.6275397  92.2646982  84.2883500
  39.6384668  98.8267187  80.1516367  40.3335572  99.4473880  80.3703681
  39.9807818  97.9762539  80.4268745  25.2552477  90.6484988  94.0113184
  24.5134213  90.7967624  94.5977815  24.9345221  90.9093254  93.1479934
  41.5376091  96.2766893  81.6803697  42.0627415  96.6154166  80.9553018
  41.4498444  95.3413908  81.4966832  33.1996140 100.1900967  93.8093574
  33.5083266  99.9450113  94.6816274  33.9971622 100.3947605  93.3212444
  33.2216752 102.3438876  86.0398951  32.7821742 101.8515255  86.7331807
  33.9724869 101.8011844  85.7991026  25.7009091  98.5350417  86.0423579
  26.5267111  98.2354189  85.6622222  25.3503143  97.7658040  86.4913367
  30.6690624  97.8876885  88.1121252  30.0470633  97.2247590  87.8123480
  31.3395491  97.9138017  87.4294900  23.9017696  96.4536744  87.0012512
  23.0649604  96.0258918  86.8196514  23.8741341  96.6469187  87.9383304
  30.7415151  86.3658673  97.7053758  30.7903307  87.2420796  97.3231528
  31.2837666  85.8236066  97.1325402  41.2269997  96.9099797  96.9854895
  40.4365541  96.8923935  96.4459395  40.9903352  97.4488090  97.7403932
  41.3467872  93.7592263  94.2987624  41.3965877  93.5942270  95.2403147
  41.2381795  92.8919522  93.9085505  30.2304131  96.4380809  81.5879713
  30.3792251  97.1216273  80.9346386  31.0370574  96.4185899  82.1029169
  38.6371634  89.7423191  95.6146931  39.5381497  89.6029656  95.3230928
  38.7119609  89.9077646  96.5545108  32.9714440  87.1190046  94.4600117
  32.1017749  87.4123612  94.1882706  33.2073920  87.7030491  95.1807381
  42.8486069  96.1789204  94.5429646  42.5570877  96.5419185  95.3793106
  42.2358200  95.4656213  94.3642978  44.0481751  93.7442084  87.0632216
  44.8828643  94.1831888  87.2269776  44.1840880  93.2680737  86.2440462
  41.0973257  91.3021819  93.0109704  41.5727379  91.4949465  92.2028555
  40.1738823  91.3581005  92.7653087  27.9856764  92.4645986  82.5940782
  27.7402806  91.5608316  82.7920992  28.1552678  92.4663137  81.6520260
  27.2552411  88.1974344  80.0926943  26.5621656  88.2718699  79.4366979
  27.0104163  87.4334688  80.6148460  35.9266068  79.7569945  87.4966434
  36.2067822  79.0893134  88.1226861  36.7116675  79.9499041  86.9841098
  33.7299536  98.9328939  79.0591460  33.1573503  99.5519126  78.6061932
  34.3032330  99.4828301  79.5931382  39.7974926  88.1787579  91.2438009
  40.7492349  88.2785677  91.2650233  39.6278377  87.3865848  91.7536093
  37.8189306  85.2643162  91.4297410  37.2239238  85.5448175  90.7343899
  37.5339002  85.7537063  92.2014151  36.9496796  99.2166089  80.1900043
  37.8827469  99.1511651  80.3932918  36.8620009 100.0522356  79.7314575
  39.5784813  98.5331960  77.1503990  39.4998444  98.1991823  78.0439748
  40.3994480  99.0253727  77.1495462  42.2763004  91.3993699  90.3580309
  42.2439324  90.4609700  90.5439993  42.8863628  91.4777736  89.6246134
  34.1146335  90.2689752  76.4007513  35.0605440  90.1395960  76.4695931
  33.7360580  89.5304414  76.8776941  42.4257492  88.1904742  90.4038592
  41.9096541  87.4063199  90.2168521  43.3097441  87.8623459  90.5685111
  40.0868219  81.9345758  86.3634405  39.8893040  81.6260846  87.2477737
  40.6967925  82.6607397  86.4932334  48.0939554  92.4609706  89.4986346
  48.8242942  92.1994994  90.0594049  47.4846499  91.7238428  89.5388414
  46.1754851  90.6017568  90.0960797  45.4488014  90.4673533  89.4877288
  45.7602138  90.9094397  90.9017515  33.9985027  94.3207498  97.8608170
  34.9188037  94.4986097  98.0548216  33.9634610  93.3763543  97.7087869
  32.2989252  88.1939728  76.3362398  31.3920707  87.8972841  76.4125112
  32.5765233  87.8969546  75.4696684  23.2167192  89.5146092  86.7861444
  22.8969977  88.6611400  86.4935818  22.6700621  89.7294670  87.5419412
  26.9947100  92.2308533  90.5030951  27.2133110  93.1625640  90.5218985
  27.4072874  91.8716507  91.2885755  33.9151318  82.7376618  82.4906639
  33.1052046  82.3923703  82.8661885  34.6035735  82.4284162  83.0794251
  35.8441866  81.8154665  84.1130936  36.3972905  82.2350118  84.7720959
  36.0811952  80.8890413  84.1553892  31.8674965  87.8041738  99.8933700
  31.7671692  88.7536095  99.8245791  31.6496507  87.4759977  99.0209770
  31.0688037  85.0526663  76.4774377  31.9307201  85.3781562  76.7370195
  31.2538381  84.2658159  75.9647443  23.0855452  93.1349003  88.7554566
  22.3918924  92.7202956  88.2424520  23.8328443  93.1769540  88.1587985
  39.2220673  83.9255190  83.6209600  38.6419342  84.5839994  83.2387653
  38.9556606  83.1032535  83.2097018  37.6724239  83.3260248  85.8230921
  38.1724018  83.4376782  85.0145239  38.3159847  83.0221300  86.4631729
  31.7306235  91.2338877  98.7098762  31.2473317  92.0339237  98.9162651
  31.8167174  91.2446822  97.7566206  24.9992195  93.0667257  86.6320581
  24.9762883  93.1654944  85.6802464  25.3092831  93.9132408  86.9537747
  27.6579573  95.1243412  90.7467195  28.6122826  95.0927354  90.6797127
  27.4592096  94.6634036  91.5617421  28.2478955  93.6944528  93.3137993
  29.0671844  94.1888607  93.3372830  28.5215763  92.7776496  93.2855560
  38.0045551  86.0855280  82.6765948  37.1171406  86.3704931  82.4586143
  38.4199540  85.9249044  81.8293225  41.3560087  86.1101801  86.3920288
  42.1320477  86.5998254  86.6644905  40.6308221  86.5359855  86.8492157
  43.7932646  86.8229421  87.4494228  44.3877137  86.5825156  86.7387537
  43.8659230  86.1036551  88.0767765  26.0129802 100.6663031  87.7637393
  25.8784269  99.9063432  87.1975391  25.5961864 101.3903931  87.2966182
  37.1488765  95.8499955  76.7713968  37.8524615  96.0549957  77.3871624
  36.4251413  96.4176717  77.0363052  37.9786575  91.6009816  82.8916239
  37.9221776  92.0578368  82.0523871  38.5314917  90.8400501  82.7139081
  41.7891381  87.3899548  83.7166358  41.5328315  86.9896184  84.5474566
  41.1644249  88.1043342  83.5916497  46.1003719  90.1295621  86.2237650
  45.5403277  90.1988811  86.9969212  45.4947222  89.9536606  85.5037146
  29.1698927 101.5632348  87.9755836  29.0531312 102.5077781  87.8734526
  28.3491374 101.2605910  88.3641635  39.0575462  96.2882484  78.8212429
  39.8921066  95.8563683  78.6389903  38.8959805  96.1164498  79.7489323
  38.7121354  92.7914597  80.1868768  38.6570158  92.6258869  79.2457212
  38.0867409  93.4990630  80.3430958  23.5013869  88.0282662  94.0130190
  24.1472733  87.5181616  94.5017415  23.2931020  88.7651344  94.5873615
  36.0267261  95.0963509  99.5122331  36.8958421  95.2704162  99.1508966
  35.5474013  95.9157926  99.3898060  32.0217480  82.2922706  79.7654086
  32.0096149  83.2364546  79.9222357  32.9140901  82.1092852  79.4713547
  30.1953442 102.2160610  91.1911764  31.0980688 102.2484221  91.5078259
  29.9690812 101.2861061  91.2058100  31.9507044 100.9691597  87.8521843
  31.0002675 100.9693459  87.7386215  32.2539530 100.2224331  87.3357877
  27.8411360  85.1750279  98.1105204  28.7042822  84.8187084  98.3208529
  27.2676771  84.8364174  98.7980609  47.6859737 106.8052135  88.9167605
  48.3238147 106.6858883  88.2130945  47.5680580 107.7532979  88.9755557
  44.4949443 106.7579563  88.8529130  44.1567955 106.6420628  87.9649665
  45.3639211 106.3570728  88.8330136  40.3536259 108.6115040  84.8426021
  39.7901124 108.5204977  84.0742309  40.2388654 107.7914944  85.3228513
  44.9769226 107.9114415  94.8115335  44.9657867 107.5167213  93.9395839
  45.1389866 107.1780488  95.4049107  37.9000691 110.1066231  87.6810241
  38.6921983 109.7657056  87.2656541  38.1397341 110.2161206  88.6012395
  45.9335818 112.2786008  80.1540486  45.2823797 112.8640088  79.7674500
  46.7280181 112.8092202  80.2135523  39.8591445 109.3675145  80.5527620
  40.6322321 108.8204132  80.4140496  40.2116844 110.2319394  80.7642082
  41.6976487 110.6951527  93.7594519  41.4066353 111.5997158  93.6441186
  42.3333472 110.7368055  94.4738589  42.6232694 108.0728375  90.3495879
  43.2196267 107.8484398  89.6352842  42.6807666 107.3313121  90.9521327
  42.1957723 105.5267811  78.1846070  42.4483243 105.0049332  77.4229533
  41.2582282 105.3633956  78.2872754  47.2401006 104.5303589  85.9920813
  48.0264095 104.1123012  85.6411230  47.5039710 105.4349681  86.1602462
  47.4111083 109.9676439  80.6909470  46.7756916 110.0411066  81.4030375
  47.0808489 110.5570038  80.0128549  52.6409433 104.4678822  86.8953792
  53.3734605 103.8978039  87.1291621  51.8848788 104.0800423  87.3360297
  41.9154011 107.4295917  80.3870445  41.7990270 106.7540820  81.0551529
  42.0256271 106.9428291  79.5702598  44.2585552 106.8906064  84.0917134
  43.8943760 106.3636685  84.8030056  45.1152668 106.5004533  83.9183620
  50.1634853  98.1800396  91.3548400  49.8318178  99.0495807  91.1309615
  49.5680466  97.8636680  92.0342431  43.8991039 101.9195964  79.0878483
  44.0665442 102.7876200  79.4548954  43.7088208 102.0823245  78.1639772
  46.6566373 110.3812942  90.7544313  46.3567096 111.2837981  90.6460120
  46.3117432 110.1145126  91.6065466  40.1078854 106.8326739  86.7881018
  39.1829350 106.7002953  86.9958709  40.3563267 107.6120959  87.2850960
  50.0563516 102.8995483  88.4341750  49.1480394 102.8310891  88.1400511
  50.0051112 103.3767428  89.2623576  43.8780260 104.3753621  80.0725150
  43.7579885 104.8210672  80.9110630  43.1832849 104.7238939  79.5138688
  37.4687665 106.4760013  87.6224807  37.5980046 106.7294492  88.5364218
  36.7885116 107.0687721  87.3029462  41.6387152 117.1457263  83.7215281
  41.5611182 118.0965088  83.8003761  41.0348796 116.8003135  84.3790207
  44.1304382 104.3185128  96.3776648  43.3537716 104.8779048  96.3679512
  44.7694945 104.8041911  96.8991518  51.9225163 101.1011921  90.2119624
  51.2799543 101.3944454  89.5659419  51.4180091 100.9864841  91.0172821
  49.5765326 104.8475094  80.9005484  50.4883182 105.0802481  80.7253181
  49.0674973 105.4312138  80.3380562  42.3850754 107.1270582  95.9394615
  43.1265439 107.6655626  95.6629438  41.6787740 107.7536870  96.0966167
  47.8606094 109.2699722  94.5366776  48.2689450 108.8282133  93.7921409
  47.1383356 108.6952350  94.7900969  44.2137164 104.2072329  91.9100333
  45.0598359 104.6311742  92.0534982  44.1535802 103.5505953  92.6038896
  48.1834909 109.8300913  88.2919065  47.5543771 109.9946627  87.5895133
  47.7960571 110.2442522  89.0630029  52.0624141 110.7655351  85.6463429
  51.3775179 111.1454252  85.0960462  52.1467990 111.3750677  86.3795377
  47.3636609 101.8676697  93.5681507  47.1197541 102.6218758  93.0315783
  47.6396540 102.2462045  94.4028754  49.3175072 108.4115310  92.2458772
  49.5291967 109.0547069  91.5693153  49.2704820 107.5777626  91.7780702
  46.9201301 101.0233130  89.1495345  46.0585780 101.3214384  89.4412082
  46.9463736 101.2403529  88.2176377  43.7362871 109.5675321  85.5569150
  44.2001216 109.8463024  84.7673773  43.4719669 108.6658765  85.3742241
  40.6286952 109.1146802  88.4948913  41.1988309 109.5434071  87.8566398
  41.2195063 108.8329387  89.1933099  42.6731757 105.6898473  82.3658715
  43.3755800 106.1419517  82.8332642  42.3412385 105.0482292  82.9938608
  41.1212118 104.2810230  96.7409925  40.4910779 104.9626511  96.9745322
  41.0148206 104.1693311  95.7963063  36.4157091 103.9482026  87.6675849
  35.6256145 104.2039554  87.1915960  36.9068338 104.7630364  87.7727889
  50.4320900 111.2887265  90.4181130  51.2538344 110.8867452  90.1363811
  50.4283303 111.1855499  91.3697246  38.3671836 104.3126605  84.6259326
  37.5702999 104.4245299  85.1442821  38.1397428 104.6513257  83.7600216
  44.1977504 110.8371308  92.5741840  44.2621936 111.2991715  93.4100012
  43.4888427 110.2068673  92.7024150  34.6994794 104.2012516  90.0990840
  34.9502832 105.0859526  90.3648416  35.2354342 104.0217118  89.3265932
  58.5226893 107.6326013  86.7666101  57.7690602 107.0633412  86.6110106
  58.6574434 107.5988678  87.7136736  43.9125521 112.5039416  82.4420821
  43.7771196 113.3490951  82.8705668  44.4535334 112.7058693  81.6786754
  40.3992861  98.5830996  99.1035176  40.0059806  98.0297194  99.7782820
  41.2159001  98.8941574  99.4941693  37.3654919 110.0214854  83.0148746
  37.8779439 110.8158104  83.1654310  38.0177631 109.3241144  82.9482347
  39.1749803 113.1380610  85.0971499  39.3516432 114.0598575  84.9092483
  39.9706637 112.8239029  85.5265879  43.3160822  99.9988875  96.6955432
  44.0570535 100.5996028  96.6159895  43.5478745  99.2566512  96.1373475
  38.4602160 105.1845242  94.9733662  38.3455675 104.2830499  95.2740761
  37.6046678 105.4308939  94.6218479  45.5393998 113.1262982  96.5721163
  45.0957852 112.3399361  96.2542067  46.2011211 113.3142133  95.9065053
  40.2981119 114.6558784  91.0981841  40.8488544 114.5275847  90.3258835
  39.4592595 114.9553673  90.7476734  47.6375236 113.4065782  94.6002564
  47.6193711 114.2274663  94.1082833  48.5595156 113.2819857  94.8252705
  44.0948290 110.9209912  95.4426072  44.6276627 110.1598200  95.2125380
  43.5662371 110.6283563  96.1850227  47.2617985  96.0269978  90.9719714
  46.9182254  96.9171619  90.8958825  47.6296947  95.8371635  90.1089299
  35.3303835 108.3503508  83.7908316  36.1679057 108.7600516  83.5742024
  35.5082103 107.4102950  83.7608510  47.2268268 106.0178589  79.4792149
  46.7114891 106.7883193  79.7180537  46.9545576 105.3443725  80.1025211
  44.8115379 100.8628290  84.5377388  43.9556975 100.4735140  84.3583026
  45.2242330 100.9420250  83.6777173  46.3414525  98.3974633  88.9368947
  45.8379321  98.3604768  88.1236753  46.6345132  99.3067375  88.9965604
  42.5857411  98.4813362  87.9435129  43.4510408  98.2856171  87.5841018
  42.6534920  98.2523714  88.8704486  52.2002542 108.7710943  81.4145323
  51.4231984 108.4322103  80.9700485  52.8794023 108.7763567  80.7400288
  47.0154571 103.8905681  81.3051930  46.7104706 104.2051830  82.1562074
  47.9685013 103.9687101  81.3479263  45.4601003 110.0495904  82.9544884
  44.9322364 109.3148664  82.6418122  44.9588505 110.8270580  82.7084853
  50.4393849 108.2444925  88.0711931  49.7817523 108.9344186  88.1592059
  51.2434248 108.6341357  88.4145917  40.1919730 100.7115570  85.3151496
  40.7663482 100.4890752  84.5824689  40.7790713 100.7804265  86.0680097
  49.2499307 106.5989297  86.1215872  49.7631189 107.2319289  86.6237582
  49.9000531 105.9990493  85.7559232  40.5189317 102.7420031  79.3347381
  39.6826630 103.0794718  79.6556656  40.3794087 102.6069011  78.3974518
  42.4942398  97.5856819  84.0426565  41.8406810  97.2705837  83.4183180
  42.4522872  96.9632560  84.7686388  43.6053603 107.8676114  75.9579857
  42.6980664 107.6365368  76.1571006  44.1024635 107.0713734  76.1453839
  46.5121682 116.5773622  78.8776544  45.8383380 116.8805318  79.4861501
  46.8987504 117.3802702  78.5282001  45.7280138 104.0738753  88.3674213
  44.8102700 104.2953700  88.2095901  46.1440282 104.1485063  87.5085920
  46.5115186 105.4730169  83.4976893  47.2587005 105.9851566  83.1884015
  46.7806776 105.1514221  84.3581287  44.7841836 107.9688709  80.4803847
  43.8753055 107.6847742  80.5776317  44.8136920 108.3887788  79.6207154
  50.0161104 111.5795299  84.2495015  49.5623431 110.7386209  84.3060205
  49.3855070 112.2156697  84.5869795  48.9594023 102.5087285  85.4795682
  48.2216780 101.9964671  85.8105925  49.2120797 102.0687666  84.6678959
  48.4594043 113.4171795  85.1844833  48.7517017 113.9776853  84.4657199
  48.9692663 113.7100356  85.9397992  49.0605650  95.2863537  86.0737452
  49.3664527  94.4260900  85.7863367  49.7858255  95.8781157  85.8736446
  35.3530007 105.6894223  84.4619050  35.1554406 105.0963584  83.7370116
  34.7976671 105.3846434  85.1794988  43.3326730 105.5817330  86.5813643
  43.3875340 104.6291166  86.5056119  42.5217932 105.7376769  87.0654941
  44.4817924 109.5097453  77.8191926  44.0437354 108.7933312  77.3597563
  45.2228365 109.7373568  77.2577017  41.2719090 104.1994390  84.3404022
  40.4586956 104.4988560  84.7469214  41.7678084 103.8050078  85.0578504
  43.4227668 114.1952147  86.2738286  43.3803847 114.4212993  85.3446818
  44.3390367 113.9615521  86.4224088  46.8693302 104.6636214  93.1718916
  47.2242690 104.8907687  94.0313381  47.5165433 104.9954591  92.5496171
  52.5991039 107.7854650  83.8768245  52.4608937 107.9756246  82.9489434
  52.2427258 108.5474033  84.3336296  40.7633165 101.7712745  89.9565257
  41.4032544 101.6301504  89.2588220  39.9310695 101.4847259  89.5803859
  52.6260418 109.8531177  88.8879516  53.0596925 109.7606466  89.7362570
  53.3391999 109.8288677  88.2499532  41.5393469 111.0715176  86.0700249
  42.3334067 110.5765496  85.8682824  40.8285161 110.5433039  85.7067955
  46.3588313 113.4533271  90.4212617  46.4125336 114.0224207  91.1890333
  45.4903095 113.6235156  90.0566654  37.8476232 105.2158257  82.1460002
  36.9173820 105.1542713  82.3629964  37.9433704 104.6934210  81.3496643
  37.7661781 101.7413070  84.7338243  38.0268599 102.6558403  84.6247404
  38.5878954 101.2737513  84.8834856  39.2386707 103.1550827  91.9037068
  39.9109760 102.9468189  91.2549717  38.4116493 102.9572913  91.4642300
  53.4875968 109.8954878  91.4212401  53.6811858 110.8000688  91.6671676
  53.3876586 109.4362297  92.2550987  45.1412279  99.7812768  93.9202729
  44.4940194 100.4802718  93.8267205  45.9113294 100.2148912  94.2878977
  48.5491077 110.0461620  96.9953282  48.3976583 109.8172172  96.0783366
  48.5395756 111.0032222  97.0084627  45.3176413 107.6193533  91.9799549
  46.2468473 107.7704693  91.8068516  44.8967443 107.7077554  91.1248195
  44.1164745 111.6444198  89.7498086  43.9775830 111.2762982  90.6224024
  43.3279341 112.1591837  89.5782044  44.7112897 116.7453294  81.0923623
  44.8864652 116.2741337  81.9069245  44.0245685 117.3719060  81.3204883
  45.6669960 111.0225800  87.1386924  45.3319793 110.9826570  88.0344574
  45.1673906 110.3570516  86.6657334  39.6414204 106.4293430  92.6639505
  39.5034002 105.6973669  93.2651044  40.5519127 106.3402330  92.3823693
  48.6029152 108.3681835  77.4123984  47.9858322 107.6428663  77.3157036
  48.1345640 109.1291195  77.0691058  42.2696505 106.1413390  92.1523185
  42.9796123 105.5006582  92.1109803  42.2265813 106.3926284  93.0749366
  50.2583283 113.0780743  95.0729764  50.1995829 112.3939963  94.4060347
  50.6602802 113.8199733  94.6210390  40.9825439 103.1278607  93.9718824
  40.4462796 102.6769346  94.6240421  40.3942147 103.2624516  93.2289289
  40.3927697 102.5867259  76.5345288  39.5157164 102.4656060  76.1707535
  40.8685451 101.7953337  76.2824177  50.2600691 111.0420327  93.3043744
  49.3727469 110.7046249  93.4270143  50.8299242 110.3103358  93.5412509
  31.9129838 107.3744419  86.6286795  32.6000877 107.0606149  86.0407810
  31.7577966 108.2785783  86.3554046  36.7164560 102.2634615  91.0571819
  36.6322748 101.6560285  90.3222229  35.8947266 102.7543633  91.0581315
  43.7901844 115.7021779  90.2704987  43.7172015 116.5076751  90.7824291
  43.3479237 115.9013745  89.4453008  43.5791624 114.9393549  83.7807808
  42.7959145 115.4815229  83.8746033  44.2784369 115.4567529  84.1802050
  46.8888274 100.7488179  86.4242014  47.3856973  99.9958141  86.1043084
  46.1175255 100.7852495  85.8585223  54.7418031 106.4528544  88.0660305
  54.7307907 107.3353260  87.6954238  53.8735410 106.1000095  87.8714842
  46.2500527 115.6008613  92.4263146  46.9628500 116.2356078  92.3539047
  45.7590556 115.6972479  91.6103147  47.9718054 109.5059866  83.9980437
  47.0374333 109.6261328  83.8285142  48.1494723 108.6032333  83.7340447
  43.4723242 102.8905562  86.1513698  43.1021030 102.3376602  86.8394604
  43.9682335 102.2863695  85.5988698  51.3590606 105.3477185  84.5330471
  51.8251058 106.1805177  84.4590774  51.8098106 104.8822167  85.2375730
  41.3012441 113.3503057  93.2468716  42.0021900 113.9839540  93.3998111
  40.8307556 113.6917788  92.4864356  49.4266837 111.6921007  81.5316623
  49.7026681 111.5777601  82.4410497  48.5571336 111.2938491  81.4928796
  49.3307268  97.7157772  88.5721373  48.4170348  97.9461999  88.7403580
  49.7600370  97.7996216  89.4235405  49.1013727 105.9047664  91.0721267
  48.4485177 106.1523572  90.4173719  49.4794107 105.0911802  90.7383744
  46.0620901 115.9407357  85.1749437  46.2443295 115.1229013  85.6377189
  46.8853887 116.1575050  84.7374327  46.3963066 114.8675542  82.4364485
  46.9250833 114.3567997  81.8234648  46.6591286 114.5518073  83.3010018
  45.1501300 106.6467475  97.5587304  44.4741937 106.5461605  98.2289679
  45.9728934 106.4906689  98.0223301  36.8980159 112.8839412  90.1799819
  37.4833596 112.1383100  90.3127723  36.7004997 113.1943368  91.0636483
  39.7518814 115.9190659  85.1962261  39.0829189 116.4036787  84.7126301
  39.6131684 116.1659880  86.1105640  31.4897814 105.4545012  88.9004262
  31.5281913 104.9208603  89.6941380  30.9838107 104.9280217  88.2815239
  43.8924083 117.9534403  91.7944920  44.4442391 118.1166024  92.5594005
  44.2330276 118.5438841  91.1224945  38.8688576 100.3009552  92.3966804
  38.9329903 101.1624383  91.9844202  38.8055696  99.6883554  91.6639163
  38.3440849 102.3732685  96.0439839  38.9712887 101.9909762  96.6577363
  37.4868767 102.1546887  96.4095531  48.7434957 112.7795660  97.6493574
  49.2874861 113.3925618  97.1548529  48.1621802 113.3375239  98.1660587
  35.1206391 104.1809114  81.9758194  35.4159832 103.2719793  81.9225247
  34.2194427 104.1596854  81.6539196  47.0292470 115.9016378  88.7808602
  46.9043610 115.1006118  88.2719547  47.6871561 116.3962572  88.2922572
  38.6500638 102.2565111  87.9585742  37.9287224 102.8701078  87.8193215
  39.4393894 102.7922876  87.8802388  49.0927378 113.7025398  90.4088152
  48.1457714 113.5830749  90.3366479  49.4410152 112.8147896  90.4914413
  41.4526952  99.5919537  94.2326394  41.9761354  99.8381834  94.9952703
  41.2339285 100.4239572  93.8129531  36.8494233 101.8623212  82.0997519
  36.5206939 100.9820591  81.9172625  37.2033604 101.8070880  82.9873908
  46.0973812 113.4978115  86.6092504  45.9498774 112.5694822  86.7900074
  46.9227305 113.5198205  86.1249579  39.9636056 102.1496182  82.4672996
  40.3032129 102.6782103  81.7451605  40.4108177 102.4876588  83.2431563
  49.7007934 114.3206673  87.6957377  50.6254481 114.1149535  87.5581828
  49.5323237 114.0723074  88.6046718  42.6579497 100.5333232  91.9176064
  42.3176317  99.7341045  92.3196744  41.9518503 100.8334943  91.3452898
  43.3095969  97.6182545  90.3703387  44.1322038  97.1443023  90.2482278
  43.5534032  98.3973028  90.8702074  41.9504203 100.6470803  80.6666289
  42.6712566 101.0252056  80.1630006  41.3269507 101.3659680  80.7701267
  46.0935326 101.3515952  81.6024621  46.3098940 102.2340590  81.3013450
  45.6129393 100.9602166  80.8730263  40.8334547 104.3101665  88.1795366
  40.6879128 104.6241968  89.0719648  40.3559751 104.9286566  87.6266265
  42.6930930 101.3004213  88.2276256  42.6792499 100.4045307  87.8908554
  43.4103358 101.3074877  88.8614542  44.5457061 101.7341554  90.2729383
  44.2874839 102.6558624  90.2713713  44.0142101 101.3371988  90.9629847
  49.4903250 114.8392341  83.0519468  49.6640127 114.2738763  82.2993321
  49.9832141 115.6393236  82.8698958  35.3080210 106.8507010  91.1183027
  34.7633678 107.6266818  91.2503302  36.1859560 107.1977814  90.9602149
  42.0967826 100.1818594  83.4963826  42.2183737  99.2535240  83.6954713
  41.8069869 100.1957280  82.5842141  44.9659017  97.8673504  86.6330546
  44.9880713  97.9312837  85.6782525  45.3827076  97.0278013  86.8271052
  55.3442641 107.6028764  84.6709768  55.7873787 106.8536089  84.2728891
  54.4669151 107.5938900  84.2883500  50.4778422 114.1559105  80.1516367
  51.1729327 114.7765798  80.3703681  50.8201572 113.3054456  80.4268745
  36.0946231 105.9776906  94.0113184  35.3527968 106.1259541  94.5977815
  35.7738976 106.2385172  93.1479934  52.3769845 111.6058811  81.6803697
  52.9021170 111.9446083  80.9553018  52.2892198 110.6705826  81.4966832
  44.0389894 115.5192884  93.8093574  44.3477021 115.2742031  94.6816274
  44.8365376 115.7239523  93.3212444  44.0610506 117.6730794  86.0398951
  43.6215496 117.1807173  86.7331807  44.8118623 117.1303762  85.7991026
  36.5402845 113.8642335  86.0423579  37.3660865 113.5646107  85.6622222
  36.1896897 113.0949957  86.4913367  41.5084378 113.2168803  88.1121252
  40.8864388 112.5539508  87.8123480  42.1789245 113.2429935  87.4294900
  34.7411450 111.7828661  87.0012512  33.9043359 111.3550836  86.8196514
  34.7135096 111.9761105  87.9383304  41.5808906 101.6950591  97.7053758
  41.6297061 102.5712714  97.3231528  42.1231420 101.1527984  97.1325402
  52.0663752 112.2391714  96.9854895  51.2759295 112.2215853  96.4459395
  51.8297106 112.7780008  97.7403932  52.1861627 109.0884181  94.2987624
  52.2359631 108.9234188  95.2403147  52.0775550 108.2211440  93.9085505
  41.0697885 111.7672726  81.5879713  41.2186006 112.4508191  80.9346386
  41.8764329 111.7477816  82.1029169  49.4765389 105.0715109  95.6146931
  50.3775252 104.9321574  95.3230928  49.5513363 105.2369563  96.5545108
  43.8108194 102.4481963  94.4600117  42.9411504 102.7415529  94.1882706
  44.0467675 103.0322408  95.1807381  53.6879823 111.5081122  94.5429646
  53.3964632 111.8711103  95.3793106  53.0751955 110.7948130  94.3642978
  54.8875506 109.0734002  87.0632216  55.7222397 109.5123806  87.2269776
  55.0234634 108.5972655  86.2440462  51.9367012 106.6313737  93.0109704
  52.4121133 106.8241383  92.2028555  51.0132577 106.6872923  92.7653087
  38.8250518 107.7937904  82.5940782  38.5796560 106.8900234  82.7920992
  38.9946433 107.7955054  81.6520260  46.5147228  98.6661580  91.9765537
  47.0329172  99.4022607  91.6512026  46.1602361  98.9725574  92.8112297
  38.0946166 103.5266262  80.0926943  37.4015411 103.6010617  79.4366979
  37.8497918 102.7626605  80.6148460  46.7659822  95.0861863  87.4966434
  47.0461576  94.4185052  88.1226861  47.5510429  95.2790958  86.9841098
  44.5693291 114.2620857  79.0591460  43.9967258 114.8811044  78.6061932
  45.1426084 114.8120218  79.5931382  50.6368681 103.5079497  91.2438009
  51.5886104 103.6077595  91.2650233  50.4672131 102.7157765  91.7536093
  48.6583060 100.5935080  91.4297410  48.0632992 100.8740093  90.7343899
  48.3732757 101.0828981  92.2014151  47.7890551 114.5458007  80.1900043
  48.7221224 114.4803569  80.3932918  47.7013763 115.3814274  79.7314575
  50.4178567 113.8623877  77.1503990  50.3392199 113.5283741  78.0439748
  51.2388234 114.3545645  77.1495462  53.1156758 106.7285617  90.3580309
  53.0833079 105.7901617  90.5439993  53.7257382 106.8069653  89.6246134
  44.9540089 105.5981670  76.4007513  45.8999194 105.4687878  76.4695931
  44.5754334 104.8596331  76.8776941  53.2651247 103.5196660  90.4038592
  52.7490296 102.7355117  90.2168521  54.1491195 103.1915377  90.5685111
  50.9261974  97.2637676  86.3634405  50.7286795  96.9552764  87.2477737
  51.5361679  97.9899314  86.4932334  58.9333308 107.7901623  89.4986346
  59.6636697 107.5286912  90.0594049  58.3240254 107.0530345  89.5388414
  57.0148605 105.9309486  90.0960797  56.2881769 105.7965451  89.4877288
  56.5995892 106.2386315  90.9017515  44.8378782 109.6499416  97.8608170
  45.7581791 109.8278015  98.0548216  44.8028365 108.7055461  97.7087869
  43.1383006 103.5231646  76.3362398  42.2314462 103.2264759  76.4125112
  43.4158987 103.2261464  75.4696684  34.0560947 104.8438009  86.7861444
  33.7363731 103.9903318  86.4935818  33.5094375 105.0586587  87.5419412
  37.8340854 107.5600450  90.5030951  38.0526864 108.4917558  90.5218985
  38.2466628 107.2008425  91.2885755  44.7545072  98.0668536  82.4906639
  43.9445800  97.7215621  82.8661885  45.4429489  97.7576079  83.0794251
  46.6835620  97.1446582  84.1130936  47.2366659  97.5642036  84.7720959
  46.9205707  96.2182331  84.1553892  42.7068720 103.1333656  99.8933700
  42.6065447 104.0828013  99.8245791  42.4890262 102.8051895  99.0209770
  41.9081791 100.3818581  76.4774377  42.7700955 100.7073479  76.7370195
  42.0932135  99.5950077  75.9647443  33.9249207 108.4640921  88.7554566
  33.2312678 108.0494874  88.2424520  34.6722198 108.5061457  88.1587985
  50.0614428  99.2547108  83.6209600  49.4813097  99.9131912  83.2387653
  49.7950360  98.4324452  83.2097018  48.5117994  98.6552165  85.8230921
  49.0117772  98.7668700  85.0145239  49.1553602  98.3513218  86.4631729
  42.5699990 106.5630795  98.7098762  42.0867071 107.3631155  98.9162651
  42.6560929 106.5738740  97.7566206  35.8385949 108.3959175  86.6320581
  35.8156637 108.4946862  85.6802464  36.1486586 109.2424325  86.9537747
  38.4973327 110.4535330  90.7467195  39.4516581 110.4219272  90.6797127
  38.2985851 109.9925953  91.5617421  39.0872709 109.0236446  93.3137993
  39.9065598 109.5180524  93.3372830  39.3609517 108.1068414  93.2855560
  48.8439306 101.4147198  82.6765948  47.9565161 101.6996849  82.4586143
  49.2593295 101.2540961  81.8293225  52.1953842 101.4393719  86.3920288
  52.9714232 101.9290171  86.6644905  51.4701976 101.8651773  86.8492157
  54.6326400 102.1521338  87.4494228  55.2270891 101.9117074  86.7387537
  54.7052984 101.4328469  88.0767765  47.9882519 111.1791873  76.7713968
  48.6918369 111.3841875  77.3871624  47.2645168 111.7468635  77.0363052
  48.8180329 106.9301734  82.8916239  48.7615531 107.3870285  82.0523871
  49.3708672 106.1692419  82.7139081  52.6285135 102.7191466  83.7166358
  52.3722069 102.3188101  84.5474566  52.0038003 103.4335260  83.5916497
  56.9397473 105.4587539  86.2237650  56.3797031 105.5280728  86.9969212
  56.3340976 105.2828524  85.5037146  49.8969216 111.6174402  78.8212429
  50.7314820 111.1855600  78.6389903  49.7353559 111.4456416  79.7489323
  49.5515109 108.1206515  80.1868768  49.4963912 107.9550787  79.2457212
  48.9261164 108.8282548  80.3430958  34.3407624 103.3574580  94.0130190
  34.9866487 102.8473534  94.5017415  34.1324775 104.0943261  94.5873615
  46.8661016 110.4255427  99.5122331  47.7352175 110.5996079  99.1508966
  46.3867767 111.2449844  99.3898060  42.8611234  97.6214624  79.7654086
  42.8489904  98.5656464  79.9222357  43.7534656  97.4384770  79.4713547
  41.0347196 117.5452528  91.1911764  41.9374443 117.5776138  91.5078259
  40.8084566 116.6152979  91.2058100  42.7900798 116.2983515  87.8521843
  41.8396429 116.2985376  87.7386215  43.0933284 115.5516249  87.3357877
  46.6763354  94.2157401  84.0200023  45.9095749  93.6615888  84.1656705
  47.0874058  94.2879270  84.8814175  38.6805115 100.5042197  98.1105204
  39.5436576 100.1479001  98.3208529  38.1070525 100.1656091  98.7980609
  58.5253492 122.1344053  88.9167605  59.1631901 122.0150800  88.2130945
  58.4074334 123.0824897  88.9755557  55.3343198 122.0871481  88.8529130
  54.9961709 121.9712546  87.9649665  56.2032966 121.6862646  88.8330136
  55.8162981 123.2406333  94.8115335  55.8051622 122.8459131  93.9395839
  55.9783620 122.5072405  95.4049107  53.0351477 120.8559728  78.1846070
  53.2876998 120.3341250  77.4229533  52.0976036 120.6925874  78.2872754
  58.0794760 119.8595507  85.9920813  58.8657849 119.4414930  85.6411230
  58.3433464 120.7641599  86.1602462  63.4803187 119.7970740  86.8953792
  64.2128359 119.2269957  87.1291621  62.7242543 119.4092340  87.3360297
  55.0979307 122.2197982  84.0917134  54.7337514 121.6928602  84.8030056
  55.9546423 121.8296451  83.9183620  61.0028607 113.5092314  91.3548400
  60.6711932 114.3787725  91.1309615  60.4074221 113.1928598  92.0342431
  54.7384794 117.2487881  79.0878483  54.9059196 118.1168118  79.4548954
  54.5481963 117.4115163  78.1639772  60.8957271 118.2287400  88.4341750
  59.9874148 118.1602809  88.1400511  60.8444867 118.7059345  89.2623576
  54.7174015 119.7045539  80.0725150  54.5973640 120.1502589  80.9110630
  54.0226603 120.0530856  79.5138688  54.9698137 119.6477046  96.3776648
  54.1931471 120.2070966  96.3679512  55.6088700 120.1333829  96.8991518
  62.7618917 116.4303839  90.2119624  62.1193297 116.7236372  89.5659419
  62.2573846 116.3156759  91.0172821  60.4159081 120.1767012  80.9005484
  61.3276937 120.4094399  80.7253181  59.9068728 120.7604056  80.3380562
  55.0530919 119.5364246  91.9100333  55.8992114 119.9603660  92.0534982
  54.9929556 118.8797871  92.6038896  58.2030364 117.1968615  93.5681507
  57.9591296 117.9510675  93.0315783  58.4790294 117.5753962  94.4028754
  60.1568827 123.7407227  92.2458772  60.3685722 124.3838987  91.5693153
  60.1098575 122.9069544  91.7780702  57.7595056 116.3525048  89.1495345
  56.8979535 116.6506301  89.4412082  57.7857490 116.5695447  88.2176377
  53.5125511 121.0190391  82.3658715  54.2149554 121.4711434  82.8332642
  53.1806140 120.3774210  82.9938608  51.9605873 119.6102147  96.7409925
  51.3304533 120.2918428  96.9745322  51.8541961 119.4985229  95.7963063
  47.2550845 119.2773943  87.6675849  46.4649899 119.5331472  87.1915960
  47.7462092 120.0922281  87.7727889  49.2065590 119.6418523  84.6259326
  48.4096754 119.7537217  85.1442821  48.9791183 119.9805175  83.7600216
  69.3620648 122.9617931  86.7666101  68.6084356 122.3925329  86.6110106
  69.4968189 122.9280596  87.7136736  51.2386615 113.9122913  99.1035176
  50.8453561 113.3589112  99.7782820  52.0552756 114.2233492  99.4941693
  54.1554576 115.3280792  96.6955432  54.8964290 115.9287945  96.6159895
  54.3872499 114.5858430  96.1373475  58.1011739 111.3561895  90.9719714
  57.7576009 112.2463537  90.8958825  58.4690702 111.1663553  90.1089299
  58.0662022 121.3470506  79.4792149  57.5508645 122.1175111  79.7180537
  57.7939330 120.6735643  80.1025211  55.6509133 116.1920207  84.5377388
  54.7950729 115.8027058  84.3583026  56.0636085 116.2712168  83.6777173
  57.1808280 113.7266550  88.9368947  56.6773075 113.6896686  88.1236753
  57.4738887 114.6359293  88.9965604  53.4251166 113.8105280  87.9435129
  54.2904162 113.6148089  87.5841018  53.4928674 113.5815632  88.8704486
  63.0396296 124.1002861  81.4145323  62.2625739 123.7614021  80.9700485
  63.7187777 124.1055484  80.7400288  57.8548325 119.2197599  81.3051930
  57.5498461 119.5343748  82.1562074  58.8078767 119.2979018  81.3479263
  61.2787603 123.5736842  88.0711931  60.6211277 124.2636104  88.1592059
  62.0828002 123.9633274  88.4145917  51.0313485 116.0407488  85.3151496
  51.6057237 115.8182670  84.5824689  51.6184467 116.1096183  86.0680097
  60.0893062 121.9281215  86.1215872  60.6024944 122.5611207  86.6237582
  60.7394286 121.3282411  85.7559232  51.3583072 118.0711949  79.3347381
  50.5220384 118.4086636  79.6556656  51.2187841 117.9360929  78.3974518
  53.3336152 112.9148737  84.0426565  52.6800565 112.5997754  83.4183180
  53.2916626 112.2924477  84.7686388  56.5673893 119.4030671  88.3674213
  55.6496454 119.6245618  88.2095901  56.9834036 119.4776981  87.5085920
  57.3508940 120.8022086  83.4976893  58.0980759 121.3143483  83.1884015
  57.6200530 120.4806139  84.3581287  59.7987778 117.8379202  85.4795682
  59.0610534 117.3256589  85.8105925  60.0514551 117.3979584  84.6678959
  59.8999405 110.6155454  86.0737452  60.2058282 109.7552818  85.7863367
  60.6252010 111.2073075  85.8736446  54.1720485 120.9109248  86.5813643
  54.2269094 119.9583084  86.5056119  53.3611687 121.0668687  87.0654941
  52.1112845 119.5286307  84.3404022  51.2980710 119.8280478  84.7469214
  52.6071839 119.1341996  85.0578504  57.7087056 119.9928132  93.1718916
  58.0636444 120.2199605  94.0313381  58.3559188 120.3246509  92.5496171
  63.4384793 123.1146568  83.8768245  63.3002692 123.3048164  82.9489434
  63.0821012 123.8765950  84.3336296  51.6026919 117.1004663  89.9565257
  52.2426299 116.9593422  89.2588220  50.7704450 116.8139176  89.5803859
  63.4654173 125.1823095  88.8879516  63.8990680 125.0898384  89.7362570
  64.1785754 125.1580595  88.2499532  48.6869987 120.5450175  82.1460002
  47.7567575 120.4834630  82.3629964  48.7827459 120.0226128  81.3496643
  48.6055536 117.0704988  84.7338243  48.8662353 117.9850321  84.6247404
  49.4272708 116.6029430  84.8834856  50.0780461 118.4842745  91.9037068
  50.7503515 118.2760107  91.2549717  49.2510248 118.2864831  91.4642300
  64.3269722 125.2246795  91.4212401  64.5205612 126.1292606  91.6671676
  64.2270341 124.7654214  92.2550987  55.9806033 115.1104686  93.9202729
  55.3333948 115.8094636  93.8267205  56.7507049 115.5440830  94.2878977
  56.1570167 122.9485451  91.9799549  57.0862227 123.0996610  91.8068516
  55.7361197 123.0369472  91.1248195  53.1090259 121.4705307  92.1523185
  53.8189878 120.8298499  92.1109803  53.0659567 121.7218202  93.0749366
  51.8219193 118.4570525  93.9718824  51.2856550 118.0061264  94.6240421
  51.2335901 118.5916434  93.2289289  51.2321452 117.9159177  76.5345288
  50.3550918 117.7947977  76.1707535  51.7079205 117.1245255  76.2824177
  47.5558314 117.5926533  91.0571819  47.4716503 116.9852202  90.3222229
  46.7341021 118.0835551  91.0581315  57.7282028 116.0780096  86.4242014
  58.2250728 115.3250059  86.1043084  56.9569010 116.1144413  85.8585223
  65.5811786 121.7820462  88.0660305  65.5701662 122.6645177  87.6954238
  64.7129165 121.4292013  87.8714842  54.3116997 118.2197479  86.1513698
  53.9414784 117.6668520  86.8394604  54.8076089 117.6155613  85.5988698
  62.1984360 120.6769103  84.5330471  62.6644812 121.5097094  84.4590774
  62.6491861 120.2114084  85.2375730  60.1701023 113.0449690  88.5721373
  59.2564103 113.2753917  88.7403580  60.5994124 113.1288134  89.4235405
  59.9407481 121.2339582  91.0721267  59.2878932 121.4815489  90.4173719
  60.3187861 120.4203720  90.7383744  55.9895054 121.9759393  97.5587304
  55.3135691 121.8753522  98.2289679  56.8122688 121.8198607  98.0223301
  49.7082331 115.6301470  92.3966804  49.7723657 116.4916301  91.9844202
  49.6449451 115.0175472  91.6639163  49.1834603 117.7024603  96.0439839
  49.8106642 117.3201680  96.6577363  48.3262522 117.4838805  96.4095531
  45.9600146 119.5101032  81.9758194  46.2553587 118.6011710  81.9225247
  45.0588182 119.4888771  81.6539196  49.4894393 117.5857028  87.9585742
  48.7680979 118.1992996  87.8193215  50.2787649 118.1214793  87.8802388
  52.2920706 114.9211455  94.2326394  52.8155108 115.1673751  94.9952703
  52.0733040 115.7531490  93.8129531  47.6887987 117.1915129  82.0997519
  47.3600694 116.3112508  81.9172625  48.0427358 117.1362798  82.9873908
  50.8029811 117.4788099  82.4672996  51.1425883 118.0074021  81.7451605
  51.2501931 117.8168505  83.2431563  53.4973251 115.8625150  91.9176064
  53.1570072 115.0632963  92.3196744  52.7912258 116.1626861  91.3452898
  54.1489723 112.9474462  90.3703387  54.9715793 112.4734941  90.2482278
  54.3927787 113.7264946  90.8702074  52.7897958 115.9762721  80.6666289
  53.5106320 116.3543974  80.1630006  52.1663262 116.6951598  80.7701267
  56.9329081 116.6807870  81.6024621  57.1492695 117.5632508  81.3013450
  56.4523148 116.2894083  80.8730263  51.6728302 119.6393583  88.1795366
  51.5272883 119.9533886  89.0719648  51.1953506 120.2578483  87.6266265
  53.5324685 116.6296131  88.2276256  53.5186254 115.7337224  87.8908554
  54.2497113 116.6366795  88.8614542  55.3850816 117.0633471  90.2729383
  55.1268593 117.9850542  90.2713713  54.8535856 116.6663906  90.9629847
  52.9361581 115.5110511  83.4963826  53.0577492 114.5827158  83.6954713
  52.6463623 115.5249197  82.5842141  55.8052771 113.1965422  86.6330546
  55.8274468 113.2604755  85.6782525  56.2220830 112.3569930  86.8271052
  66.1836395 122.9320681  84.6709768  66.6267542 122.1828007  84.2728891
  65.3062906 122.9230818  84.2883500  52.4202660 117.0242509  97.7053758
  52.4690816 117.9004631  97.3231528  52.9625175 116.4819902  97.1325402
  63.0255381 124.4176098  94.2987624  63.0753386 124.2526106  95.2403147
  62.9169304 123.5503357  93.9085505  60.3159143 120.4007026  95.6146931
  61.2169006 120.2613491  95.3230928  60.3907118 120.5661481  96.5545108
  54.6501949 117.7773881  94.4600117  53.7805258 118.0707447  94.1882706
  54.8861429 118.3614326  95.1807381  65.7269260 124.4025920  87.0632216
  66.5616152 124.8415724  87.2269776  65.8628389 123.9264573  86.2440462
  62.7760766 121.9605654  93.0109704  63.2514888 122.1533301  92.2028555
  61.8526331 122.0164840  92.7653087  57.3540983 113.9953498  91.9765537
  57.8722926 114.7314525  91.6512026  56.9996115 114.3017491  92.8112297
  48.9339920 118.8558179  80.0926943  48.2409165 118.9302534  79.4366979
  48.6891672 118.0918523  80.6148460  57.6053577 110.4153781  87.4966434
  57.8855331 109.7476970  88.1226861  58.3904184 110.6082876  86.9841098
  61.4762435 118.8371415  91.2438009  62.4279858 118.9369512  91.2650233
  61.3065886 118.0449683  91.7536093  59.4976815 115.9226998  91.4297410
  58.9026747 116.2032010  90.7343899  59.2126511 116.4120899  92.2014151
  63.9550513 122.0577534  90.3580309  63.9226833 121.1193535  90.5439993
  64.5651137 122.1361571  89.6246134  55.7933844 120.9273587  76.4007513
  56.7392948 120.7979795  76.4695931  55.4148089 120.1888249  76.8776941
  64.1045001 118.8488578  90.4038592  63.5884050 118.0647034  90.2168521
  64.9884950 118.5207294  90.5685111  61.7655728 112.5929593  86.3634405
  61.5680549 112.2844681  87.2477737  62.3755434 113.3191232  86.4932334
  69.7727063 123.1193541  89.4986346  70.5030451 122.8578829  90.0594049
  69.1634008 122.3822263  89.5388414  67.8542360 121.2601404  90.0960797
  67.1275523 121.1257369  89.4877288  67.4389647 121.5678232  90.9017515
  53.9776761 118.8523564  76.3362398  53.0708216 118.5556676  76.4125112
  54.2552742 118.5553382  75.4696684  55.5938827 113.3960453  82.4906639
  54.7839555 113.0507538  82.8661885  56.2823244 113.0867997  83.0794251
  57.5229375 112.4738500  84.1130936  58.0760414 112.8933954  84.7720959
  57.7599461 111.5474248  84.1553892  53.5462474 118.4625574  99.8933700
  53.4459201 119.4119931  99.8245791  53.3284016 118.1343813  99.0209770
  52.7475546 115.7110499  76.4774377  53.6094710 116.0365397  76.7370195
  52.9325890 114.9241995  75.9647443  60.9008182 114.5839025  83.6209600
  60.3206851 115.2423829  83.2387653  60.6344115 113.7616370  83.2097018
  59.3511748 113.9844083  85.8230921  59.8511527 114.0960618  85.0145239
  59.9947356 113.6805136  86.4631729  59.6833060 116.7439116  82.6765948
  58.7958915 117.0288766  82.4586143  60.0987049 116.5832879  81.8293225
  63.0347596 116.7685637  86.3920288  63.8107986 117.2582089  86.6644905
  62.3095730 117.1943691  86.8492157  65.4720155 117.4813256  87.4494228
  66.0664646 117.2408992  86.7387537  65.5446738 116.7620386  88.0767765
  59.6574084 122.2593652  82.8916239  59.6009285 122.7162203  82.0523871
  60.2102426 121.4984336  82.7139081  63.4678890 118.0483383  83.7166358
  63.2115824 117.6480019  84.5474566  62.8431758 118.7627177  83.5916497
  67.7791228 120.7879457  86.2237650  67.2190786 120.8572646  86.9969212
  67.1734731 120.6120441  85.5037146  60.3908863 123.4498433  80.1868768
  60.3357667 123.2842704  79.2457212  59.7654918 124.1574466  80.3430958
  45.1801378 118.6866497  94.0130190  45.8260242 118.1765451  94.5017415
  44.9718529 119.4235179  94.5873615  53.7004989 112.9506542  79.7654086
  53.6883658 113.8948382  79.9222357  54.5928410 112.7676687  79.4713547
  57.5157108 109.5449318  84.0200023  56.7489504 108.9907805  84.1656705
  57.9267813 109.6171187  84.8814175  49.5198869 115.8334114  98.1105204
  50.3830331 115.4770919  98.3208529  48.9464280 115.4948009  98.7980609
  68.9405494 126.6853813  90.9719714  68.5969763 127.5755455  90.8958825
  69.3084456 126.4955471  90.1089299  70.7393159 125.9447372  86.0737452
  71.0452036 125.0844736  85.7863367  71.4645764 126.5364992  85.8736446
  68.4447331 125.7445698  87.4966434  68.7249085 125.0768887  88.1226861
  69.2297938 125.9374794  86.9841098  72.6049483 127.9221511  86.3634405
  72.4074304 127.6136599  87.2477737  73.2149188 128.6483150  86.4932334
  68.3550862 124.8741236  84.0200023  67.5883258 124.3199723  84.1656705
  68.7661567 124.9463105  84.8814175   4.3284720  22.4946587  75.6412912
   4.9663130  22.3753335  74.9376252   4.2105563  23.4427431  75.7000864
   1.1374427  22.4474015  75.5774437   0.7992938  22.3315080  74.6894971
   2.0064195  22.0465180  75.5575443   1.6194210  23.6008867  81.5360642
   1.6082850  23.2061665  80.6641146   1.7814849  22.8674940  82.1294414
   2.5760801  27.9680459  66.8785792   1.9248781  28.5534540  66.4919806
   3.3705164  28.4986654  66.9380830   3.8825989  20.2198041  72.7166120
   4.6689078  19.8017464  72.3656537   4.1464693  21.1244133  72.8847768
   4.0536066  25.6570891  67.4154777   3.4181899  25.7305518  68.1275681
   3.7233473  26.2464490  66.7373856   9.2834416  20.1573274  73.6199098
  10.0159588  19.5872491  73.8536928   8.5273772  19.7694875  74.0605604
   0.9010536  22.5800516  70.8162441   0.5368743  22.0531137  71.5275362
   1.7577652  22.1898985  70.6428926   3.2991356  26.0707394  77.4789620
   2.9992079  26.9732433  77.3705427   2.9542415  25.8039578  78.3310773
   6.6988500  18.5889935  75.1587057   5.7905377  18.5205343  74.8645818
   6.6476095  19.0661879  75.9868883   8.5650146  16.7906373  76.9364931
   7.9224526  17.0838906  76.2904726   8.0605075  16.6759293  77.7418128
   6.2190310  20.5369546  67.6250790   7.1308166  20.7696933  67.4498488
   5.7099957  21.1206590  67.0625869   4.5031077  24.9594174  81.2612083
   4.9114433  24.5176584  80.5166715   3.7808339  24.3846801  81.5146276
   0.8562147  19.8966781  78.6345640   1.7023343  20.3206194  78.7780289
   0.7960785  19.2400405  79.3284203   4.8259892  25.5195365  75.0164372
   4.1968754  25.6841079  74.3140440   4.4385554  25.9336974  75.7875336
   8.7049124  26.4549802  72.3708736   8.0200162  26.8348704  71.8205769
   8.7892973  27.0645129  73.1040683   4.0061593  17.5571149  80.2926813
   3.7622525  18.3113210  79.7561089   4.2821523  17.9356497  81.1274061
   5.9600055  24.1009761  78.9704079   6.1716951  24.7441521  78.2938460
   5.9129804  23.2672078  78.5026009   3.5626284  16.7127582  75.8740651
   2.7010763  17.0108836  76.1657389   3.5888719  16.9297981  74.9421684
   7.0745883  26.9781717  77.1426436   7.8963327  26.5761904  76.8609118
   7.0708286  26.8749951  78.0942552  15.1651876  23.3220465  73.4911408
  14.4115585  22.7527863  73.3355412  15.2999418  23.2883130  74.4382043
   2.1818981  28.8157434  83.2966469   1.7382835  28.0293813  82.9787374
   2.8436194  29.0036585  82.6310360   4.2800219  29.0960234  81.3247871
   4.2618694  29.9169115  80.8328140   5.2020139  28.9714309  81.5498012
   3.8693251  21.7073041  66.2037456   3.3539874  22.4777645  66.4425843
   3.5970559  21.0338177  66.8270517   8.8427525  24.4605395  68.1390629
   8.0656968  24.1216555  67.6945791   9.5219006  24.4658018  67.4645594
   3.6579554  19.5800133  68.0297237   3.3529690  19.8946282  68.8807380
   4.6109996  19.6581553  68.0724570   2.1025986  25.7390356  69.6790191
   1.5747347  25.0043116  69.3663428   1.6013489  26.5165032  69.4330159
   7.0818832  23.9339377  74.7957237   6.4242506  24.6238638  74.8837366
   7.8859231  24.3235808  75.1391224   5.8924291  22.2883749  72.8461179
   6.4056172  22.9213741  73.3482889   6.5425515  21.6884945  72.4804539
   3.1546665  32.2668073  65.6021850   2.4808364  32.5699770  66.2106808
   3.5412487  33.0697154  65.2527307   2.3705122  19.7633205  75.0919520
   1.4527683  19.9848152  74.9341208   2.7865265  19.8379515  74.2331227
   3.1540169  21.1624620  70.2222200   3.9011988  21.6746018  69.9129322
   3.4231759  20.8408673  71.0826593   1.4266819  23.6583161  67.2049154
   0.5178039  23.3742194  67.3021624   1.4561903  24.0782240  66.3452461
   6.6586087  27.2689751  70.9740322   6.2048414  26.4280661  71.0305512
   6.0280054  27.9051149  71.3115102   5.6019006  18.1981737  72.2040989
   4.8641763  17.6859123  72.5351232   5.8545780  17.7582118  71.3924266
   5.1019026  29.1066247  71.9090140   5.3942000  29.6671304  71.1902505
   5.6117647  29.3994808  72.6643299   1.1242907  25.1991905  64.5437233
   0.6862337  24.4827764  64.0842870   1.8653348  25.4268020  63.9822324
   3.5118285  20.3530666  79.8964222   3.8667673  20.5802139  80.7558688
   4.1590416  20.6849043  79.2741477   9.2416022  23.4749102  70.6013551
   9.1033921  23.6650698  69.6734740   8.8852241  24.2368485  71.0581602
   9.2685402  25.5425629  75.6124823   9.7021908  25.4500918  76.4607877
   9.9816982  25.5183129  74.9744839   3.0013297  29.1427723  77.1457923
   3.0550319  29.7118659  77.9135639   2.1328078  29.3129608  76.7811960
  10.1300951  25.5849330  78.1457708  10.3236841  26.4895140  78.3916983
  10.0301569  25.1256749  78.9796293   5.1916060  25.7356072  83.7198589
   5.0401566  25.5066624  82.8028672   5.1820739  26.6926674  83.7329934
   1.9601396  23.3087985  78.7044855   2.8893456  23.4599145  78.5313823
   1.5392426  23.3972006  77.8493502   1.3537880  32.4347746  67.8168929
   1.5289636  31.9635789  68.6314552   0.6670668  33.0613512  68.0450190
   2.3094943  26.7120252  73.8632231   1.9744776  26.6721022  74.7589880
   1.8098889  26.0464968  73.3902641   5.2454135  24.0576286  64.1369290
   4.6283306  23.3323115  64.0402343   4.7770623  24.8185647  63.7936365
   6.9008267  28.7675195  81.7975071   6.8420813  28.0834415  81.1305654
   7.3027785  29.5094185  81.3455697   6.9025674  26.7314779  80.0289050
   6.0152453  26.3940701  80.1515449   7.4724225  25.9997810  80.2657816
  11.3843014  22.1422996  74.7905612  11.3732891  23.0247712  74.4199545
  10.5160394  21.7894547  74.5960149   2.8925511  31.2903065  79.1508452
   3.6053483  31.9250530  79.0784354   2.4015539  31.3866931  78.3348454
   4.6143038  25.1954318  70.7225744   3.6799316  25.3155780  70.5530448
   4.7919706  24.2926785  70.4585754   8.0015589  21.0371637  71.2575778
   8.4676041  21.8699629  71.1836081   8.4523089  20.5716619  71.9621036
   6.0691820  27.3815458  68.2561930   6.3451664  27.2672053  69.1655804
   5.1996319  26.9832943  68.2174103   5.7438710  21.5942116  77.7966573
   5.0910160  21.8418024  77.1419026   6.1219090  20.7806254  77.4629051
   2.7045884  31.6301809  71.8994744   2.8868279  30.8123465  72.3622496
   3.5278870  31.8469501  71.4619634   3.0388050  30.5569994  69.1609792
   3.5675816  30.0462449  68.5479954   3.3016269  30.2412525  70.0255325
   1.7926283  22.3361927  84.2832610   1.1166920  22.2356056  84.9534986
   2.6153917  22.1801141  84.7468608   0.5349066  33.6428855  78.5190226
   1.0867374  33.8060476  79.2839312   0.8755260  34.2333292  77.8470251
   5.3859940  28.4690112  84.3738881   5.9299844  29.0820070  83.8793836
   4.8046785  29.0269690  84.8905894   3.6717453  31.5910830  75.5053909
   3.5468593  30.7900570  74.9964854   4.3296545  32.0857023  75.0167879
   5.7352362  29.3919850  77.1333459   4.7882697  29.2725201  77.0611785
   6.0835135  28.5042348  77.2159720   2.7398795  29.1872566  73.3337811
   2.5923758  28.2589274  73.5145381   3.5652289  29.2092657  72.8494886
   6.3432917  30.0101125  74.4202684   7.2679464  29.8043986  74.2827135
   6.1748220  29.7617526  75.3292025   6.1328233  30.5286793  69.7764775
   6.3065111  29.9633215  69.0238628   6.6257124  31.3287687  69.5944265
  11.9867624  23.2923216  71.3955075  12.4298770  22.5430541  70.9974198
  11.1094135  23.2833352  71.0128807   7.1203406  29.8453557  66.8761673
   7.8154310  30.4660250  67.0948988   7.4626556  28.9948908  67.1514051
   9.0194829  27.2953263  68.4049004   9.5446153  27.6340535  67.6798324
   8.9317181  26.3600278  68.2212139   0.6814877  31.2087336  80.5338881
   0.9902004  30.9636483  81.4061580   1.4790359  31.4133975  80.0457751
   8.7088735  27.9286166  83.7100202   7.9184279  27.9110305  83.1704702
   8.4722089  28.4674460  84.4649239   8.8286610  24.7778633  81.0232931
   8.8784615  24.6128640  81.9648453   8.7200533  23.9105892  80.6330811
   6.1190372  20.7609561  82.3392237   7.0200235  20.6216025  82.0476235
   6.1938347  20.9264015  83.2790415  10.3304807  27.1975574  81.2674952
  10.0389615  27.5605555  82.1038413   9.7176938  26.4842582  81.0888284
  11.5300489  24.7628454  73.7877522  12.3647380  25.2018258  73.9515083
  11.6659618  24.2867107  72.9685768   8.5791995  22.3208189  79.7355010
   9.0546117  22.5135835  78.9273862   7.6557560  22.3767375  79.4898394
   1.2118274  29.9515309  65.7836767   0.6392241  30.5705496  65.3307239
   1.7851068  30.5014670  66.3176689   7.2793664  19.1973949  77.9683316
   8.2311087  19.2972046  77.9895540   7.1097114  18.4052217  78.4781400
   5.3008043  16.2829532  78.1542717   4.7057976  16.5634545  77.4589205
   5.0157740  16.7723433  78.9259458   4.4315534  30.2352459  66.9145349
   5.3646207  30.1698020  67.1178225   4.3438747  31.0708726  66.4559882
   7.0603551  29.5518329  63.8749297   6.9817182  29.2178193  64.7685055
   7.8813217  30.0440097  63.8740769   9.7581742  22.4180068  77.0825615
   9.7258062  21.4796069  77.2685299  10.3682365  22.4964105  76.3491440
   1.5965073  21.2876121  63.1252819   2.5424177  21.1582330  63.1941237
   1.2179318  20.5490783  63.6022248   9.9076230  19.2091112  77.1283899
   9.3915279  18.4249569  76.9413827  10.7916179  18.8809829  77.2930418
  15.5758292  23.4796075  76.2231652  16.3061680  23.2181363  76.7839356
  14.9665237  22.7424797  76.2633720  13.6573589  21.6203938  76.8206103
  12.9306752  21.4859903  76.2122595  13.2420876  21.9280766  77.6262821
   1.4803765  25.3393868  84.5853476   2.4006775  25.5172467  84.7793523
   1.4453348  24.3949913  84.4333176   6.7039411  14.9441559  70.3454907
   6.1238080  15.6026364  69.9632959   6.4375344  14.1218904  69.9342324
   5.4864289  17.1041650  69.4011255   4.5990144  17.3891300  69.1831450
   5.9018278  16.9435413  68.5538532   8.8378825  17.1288171  73.1165594
   9.6139215  17.6184623  73.3890211   8.1126959  17.5546225  73.5737464
  11.2751384  17.8415790  74.1739535  11.8695874  17.6011526  73.4632843
  11.3477967  17.1222921  74.8013071   4.6307502  26.8686325  63.4959275
   5.3343352  27.0736327  64.1116931   3.9070151  27.4363086  63.7608359
   5.4605313  22.6196186  69.6161545   5.4040514  23.0764737  68.7769178
   6.0133655  21.8586870  69.4384388   9.2710119  18.4085918  70.4411665
   9.0147053  18.0082553  71.2719872   8.6462987  19.1229712  70.3161804
  13.5822456  21.1481991  72.9482956  13.0222014  21.2175180  73.7214518
  12.9765960  20.9722976  72.2282452   6.5394200  27.3068854  65.5457735
   7.3739804  26.8750052  65.3635210   6.3778543  27.1350867  66.4734630
   6.1940092  23.8100967  66.9114074   6.1388896  23.6445238  65.9702519
   5.5686147  24.5177000  67.0676264   3.5085999  26.1149879  86.2367637
   4.3777159  26.2890531  85.8754272   3.0292751  26.9344296  86.1143367
  15.1678475  37.8238505  75.6412912  15.8056885  37.7045252  74.9376252
  15.0499318  38.7719349  75.7000864  11.9768181  37.7765933  75.5774437
  11.6386693  37.6606998  74.6894971  12.8457949  37.3757098  75.5575443
   7.8354997  39.6301409  71.5671328   7.2719862  39.5391346  70.7987615
   7.7207392  38.8101314  72.0473820  12.4587964  38.9300785  81.5360642
  12.4476605  38.5353583  80.6641146  12.6208604  38.1966857  82.1294414
   5.3819429  41.1252601  74.4055548   6.1740721  40.7843426  73.9901847
   5.6216079  41.2347576  75.3257701  13.4154556  43.2972377  66.8785792
  12.7642535  43.8826457  66.4919806  14.2098918  43.8278572  66.9380830
   7.3410183  40.3861514  67.2772927   8.1141059  39.8390501  67.1385803
   7.6935582  41.2505764  67.4887388   9.1795225  41.7137896  80.4839826
   8.8885091  42.6183527  80.3686492   9.8152210  41.7554424  81.1983896
  10.1051432  39.0914745  77.0741186  10.7015004  38.8670767  76.3598149
  10.1626404  38.3499490  77.6766634   9.6776460  36.5454180  64.9091377
   9.9301981  36.0235702  64.1474840   8.7401020  36.3820326  65.0118060
  14.7219743  35.5489959  72.7166120  15.5082833  35.1309382  72.3656537
  14.9858448  36.4536051  72.8847768  14.8929821  40.9862809  67.4154777
  14.2575654  41.0597436  68.1275681  14.5627227  41.5756408  66.7373856
  20.1228170  35.4865192  73.6199098  20.8553342  34.9164409  73.8536928
  19.3667526  35.0986792  74.0605604   9.3972749  38.4482286  67.1115752
   9.2809007  37.7727190  67.7796836   9.5075009  37.9614660  66.2947905
  11.7404290  37.9092433  70.8162441  11.3762497  37.3823054  71.5275362
  12.5971406  37.5190902  70.6428926  17.6453591  29.1986766  78.0793707
  17.3136916  30.0682177  77.8554922  17.0499204  28.8823050  78.7587737
  11.3809777  32.9382333  65.8123789  11.5484179  33.8062570  66.1794260
  11.1906946  33.1009615  64.8885079  14.1385110  41.3999312  77.4789620
  13.8385833  42.3024351  77.3705427  13.7936170  41.1331495  78.3310773
   7.5897592  37.8513109  73.5126324   6.6648088  37.7189323  73.7204016
   7.8382005  38.6307328  74.0096267  17.5382254  33.9181852  75.1587057
  16.6299131  33.8497261  74.8645818  17.4869850  34.3953797  75.9868883
  11.3598998  35.3939991  66.7970456  11.2398623  35.8397041  67.6355937
  10.6651586  35.7425308  66.2383994   4.9506403  37.4946382  74.3470113
   5.0798784  37.7480861  75.2609525   4.2703854  38.0874090  74.0274768
   9.1205890  48.1643632  70.4460587   9.0429920  49.1151457  70.5249068
   8.5167534  47.8189505  71.1035514  11.6123120  35.3371498  83.1021954
  10.8356454  35.8965418  83.0924819  12.2513683  35.8228281  83.6236825
  19.4043900  32.1198291  76.9364931  18.7618281  32.4130824  76.2904726
  18.8998829  32.0051211  77.7418128  17.0584064  35.8661464  67.6250790
  17.9701920  36.0988851  67.4498488  16.5493711  36.4498508  67.0625869
   9.8669492  38.1456951  82.6639921  10.6084177  38.6841995  82.3874745
   9.1606478  38.7723240  82.8211473  15.3424832  40.2886092  81.2612083
  15.7508188  39.8468502  80.5166715  14.6202093  39.7138719  81.5146276
  11.6955902  35.2258698  78.6345640  12.5417097  35.6498112  78.7780289
  11.6354540  34.5692323  79.3284203  15.6653646  40.8487282  75.0164372
  15.0362509  41.0132996  74.3140440  15.2779309  41.2628892  75.7875336
  19.5442878  41.7841720  72.3708736  18.8593917  42.1640621  71.8205769
  19.6286728  42.3937047  73.1040683  14.8455347  32.8863067  80.2926813
  14.6016279  33.6405127  79.7561089  15.1215278  33.2648414  81.1274061
  16.7993810  39.4301679  78.9704079  17.0110705  40.0733439  78.2938460
  16.7523558  38.5963996  78.5026009  14.4020039  32.0419500  75.8740651
  13.5404518  32.3400753  76.1657389  14.4282474  32.2589899  74.9421684
  11.2181608  40.5861690  72.2814457  11.6819954  40.8649393  71.4919079
  10.9538406  39.6845135  72.0987548   8.1105689  40.1333172  75.2194220
   8.6807046  40.5620440  74.5811705   8.7013801  39.8515757  75.9178406
  10.1550494  36.7084843  69.0904022  10.8574538  37.1605886  69.5577948
   9.8231123  36.0668662  69.7183915   8.6030856  35.2996599  83.4655231
   7.9729517  35.9812880  83.6990628   8.4966944  35.1879681  82.5208370
   3.8975828  34.9668395  74.3921156   3.1074882  35.2225924  73.9161266
   4.3887076  35.7816733  74.4973196  17.9139638  42.3073635  77.1426436
  18.7357082  41.9053822  76.8609118  17.9102041  42.2041869  78.0942552
   5.8490574  35.3312975  71.3504632   5.0521737  35.4431669  71.8688128
   5.6216166  35.6699627  70.4845523  11.6796241  41.8557678  79.2987147
  11.7440674  42.3178085  80.1345319  10.9707165  41.2255043  79.4269457
   2.1813531  35.2198886  76.8236146   2.4321570  36.1045896  77.0893722
   2.7173080  35.0403487  76.0511238  26.0045631  38.6512383  73.4911408
  25.2509339  38.0819781  73.3355412  26.1393172  38.6175048  74.4382043
  11.3944259  43.5225785  69.1666127  11.2589934  44.3677321  69.5950975
  11.9354072  43.7245063  68.4032061   7.8811599  29.6017365  85.8280482
   7.4878544  29.0483564  86.5028127   8.6977739  29.9127944  86.2187000
   4.8473656  41.0401223  69.7394052   5.3598177  41.8344474  69.8899617
   5.4996369  40.3427514  69.6727654   6.6568541  44.1566980  71.8216805
   6.8335169  45.0784944  71.6337789   7.4525375  43.8425399  72.2511185
  10.7979560  31.0175244  83.4200739  11.5389273  31.6182397  83.3405201
  11.0297482  30.2752882  82.8618782   5.9420898  36.2031612  81.6978969
   5.8274413  35.3016869  81.9986068   5.0865415  36.4495308  81.3463785
  13.0212735  44.1449352  83.2966469  12.5776590  43.3585730  82.9787374
  13.6829949  44.3328502  82.6310360   7.7799857  45.6745153  77.8227148
   8.3307282  45.5462217  77.0504142   6.9411332  45.9740042  77.4722041
  15.1193973  44.4252152  81.3247871  15.1012449  45.2461033  80.8328140
  16.0413894  44.3006227  81.5498012  11.5767028  41.9396281  82.1671379
  12.1095364  41.1784569  81.9370687  11.0481109  41.6469933  82.9095533
  14.7436723  27.0456347  77.6965021  14.4000992  27.9357989  77.6204131
  15.1115685  26.8558005  76.8334606   2.8122573  39.3689878  70.5153623
   3.6497795  39.7786886  70.2987331   2.9900841  38.4289320  70.4853817
  14.7087005  37.0364958  66.2037456  14.1933629  37.8069563  66.4425843
  14.4364314  36.3630094  66.8270517  12.2934116  31.8814659  71.2622694
  11.4375713  31.4921509  71.0828333  12.7061068  31.9606620  70.4022480
  13.8233263  29.4161002  75.6614254  13.3198059  29.3791138  74.8482059
  14.1163870  30.3253745  75.7210911  10.0676149  29.4999732  74.6680436
  10.9329146  29.3042541  74.3086325  10.1353658  29.2710084  75.5949792
  19.6821279  39.7897313  68.1390629  18.9050722  39.4508472  67.6945791
  20.3612760  39.7949936  67.4645594  14.4973308  34.9092050  68.0297237
  14.1923444  35.2238200  68.8807380  15.4503751  34.9873470  68.0724570
  12.9419740  41.0682274  69.6790191  12.4141102  40.3335033  69.3663428
  12.4407243  41.8456950  69.4330159  17.9212586  39.2631294  74.7957237
  17.2636261  39.9530556  74.8837366  18.7252986  39.6527726  75.1391224
   7.6738468  31.7301940  72.0396802   8.2482220  31.5077121  71.3069995
   8.2609450  31.7990635  72.7925404  16.7318045  37.6175667  72.8461179
  17.2449927  38.2505659  73.3482889  17.3819269  37.0176862  72.4804539
   8.0008055  33.7606401  66.0592688   7.1645367  34.0981088  66.3801962
   7.8612825  33.6255381  65.1219825   9.9761136  28.6043189  70.7671872
   9.3225548  28.2892206  70.1428487   9.9341610  27.9818929  71.4931695
  11.0872340  38.8862484  62.6825164  10.1799402  38.6551737  62.8816313
  11.5843372  38.0900103  62.8699146  13.9940419  47.5959991  65.6021850
  13.3202118  47.8991688  66.2106808  14.3806241  48.3989072  65.2527307
  13.2098876  35.0925122  75.0919520  12.2921437  35.3140069  74.9341208
  13.6259020  35.1671433  74.2331227  13.9933924  36.4916538  70.2222200
  14.7405743  37.0037935  69.9129322  14.2625513  36.1700591  71.0826593
  12.2660574  38.9875079  67.2049154  11.3571793  38.7034112  67.3021624
  12.2955658  39.4074157  66.3452461  17.4979841  42.5981668  70.9740322
  17.0442168  41.7572578  71.0305512  16.8673808  43.2343067  71.3115102
  16.4412761  33.5273654  72.2040989  15.7035518  33.0151041  72.5351232
  16.6939534  33.0874036  71.3924266  15.9412781  44.4358165  71.9090140
  16.2335755  44.9963222  71.1902505  16.4511401  44.7286726  72.6643299
  16.5424388  26.3049906  72.7982758  16.8483265  25.4447270  72.5108673
  17.2676993  26.8967527  72.5981752   2.8348744  36.7080593  71.1864356
   2.6373144  36.1149954  70.4615423   2.2795408  36.4032803  71.9040295
  10.8145468  36.6003699  73.3058949  10.8694078  35.6477536  73.2301426
  10.0036670  36.7563139  73.7900248  11.9636662  40.5283823  64.5437233
  11.5256092  39.8119681  64.0842870  12.7047103  40.7559937  63.9822324
   8.7537828  35.2180759  71.0649328   7.9405693  35.5174930  71.4714520
   9.2496822  34.8236448  71.7823811  10.9046406  45.2138516  72.9983593
  10.8622585  45.4399362  72.0692125  11.8209105  44.9801891  73.1469394
  14.3512040  35.6822584  79.8964222  14.7061427  35.9094057  80.7558688
  14.9984171  36.0140960  79.2741477  20.0809777  38.8041020  70.6013551
  19.9427675  38.9942616  69.6734740  19.7245995  39.5660402  71.0581602
   8.2451903  32.7899115  76.6810563   8.8851282  32.6487874  75.9833527
   7.4129433  32.5033628  76.3049165  20.1079156  40.8717547  75.6124823
  20.5415663  40.7792836  76.4607877  20.8210737  40.8475047  74.9744839
   9.0212207  42.0901545  72.7945556   9.8152805  41.5951865  72.5928131
   8.3103899  41.5619408  72.4313261  13.8407051  44.4719641  77.1457923
  13.8944073  45.0410577  77.9135639  12.9721832  44.6421526  76.7811960
   5.3294970  36.2344627  68.8705308   4.3992558  36.1729082  69.0875271
   5.4252442  35.7120580  68.0741950   5.2480519  32.7599440  71.4583550
   5.5087336  33.6744773  71.3492711   6.0697691  32.2923882  71.6080163
   6.7205444  34.1737197  78.6282375   7.3928498  33.9654559  77.9795024
   5.8935231  33.9759283  78.1887607  20.9694706  40.9141247  78.1457708
  21.1630596  41.8187058  78.3916983  20.8695324  40.4548666  78.9796293
  12.6231016  30.7999138  80.6448035  11.9758931  31.4989087  80.5512512
  13.3932032  31.2335282  81.0124284  16.0309814  41.0647990  83.7198589
  15.8795321  40.8358542  82.8028672  16.0214494  42.0218591  83.7329934
  12.7995151  38.6379903  78.7044855  13.7287211  38.7891062  78.5313823
  12.3786181  38.7263923  77.8493502  11.5983483  42.6630567  76.4743393
  11.4594568  42.2949352  77.3469331  10.8098079  43.1778207  76.3027351
  12.1931635  47.7639664  67.8168929  12.3683390  47.2927707  68.6314552
  11.5064423  48.3905430  68.0450190  13.1488698  42.0412170  73.8632231
  12.8138530  42.0012940  74.7589880  12.6492643  41.3756886  73.3902641
   7.1232942  37.4479800  79.3884812   6.9852740  36.7160039  79.9896351
   8.0337865  37.3588700  79.1069000  16.0847889  39.3868204  64.1369290
  15.4677060  38.6615032  64.0402343  15.6164378  40.1477564  63.7936365
   9.7515242  37.1599759  78.8768491  10.4614861  36.5192951  78.8355110
   9.7084550  37.4112654  79.7994672  17.7402021  44.0967113  81.7975071
  17.6814567  43.4126333  81.1305654  18.1421539  44.8386103  81.3455697
   8.4644176  34.1464977  80.6964131   7.9281533  33.6955716  81.3485727
   7.8760885  34.2810886  79.9534595   6.7592720  50.9129026  74.5908790
   6.9989318  51.5447551  75.2687808   5.9161916  50.5617066  74.8774149
   7.8746435  33.6053628  63.2590595   6.9975902  33.4842429  62.8952841
   8.3504188  32.8139707  63.0069483  17.7419428  42.0606696  80.0289050
  16.8546207  41.7232618  80.1515449  18.3117979  41.3289728  80.2657816
   4.1983298  33.2820985  77.7817125   4.1141486  32.6746654  77.0467535
   3.3766004  33.7730003  77.7826622  11.2720582  46.7208149  76.9950293
  11.1990753  47.5263120  77.5069598  10.8297975  46.9200115  76.1698315
  11.0610361  45.9579919  70.5053115  10.2777883  46.5001599  70.5991340
  11.7603106  46.4753898  70.9047356  14.3707011  31.7674548  73.1487320
  14.8675711  31.0144511  72.8288391  13.5993993  31.8038865  72.5830530
  22.2236769  37.4714914  74.7905612  22.2126645  38.3539629  74.4199545
  21.3554148  37.1186465  74.5960149  13.7319265  46.6194983  79.1508452
  14.4447237  47.2542448  79.0784354  13.2409294  46.7158849  78.3348454
  15.4536792  40.5246236  70.7225744  14.5193071  40.6447698  70.5530448
  15.6313461  39.6218702  70.4585754  10.9541980  33.9091931  72.8759005
  10.5839768  33.3562972  73.5639911  11.4501073  33.3050065  72.3234005
  18.8409343  36.3663555  71.2575778  19.3069796  37.1991546  71.1836081
  19.2916844  35.9008536  71.9621036   8.7831179  44.3689426  79.9714023
   9.4840638  45.0025909  80.1243417   8.3126294  44.7104158  79.2109662
  16.9085575  42.7107376  68.2561930  17.1845418  42.5963971  69.1655804
  16.0390073  42.3124861  68.2174103  16.8126006  28.7344142  75.2966679
  15.8989086  28.9648369  75.4648886  17.2419108  28.8182586  76.1480712
  16.5832465  36.9234034  77.7966573  15.9303915  37.1709941  77.1419026
  16.9612845  36.1098172  77.4629051  13.5439639  46.9593727  71.8994744
  13.7262033  46.1415383  72.3622496  14.3672625  47.1761419  71.4619634
  13.8781804  45.8861912  69.1609792  14.4069571  45.3754367  68.5479954
  14.1410024  45.5704442  70.0255325  12.6320038  37.6653845  84.2832610
  11.9560675  37.5647974  84.9534986  13.4547672  37.5093059  84.7468608
   4.3798897  43.9025781  76.9045126   4.9652334  43.1569469  77.0373030
   4.1823735  44.2129738  77.7881790   7.2337552  46.9377029  71.9207568
   6.5647927  47.4223156  71.4371608   7.0950422  47.1846249  72.8350947
  11.3742821  48.9720772  78.5190226  11.9261129  49.1352394  79.2839312
  11.7149014  49.5625210  77.8470251   6.3507314  31.3195922  79.1212111
   6.4148640  32.1810753  78.7089509   6.2874434  30.7069924  78.3884470
   5.8259586  33.3919055  82.7685145   6.4531625  33.0096132  83.3822670
   4.9687505  33.1733257  83.1340838  16.2253695  43.7982030  84.3738881
  16.7693599  44.4111988  83.8793836  15.6440540  44.3561608  84.8905894
   2.6025129  35.1995484  68.7003500   2.8978570  34.2906162  68.6470554
   1.7013165  35.1783223  68.3784503  14.5111208  46.9202748  75.5053909
  14.3862347  46.1192488  74.9964854  15.1690299  47.4148941  75.0167879
   6.1319376  33.2751480  74.6831049   5.4105962  33.8887448  74.5438522
   6.9212632  33.8109245  74.6047695  16.5746116  44.7211768  77.1333459
  15.6276452  44.6017119  77.0611785  16.9228889  43.8334266  77.2159720
   8.9345690  30.6105907  80.9571701   9.4580091  30.8568203  81.7198010
   8.7158023  31.4425942  80.5374838   4.3312971  32.8809581  68.8242825
   4.0025677  32.0006960  68.6417931   4.6852341  32.8257250  69.7119215
  13.5792550  44.5164484  73.3337811  13.4317512  43.5881191  73.5145381
  14.4046043  44.5384575  72.8494886   7.4454794  33.1682551  69.1918303
   7.7850866  33.6968472  68.4696911   7.8926914  33.5062957  69.9676870
  17.1826671  45.3393043  74.4202684  18.1073219  45.1335904  74.2827135
  17.0141975  45.0909444  75.3292025  10.1398235  31.5519602  78.6421371
   9.7995055  30.7527415  79.0442051   9.4337241  31.8521313  78.0698204
  10.7914706  28.6368914  77.0948694  11.6140776  28.1629393  76.9727584
  11.0352770  29.4159398  77.5947380   9.4322941  31.6657173  67.3911596
  10.1531303  32.0438426  66.8875313   8.8088245  32.3846050  67.4946574
  13.5754064  32.3702322  68.3269928  13.7917678  33.2526960  68.0258756
  13.0948131  31.9788535  67.5975570   8.3153285  35.3288035  74.9040673
   8.1697866  35.6428338  75.7964954   7.8378489  35.9472935  74.3511571
  10.1749668  32.3190583  74.9521562  10.1611237  31.4231676  74.6153860
  10.8922096  32.3261247  75.5859848  12.0275799  32.7527923  76.9974690
  11.7693577  33.6744994  76.9959020  11.4960839  32.3558358  77.6875154
  16.9721988  45.8578710  69.7764775  17.1458865  45.2925133  69.0238628
  17.4650879  46.6579605  69.5944265   2.7898947  37.8693379  77.8428334
   2.2452415  38.6453187  77.9748608   3.6678297  38.2164184  77.6847455
   9.5786564  31.2004963  70.2209132   9.7002475  30.2721609  70.4200020
   9.2888606  31.2143649  69.3087448  12.4477754  28.8859874  73.3575852
  12.4699451  28.9499207  72.4027832  12.8645813  28.0464382  73.5516358
  22.8261379  38.6215133  71.3955075  23.2692525  37.8722458  70.9974198
  21.9487889  38.6125270  71.0128807  17.9597160  45.1745475  66.8761673
  18.6548065  45.7952167  67.0948988  18.3020310  44.3240826  67.1514051
   3.5764969  36.9963276  80.7358491   2.8346705  37.1445911  81.3223121
   3.2557714  37.2571541  79.8725240  19.8588583  42.6245180  68.4049004
  20.3839907  42.9632453  67.6798324  19.7710936  41.6892196  68.2212139
  11.5208632  46.5379254  80.5338881  11.8295758  46.2928401  81.4061580
  12.3184114  46.7425892  80.0457751  11.5429244  48.6917163  72.7644257
  11.1034234  48.1993542  73.4577114  12.2937361  48.1490131  72.5236333
   4.0221583  44.8828704  72.7668885   4.8479603  44.5832476  72.3867529
   3.6715635  44.1136327  73.2158674   8.9903116  44.2355173  74.8366559
   8.3683125  43.5725878  74.5368787   9.6607983  44.2616304  74.1540207
   2.2230188  42.8015031  73.7257819   1.3862096  42.3737205  73.5441820
   2.1953833  42.9947474  74.6628610   9.0627644  32.7136961  84.4299065
   9.1115799  33.5899083  84.0476835   9.6050158  32.1714354  83.8570708
  19.5482489  43.2578084  83.7100202  18.7578033  43.2402223  83.1704702
  19.3115844  43.7966378  84.4649239  19.6680364  40.1070550  81.0232931
  19.7178369  39.9420558  81.9648453  19.5594288  39.2397809  80.6330811
   8.5516623  42.7859096  68.3125020   8.7004743  43.4694560  67.6591692
   9.3583066  42.7664186  68.8274475  16.9584127  36.0901478  82.3392237
  17.8593989  35.9507943  82.0476235  17.0332101  36.2555933  83.2790415
  11.2926932  33.4668333  81.1845424  10.4230241  33.7601899  80.9128012
  11.5286412  34.0508778  81.9052687  21.1698561  42.5267492  81.2674952
  20.8783369  42.8897472  82.1038413  20.5570692  41.8134500  81.0888284
  22.3694243  40.0920372  73.7877522  23.2041135  40.5310176  73.9515083
  22.5053372  39.6159025  72.9685768  19.4185749  37.6500106  79.7355010
  19.8939871  37.8427753  78.9273862  18.4951315  37.7059292  79.4898394
   6.3069256  38.8124274  69.3186088   6.0615298  37.9086604  69.5166299
   6.4765171  38.8141424  68.3765566  13.9965966  29.6847950  78.7010844
  14.5147910  30.4208977  78.3757333  13.6421099  29.9911943  79.5357603
   5.5764904  34.5452631  66.8172250   4.8834148  34.6196986  66.1612286
   5.3316655  33.7812975  67.3393767  14.2478560  26.1048232  74.2211741
  14.5280314  25.4371422  74.8472167  15.0329167  26.2977328  73.7086404
  12.0512029  45.2807226  65.7836767  11.4785996  45.8997413  65.3307239
  12.6244822  45.8306588  66.3176689  18.1187418  34.5265866  77.9683316
  19.0704841  34.6263964  77.9895540  17.9490869  33.7344135  78.4781400
  16.1401798  31.6121450  78.1542717  15.5451730  31.8926462  77.4589205
  15.8551495  32.1015351  78.9259458  15.2709288  45.5644376  66.9145349
  16.2039961  45.4989938  67.1178225  15.1832501  46.4000643  66.4559882
  17.8997305  44.8810247  63.8749297  17.8210937  44.5470110  64.7685055
  18.7206972  45.3732015  63.8740769  20.5975496  37.7471986  77.0825615
  20.5651816  36.8087987  77.2685299  21.2076120  37.8256023  76.3491440
  12.4358827  36.6168039  63.1252819  13.3817932  36.4874247  63.1941237
  12.0573072  35.8782701  63.6022248  20.7469985  34.5383030  77.1283899
  20.2309033  33.7541486  76.9413827  21.6309933  34.2101746  77.2930418
  18.4080712  28.2824045  73.0879711  18.2105533  27.9739133  73.9723043
  19.0180417  29.0085684  73.2177641  26.4152046  38.8087993  76.2231652
  27.1455435  38.5473281  76.7839356  25.8058992  38.0716715  76.2633720
  24.4967343  36.9495856  76.8206103  23.7700507  36.8151820  76.2122595
  24.0814630  37.2572684  77.6262821  12.3197520  40.6685785  84.5853476
  13.2400529  40.8464384  84.7793523  12.2847103  39.7241831  84.4333176
  10.6201744  34.5418015  63.0607705   9.7133200  34.2451128  63.1370418
  10.8977725  34.2447834  62.1941991   1.5379685  35.8624379  73.5106751
   1.2182469  35.0089687  73.2181125   0.9913113  36.0772957  74.2664718
   5.3159592  38.5786820  77.2276258   5.5345602  39.5103928  77.2464291
   5.7285366  38.2194794  78.0131061  12.2363810  29.0854905  69.2151946
  11.4264538  28.7401990  69.5907192  12.9248227  28.7762449  69.8039558
  14.1654358  28.1632952  70.8376243  14.7185397  28.5828405  71.4966266
  14.4024445  27.2368700  70.8799199  10.1887457  34.1520026  86.6179007
  10.0884184  35.1014383  86.5491098   9.9709000  33.8238265  85.7455077
   9.3900529  31.4004951  63.2019684  10.2519693  31.7259849  63.4615501
   9.5750873  30.6136447  62.6892750   1.4067945  39.4827290  75.4799873
   0.7131416  39.0681243  74.9669827   2.1540936  39.5247827  74.8833292
  17.5433165  30.2733477  70.3454907  16.9631834  30.9318281  69.9632959
  17.2769098  29.4510822  69.9342324  15.9936732  29.6738535  72.5476227
  16.4936510  29.7855069  71.7390546  16.6372340  29.3699588  73.1877036
  10.0518728  37.5817164  85.4344068   9.5685809  38.3817525  85.6407957
  10.1379667  37.5925109  84.4811512   3.3204687  39.4145544  73.3565888
   3.2975375  39.5133231  72.4047771   3.6305324  40.2610695  73.6783054
   5.9792065  41.4721699  77.4712502   6.9335319  41.4405642  77.4042434
   5.7804589  41.0112323  78.2862728   6.5691447  40.0422815  80.0383300
   7.3884336  40.5366894  80.0618137   6.8428255  39.1254783  80.0100867
  16.3258043  32.4333568  69.4011255  15.4383898  32.7183218  69.1831450
  16.7412032  32.2727331  68.5538532  19.6772579  32.4580089  73.1165594
  20.4532970  32.9476541  73.3890211  18.9520714  32.8838143  73.5737464
  22.1145138  33.1707708  74.1739535  22.7089629  32.9303444  73.4632843
  22.1871722  32.4514838  74.8013071   4.3342294  47.0141319  74.4882700
   4.1996762  46.2541720  73.9220698   3.9174356  47.7382219  74.0211489
  15.4701257  42.1978242  63.4959275  16.1737107  42.4028245  64.1116931
  14.7463906  42.7655004  63.7608359  16.2999067  37.9488103  69.6161545
  16.2434268  38.4056655  68.7769178  16.8527410  37.1878788  69.4384388
  20.1103873  33.7377835  70.4411665  19.8540807  33.3374471  71.2719872
  19.4856741  34.4521629  70.3161804  24.4216211  36.4773909  72.9482956
  23.8615769  36.5467098  73.7214518  23.8159714  36.3014893  72.2282452
   7.4911420  47.9110636  74.7001142   7.3743804  48.8556068  74.5979833
   6.6703866  47.6084197  75.0886942  17.3787954  42.6360771  65.5457735
  18.2133558  42.2041970  65.3635210  17.2172297  42.4642785  66.4734630
  17.0333846  39.1392885  66.9114074  16.9782650  38.9737156  65.9702519
  16.4079902  39.8468918  67.0676264   1.8226361  34.3760949  80.7375497
   2.4685225  33.8659903  81.2262722   1.6143512  35.1129631  81.3118922
  14.3479754  41.4441797  86.2367637  15.2170913  41.6182449  85.8754272
  13.8686505  42.2636213  86.1143367  10.3429972  28.6400994  66.4899393
  10.3308642  29.5842834  66.6467664  11.2353394  28.4571139  66.1958854
   8.5165934  48.5638898  77.9157071   9.4193180  48.5962508  78.2323566
   8.2903304  47.6339349  77.9303407  10.2719536  47.3169884  74.5767150
   9.3215167  47.3171746  74.4631522  10.5752022  46.5702619  74.0603184
  14.1582091  25.2343770  70.7445330  13.3914487  24.6802257  70.8902012
  14.5692796  25.3065639  71.6059481   6.1623852  31.5228566  84.8350511
   7.0255314  31.1665371  85.0453835   5.5889263  31.1842461  85.5225915
  26.0072229  53.1530423  75.6412912  26.6450639  53.0337170  74.9376252
  25.8893072  54.1011266  75.7000864  22.8161936  53.1057851  75.5774437
  22.4780447  52.9898915  74.6894971  23.6851704  52.7049016  75.5575443
  18.6748751  54.9593327  71.5671328  18.1113616  54.8683264  70.7987615
  18.5601146  54.1393232  72.0473820  23.2981719  54.2592702  81.5360642
  23.2870359  53.8645501  80.6641146  23.4602358  53.5258775  82.1294414
  16.2213183  56.4544519  74.4055548  17.0134475  56.1135343  73.9901847
  16.4609833  56.5639494  75.3257701  24.2548310  58.6264295  66.8785792
  23.6036290  59.2118375  66.4919806  25.0492673  59.1570490  66.9380830
  18.1803937  55.7153432  67.2772927  18.9534813  55.1682419  67.1385803
  18.5329336  56.5797681  67.4887388  20.0188980  57.0429814  80.4839826
  19.7278846  57.9475445  80.3686492  20.6545964  57.0846342  81.1983896
  20.9445187  54.4206663  77.0741186  21.5408759  54.1962685  76.3598149
  21.0020158  53.6791408  77.6766634  20.5170215  51.8746098  64.9091377
  20.7695736  51.3527619  64.1474840  19.5794774  51.7112243  65.0118060
  25.5613498  50.8781876  72.7166120  26.3476587  50.4601300  72.3656537
  25.8252202  51.7827969  72.8847768  25.7323575  56.3154727  67.4154777
  25.0969408  56.3889353  68.1275681  25.4020982  56.9048326  66.7373856
  30.9621925  50.8157110  73.6199098  31.6947097  50.2456326  73.8536928
  30.2061281  50.4278710  74.0605604  20.2366504  53.7774204  67.1115752
  20.1202762  53.1019107  67.7796836  20.3468764  53.2906578  66.2947905
  22.5798045  53.2384351  70.8162441  22.2156252  52.7114972  71.5275362
  23.4365161  52.8482820  70.6428926  28.4847345  44.5278684  78.0793707
  28.1530670  45.3974095  77.8554922  27.8892959  44.2114968  78.7587737
  22.2203532  48.2674251  65.8123789  22.3877934  49.1354487  66.1794260
  22.0300701  48.4301532  64.8885079  24.9778865  56.7291230  77.4789620
  24.6779588  57.6316268  77.3705427  24.6329924  56.4623413  78.3310773
  18.4291346  53.1805027  73.5126324  17.5041843  53.0481241  73.7204016
  18.6775759  53.9599246  74.0096267  28.3776009  49.2473770  75.1587057
  27.4692886  49.1789178  74.8645818  28.3263604  49.7245715  75.9868883
  22.1992752  50.7231908  66.7970456  22.0792378  51.1688959  67.6355937
  21.5045341  51.0717226  66.2383994  15.7900157  52.8238300  74.3470113
  15.9192538  53.0772779  75.2609525  15.1097609  53.4166008  74.0274768
  19.9599645  63.4935550  70.4460587  19.8823674  64.4443375  70.5249068
  19.3561288  63.1481423  71.1035514  22.4516874  50.6663415  83.1021954
  21.6750208  51.2257336  83.0924819  23.0907437  51.1520198  83.6236825
  30.2437655  47.4490208  76.9364931  29.6012035  47.7422741  76.2904726
  29.7392584  47.3343129  77.7418128  27.8977819  51.1953381  67.6250790
  28.8095675  51.4280768  67.4498488  27.3887466  51.7790426  67.0625869
  20.7063247  53.4748869  82.6639921  21.4477931  54.0133913  82.3874745
  20.0000232  54.1015158  82.8211473  26.1818586  55.6178009  81.2612083
  26.5901942  55.1760420  80.5166715  25.4595848  55.0430637  81.5146276
  22.5349656  50.5550616  78.6345640  23.3810852  50.9790030  78.7780289
  22.4748294  49.8984240  79.3284203  26.5047401  56.1779200  75.0164372
  25.8756263  56.3424914  74.3140440  26.1173063  56.5920809  75.7875336
  30.3836633  57.1133638  72.3708736  29.6987671  57.4932539  71.8205769
  30.4680482  57.7228964  73.1040683  25.6849102  48.2154984  80.2926813
  25.4410034  48.9697045  79.7561089  25.9609032  48.5940332  81.1274061
  27.6387564  54.7593597  78.9704079  27.8504460  55.4025357  78.2938460
  27.5917313  53.9255913  78.5026009  25.2413793  47.3711417  75.8740651
  24.3798272  47.6692671  76.1657389  25.2676228  47.5881816  74.9421684
  22.0575363  55.9153608  72.2814457  22.5213708  56.1941311  71.4919079
  21.7932161  55.0137053  72.0987548  18.9499444  55.4625090  75.2194220
  19.5200801  55.8912358  74.5811705  19.5407556  55.1807674  75.9178406
  20.9944249  52.0376760  69.0904022  21.6968292  52.4897804  69.5577948
  20.6624877  51.3960579  69.7183915  19.4424610  50.6288517  83.4655231
  18.8123271  51.3104798  83.6990628  19.3360698  50.5171599  82.5208370
  14.7369583  50.2960313  74.3921156  13.9468637  50.5517842  73.9161266
  15.2280830  51.1108651  74.4973196  28.7533392  57.6365552  77.1426436
  29.5750836  57.2345739  76.8609118  28.7495795  57.5333786  78.0942552
  16.6884328  50.6604892  71.3504632  15.8915492  50.7723587  71.8688128
  16.4609920  50.9991544  70.4845523  22.5189996  57.1849595  79.2987147
  22.5834428  57.6470003  80.1345319  21.8100920  56.5546960  79.4269457
  13.0207286  50.5490803  76.8236146  13.2715324  51.4337813  77.0893722
  13.5566834  50.3695405  76.0511238  22.2338013  58.8517703  69.1666127
  22.0983688  59.6969239  69.5950975  22.7747826  59.0536981  68.4032061
  18.7205353  44.9309283  85.8280482  18.3272299  44.3775481  86.5028127
  19.5371493  45.2419861  86.2187000  15.6867411  56.3693141  69.7394052
  16.1991931  57.1636391  69.8899617  16.3390124  55.6719431  69.6727654
  17.4962296  59.4858897  71.8216805  17.6728924  60.4076862  71.6337789
  18.2919129  59.1717317  72.2511185  21.6373314  46.3467162  83.4200739
  22.3783028  46.9474315  83.3405201  21.8691237  45.6044800  82.8618782
  16.7814652  51.5323529  81.6978969  16.6668167  50.6308786  81.9986068
  15.9259170  51.7787226  81.3463785  23.8606490  59.4741269  83.2966469
  23.4170344  58.6877648  82.9787374  24.5223703  59.6620420  82.6310360
  18.6193611  61.0037071  77.8227148  19.1701036  60.8754134  77.0504142
  17.7805087  61.3031960  77.4722041  25.9587728  59.7544069  81.3247871
  25.9406203  60.5752950  80.8328140  26.8807648  59.6298145  81.5498012
  22.4160782  57.2688199  82.1671379  22.9489119  56.5076487  81.9370687
  21.8874863  56.9761851  82.9095533  25.5830477  42.3748265  77.6965021
  25.2394746  43.2649907  77.6204131  25.9509440  42.1849923  76.8334606
  13.6516328  54.6981795  70.5153623  14.4891550  55.1078804  70.2987331
  13.8294595  53.7581237  70.4853817  25.5480760  52.3656876  66.2037456
  25.0327383  53.1361481  66.4425843  25.2758068  51.6922012  66.8270517
  23.1327871  47.2106577  71.2622694  22.2769467  46.8213427  71.0828333
  23.5454823  47.2898538  70.4022480  24.6627017  44.7452920  75.6614254
  24.1591813  44.7083055  74.8482059  24.9557624  45.6545663  75.7210911
  20.9069903  44.8291650  74.6680436  21.7722900  44.6334458  74.3086325
  20.9747412  44.6002002  75.5949792  25.3367063  50.2383968  68.0297237
  25.0317199  50.5530117  68.8807380  26.2897505  50.3165388  68.0724570
  23.7813495  56.3974191  69.6790191  23.2534856  55.6626951  69.3663428
  23.2800998  57.1748868  69.4330159  28.7606341  54.5923212  74.7957237
  28.1030015  55.2822473  74.8837366  29.5646740  54.9819644  75.1391224
  18.5132222  47.0593858  72.0396802  19.0875974  46.8369039  71.3069995
  19.1003205  47.1282552  72.7925404  27.5711800  52.9467585  72.8461179
  28.0843681  53.5797576  73.3482889  28.2213024  52.3468780  72.4804539
  18.8401810  49.0898319  66.0592688  18.0039122  49.4273005  66.3801962
  18.7006579  48.9547298  65.1219825  20.8154890  43.9335107  70.7671872
  20.1619302  43.6184124  70.1428487  20.7735364  43.3110847  71.4931695
  21.9266095  54.2154402  62.6825164  21.0193157  53.9843655  62.8816313
  22.4237127  53.4192021  62.8699146  24.8334174  62.9251909  65.6021850
  24.1595873  63.2283606  66.2106808  25.2199996  63.7280989  65.2527307
  24.0492630  50.4217040  75.0919520  23.1315192  50.6431987  74.9341208
  24.4652774  50.4963351  74.2331227  24.8327678  51.8208456  70.2222200
  25.5799497  52.3329853  69.9129322  25.1019268  51.4992509  71.0826593
  23.1054328  54.3166997  67.2049154  22.1965548  54.0326029  67.3021624
  23.1349412  54.7366075  66.3452461  28.3373596  57.9273586  70.9740322
  27.8835923  57.0864496  71.0305512  27.7067563  58.5634984  71.3115102
  27.2806515  48.8565572  72.2040989  26.5429272  48.3442958  72.5351232
  27.5333289  48.4165954  71.3924266  26.7806535  59.7650083  71.9090140
  27.0729509  60.3255140  71.1902505  27.2905156  60.0578644  72.6643299
  27.3818143  41.6341824  72.7982758  27.6877020  40.7739187  72.5108673
  28.1070748  42.2259444  72.5981752  13.6742499  52.0372511  71.1864356
  13.4766899  51.4441871  70.4615423  13.1189163  51.7324721  71.9040295
  21.6539222  51.9295617  73.3058949  21.7087832  50.9769454  73.2301426
  20.8430424  52.0855056  73.7900248  22.8030416  55.8575740  64.5437233
  22.3649846  55.1411599  64.0842870  23.5440857  56.0851855  63.9822324
  19.5931582  50.5472677  71.0649328  18.7799448  50.8466847  71.4714520
  20.0890577  50.1528366  71.7823811  21.7440160  60.5430434  72.9983593
  21.7016339  60.7691280  72.0692125  22.6602859  60.3093808  73.1469394
  25.1905794  51.0114501  79.8964222  25.5455182  51.2385974  80.7558688
  25.8377925  51.3432878  79.2741477  30.9203531  54.1332937  70.6013551
  30.7821430  54.3234533  69.6734740  30.5639750  54.8952320  71.0581602
  19.0845657  48.1191032  76.6810563  19.7245036  47.9779791  75.9833527
  18.2523188  47.8325546  76.3049165  30.9472911  56.2009464  75.6124823
  31.3809417  56.1084753  76.4607877  31.6604491  56.1766965  74.9744839
  19.8605961  57.4193463  72.7945556  20.6546560  56.9243783  72.5928131
  19.1497653  56.8911326  72.4313261  24.6800806  59.8011558  77.1457923
  24.7337828  60.3702495  77.9135639  23.8115587  59.9713443  76.7811960
  16.1688725  51.5636545  68.8705308  15.2386313  51.5021000  69.0875271
  16.2646197  51.0412497  68.0741950  16.0874274  48.0891357  71.4583550
  16.3481091  49.0036691  71.3492711  16.9091446  47.6215800  71.6080163
  17.5599199  49.5029115  78.6282375  18.2322252  49.2946477  77.9795024
  16.7328985  49.3051201  78.1887607  31.8088460  56.2433165  78.1457708
  32.0024350  57.1478975  78.3916983  31.7089078  55.7840584  78.9796293
  23.4624771  46.1291055  80.6448035  22.8152686  46.8281005  80.5512512
  24.2325786  46.5627199  81.0124284  26.8703569  56.3939908  83.7198589
  26.7189075  56.1650459  82.8028672  26.8608248  57.3510509  83.7329934
  23.6388905  53.9671820  78.7044855  24.5680965  54.1182980  78.5313823
  23.2179935  54.0555841  77.8493502  22.4377237  57.9922485  76.4743393
  22.2988323  57.6241269  77.3469331  21.6491833  58.5070124  76.3027351
  23.0325389  63.0931581  67.8168929  23.2077145  62.6219624  68.6314552
  22.3458177  63.7197347  68.0450190  23.9882452  57.3704087  73.8632231
  23.6532285  57.3304857  74.7589880  23.4886398  56.7048803  73.3902641
  17.9626696  52.7771718  79.3884812  17.8246494  52.0451956  79.9896351
  18.8731620  52.6880618  79.1069000  26.9241644  54.7160122  64.1369290
  26.3070814  53.9906950  64.0402343  26.4558132  55.4769482  63.7936365
  20.5908997  52.4891677  78.8768491  21.3008615  51.8484869  78.8355110
  20.5478305  52.7404572  79.7994672  28.5795776  59.4259030  81.7975071
  28.5208322  58.7418250  81.1305654  28.9815294  60.1678020  81.3455697
  19.3037931  49.4756895  80.6964131  18.7675288  49.0247633  81.3485727
  18.7154639  49.6102804  79.9534595  17.5986474  66.2420944  74.5908790
  17.8383073  66.8739468  75.2687808  16.7555671  65.8908984  74.8774149
  18.7140190  48.9345546  63.2590595  17.8369656  48.8134347  62.8952841
  19.1897943  48.1431624  63.0069483  28.5813183  57.3898614  80.0289050
  27.6939962  57.0524536  80.1515449  29.1511734  56.6581645  80.2657816
  10.2342330  53.7222706  73.3532102  10.9213370  53.4084436  72.7653117
  10.0790459  54.6264071  73.0799353  15.0377052  48.6112902  77.7817125
  14.9535241  48.0038572  77.0467535  14.2159758  49.1021921  77.7826622
  22.1114336  62.0500066  76.9950293  22.0384508  62.8555038  77.5069598
  21.6691729  62.2492032  76.1698315  21.9004116  61.2871836  70.5053115
  21.1171638  61.8293517  70.5991340  22.5996861  61.8045816  70.9047356
  25.2100766  47.0966466  73.1487320  25.7069465  46.3436428  72.8288391
  24.4387747  47.1330783  72.5830530  33.0630523  52.8006831  74.7905612
  33.0520400  53.6831547  74.4199545  32.1947903  52.4478382  74.5960149
  24.5713020  61.9486900  79.1508452  25.2840992  62.5834365  79.0784354
  24.0803048  62.0450766  78.3348454  26.2930547  55.8538153  70.7225744
  25.3586825  55.9739616  70.5530448  26.4707215  54.9510620  70.4585754
  21.7935735  49.2383849  72.8759005  21.4233522  48.6854889  73.5639911
  22.2894827  48.6341982  72.3234005  29.6803098  51.6955472  71.2575778
  30.1463550  52.5283464  71.1836081  30.1310598  51.2300454  71.9621036
  19.6224933  59.6981344  79.9714023  20.3234393  60.3317827  80.1243417
  19.1520048  60.0396076  79.2109662  27.7479329  58.0399294  68.2561930
  28.0239173  57.9255888  69.1655804  26.8783828  57.6416779  68.2174103
  27.6519761  44.0636059  75.2966679  26.7382840  44.2940286  75.4648886
  28.0812862  44.1474504  76.1480712  27.4226219  52.2525951  77.7966573
  26.7697669  52.5001859  77.1419026  27.8006599  51.4390090  77.4629051
  24.3833393  62.2885645  71.8994744  24.5655788  61.4707301  72.3622496
  25.2066379  62.5053337  71.4619634  24.7175559  61.2153830  69.1609792
  25.2463325  60.7046284  68.5479954  24.9803778  60.8996360  70.0255325
  23.4713792  52.9945762  84.2832610  22.7954429  52.8939892  84.9534986
  24.2941426  52.8384976  84.7468608  15.2192651  59.2317699  76.9045126
  15.8046088  58.4861387  77.0373030  15.0217490  59.5421656  77.7881790
  18.0731307  62.2668946  71.9207568  17.4041682  62.7515074  71.4371608
  17.9344176  62.5138167  72.8350947   9.8110306  51.8023299  75.6249569
   9.8494406  51.2686890  76.4186687   9.3050599  51.2758505  75.0060546
  22.2136575  64.3012690  78.5190226  22.7654883  64.4644311  79.2839312
  22.5542769  64.8917128  77.8470251  17.1901068  46.6487840  79.1212111
  17.2542395  47.5102671  78.7089509  17.1268189  46.0361841  78.3884470
  16.6653341  48.7210972  82.7685145  17.2925380  48.3388050  83.3822670
  15.8081260  48.5025174  83.1340838  27.0647449  59.1273947  84.3738881
  27.6087353  59.7403906  83.8793836  26.4834294  59.6853526  84.8905894
  13.4418884  50.5287401  68.7003500  13.7372325  49.6198080  68.6470554
  12.5406919  50.5075141  68.3784503  25.3504962  62.2494665  75.5053909
  25.2256102  61.4484405  74.9964854  26.0084053  62.7440859  75.0167879
  16.9713131  48.6043398  74.6831049  16.2499716  49.2179366  74.5438522
  17.7606386  49.1401163  74.6047695  27.4139871  60.0503686  77.1333459
  26.4670206  59.9309037  77.0611785  27.7622644  59.1626184  77.2159720
  19.7739444  45.9397824  80.9571701  20.2973846  46.1860121  81.7198010
  19.5551777  46.7717859  80.5374838  15.1706725  48.2101499  68.8242825
  14.8419431  47.3298878  68.6417931  15.5246096  48.1549168  69.7119215
  24.4186304  59.8456402  73.3337811  24.2711266  58.9173109  73.5145381
  25.2439798  59.8676492  72.8494886  18.2848548  48.4974469  69.1918303
  18.6244621  49.0260390  68.4696911  18.7320669  48.8354875  69.9676870
  28.0220426  60.6684960  74.4202684  28.9466973  60.4627822  74.2827135
  27.8535729  60.4201362  75.3292025  20.9791989  46.8811520  78.6421371
  20.6388810  46.0819333  79.0442051  20.2730995  47.1813230  78.0698204
  21.6308461  43.9660832  77.0948694  22.4534530  43.4921310  76.9727584
  21.8746525  44.7451316  77.5947380  20.2716695  46.9949090  67.3911596
  20.9925058  47.3730343  66.8875313  19.6482000  47.7137967  67.4946574
  24.4147818  47.6994239  68.3269928  24.6311433  48.5818877  68.0258756
  23.9341886  47.3080453  67.5975570  19.1547040  50.6579953  74.9040673
  19.0091620  50.9720256  75.7964954  18.6772243  51.2764853  74.3511571
  21.0143423  47.6482501  74.9521562  21.0004991  46.7523594  74.6153860
  21.7315851  47.6553164  75.5859848  22.8669553  48.0819841  76.9974690
  22.6087331  49.0036911  76.9959020  22.3354594  47.6850275  77.6875154
  27.8115742  61.1870628  69.7764775  27.9852620  60.6217050  69.0238628
  28.3044633  61.9871523  69.5944265  13.6292702  53.1985297  77.8428334
  13.0846170  53.9745105  77.9748608  14.5072052  53.5456101  77.6847455
  20.4180319  46.5296881  70.2209132  20.5396230  45.6013527  70.4200020
  20.1282361  46.5435567  69.3087448  23.2871509  44.2151791  73.3575852
  23.3093206  44.2791124  72.4027832  23.7039568  43.3756300  73.5516358
  33.6655133  53.9507051  71.3955075  34.1086279  53.2014376  70.9974198
  32.7881644  53.9417187  71.0128807  28.7990915  60.5037392  66.8761673
  29.4941819  61.1244085  67.0948988  29.1414065  59.6532744  67.1514051
  14.4158724  52.3255193  80.7358491  13.6740460  52.4737829  81.3223121
  14.0951468  52.5863459  79.8725240  22.3602386  61.8671172  80.5338881
  22.6689513  61.6220318  81.4061580  23.1577868  62.0717810  80.0457751
  22.3822998  64.0209081  72.7644257  21.9427989  63.5285460  73.4577114
  23.1331115  63.4782049  72.5236333  14.8615337  60.2120622  72.7668885
  15.6873357  59.9124394  72.3867529  14.5109389  59.4428244  73.2158674
  19.8296871  59.5647090  74.8366559  19.2076880  58.9017795  74.5368787
  20.5001738  59.5908222  74.1540207  13.0623942  58.1306948  73.7257819
  12.2255851  57.7029123  73.5441820  13.0347588  58.3239392  74.6628610
  19.9021398  48.0428878  84.4299065  19.9509554  48.9191001  84.0476835
  20.4443912  47.5006271  83.8570708  30.3876244  58.5870002  83.7100202
  29.5971787  58.5694140  83.1704702  30.1509598  59.1258295  84.4649239
  30.5074119  55.4362468  81.0232931  30.5572124  55.2712475  81.9648453
  30.3988042  54.5689727  80.6330811  19.3910378  58.1151014  68.3125020
  19.5398498  58.7986478  67.6591692  20.1976821  58.0956104  68.8274475
  27.7977881  51.4193396  82.3392237  28.6987744  51.2799861  82.0476235
  27.8725856  51.5847851  83.2790415  22.1320687  48.7960251  81.1845424
  21.2623996  49.0893817  80.9128012  22.3680167  49.3800696  81.9052687
  32.0092316  57.8559409  81.2674952  31.7177124  58.2189390  82.1038413
  31.3964447  57.1426418  81.0888284  30.2579504  52.9792024  79.7355010
  30.7333625  53.1719670  78.9273862  29.3345069  53.0351210  79.4898394
  17.1463011  54.1416191  69.3186088  16.9009052  53.2378521  69.5166299
  17.3158925  54.1433342  68.3765566  24.8359720  45.0139868  78.7010844
  25.3541664  45.7500895  78.3757333  24.4814853  45.3203861  79.5357603
  16.4158658  49.8744549  66.8172250  15.7227903  49.9488904  66.1612286
  16.1710410  49.1104892  67.3393767  25.0872315  41.4340150  74.2211741
  25.3674068  40.7663339  74.8472167  25.8722921  41.6269246  73.7086404
  22.8905783  60.6099144  65.7836767  22.3179750  61.2289331  65.3307239
  23.4638577  61.1598506  66.3176689  28.9581173  49.8557784  77.9683316
  29.9098596  49.9555882  77.9895540  28.7884623  49.0636053  78.4781400
  26.9795552  46.9413367  78.1542717  26.3845484  47.2218380  77.4589205
  26.6945249  47.4307268  78.9259458  26.1103043  60.8936294  66.9145349
  27.0433716  60.8281856  67.1178225  26.0226256  61.7292561  66.4559882
  28.7391060  60.2102164  63.8749297  28.6604691  59.8762028  64.7685055
  29.5600726  60.7023932  63.8740769  31.4369251  53.0763904  77.0825615
  31.4045571  52.1379905  77.2685299  32.0469874  53.1547941  76.3491440
  23.2752582  51.9459957  63.1252819  24.2211686  51.8166165  63.1941237
  22.8966827  51.2074619  63.6022248  31.5863739  49.8674947  77.1283899
  31.0702788  49.0833404  76.9413827  32.4703688  49.5393664  77.2930418
  29.2474466  43.6115963  73.0879711  29.0499287  43.3031051  73.9723043
  29.8574172  44.3377602  73.2177641  23.1591274  55.9977703  84.5853476
  24.0794284  56.1756302  84.7793523  23.1240857  55.0533748  84.4333176
  21.4595499  49.8709933  63.0607705  20.5526954  49.5743046  63.1370418
  21.7371480  49.5739751  62.1941991  12.3773439  51.1916297  73.5106751
  12.0576223  50.3381605  73.2181125  11.8306867  51.4064875  74.2664718
  16.1553347  53.9078738  77.2276258  16.3739356  54.8395845  77.2464291
  16.5679120  53.5486712  78.0131061  23.0757564  44.4146823  69.2151946
  22.2658293  44.0693908  69.5907192  23.7641981  44.1054367  69.8039558
  25.0048113  43.4924870  70.8376243  25.5579151  43.9120323  71.4966266
  25.2418199  42.5660618  70.8799199  21.0281212  49.4811943  86.6179007
  20.9277939  50.4306300  86.5491098  20.8102754  49.1530182  85.7455077
  20.2294283  46.7296868  63.2019684  21.0913447  47.0551767  63.4615501
  20.4144627  45.9428364  62.6892750  12.2461699  54.8119208  75.4799873
  11.5525171  54.3973161  74.9669827  12.9934690  54.8539745  74.8833292
  28.3826920  45.6025395  70.3454907  27.8025589  46.2610199  69.9632959
  28.1162852  44.7802739  69.9342324  26.8330486  45.0030453  72.5476227
  27.3330265  45.1146987  71.7390546  27.4766094  44.6991505  73.1877036
  20.8912482  52.9109082  85.4344068  20.4079564  53.7109442  85.6407957
  20.9773421  52.9217027  84.4811512  14.1598442  54.7437462  73.3565888
  14.1369130  54.8425149  72.4047771  14.4699078  55.5902613  73.6783054
  16.8185819  56.8013617  77.4712502  17.7729073  56.7697559  77.4042434
  16.6198343  56.3404241  78.2862728  17.4085202  55.3714733  80.0383300
  18.2278091  55.8658812  80.0618137  17.6822009  54.4546701  80.0100867
  27.1651798  47.7625485  69.4011255  26.2777653  48.0475136  69.1831450
  27.5805787  47.6019249  68.5538532  30.5166334  47.7872006  73.1165594
  31.2926724  48.2768459  73.3890211  29.7914468  48.2130060  73.5737464
  32.9538893  48.4999625  74.1739535  33.5483383  48.2595361  73.4632843
  33.0265476  47.7806756  74.8013071  15.1736048  62.3433236  74.4882700
  15.0390516  61.5833637  73.9220698  14.7568111  63.0674136  74.0211489
  26.3095011  57.5270160  63.4959275  27.0130861  57.7320162  64.1116931
  25.5857660  58.0946922  63.7608359  27.1392822  53.2780021  69.6161545
  27.0828023  53.7348573  68.7769178  27.6921164  52.5170706  69.4384388
  30.9497627  49.0669753  70.4411665  30.6934562  48.6666389  71.2719872
  30.3250496  49.7813547  70.3161804  18.3305174  63.2402553  74.7001142
  18.2137558  64.1847986  74.5979833  17.5097620  62.9376115  75.0886942
  28.2181709  57.9652689  65.5457735  29.0527313  57.5333888  65.3635210
  28.0566052  57.7934703  66.4734630  27.8727601  54.4684802  66.9114074
  27.8176405  54.3029074  65.9702519  27.2473656  55.1760835  67.0676264
  12.6620116  49.7052867  80.7375497  13.3078979  49.1951821  81.2262722
  12.4537267  50.4421548  81.3118922  25.1873508  56.7733714  86.2367637
  26.0564668  56.9474367  85.8754272  24.7080260  57.5928131  86.1143367
  21.1823726  43.9692911  66.4899393  21.1702396  44.9134751  66.6467664
  22.0747148  43.7863057  66.1958854  19.3559688  63.8930815  77.9157071
  20.2586935  63.9254426  78.2323566  19.1297058  62.9631266  77.9303407
  21.1113290  62.6461802  74.5767150  20.1608921  62.6463663  74.4631522
  21.4145776  61.8994536  74.0603184  24.9975846  40.5635688  70.7445330
  24.2308242  40.0094175  70.8902012  25.4086551  40.6357557  71.6059481
  17.0017607  46.8520484  84.8350511  17.8649068  46.4957289  85.0453835
  16.4283018  46.5134379  85.5225915  34.1375473  69.5884620  81.5360642
  34.1264114  69.1937418  80.6641146  34.2996113  68.8550693  82.1294414
  27.0606938  71.7836436  74.4055548  27.8528230  71.4427261  73.9901847
  27.3003588  71.8931411  75.3257701  30.8582734  72.3721732  80.4839826
  30.5672600  73.2767363  80.3686492  31.4939719  72.4138259  81.1983896
  31.7838941  69.7498580  77.0741186  32.3802513  69.5254603  76.3598149
  31.8413913  69.0083326  77.6766634  29.2685101  68.5096944  73.5126324
  28.3435597  68.3773158  73.7204016  29.5169514  69.2891163  74.0096267
  26.6293912  68.1530218  74.3470113  26.7586293  68.4064697  75.2609525
  25.9491363  68.7457926  74.0274768  31.5457001  68.8040786  82.6639921
  32.2871686  69.3425830  82.3874745  30.8393987  69.4307075  82.8211473
  29.7893198  70.7917007  75.2194220  30.3594555  71.2204276  74.5811705
  30.3801310  70.5099592  75.9178406  30.2818365  65.9580435  83.4655231
  29.6517025  66.6396716  83.6990628  30.1754453  65.8463516  82.5208370
  25.5763337  65.6252231  74.3921156  24.7862391  65.8809759  73.9161266
  26.0674585  66.4400569  74.4973196  27.5278083  65.9896810  71.3504632
  26.7309246  66.1015504  71.8688128  27.3003675  66.3283462  70.4845523
  23.8601040  65.8782721  76.8236146  24.1109079  66.7629731  77.0893722
  24.3960589  65.6987323  76.0511238  29.5599108  60.2601201  85.8280482
  29.1666053  59.7067399  86.5028127  30.3765248  60.5711779  86.2187000
  32.4767069  61.6759080  83.4200739  33.2176782  62.2766233  83.3405201
  32.7084991  60.9336717  82.8618782  27.6208407  66.8615447  81.6978969
  27.5061922  65.9600704  81.9986068  26.7652924  67.1079144  81.3463785
  29.4587366  76.3328989  77.8227148  30.0094791  76.2046052  77.0504142
  28.6198841  76.6323878  77.4722041  33.2554537  72.5980117  82.1671379
  33.7882873  71.8368405  81.9370687  32.7268618  72.3053768  82.9095533
  24.4910082  70.0273713  70.5153623  25.3285304  70.4370721  70.2987331
  24.6688350  69.0873155  70.4853817  31.7463658  60.1583567  74.6680436
  32.6116655  59.9626376  74.3086325  31.8141167  59.9293919  75.5949792
  29.3525977  62.3885775  72.0396802  29.9269729  62.1660957  71.3069995
  29.9396959  62.4574470  72.7925404  31.6548645  59.2627024  70.7671872
  31.0013057  58.9476041  70.1428487  31.6129119  58.6402765  71.4931695
  24.5136253  67.3664428  71.1864356  24.3160653  66.7733789  70.4615423
  23.9582917  67.0616639  71.9040295  29.9239412  63.4482950  76.6810563
  30.5638791  63.3071709  75.9833527  29.0916942  63.1617463  76.3049165
  27.0082479  66.8928462  68.8705308  26.0780067  66.8312918  69.0875271
  27.1039951  66.3704415  68.0741950  26.9268028  63.4183275  71.4583550
  27.1874845  64.3328608  71.3492711  27.7485200  62.9507718  71.6080163
  28.3992953  64.8321032  78.6282375  29.0716007  64.6238394  77.9795024
  27.5722740  64.6343118  78.1887607  34.3018525  61.4582973  80.6448035
  33.6546440  62.1572923  80.5512512  35.0719541  61.8919117  81.0124284
  34.4782660  69.2963738  78.7044855  35.4074720  69.4474898  78.5313823
  34.0573690  69.3847759  77.8493502  28.8020451  68.1063635  79.3884812
  28.6640249  67.3743874  79.9896351  29.7125374  68.0172535  79.1069000
  31.4302751  67.8183595  78.8768491  32.1402370  67.1776787  78.8355110
  31.3872059  68.0696489  79.7994672  30.1431685  64.8048812  80.6964131
  29.6069042  64.3539551  81.3485727  29.5548394  64.9394721  79.9534595
  28.4380229  81.5712862  74.5908790  28.6776827  82.2031386  75.2687808
  27.5949425  81.2200902  74.8774149  21.0736084  69.0514624  73.3532102
  21.7607124  68.7376354  72.7653117  20.9184213  69.9555988  73.0799353
  25.8770807  63.9404820  77.7817125  25.7928995  63.3330490  77.0467535
  25.0553513  64.4313838  77.7826622  30.4618688  75.0273262  79.9714023
  31.1628147  75.6609745  80.1243417  29.9913803  75.3687993  79.2109662
  26.0586406  74.5609617  76.9045126  26.6439843  73.8153305  77.0373030
  25.8611244  74.8713573  77.7881790  20.6504061  67.1315217  75.6249569
  20.6888160  66.5978808  76.4186687  20.1444353  66.6050422  75.0060546
  33.0530330  79.6304608  78.5190226  33.6048638  79.7936229  79.2839312
  33.3936523  80.2209045  77.8470251  28.0294823  61.9779757  79.1212111
  28.0936149  62.8394588  78.7089509  27.9661943  61.3653759  78.3884470
  27.5047095  64.0502890  82.7685145  28.1319134  63.6679967  83.3822670
  26.6475014  63.8317092  83.1340838  24.2812638  65.8579319  68.7003500
  24.5766079  64.9489997  68.6470554  23.3800674  65.8367059  68.3784503
  27.8106885  63.9335316  74.6831049  27.0893471  64.5471283  74.5438522
  28.6000141  64.4693080  74.6047695  30.6133199  61.2689742  80.9571701
  31.1367600  61.5152039  81.7198010  30.3945532  62.1009777  80.5374838
  26.0100480  63.5393417  68.8242825  25.6813186  62.6590796  68.6417931
  26.3639850  63.4841085  69.7119215  32.4702215  59.2952750  77.0948694
  33.2928285  58.8213228  76.9727584  32.7140279  60.0743233  77.5947380
  29.9940794  65.9871870  74.9040673  29.8485375  66.3012173  75.7964954
  29.5165998  66.6056771  74.3511571  24.4686456  68.5277215  77.8428334
  23.9239924  69.3037023  77.9748608  25.3465806  68.8748019  77.6847455
  25.2552478  67.6547111  80.7358491  24.5134214  67.8029746  81.3223121
  24.9345223  67.9155377  79.8725240  33.2216753  79.3500999  72.7644257
  32.7821743  78.8577378  73.4577114  33.9724870  78.8073966  72.5236333
  30.6690625  74.8939008  74.8366559  30.0470634  74.2309713  74.5368787
  31.3395492  74.9200140  74.1540207  23.9017697  73.4598866  73.7257819
  23.0649605  73.0321040  73.5441820  23.8741342  73.6531309  74.6628610
  30.7415153  63.3720796  84.4299065  30.7903308  64.2482919  84.0476835
  31.2837667  62.8298189  83.8570708  32.9714441  64.1252168  81.1845424
  32.1017750  64.4185734  80.9128012  33.2073921  64.7092613  81.9052687
  23.2167194  66.5208214  73.5106751  22.8969978  65.6673522  73.2181125
  22.6700622  66.7356792  74.2664718  26.9947101  69.2370655  77.2276258
  27.2133111  70.1687763  77.2464291  27.4072875  68.8778630  78.0131061
  31.8674966  64.8103861  86.6179007  31.7671693  65.7598218  86.5491098
  31.6496508  64.4822100  85.7455077  31.0688038  62.0588786  63.2019684
  31.9307202  62.3843684  63.4615501  31.2538382  61.2720282  62.6892750
  23.0855454  70.1411126  75.4799873  22.3918925  69.7265079  74.9669827
  23.8328445  70.1831662  74.8833292  24.9992196  70.0729380  73.3565888
  24.9762884  70.1717067  72.4047771  25.3092833  70.9194530  73.6783054
  27.6579574  72.1305535  77.4712502  28.6122828  72.0989477  77.4042434
  27.4592098  71.6696158  78.2862728  28.2478956  70.7006651  80.0383300
  29.0671845  71.1950729  80.0618137  28.5215764  69.7838619  80.0100867
  26.0129803  77.6725154  74.4882700  25.8784271  76.9125555  73.9220698
  25.5961865  78.3966054  74.0211489  29.1698929  78.5694471  74.7001142
  29.0531313  79.5139904  74.5979833  28.3491375  78.2668033  75.0886942
  23.5013870  65.0344784  80.7375497  24.1472734  64.5243738  81.2262722
  23.2931021  65.7713466  81.3118922  30.1953443  79.2222733  77.9157071
  31.0980689  79.2546343  78.2323566  29.9690813  78.2923184  77.9303407
  31.9507045  77.9753719  74.5767150  31.0002676  77.9755581  74.4631522
  32.2539531  77.2286454  74.0603184  27.8411361  62.1812402  84.8350511
  28.7042823  61.8249206  85.0453835  27.2676772  61.8426296  85.5225915
  47.6859738  83.8114258  75.6412912  48.3238148  83.6921005  74.9376252
  47.5680581  84.7595102  75.7000864  44.4949445  83.7641686  75.5774437
  44.1567956  83.6482751  74.6894971  45.3639213  83.3632851  75.5575443
  40.3536260  85.6177162  71.5671328  39.7901125  85.5267099  70.7987615
  40.2388655  84.7977067  72.0473820  44.9769228  84.9176538  81.5360642
  44.9657868  84.5229336  80.6641146  45.1389867  84.1842610  82.1294414
  37.9000692  87.1128354  74.4055548  38.6921984  86.7719179  73.9901847
  38.1397342  87.2223329  75.3257701  45.9335819  89.2848130  66.8785792
  45.2823799  89.8702211  66.4919806  46.7280182  89.8154325  66.9380830
  39.8591446  86.3737267  67.2772927  40.6322322  85.8266254  67.1385803
  40.2116845  87.2381517  67.4887388  41.6976489  87.7013650  80.4839826
  41.4066355  88.6059280  80.3686492  42.3333473  87.7430177  81.1983896
  42.6232696  85.0790498  77.0741186  43.2196268  84.8546520  76.3598149
  42.6807667  84.3375244  77.6766634  42.1957724  82.5329933  64.9091377
  42.4483245  82.0111455  64.1474840  41.2582283  82.3696079  65.0118060
  47.4111084  86.9738562  67.4154777  46.7756917  87.0473189  68.1275681
  47.0808491  87.5632161  66.7373856  41.9154013  84.4358039  67.1115752
  41.7990271  83.7602943  67.7796836  42.0256273  83.9490413  66.2947905
  44.2585554  83.8968186  70.8162441  43.8943761  83.3698807  71.5275362
  45.1152670  83.5066655  70.6428926  46.6566374  87.3875065  77.4789620
  46.3567097  88.2900104  77.3705427  46.3117433  87.1207248  78.3310773
  43.8780261  81.3815744  66.7970456  43.7579887  81.8272794  67.6355937
  43.1832850  81.7301061  66.2383994  37.4687666  83.4822135  74.3470113
  37.5980047  83.7356614  75.2609525  36.7885118  84.0749843  74.0274768
  41.6387154  94.1519385  70.4460587  41.5611183  95.1027210  70.5249068
  41.0348797  93.8065258  71.1035514  42.3850756  84.1332704  82.6639921
  43.1265440  84.6717748  82.3874745  41.6787741  84.7598993  82.8211473
  47.8606095  86.2761845  81.2612083  48.2689451  85.8344255  80.5166715
  47.1383357  85.7014472  81.5146276  44.2137165  81.2134451  78.6345640
  45.0598361  81.6373865  78.7780289  44.1535803  80.5568076  79.3284203
  48.1834910  86.8363035  75.0164372  47.5543772  87.0008749  74.3140440
  47.7960572  87.2504645  75.7875336  52.0624142  87.7717473  72.3708736
  51.3775180  88.1516374  71.8205769  52.1467991  88.3812800  73.1040683
  49.3175073  85.4177432  78.9704079  49.5291969  86.0609192  78.2938460
  49.2704822  84.5839749  78.5026009  43.7362872  86.5737443  72.2814457
  44.2001217  86.8525146  71.4919079  43.4719670  85.6720888  72.0987548
  40.6286953  86.1208925  75.2194220  41.1988310  86.5496193  74.5811705
  41.2195065  85.8391510  75.9178406  42.6731758  82.6960596  69.0904022
  43.3755801  83.1481639  69.5577948  42.3412386  82.0544415  69.7183915
  41.1212119  81.2872352  83.4655231  40.4910780  81.9688633  83.6990628
  41.0148207  81.1755434  82.5208370  50.4320901  88.2949388  77.1426436
  51.2538345  87.8929575  76.8609118  50.4283304  88.1917622  78.0942552
  44.1977505  87.8433431  79.2987147  44.2621937  88.3053838  80.1345319
  43.4888429  87.2130796  79.4269457  34.6994795  81.2074639  76.8236146
  34.9502833  82.0921649  77.0893722  35.2354343  81.0279240  76.0511238
  43.9125522  89.5101538  69.1666127  43.7771197  90.3553074  69.5950975
  44.4535335  89.7120816  68.4032061  37.3654920  87.0276976  69.7394052
  37.8779440  87.8220227  69.8899617  38.0177633  86.3303267  69.6727654
  39.1749805  90.1442733  71.8216805  39.3516433  91.0660697  71.6337789
  39.9706638  89.8301152  72.2511185  38.4602161  82.1907365  81.6978969
  38.3455676  81.2892622  81.9986068  37.6046679  82.4371061  81.3463785
  45.5393999  90.1325105  83.2966469  45.0957853  89.3461483  82.9787374
  46.2011212  90.3204255  82.6310360  40.2981120  91.6620906  77.8227148
  40.8488545  91.5337970  77.0504142  39.4592596  91.9615795  77.4722041
  47.6375237  90.4127905  81.3247871  47.6193712  91.2336786  80.8328140
  48.5595157  90.2881980  81.5498012  44.0948291  87.9272034  82.1671379
  44.6276628  87.1660322  81.9370687  43.5662372  87.6345686  82.9095533
  35.3303837  85.3565631  70.5153623  36.1679059  85.7662639  70.2987331
  35.5082104  84.4165073  70.4853817  47.2268269  83.0240711  66.2037456
  46.7114892  83.7945316  66.4425843  46.9545577  82.3505847  66.8270517
  45.4601004  87.0558027  69.6790191  44.9322365  86.3210786  69.3663428
  44.9588507  87.8332703  69.4330159  50.4393850  85.2507047  74.7957237
  49.7817524  85.9406309  74.8837366  51.2434249  85.6403479  75.1391224
  43.6053604  84.8738237  62.6825164  42.6980666  84.6427490  62.8816313
  44.1024636  84.0775856  62.8699146  46.5121683  93.5835744  65.6021850
  45.8383382  93.8867441  66.2106808  46.8987505  94.3864825  65.2527307
  44.7841837  84.9750832  67.2049154  43.8753057  84.6909865  67.3021624
  44.8136921  85.3949910  66.3452461  50.0161105  88.5857421  70.9740322
  49.5623432  87.7448331  71.0305512  49.3855072  89.2218820  71.3115102
  48.4594044  90.4233918  71.9090140  48.7517018  90.9838975  71.1902505
  48.9692665  90.7162479  72.6643299  35.3530008  82.6956346  71.1864356
  35.1554408  82.1025707  70.4615423  34.7976672  82.3908556  71.9040295
  43.3326731  82.5879452  73.3058949  43.3875341  81.6353289  73.2301426
  42.5217933  82.7438892  73.7900248  44.4817925  86.5159576  64.5437233
  44.0437355  85.7995434  64.0842870  45.2228366  86.7435690  63.9822324
  43.4227669  91.2014269  72.9983593  43.3803848  91.4275115  72.0692125
  44.3390368  90.9677644  73.1469394  46.8693303  81.6698337  79.8964222
  47.2242691  81.8969810  80.7558688  47.5165434  82.0016713  79.2741477
  52.6260420  86.8593300  75.6124823  53.0596926  86.7668589  76.4607877
  53.3392000  86.8350800  74.9744839  41.5393470  88.0777298  72.7945556
  42.3334069  87.5827618  72.5928131  40.8285162  87.5495161  72.4313261
  46.3588315  90.4595394  77.1457923  46.4125337  91.0286330  77.9135639
  45.4903096  90.6297279  76.7811960  39.2386708  80.1612950  78.6282375
  39.9109761  79.9530312  77.9795024  38.4116494  79.9635036  78.1887607
  53.4875969  86.9017000  78.1457708  53.6811859  87.8062811  78.3916983
  53.3876587  86.4424419  78.9796293  48.5491078  87.0523743  83.7198589
  48.3976584  86.8234295  82.8028672  48.5395757  88.0094344  83.7329934
  45.3176414  84.6255656  78.7044855  46.2468474  84.7766815  78.5313823
  44.8967444  84.7139677  77.8493502  44.1164746  88.6506320  76.4743393
  43.9775832  88.2825105  77.3469331  43.3279342  89.1653960  76.3027351
  44.7112898  93.7515417  67.8168929  44.8864654  93.2803460  68.6314552
  44.0245686  94.3781183  68.0450190  45.6669961  88.0287923  73.8632231
  45.3319794  87.9888693  74.7589880  45.1673907  87.3632639  73.3902641
  39.6414205  83.4355553  79.3884812  39.5034003  82.7035792  79.9896351
  40.5519129  83.3464453  79.1069000  42.2696506  83.1475512  78.8768491
  42.9796124  82.5068704  78.8355110  42.2265814  83.3988407  79.7994672
  50.2583284  90.0842866  81.7975071  50.1995831  89.4002086  81.1305654
  50.6602803  90.8261856  81.3455697  40.9825440  80.1340730  80.6964131
  40.4462797  79.6831469  81.3485727  40.3942148  80.2686639  79.9534595
  39.2773983  96.9004779  74.5908790  39.5170582  97.5323304  75.2687808
  38.4343180  96.5492819  74.8774149  50.2600692  88.0482449  80.0289050
  49.3727471  87.7108371  80.1515449  50.8299243  87.3165481  80.2657816
  31.9129839  84.3806541  73.3532102  32.6000879  84.0668271  72.7653117
  31.7577968  85.2847906  73.0799353  43.7901845  92.7083902  76.9950293
  43.7172017  93.5138873  77.5069598  43.3479238  92.9075868  76.1698315
  43.5791625  91.9455672  70.5053115  42.7959147  92.4877352  70.5991340
  44.2784370  92.4629651  70.9047356  46.2500529  92.6070736  79.1508452
  46.9628501  93.2418201  79.0784354  45.7590557  92.7034602  78.3348454
  47.9718056  86.5121989  70.7225744  47.0374334  86.6323451  70.5530448
  48.1494724  85.6094455  70.4585754  41.3012442  90.3565179  79.9714023
  42.0021902  90.9901662  80.1243417  40.8307557  90.6979911  79.2109662
  49.4266838  88.6983129  68.2561930  49.7026682  88.5839724  69.1655804
  48.5571337  88.3000614  68.2174103  49.1013728  82.9109787  77.7966573
  48.4485178  83.1585694  77.1419026  49.4794108  82.0973925  77.4629051
  46.0620902  92.9469480  71.8994744  46.2443297  92.1291136  72.3622496
  46.8853888  93.1637172  71.4619634  46.3963068  91.8737665  69.1609792
  46.9250834  91.3630120  68.5479954  46.6591287  91.5580195  70.0255325
  45.1501301  83.6529598  84.2832610  44.4741938  83.5523727  84.9534986
  45.9728935  83.4968812  84.7468608  36.8980160  89.8901534  76.9045126
  37.4833597  89.1445222  77.0373030  36.7004999  90.2005491  77.7881790
  39.7518815  92.9252782  71.9207568  39.0829191  93.4098909  71.4371608
  39.6131685  93.1722002  72.8350947  31.4897815  82.4607135  75.6249569
  31.5281915  81.9270725  76.4186687  30.9838108  81.9342340  75.0060546
  43.8924084  94.9596525  78.5190226  44.4442392  95.1228147  79.2839312
  44.2330278  95.5500963  77.8470251  38.3440850  79.3794808  82.7685145
  38.9712889  78.9971885  83.3822670  37.4868769  79.1609010  83.1340838
  48.7434958  89.7857783  84.3738881  49.2874862  90.3987741  83.8793836
  48.1621803  90.3437361  84.8905894  35.1206393  81.1871237  68.7003500
  35.4159834  80.2781915  68.6470554  34.2194428  81.1658976  68.3784503
  47.0292471  92.9078501  75.5053909  46.9043611  92.1068241  74.9964854
  47.6871562  93.4024694  75.0167879  49.0927380  90.7087521  77.1333459
  48.1457715  90.5892872  77.0611785  49.4410153  89.8210019  77.2159720
  46.0973813  90.5040237  73.3337811  45.9498775  89.5756945  73.5145381
  46.9227307  90.5260328  72.8494886  49.7007935  91.3268796  74.4202684
  50.6254482  91.1211657  74.2827135  49.5323238  91.0785197  75.3292025
  49.4903251  91.8454463  69.7764775  49.6640129  91.2800886  69.0238628
  49.9832142  92.6455358  69.5944265  35.3080211  83.8569132  77.8428334
  34.7633679  84.6328940  77.9748608  36.1859561  84.2039937  77.6847455
  50.4778424  91.1621228  66.8761673  51.1729328  91.7827920  67.0948988
  50.8201574  90.3116579  67.1514051  36.0946233  82.9839029  80.7358491
  35.3527969  83.1321664  81.3223121  35.7738977  83.2447294  79.8725240
  44.0389895  92.5255007  80.5338881  44.3477022  92.2804154  81.4061580
  44.8365377  92.7301645  80.0457751  44.0610507  94.6792916  72.7644257
  43.6215498  94.1869295  73.4577114  44.8118624  94.1365884  72.5236333
  36.5402846  90.8704457  72.7668885  37.3660866  90.5708229  72.3867529
  36.1896898  90.1012080  73.2158674  41.5084380  90.2230926  74.8366559
  40.8864389  89.5601631  74.5368787  42.1789246  90.2492057  74.1540207
  34.7411451  88.7890784  73.7257819  33.9043360  88.3612958  73.5441820
  34.7135097  88.9823227  74.6628610  52.0663753  89.2453837  83.7100202
  51.2759296  89.2277976  83.1704702  51.8297107  89.7842131  84.4649239
  52.1861628  86.0946303  81.0232931  52.2359633  85.9296311  81.9648453
  52.0775551  85.2273562  80.6330811  41.0697886  88.7734849  68.3125020
  41.2186007  89.4570313  67.6591692  41.8764330  88.7539939  68.8274475
  49.4765390  82.0777231  82.3392237  50.3775253  81.9383696  82.0476235
  49.5513365  82.2431686  83.2790415  53.6879825  88.5143245  81.2674952
  53.3964633  88.8773225  82.1038413  53.0751956  87.8010253  81.0888284
  51.9367013  83.6375859  79.7355010  52.4121134  83.8303506  78.9273862
  51.0132578  83.6935045  79.4898394  38.8250519  84.8000027  69.3186088
  38.5796561  83.8962357  69.5166299  38.9946434  84.8017177  68.3765566
  44.5693292  91.2682979  65.7836767  43.9967259  91.8873167  65.3307239
  45.1426086  91.8182341  66.3176689  47.7890552  91.5520130  66.9145349
  48.7221225  91.4865691  67.1178225  47.7013765  92.3876396  66.4559882
  50.4178568  90.8686000  63.8749297  50.3392200  90.5345863  64.7685055
  51.2388235  91.3607768  63.8740769  44.8378783  86.6561538  84.5853476
  45.7581793  86.8340137  84.7793523  44.8028366  85.7117584  84.4333176
  34.0560948  81.8500132  73.5106751  33.7363732  80.9965440  73.2181125
  33.5094376  82.0648710  74.2664718  37.8340856  84.5662573  77.2276258
  38.0526865  85.4979681  77.2464291  38.2466629  84.2070547  78.0131061
  42.7068721  80.1395779  86.6179007  42.6065448  81.0890136  86.5491098
  42.4890263  79.8114018  85.7455077  33.9249208  85.4703043  75.4799873
  33.2312679  85.0556996  74.9669827  34.6722199  85.5123580  74.8833292
  42.5699991  83.5692918  85.4344068  42.0867073  84.3693278  85.6407957
  42.6560930  83.5800862  84.4811512  35.8385951  85.4021297  73.3565888
  35.8156639  85.5008984  72.4047771  36.1486587  86.2486448  73.6783054
  38.4973328  87.4597452  77.4712502  39.4516582  87.4281395  77.4042434
  38.2985852  86.9988076  78.2862728  39.0872711  86.0298568  80.0383300
  39.9065600  86.5242647  80.0618137  39.3609518  85.1130536  80.0100867
  36.8523557  93.0017072  74.4882700  36.7178025  92.2417473  73.9220698
  36.4355620  93.7257972  74.0211489  47.9882520  88.1853995  63.4959275
  48.6918370  88.3903998  64.1116931  47.2645169  88.7530757  63.7608359
  40.0092683  93.8986389  74.7001142  39.8925067  94.8431821  74.5979833
  39.1885129  93.5959950  75.0886942  49.8969218  88.6236524  65.5457735
  50.7314822  88.1917723  65.3635210  49.7353561  88.4518538  66.4734630
  49.5515110  85.1268638  66.9114074  49.4963914  84.9612909  65.9702519
  48.9261165  85.8344671  67.0676264  34.3407625  80.3636702  80.7375497
  34.9866488  79.8535656  81.2262722  34.1324776  81.1005384  81.3118922
  46.8661017  87.4317550  86.2367637  47.7352177  87.6058202  85.8754272
  46.3867769  88.2511966  86.1143367  41.0347197  94.5514651  77.9157071
  41.9374444  94.5838261  78.2323566  40.8084567  93.6215102  77.9303407
  42.7900799  93.3045637  74.5767150  41.8396430  93.3047499  74.4631522
  43.0933285  92.5578372  74.0603184  58.5253493  99.1406176  75.6412912
  59.1631903  99.0212923  74.9376252  58.4074336 100.0887020  75.7000864
  55.3343199  99.0933604  75.5774437  54.9961711  98.9774668  74.6894971
  56.2032967  98.6924769  75.5575443  51.1930015 100.9469080  71.5671328
  50.6294880 100.8559017  70.7987615  51.0782410 100.1268985  72.0473820
  55.8162982 100.2468455  81.5360642  55.8051623  99.8521254  80.6641146
  55.9783622  99.5134528  82.1294414  48.7394447 102.4420272  74.4055548
  49.5315739 102.1011096  73.9901847  48.9791097 102.5515247  75.3257701
  56.7729573 104.6140048  66.8785792  56.1217553 105.1994128  66.4919806
  57.5673936 105.1446243  66.9380830  50.6985201 101.7029185  67.2772927
  51.4716077 101.1558172  67.1385803  51.0510599 102.5673434  67.4887388
  52.5370243 103.0305567  80.4839826  52.2460109 103.9351198  80.3686492
  53.1727228 103.0722095  81.1983896  53.4626450 100.4082416  77.0741186
  54.0590022 100.1838438  76.3598149  53.5201422  99.6667161  77.6766634
  53.0351478  97.8621851  64.9091377  53.2876999  97.3403372  64.1474840
  52.0976038  97.6987996  65.0118060  58.0794761  96.8657629  72.7166120
  58.8657850  96.4477053  72.3656537  58.3433466  97.7703722  72.8847768
  58.2504839 102.3030480  67.4154777  57.6150672 102.3765106  68.1275681
  57.9202245 102.8924079  66.7373856  63.4803188  96.8032863  73.6199098
  64.2128360  96.2332079  73.8536928  62.7242544  96.4154463  74.0605604
  52.7547767  99.7649957  67.1115752  52.6384025  99.0894860  67.7796836
  52.8650027  99.2782331  66.2947905  55.0979308  99.2260104  70.8162441
  54.7337515  98.6990725  71.5275362  55.9546424  98.8358573  70.6428926
  61.0028609  90.5154437  78.0793707  60.6711934  91.3849848  77.8554922
  60.4074222  90.1990721  78.7587737  54.7384795  94.2550004  65.8123789
  54.9059197  95.1230240  66.1794260  54.5481964  94.4177286  64.8885079
  57.4960128 102.7166983  77.4789620  57.1960851 103.6192022  77.3705427
  57.1511188 102.4499166  78.3310773  50.9472610  99.1680780  73.5126324
  50.0223106  99.0356994  73.7204016  51.1957023  99.9474999  74.0096267
  60.8957272  95.2349523  75.1587057  59.9874149  95.1664931  74.8645818
  60.8444868  95.7121468  75.9868883  54.7174016  96.7107661  66.7970456
  54.5973641  97.1564712  67.6355937  54.0226604  97.0592979  66.2383994
  48.3081421  98.8114053  74.3470113  48.4373802  99.0648532  75.2609525
  47.6278872  99.4041761  74.0274768  52.4780908 109.4811303  70.4460587
  52.4004938 110.4319128  70.5249068  51.8742552 109.1357176  71.1035514
  54.9698138  96.6539168  83.1021954  54.1931472  97.2133089  83.0924819
  55.6088701  97.1395951  83.6236825  62.7618918  93.4365961  76.9364931
  62.1193299  93.7298494  76.2904726  62.2573847  93.3218882  77.7418128
  60.4159082  97.1829134  67.6250790  61.3276938  97.4156521  67.4498488
  59.9068729  97.7666179  67.0625869  53.2244510  99.4624622  82.6639921
  53.9659195 100.0009666  82.3874745  52.5181496 100.0890911  82.8211473
  58.6999850 101.6053762  81.2612083  59.1083206 101.1636173  80.5166715
  57.9777111 101.0306390  81.5146276  55.0530920  96.5426369  78.6345640
  55.8992115  96.9665783  78.7780289  54.9929557  95.8859993  79.3284203
  59.0228664 102.1654953  75.0164372  58.3937527 102.3300667  74.3140440
  58.6354327 102.5796562  75.7875336  62.9017896 103.1009391  72.3708736
  62.2168934 103.4808292  71.8205769  62.9861746 103.7104717  73.1040683
  58.2030365  94.2030737  80.2926813  57.9591297  94.9572798  79.7561089
  58.4790296  94.5816085  81.1274061  60.1568828 100.7469350  78.9704079
  60.3685723 101.3901110  78.2938460  60.1098576  99.9131666  78.5026009
  57.7595057  93.3587170  75.8740651  56.8979536  93.6568424  76.1657389
  57.7857492  93.5757569  74.9421684  54.5756626 101.9029361  72.2814457
  55.0394972 102.1817064  71.4919079  54.3113424 101.0012806  72.0987548
  51.4680707 101.4500843  75.2194220  52.0382064 101.8788111  74.5811705
  52.0588819 101.1683427  75.9178406  53.5125512  98.0252513  69.0904022
  54.2149556  98.4773557  69.5577948  53.1806141  97.3836332  69.7183915
  51.9605874  96.6164270  83.4655231  51.3304534  97.2980551  83.6990628
  51.8541962  96.5047352  82.5208370  47.2550846  96.2836066  74.3921156
  46.4649900  96.5393595  73.9161266  47.7462094  97.0984404  74.4973196
  61.2714656 103.6241305  77.1426436  62.0932100 103.2221493  76.8609118
  61.2677059 103.5209539  78.0942552  49.2065592  96.6480645  71.3504632
  48.4096755  96.7599340  71.8688128  48.9791184  96.9867298  70.4845523
  55.0371259 103.1725349  79.2987147  55.1015692 103.6345756  80.1345319
  54.3282183 102.5422713  79.4269457  45.5388549  96.5366556  76.8236146
  45.7896588  97.4213566  77.0893722  46.0748098  96.3571158  76.0511238
  69.3620649  99.9680054  73.4911408  68.6084357  99.3987452  73.3355412
  69.4968190  99.9342718  74.4382043  54.7519277 104.8393456  69.1666127
  54.6164952 105.6844992  69.5950975  55.2929089 105.0412734  68.4032061
  51.2386617  90.9185036  85.8280482  50.8453562  90.3651234  86.5028127
  52.0552757  91.2295614  86.2187000  48.2048674 102.3568894  69.7394052
  48.7173195 103.1512144  69.8899617  48.8571387 101.6595185  69.6727654
  50.0143559 105.4734650  71.8216805  50.1910187 106.3952615  71.6337789
  50.8100393 105.1593070  72.2511185  54.1554578  92.3342915  83.4200739
  54.8964291  92.9350068  83.3405201  54.3872500  91.5920553  82.8618782
  49.2995916  97.5199282  81.6978969  49.1849431  96.6184539  81.9986068
  48.4440433  97.7662979  81.3463785  56.3787753 105.4617023  83.2966469
  55.9351608 104.6753401  82.9787374  57.0404967 105.6496173  82.6310360
  51.1374875 106.9912824  77.8227148  51.6882300 106.8629887  77.0504142
  50.2986350 107.2907713  77.4722041  58.4768991 105.7419822  81.3247871
  58.4587467 106.5628703  80.8328140  59.3988911 105.6173898  81.5498012
  54.9342046 103.2563952  82.1671379  55.4670382 102.4952240  81.9370687
  54.4056127 102.9637604  82.9095533  46.1697591 100.6857548  70.5153623
  47.0072813 101.0954557  70.2987331  46.3475859  99.7456991  70.4853817
  58.0662023  98.3532629  66.2037456  57.5508647  99.1237234  66.4425843
  57.7939332  97.6797765  66.8270517  55.6509134  93.1982330  71.2622694
  54.7950731  92.8089180  71.0828333  56.0636086  93.2774291  70.4022480
  57.1808281  90.7328673  75.6614254  56.6773077  90.6958808  74.8482059
  57.4738888  91.6421416  75.7210911  53.4251167  90.8167403  74.6680436
  54.2904164  90.6210211  74.3086325  53.4928676  90.5877755  75.5949792
  63.0396297 101.1064984  68.1390629  62.2625740 100.7676143  67.6945791
  63.7187778 101.1117607  67.4645594  57.8548326  96.2259721  68.0297237
  57.5498462  96.5405870  68.8807380  58.8078769  96.3041141  68.0724570
  56.2994758 102.3849944  69.6790191  55.7716120 101.6502704  69.3663428
  55.7982261 103.1624621  69.4330159  61.2787604 100.5798965  74.7957237
  60.6211279 101.2698226  74.8837366  62.0828004 100.9695397  75.1391224
  51.0313486  93.0469611  72.0396802  51.6057238  92.8244792  71.3069995
  51.6184468  93.1158305  72.7925404  60.0893063  98.9343338  72.8461179
  60.6024945  99.5673329  73.3482889  60.7394287  98.3344533  72.4804539
  51.3583073  95.0774072  66.0592688  50.5220385  95.4148758  66.3801962
  51.2187843  94.9423052  65.1219825  53.3336154  89.9210860  70.7671872
  52.6800566  89.6059877  70.1428487  53.2916628  89.2986600  71.4931695
  54.4447358 100.2030155  62.6825164  53.5374420  99.9719408  62.8816313
  54.9418390  99.4067774  62.8699146  57.3515437 108.9127662  65.6021850
  56.6777136 109.2159359  66.2106808  57.7381259 109.7156742  65.2527307
  56.5673894  96.4092793  75.0919520  55.6496455  96.6307740  74.9341208
  56.9834038  96.4839104  74.2331227  57.3508942  97.8084209  70.2222200
  58.0980761  98.3205606  69.9129322  57.6200531  97.4868262  71.0826593
  55.6235592 100.3042750  67.2049154  54.7146811 100.0201782  67.3021624
  55.6530676 100.7241828  66.3452461  60.8554859 103.9149339  70.9740322
  60.4017186 103.0740249  71.0305512  60.2248826 104.5510737  71.3115102
  59.7987779  94.8441325  72.2040989  59.0610536  94.3318711  72.5351232
  60.0514552  94.4041707  71.3924266  59.2987799 105.7525836  71.9090140
  59.5910773 106.3130893  71.1902505  59.8086419 106.0454397  72.6643299
  46.1923762  98.0248264  71.1864356  45.9948162  97.4317624  70.4615423
  45.6370426  97.7200474  71.9040295  54.1720486  97.9171370  73.3058949
  54.2269096  96.9645207  73.2301426  53.3611688  98.0730809  73.7900248
  55.3211680 101.8451493  64.5437233  54.8831110 101.1287352  64.0842870
  56.0622121 102.0727608  63.9822324  52.1112846  96.5348430  71.0649328
  51.2980711  96.8342600  71.4714520  52.6071840  96.1404119  71.7823811
  54.2621424 106.5306187  72.9983593  54.2197603 106.7567033  72.0692125
  55.1784123 106.2969561  73.1469394  57.7087058  96.9990254  79.8964222
  58.0636445  97.2261728  80.7558688  58.3559189  97.3308631  79.2741477
  63.4384794 100.1208690  70.6013551  63.3002693 100.3110286  69.6734740
  63.0821013 100.8828073  71.0581602  51.6026921  94.1066785  76.6810563
  52.2426300  93.9655545  75.9833527  50.7704451  93.8201299  76.3049165
  63.4654174 102.1885217  75.6124823  63.8990681 102.0960506  76.4607877
  64.1785755 102.1642718  74.9744839  52.3787225 103.4069216  72.7945556
  53.1727823 102.9119536  72.5928131  51.6678917 102.8787079  72.4313261
  57.1982069 105.7887311  77.1457923  57.2519091 106.3578248  77.9135639
  56.3296850 105.9589196  76.7811960  48.6869988  97.5512298  68.8705308
  47.7567576  97.4896753  69.0875271  48.7827460  97.0288250  68.0741950
  48.6055537  94.0767110  71.4583550  48.8662354  94.9912444  71.3492711
  49.4272709  93.6091553  71.6080163  50.0780462  95.4904868  78.6282375
  50.7503516  95.2822230  77.9795024  49.2510249  95.2926954  78.1887607
  64.3269724 102.2308918  78.1457708  64.5205614 103.1354728  78.3916983
  64.2270342 101.7716337  78.9796293  55.9806034  92.1166808  80.6448035
  55.3333949  92.8156758  80.5512512  56.7507050  92.5502952  81.0124284
  59.3884832 102.3815661  83.7198589  59.2370339 102.1526212  82.8028672
  59.3789512 103.3386262  83.7329934  56.1570169  99.9547573  78.7044855
  57.0862229 100.1058733  78.5313823  55.7361199 100.0431594  77.8493502
  54.9558501 103.9798238  76.4743393  54.8169586 103.6117022  77.3469331
  54.1673097 104.4945877  76.3027351  55.5506652 109.0807334  67.8168929
  55.7258408 108.6095377  68.6314552  54.8639441 109.7073100  68.0450190
  56.5063716 103.3579841  73.8632231  56.1713548 103.3180610  74.7589880
  56.0067661 102.6924556  73.3902641  50.4807960  98.7647471  79.3884812
  50.3427758  98.0327709  79.9896351  51.3912883  98.6756371  79.1069000
  59.4422907 100.7035875  64.1369290  58.8252078  99.9782703  64.0402343
  58.9739396 101.4645235  63.7936365  53.1090260  98.4767430  78.8768491
  53.8189879  97.8360622  78.8355110  53.0659568  98.7280325  79.7994672
  61.0977039 105.4134783  81.7975071  61.0389585 104.7294003  81.1305654
  61.4996557 106.1553773  81.3455697  51.8219194  95.4632648  80.6964131
  51.2856551  95.0123386  81.3485727  51.2335903  95.5978557  79.9534595
  50.1167738 112.2296697  74.5908790  50.3564336 112.8615221  75.2687808
  49.2736934 111.8784737  74.8774149  51.2321453  94.9221299  63.2590595
  50.3550920  94.8010100  62.8952841  51.7079206  94.1307377  63.0069483
  61.0994446 103.3774367  80.0289050  60.2121225 103.0400289  80.1515449
  61.6692997 102.6457398  80.2657816  42.7523593  99.7098459  73.3532102
  43.4394633  99.3960189  72.7653117  42.5971722 100.6139824  73.0799353
  47.5558316  94.5988655  77.7817125  47.4716504  93.9914325  77.0467535
  46.7341022  95.0897674  77.7826622  54.6295600 108.0375819  76.9950293
  54.5565771 108.8430791  77.5069598  54.1872993 108.2367785  76.1698315
  54.4185379 107.2747590  70.5053115  53.6352901 107.8169270  70.5991340
  55.1178124 107.7921569  70.9047356  57.7282029  93.0842219  73.1487320
  58.2250729  92.3312181  72.8288391  56.9569011  93.1206536  72.5830530
  65.5811787  98.7882585  74.7905612  65.5701663  99.6707300  74.4199545
  64.7129166  98.4354135  74.5960149  57.0894283 107.9362654  79.1508452
  57.8022255 108.5710118  79.0784354  56.5984312 108.0326520  78.3348454
  58.8111810 101.8413906  70.7225744  57.8768089 101.9615369  70.5530448
  58.9888479 100.9386373  70.4585754  54.3116998  95.2259602  72.8759005
  53.9414786  94.6730642  73.5639911  54.8076091  94.6217735  72.3234005
  62.1984361  97.6831225  71.2575778  62.6644814  98.5159217  71.1836081
  62.6491862  97.2176207  71.9621036  52.1406197 105.6857097  79.9714023
  52.8415656 106.3193580  80.1243417  51.6701312 106.0271829  79.2109662
  60.2660593 104.0275047  68.2561930  60.5420436 103.9131641  69.1655804
  59.3965091 103.6292532  68.2174103  60.1701024  90.0511812  75.2966679
  59.2564104  90.2816039  75.4648886  60.5994126  90.1350257  76.1480712
  59.9407483  98.2401704  77.7966573  59.2878933  98.4877612  77.1419026
  60.3187863  97.4265843  77.4629051  56.9014657 108.2761398  71.8994744
  57.0837051 107.4583054  72.3622496  57.7247643 108.4929090  71.4619634
  57.2356822 107.2029583  69.1609792  57.7644588 106.6922037  68.5479954
  57.4985042 106.8872113  70.0255325  55.9895056  98.9821515  84.2832610
  55.3135693  98.8815645  84.9534986  56.8122690  98.8260729  84.7468608
  47.7373915 105.2193452  76.9045126  48.3227352 104.4737140  77.0373030
  47.5398753 105.5297409  77.7881790  50.5912570 108.2544699  71.9207568
  49.9222945 108.7390827  71.4371608  50.4525440 108.5013920  72.8350947
  42.3291569  97.7899052  75.6249569  42.3675669  97.2562643  76.4186687
  41.8231862  97.2634258  75.0060546  54.7317839 110.2888443  78.5190226
  55.2836147 110.4520064  79.2839312  55.0724032 110.8792881  77.8470251
  49.7082332  92.6363593  79.1212111  49.7723658  93.4978424  78.7089509
  49.6449452  92.0237594  78.3884470  49.1834604  94.7086725  82.7685145
  49.8106643  94.3263803  83.3822670  48.3262523  94.4900927  83.1340838
  59.5828713 105.1149700  84.3738881  60.1268617 105.7279659  83.8793836
  59.0015558 105.6729279  84.8905894  45.9600147  96.5163154  68.7003500
  46.2553588  95.6073833  68.6470554  45.0588183  96.4950894  68.3784503
  57.8686226 108.2370418  75.5053909  57.7437365 107.4360158  74.9964854
  58.5265317 108.7316612  75.0167879  49.4894394  94.5919151  74.6831049
  48.7680980  95.2055119  74.5438522  50.2787650  95.1276916  74.6047695
  59.9321134 106.0379439  77.1333459  58.9851470 105.9184790  77.0611785
  60.2803907 105.1501937  77.2159720  52.2920708  91.9273577  80.9571701
  52.8155109  92.1735874  81.7198010  52.0733041  92.7593612  80.5374838
  47.6887989  94.1977252  68.8242825  47.3600695  93.3174631  68.6417931
  48.0427359  94.1424921  69.7119215  56.9367568 105.8332155  73.3337811
  56.7892530 104.9048862  73.5145381  57.7621061 105.8552245  72.8494886
  50.8029812  94.4850222  69.1918303  51.1425884  95.0136143  68.4696911
  51.2501932  94.8230628  69.9676870  60.5401689 106.6560714  74.4202684
  61.4648237 106.4503575  74.2827135  60.3716993 106.4077115  75.3292025
  53.4973253  92.8687273  78.6421371  53.1570073  92.0695086  79.0442051
  52.7912259  93.1688983  78.0698204  54.1489724  89.9536585  77.0948694
  54.9715794  89.4797063  76.9727584  54.3927788  90.7327069  77.5947380
  52.7897959  92.9824843  67.3911596  53.5106321  93.3606096  66.8875313
  52.1663263  93.7013720  67.4946574  56.9329082  93.6869992  68.3269928
  57.1492696  94.5694630  68.0258756  56.4523149  93.2956206  67.5975570
  51.6728303  96.6455706  74.9040673  51.5272884  96.9596009  75.7964954
  51.1953507  97.2640606  74.3511571  53.5324686  93.6358254  74.9521562
  53.5186255  92.7399347  74.6153860  54.2497114  93.6428917  75.5859848
  55.3850817  94.0695594  76.9974690  55.1268595  94.9912664  76.9959020
  54.8535857  93.6726028  77.6875154  60.3297006 107.1746381  69.7764775
  60.5033883 106.6092803  69.0238628  60.8225897 107.9747276  69.5944265
  46.1473965  99.1861050  77.8428334  45.6027433  99.9620858  77.9748608
  47.0253315  99.5331855  77.6847455  52.9361582  92.5172634  70.2209132
  53.0577493  91.5889280  70.4200020  52.6463624  92.5311320  69.3087448
  55.8052772  90.2027544  73.3575852  55.8274469  90.2666877  72.4027832
  56.2220831  89.3632053  73.5516358  66.1836397  99.9382804  71.3955075
  66.6267543  99.1890129  70.9974198  65.3062907  99.9292940  71.0128807
  61.3172178 106.4913145  66.8761673  62.0123083 107.1119838  67.0948988
  61.6595328 105.6408497  67.1514051  46.9339987  98.3130946  80.7358491
  46.1921723  98.4613582  81.3223121  46.6132732  98.5739212  79.8725240
  63.2163601 103.9412851  68.4049004  63.7414925 104.2800124  67.6798324
  63.1285954 103.0059866  68.2212139  54.8783650 107.8546925  80.5338881
  55.1870776 107.6096071  81.4061580  55.6759132 108.0593563  80.0457751
  54.9004262 110.0084834  72.7644257  54.4609252 109.5161213  73.4577114
  55.6512379 109.4657802  72.5236333  47.3796601 106.1996375  72.7668885
  48.2054621 105.9000147  72.3867529  47.0290653 105.4303997  73.2158674
  52.3478134 105.5522843  74.8366559  51.7258143 104.8893548  74.5368787
  53.0183001 105.5783975  74.1540207  45.5805206 104.1182701  73.7257819
  44.7437114 103.6904876  73.5441820  45.5528851 104.3115145  74.6628610
  52.4202662  94.0304631  84.4299065  52.4690817  94.9066754  84.0476835
  52.9625176  93.4882024  83.8570708  62.9057507 104.5745755  83.7100202
  62.1153051 104.5569893  83.1704702  62.6690862 105.1134048  84.4649239
  63.0255382 101.4238221  81.0232931  63.0753387 101.2588228  81.9648453
  62.9169306 100.5565480  80.6330811  51.9091641 104.1026767  68.3125020
  52.0579761 104.7862231  67.6591692  52.7158084 104.0831857  68.8274475
  60.3159145  97.4069149  82.3392237  61.2169007  97.2675614  82.0476235
  60.3907119  97.5723604  83.2790415  54.6501950  94.7836004  81.1845424
  53.7805259  95.0769570  80.9128012  54.8861430  95.3676449  81.9052687
  64.5273579 103.8435162  81.2674952  64.2358387 104.2065143  82.1038413
  63.9145710 103.1302171  81.0888284  65.7269261 101.4088042  73.7877522
  66.5616153 101.8477846  73.9515083  65.8628390 100.9326695  72.9685768
  62.7760767  98.9667777  79.7355010  63.2514889  99.1595423  78.9273862
  61.8526333  99.0226963  79.4898394  49.6644274 100.1291944  69.3186088
  49.4190316  99.2254274  69.5166299  49.8340189 100.1309095  68.3765566
  57.3540984  91.0015621  78.7010844  57.8722928  91.7376648  78.3757333
  56.9996117  91.3079614  79.5357603  48.9339922  95.8620302  66.8172250
  48.2409166  95.9364657  66.1612286  48.6891673  95.0980645  67.3393767
  55.4087047 106.5974897  65.7836767  54.8361014 107.2165084  65.3307239
  55.9819840 107.1474259  66.3176689  61.4762436  95.8433537  77.9683316
  62.4279859  95.9431635  77.9895540  61.3065887  95.0511806  78.4781400
  59.4976816  92.9289120  78.1542717  58.9026748  93.2094133  77.4589205
  59.2126513  93.4183021  78.9259458  58.6284306 106.8812047  66.9145349
  59.5614979 106.8157609  67.1178225  58.5407519 107.7168314  66.4559882
  61.2572323 106.1977918  63.8749297  61.1785955 105.8637781  64.7685055
  62.0781990 106.6899685  63.8740769  63.9550514  99.0639657  77.0825615
  63.9226834  98.1255658  77.2685299  64.5651138  99.1423694  76.3491440
  55.7933845  97.9335710  63.1252819  56.7392950  97.8041918  63.1941237
  55.4148090  97.1950372  63.6022248  64.1045003  95.8550700  77.1283899
  63.5884051  95.0709157  76.9413827  64.9884951  95.5269417  77.2930418
  69.7727064 100.1255664  76.2231652  70.5030452  99.8640952  76.7839356
  69.1634009  99.3884386  76.2633720  67.8542361  98.2663526  76.8206103
  67.1275525  98.1319491  76.2122595  67.4389648  98.5740355  77.6262821
  55.6772538 101.9853456  84.5853476  56.5975547 102.1632055  84.7793523
  55.6422121 101.0409501  84.4333176  53.9776762  95.8585686  63.0607705
  53.0708218  95.5618799  63.1370418  54.2552743  95.5615504  62.1941991
  44.8954703  97.1792050  73.5106751  44.5757487  96.3257358  73.2181125
  44.3488131  97.3940628  74.2664718  48.6734610  99.8954491  77.2276258
  48.8920620 100.8271598  77.2464291  49.0860384  99.5362465  78.0131061
  53.5462475  95.4687696  86.6179007  53.4459202  96.4182053  86.5491098
  53.3284017  95.1405935  85.7455077  52.7475547  92.7172621  63.2019684
  53.6094711  93.0427520  63.4615501  52.9325891  91.9304117  62.6892750
  44.7642963 100.7994961  75.4799873  44.0706434 100.3848914  74.9669827
  45.5115954 100.8415498  74.8833292  60.9008183  91.5901148  70.3454907
  60.3206852  92.2485952  69.9632959  60.6344116  90.7678492  69.9342324
  59.3511750  90.9906206  72.5476227  59.8511528  91.1022740  71.7390546
  59.9947358  90.6867258  73.1877036  53.4093745  98.8984835  85.4344068
  52.9260827  99.6985195  85.6407957  53.4954685  98.9092780  84.4811512
  46.6779705 100.7313215  73.3565888  46.6550393 100.8300902  72.4047771
  46.9880342 101.5778366  73.6783054  49.3367083 102.7889370  77.4712502
  50.2910337 102.7573312  77.4042434  49.1379607 102.3279994  78.2862728
  49.9266465 101.3590486  80.0383300  50.7459354 101.8534565  80.0618137
  50.2003273 100.4422454  80.0100867  59.6833061  93.7501238  69.4011255
  58.7958916  94.0350889  69.1831450  60.0987050  93.5895002  68.5538532
  63.0347597  93.7747759  73.1165594  63.8107988  94.2644212  73.3890211
  62.3095732  94.2005813  73.5737464  65.4720156  94.4875378  74.1739535
  66.0664647  94.2471114  73.4632843  65.5446740  93.7682509  74.8013071
  47.6917312 108.3308989  74.4882700  47.5571780 107.5709390  73.9220698
  47.2749374 109.0549889  74.0211489  58.8276275 103.5145913  63.4959275
  59.5312125 103.7195915  64.1116931  58.1038924 104.0822675  63.7608359
  59.6574085  99.2655774  69.6161545  59.6009286  99.7224326  68.7769178
  60.2102427  98.5046459  69.4384388  63.4678891  95.0545506  70.4411665
  63.2115825  94.6542142  71.2719872  62.8431759  95.7689300  70.3161804
  67.7791229  97.7941579  72.9482956  67.2190787  97.8634769  73.7214518
  67.1734732  97.6182564  72.2282452  50.8486438 109.2278306  74.7001142
  50.7318822 110.1723739  74.5979833  50.0278884 108.9251868  75.0886942
  60.7362972 103.9528442  65.5457735  61.5708576 103.5209641  65.3635210
  60.5747315 103.7810456  66.4734630  60.3908864 100.4560555  66.9114074
  60.3357668 100.2904827  65.9702519  59.7654920 101.1636588  67.0676264
  45.1801379  95.6928620  80.7375497  45.8260243  95.1827574  81.2262722
  44.9718530  96.4297301  81.3118922  57.7054772 102.7609467  86.2367637
  58.5745931 102.9350120  85.8754272  57.2261523 103.5803884  86.1143367
  51.8740952 109.8806568  77.9157071  52.7768198 109.9130179  78.2323566
  51.6478322 108.9507019  77.9303407  53.6294554 108.6337555  74.5767150
  52.6790185 108.6339416  74.4631522  53.9327040 107.8870289  74.0603184
  49.5198870  92.8396237  84.8350511  50.3830332  92.4833042  85.0453835
  48.9464281  92.5010132  85.5225915  69.3647247 114.4698093  75.6412912
  70.0025657 114.3504841  74.9376252  69.2468090 115.4178937  75.7000864
  66.1736954 114.4225521  75.5774437  65.8355465 114.3066586  74.6894971
  67.0426722 114.0216686  75.5575443  62.0323769 116.2760998  71.5671328
  61.4688634 116.1850935  70.7987615  61.9176164 115.4560902  72.0473820
  66.6556737 115.5760373  81.5360642  66.6445377 115.1813171  80.6641146
  66.8177376 114.8426446  82.1294414  59.5788201 117.7712189  74.4055548
  60.3709493 117.4303014  73.9901847  59.8184851 117.8807164  75.3257701
  67.6123328 119.9431965  66.8785792  66.9611308 120.5286046  66.4919806
  68.4067691 120.4738160  66.9380830  61.5378955 117.0321103  67.2772927
  62.3109831 116.4850090  67.1385803  61.8904354 117.8965352  67.4887388
  63.3763998 118.3597485  80.4839826  63.0853864 119.2643116  80.3686492
  64.0120982 118.4014012  81.1983896  64.3020205 115.7374333  77.0741186
  64.8983777 115.5130356  76.3598149  64.3595176 114.9959079  77.6766634
  63.8745233 113.1913769  64.9091377  64.1270754 112.6695290  64.1474840
  62.9369792 113.0279914  65.0118060  68.9188516 112.1949547  72.7166120
  69.7051605 111.7768970  72.3656537  69.1827220 113.0995639  72.8847768
  69.0898593 117.6322397  67.4154777  68.4544426 117.7057024  68.1275681
  68.7596000 118.2215996  66.7373856  74.3196943 112.1324780  73.6199098
  75.0522115 111.5623997  73.8536928  73.5636299 111.7446381  74.0605604
  63.5941522 115.0941875  67.1115752  63.4777780 114.4186778  67.7796836
  63.7043782 114.6074249  66.2947905  65.9373063 114.5552022  70.8162441
  65.5731270 114.0282643  71.5275362  66.7940179 114.1650491  70.6428926
  71.8422363 105.8446354  78.0793707  71.5105688 106.7141765  77.8554922
  71.2467977 105.5282638  78.7587737  65.5778550 109.5841921  65.8123789
  65.7452952 110.4522158  66.1794260  65.3875719 109.7469203  64.8885079
  68.3353883 118.0458900  77.4789620  68.0354606 118.9483939  77.3705427
  67.9904942 117.7791084  78.3310773  61.7866364 114.4972697  73.5126324
  60.8616861 114.3648911  73.7204016  62.0350777 115.2766916  74.0096267
  71.7351027 110.5641441  75.1587057  70.8267904 110.4956849  74.8645818
  71.6838622 111.0413386  75.9868883  65.5567770 112.0399579  66.7970456
  65.4367396 112.4856630  67.6355937  64.8620359 112.3884897  66.2383994
  59.1475175 114.1405971  74.3470113  59.2767556 114.3940450  75.2609525
  58.4672627 114.7333679  74.0274768  63.3174663 124.8103221  70.4460587
  63.2398692 125.7611046  70.5249068  62.7136306 124.4649093  71.1035514
  65.8091892 111.9831086  83.1021954  65.0325226 112.5425006  83.0924819
  66.4482455 112.4687869  83.6236825  73.6012673 108.7657879  76.9364931
  72.9587053 109.0590412  76.2904726  73.0967601 108.6510799  77.7418128
  71.2552837 112.5121052  67.6250790  72.1670693 112.7448439  67.4498488
  70.7462484 113.0958096  67.0625869  64.0638265 114.7916540  82.6639921
  64.8052949 115.3301583  82.3874745  63.3575250 115.4182828  82.8211473
  69.5393604 116.9345680  81.2612083  69.9476960 116.4928091  80.5166715
  68.8170866 116.3598308  81.5146276  65.8924674 111.8718287  78.6345640
  66.7385870 112.2957700  78.7780289  65.8323312 111.2151911  79.3284203
  69.8622419 117.4946871  75.0164372  69.2331281 117.6592585  74.3140440
  69.4748081 117.9088480  75.7875336  73.7411651 118.4301308  72.3708736
  73.0562689 118.8100210  71.8205769  73.8255500 119.0396635  73.1040683
  69.0424120 109.5322655  80.2926813  68.7985052 110.2864716  79.7561089
  69.3184050 109.9108003  81.1274061  70.9962582 116.0761267  78.9704079
  71.2079478 116.7193027  78.2938460  70.9492331 115.2423584  78.5026009
  68.5988811 108.6879088  75.8740651  67.7373290 108.9860342  76.1657389
  68.6251246 108.9049487  74.9421684  65.4150381 117.2321279  72.2814457
  65.8788726 117.5108982  71.4919079  65.1507179 116.3304723  72.0987548
  62.3074462 116.7792760  75.2194220  62.8775819 117.2080029  74.5811705
  62.8982574 116.4975345  75.9178406  64.3519267 113.3544431  69.0904022
  65.0543310 113.8065475  69.5577948  64.0199895 112.7128250  69.7183915
  62.7999628 111.9456188  83.4655231  62.1698289 112.6272469  83.6990628
  62.6935716 111.8339269  82.5208370  58.0944601 111.6127984  74.3921156
  57.3043655 111.8685512  73.9161266  58.5855848 112.4276322  74.4973196
  72.1108410 118.9533223  77.1426436  72.9325854 118.5513410  76.8609118
  72.1070813 118.8501457  78.0942552  60.0459346 111.9772563  71.3504632
  59.2490509 112.0891257  71.8688128  59.8184938 112.3159215  70.4845523
  65.8765014 118.5017266  79.2987147  65.9409446 118.9637673  80.1345319
  65.1675938 117.8714631  79.4269457  56.3782304 111.8658474  76.8236146
  56.6290342 112.7505484  77.0893722  56.9141852 111.6863076  76.0511238
  80.2014403 115.2971971  73.4911408  79.4478112 114.7279369  73.3355412
  80.3361945 115.2634636  74.4382043  65.5913031 120.1685374  69.1666127
  65.4558706 121.0136909  69.5950975  66.1322844 120.3704651  68.4032061
  62.0780371 106.2476954  85.8280482  61.6847317 105.6943152  86.5028127
  62.8946511 106.5587532  86.2187000  59.0442429 117.6860812  69.7394052
  59.5566949 118.4804062  69.8899617  59.6965142 116.9887102  69.6727654
  60.8537314 120.8026568  71.8216805  61.0303942 121.7244533  71.6337789
  61.6494147 120.4884987  72.2511185  64.9948332 107.6634833  83.4200739
  65.7358045 108.2641986  83.3405201  65.2266255 106.9212470  82.8618782
  60.1389670 112.8491200  81.6978969  60.0243185 111.9476457  81.9986068
  59.2834188 113.0954897  81.3463785  67.2181508 120.7908940  83.2966469
  66.7745362 120.0045319  82.9787374  67.8798721 120.9788091  82.6310360
  61.9768629 122.3204742  77.8227148  62.5276054 122.1921805  77.0504142
  61.1380105 122.6199631  77.4722041  69.3162746 121.0711740  81.3247871
  69.2981221 121.8920621  80.8328140  70.2382666 120.9465815  81.5498012
  65.7735800 118.5855870  82.1671379  66.3064137 117.8244158  81.9370687
  65.2449881 118.2929521  82.9095533  68.9405495 103.6915936  77.6965021
  68.5969764 104.5817577  77.6204131  69.3084458 103.5017593  76.8334606
  57.0091346 116.0149466  70.5153623  57.8466568 116.4246474  70.2987331
  57.1869613 115.0748908  70.4853817  68.9055778 113.6824547  66.2037456
  68.3902401 114.4529151  66.4425843  68.6333086 113.0089683  66.8270517
  66.4902889 108.5274247  71.2622694  65.6344485 108.1381098  71.0828333
  66.9029841 108.6066208  70.4022480  68.0202035 106.0620591  75.6614254
  67.5166831 106.0250726  74.8482059  68.3132642 106.9713333  75.7210911
  64.2644921 106.1459320  74.6680436  65.1297918 105.9502129  74.3086325
  64.3322430 105.9169672  75.5949792  73.8790052 116.4356901  68.1390629
  73.1019495 116.0968061  67.6945791  74.5581533 116.4409524  67.4645594
  68.6942081 111.5551639  68.0297237  68.3892217 111.8697788  68.8807380
  69.6472523 111.6333059  68.0724570  67.1388513 117.7141862  69.6790191
  66.6109874 116.9794622  69.3663428  66.6376015 118.4916538  69.4330159
  72.1181359 115.9090883  74.7957237  71.4605033 116.5990144  74.8837366
  72.9221758 116.2987315  75.1391224  61.8707240 108.3761528  72.0396802
  62.4450992 108.1536710  71.3069995  62.4578223 108.4450223  72.7925404
  70.9286818 114.2635255  72.8461179  71.4418699 114.8965247  73.3482889
  71.5788041 113.6636451  72.4804539  62.1976827 110.4065989  66.0592688
  61.3614140 110.7440676  66.3801962  62.0581597 110.2714969  65.1219825
  64.1729908 105.2502777  70.7671872  63.5194320 104.9351794  70.1428487
  64.1310382 104.6278518  71.4931695  65.2841113 115.5322072  62.6825164
  64.3768175 115.3011326  62.8816313  65.7812145 114.7359692  62.8699146
  68.1909192 124.2419580  65.6021850  67.5170891 124.5451276  66.2106808
  68.5775014 125.0448660  65.2527307  67.4067648 111.7384711  75.0919520
  66.4890210 111.9599658  74.9341208  67.8227792 111.8131021  74.2331227
  68.1902696 113.1376126  70.2222200  68.9374515 113.6497524  69.9129322
  68.4594286 112.8160179  71.0826593  66.4629346 115.6334667  67.2049154
  65.5540566 115.3493700  67.3021624  66.4924430 116.0533746  66.3452461
  71.6948614 119.2441257  70.9740322  71.2410941 118.4032167  71.0305512
  71.0642581 119.8802655  71.3115102  70.6381533 110.1733243  72.2040989
  69.9004290 109.6610629  72.5351232  70.8908307 109.7333624  71.3924266
  70.1381553 121.0817753  71.9090140  70.4304527 121.6422811  71.1902505
  70.6480174 121.3746314  72.6643299  70.7393161 102.9509495  72.7982758
  71.0452037 102.0906858  72.5108673  71.4645766 103.5427115  72.5981752
  57.0317517 113.3540181  71.1864356  56.8341917 112.7609542  70.4615423
  56.4764181 113.0492392  71.9040295  65.0114240 113.2463288  73.3058949
  65.0662850 112.2937124  73.2301426  64.2005442 113.4022727  73.7900248
  66.1605434 117.1743411  64.5437233  65.7224864 116.4579270  64.0842870
  66.9015875 117.4019526  63.9822324  62.9506600 111.8640348  71.0649328
  62.1374466 112.1634518  71.4714520  63.4465595 111.4696036  71.7823811
  65.1015178 121.8598104  72.9983593  65.0591357 122.0858951  72.0692125
  66.0177877 121.6261479  73.1469394  68.5480812 112.3282172  79.8964222
  68.9030200 112.5553645  80.7558688  69.1952943 112.6600549  79.2741477
  74.2778549 115.4500608  70.6013551  74.1396448 115.6402204  69.6734740
  73.9214768 116.2119991  71.0581602  62.4420675 109.4358703  76.6810563
  63.0820054 109.2947462  75.9833527  61.6098206 109.1493216  76.3049165
  74.3047929 117.5177135  75.6124823  74.7384435 117.4252424  76.4607877
  75.0179509 117.4934635  74.9744839  63.2180979 118.7361134  72.7945556
  64.0121578 118.2411454  72.5928131  62.5072671 118.2078997  72.4313261
  68.0375823 121.1179229  77.1457923  68.0912846 121.6870165  77.9135639
  67.1690605 121.2881114  76.7811960  59.5263742 112.8804215  68.8705308
  58.5961331 112.8188671  69.0875271  59.6221214 112.3580168  68.0741950
  59.4449292 109.4059028  71.4583550  59.7056109 110.3204361  71.3492711
  60.2666464 108.9383471  71.6080163  60.9174217 110.8196785  78.6282375
  61.5897270 110.6114147  77.9795024  60.0904003 110.6218871  78.1887607
  75.1663478 117.5600836  78.1457708  75.3599368 118.4646646  78.3916983
  75.0664096 117.1008255  78.9796293  66.8199789 107.4458726  80.6448035
  66.1727704 108.1448676  80.5512512  67.5900804 107.8794870  81.0124284
  70.2278587 117.7107578  83.7198589  70.0764093 117.4818130  82.8028672
  70.2183266 118.6678180  83.7329934  66.9963923 115.2839491  78.7044855
  67.9255983 115.4350651  78.5313823  66.5754953 115.3723512  77.8493502
  65.7952255 119.3090156  76.4743393  65.6563341 118.9408940  77.3469331
  65.0066851 119.8237795  76.3027351  66.3900407 124.4099252  67.8168929
  66.5652163 123.9387295  68.6314552  65.7033195 125.0365018  68.0450190
  67.3457470 118.6871758  73.8632231  67.0107303 118.6472528  74.7589880
  66.8461416 118.0216474  73.3902641  61.3201714 114.0939388  79.3884812
  61.1821512 113.3619627  79.9896351  62.2306638 114.0048288  79.1069000
  70.2816662 116.0327793  64.1369290  69.6645832 115.3074621  64.0402343
  69.8133150 116.7937153  63.7936365  63.9484015 113.8059348  78.8768491
  64.6583633 113.1652540  78.8355110  63.9053323 114.0572242  79.7994672
  71.9370793 120.7426701  81.7975071  71.8783340 120.0585921  81.1305654
  72.3390312 121.4845691  81.3455697  62.6612949 110.7924565  80.6964131
  62.1250306 110.3415304  81.3485727  62.0729657 110.9270474  79.9534595
  62.0715208 110.2513217  63.2590595  61.1944674 110.1302018  62.8952841
  62.5472961 109.4599295  63.0069483  71.9388201 118.7066285  80.0289050
  71.0514979 118.3692207  80.1515449  72.5086752 117.9749316  80.2657816
  53.5917348 115.0390377  73.3532102  54.2788388 114.7252107  72.7653117
  53.4365477 115.9431741  73.0799353  58.3952070 109.9280573  77.7817125
  58.3110259 109.3206243  77.0467535  57.5734776 110.4189591  77.7826622
  65.4689354 123.3667737  76.9950293  65.3959526 124.1722709  77.5069598
  65.0266747 123.5659703  76.1698315  65.2579134 122.6039507  70.5053115
  64.4746656 123.1461187  70.5991340  65.9571879 123.1213487  70.9047356
  68.5675784 108.4134137  73.1487320  69.0644483 107.6604099  72.8288391
  67.7962765 108.4498453  72.5830530  76.4205541 114.1174502  74.7905612
  76.4095418 114.9999218  74.4199545  75.5522921 113.7646053  74.5960149
  67.9288038 123.2654571  79.1508452  68.6416010 123.9002036  79.0784354
  67.4378066 123.3618437  78.3348454  69.6505565 117.1705824  70.7225744
  68.7161843 117.2907286  70.5530448  69.8282233 116.2678291  70.4585754
  65.1510753 110.5551520  72.8759005  64.7808540 110.0022560  73.5639911
  65.6469845 109.9509653  72.3234005  73.0378116 113.0123143  71.2575778
  73.5038568 113.8451135  71.1836081  73.4885616 112.5468125  71.9621036
  62.9799951 121.0149015  79.9714023  63.6809411 121.6485498  80.1243417
  62.5095066 121.3563746  79.2109662  71.1054347 119.3566964  68.2561930
  71.3814191 119.2423559  69.1655804  70.2358846 118.9584449  68.2174103
  71.0094779 105.3803730  75.2966679  70.0957858 105.6107957  75.4648886
  71.4387880 105.4642174  76.1480712  70.7801237 113.5693622  77.7966573
  70.1272687 113.8169530  77.1419026  71.1581617 112.7557760  77.4629051
  67.7408411 123.6053315  71.8994744  67.9230806 122.7874971  72.3622496
  68.5641397 123.8221008  71.4619634  68.0750577 122.5321500  69.1609792
  68.6038343 122.0213955  68.5479954  68.3378796 122.2164031  70.0255325
  66.8288810 114.3113433  84.2832610  66.1529447 114.2107563  84.9534986
  67.6516444 114.1552647  84.7468608  58.5767669 120.5485370  76.9045126
  59.1621106 119.8029058  77.0373030  58.3792508 120.8589326  77.7881790
  61.4306324 123.5836617  71.9207568  60.7616700 124.0682745  71.4371608
  61.2919194 123.8305838  72.8350947  53.1685324 113.1190970  75.6249569
  53.2069423 112.5854561  76.4186687  52.6625617 112.5926175  75.0060546
  65.5711593 125.6180361  78.5190226  66.1229901 125.7811982  79.2839312
  65.9117787 126.2084798  77.8470251  60.5476086 107.9655510  79.1212111
  60.6117413 108.8270341  78.7089509  60.4843207 107.3529512  78.3884470
  60.0228359 110.0378643  82.7685145  60.6500398 109.6555720  83.3822670
  59.1656278 109.8192845  83.1340838  70.4222467 120.4441618  84.3738881
  70.9662371 121.0571576  83.8793836  69.8409312 121.0021197  84.8905894
  56.7993902 111.8455072  68.7003500  57.0947343 110.9365750  68.6470554
  55.8981937 111.8242812  68.3784503  68.7079980 123.5662336  75.5053909
  68.5831120 122.7652076  74.9964854  69.3659071 124.0608530  75.0167879
  60.3288149 109.9211069  74.6831049  59.6074734 110.5347036  74.5438522
  61.1181404 110.4568833  74.6047695  70.7714889 121.3671356  77.1333459
  69.8245224 121.2476707  77.0611785  71.1197662 120.4793854  77.2159720
  63.1314462 107.2565495  80.9571701  63.6548864 107.5027792  81.7198010
  62.9126795 108.0885530  80.5374838  58.5281743 109.5269170  68.8242825
  58.1994449 108.6466549  68.6417931  58.8821114 109.4716838  69.7119215
  67.7761322 121.1624072  73.3337811  67.6286284 120.2340780  73.5145381
  68.6014816 121.1844163  72.8494886  61.6423566 109.8142140  69.1918303
  61.9819639 110.3428061  68.4696911  62.0895687 110.1522546  69.9676870
  71.3795444 121.9852631  74.4202684  72.3041991 121.7795493  74.2827135
  71.2110747 121.7369032  75.3292025  64.3367007 108.1979190  78.6421371
  63.9963827 107.3987003  79.0442051  63.6306013 108.4980901  78.0698204
  64.9883479 105.2828503  77.0948694  65.8109548 104.8088981  76.9727584
  65.2321542 106.0618986  77.5947380  63.6291713 108.3116761  67.3911596
  64.3500076 108.6898014  66.8875313  63.0057018 109.0305638  67.4946574
  67.7722836 109.0161910  68.3269928  67.9886451 109.8986548  68.0258756
  67.2916903 108.6248124  67.5975570  62.5122058 111.9747623  74.9040673
  62.3666638 112.2887926  75.7964954  62.0347261 112.5932524  74.3511571
  64.3718441 108.9650171  74.9521562  64.3580009 108.0691265  74.6153860
  65.0890869 108.9720835  75.5859848  66.2244571 109.3987512  76.9974690
  65.9662349 110.3204582  76.9959020  65.6929612 109.0017946  77.6875154
  71.1690760 122.5038299  69.7764775  71.3427638 121.9384721  69.0238628
  71.6619651 123.3039194  69.5944265  56.9867720 114.5152968  77.8428334
  56.4421188 115.2912776  77.9748608  57.8647070 114.8623772  77.6847455
  63.7755337 107.8464552  70.2209132  63.8971248 106.9181198  70.4200020
  63.4857379 107.8603238  69.3087448  66.6446527 105.5319462  73.3575852
  66.6668224 105.5958795  72.4027832  67.0614586 104.6923971  73.5516358
  77.0230151 115.2674722  71.3955075  77.4661297 114.5182047  70.9974198
  76.1456662 115.2584858  71.0128807  72.1565933 121.8205063  66.8761673
  72.8516837 122.4411756  67.0948988  72.4989083 120.9700414  67.1514051
  57.7733742 113.6422864  80.7358491  57.0315478 113.7905499  81.3223121
  57.4526486 113.9031130  79.8725240  74.0557356 119.2704769  68.4049004
  74.5808680 119.6092041  67.6798324  73.9679708 118.3351784  68.2212139
  65.7177404 123.1838842  80.5338881  66.0264531 122.9387989  81.4061580
  66.5152886 123.3885481  80.0457751  65.7398016 125.3376752  72.7644257
  65.3003007 124.8453131  73.4577114  66.4906133 124.7949720  72.5236333
  58.2190355 121.5288293  72.7668885  59.0448375 121.2292065  72.3867529
  57.8684407 120.7595915  73.2158674  63.1871889 120.8814761  74.8366559
  62.5651898 120.2185466  74.5368787  63.8576755 120.9075893  74.1540207
  56.4198960 119.4474619  73.7257819  55.5830869 119.0196794  73.5441820
  56.3922606 119.6407063  74.6628610  63.2596416 109.3596549  84.4299065
  63.3084572 110.2358672  84.0476835  63.8018930 108.8173942  83.8570708
  73.7451262 119.9037672  83.7100202  72.9546805 119.8861811  83.1704702
  73.5084616 120.4425966  84.4649239  73.8649137 116.7530139  81.0232931
  73.9147142 116.5880146  81.9648453  73.7563060 115.8857398  80.6330811
  62.7485395 119.4318684  68.3125020  62.8973516 120.1154149  67.6591692
  63.5551839 119.4123774  68.8274475  71.1552899 112.7361067  82.3392237
  72.0562762 112.5967531  82.0476235  71.2300874 112.9015521  83.2790415
  65.4895705 110.1127921  81.1845424  64.6199014 110.4061487  80.9128012
  65.7255185 110.6968366  81.9052687  75.3667334 119.1727080  81.2674952
  75.0752142 119.5357061  82.1038413  74.7539465 118.4594088  81.0888284
  76.5663016 116.7379960  73.7877522  77.4009907 117.1769764  73.9515083
  76.7022145 116.2618613  72.9685768  73.6154522 114.2959695  79.7355010
  74.0908643 114.4887341  78.9273862  72.6920087 114.3518881  79.4898394
  60.5038028 115.4583862  69.3186088  60.2584070 114.5546192  69.5166299
  60.6733943 115.4601012  68.3765566  68.1934738 106.3307538  78.7010844
  68.7116682 107.0668565  78.3757333  67.8389871 106.6371532  79.5357603
  59.7733676 111.1912219  66.8172250  59.0802921 111.2656574  66.1612286
  59.5285428 110.4272563  67.3393767  68.4447333 102.7507821  74.2211741
  68.7249086 102.0831010  74.8472167  69.2297939 102.9436916  73.7086404
  66.2480801 121.9266815  65.7836767  65.6754768 122.5457002  65.3307239
  66.8213595 122.4766176  66.3176689  72.3156191 111.1725455  77.9683316
  73.2673614 111.2723552  77.9895540  72.1459641 110.3803723  78.4781400
  70.3370570 108.2581038  78.1542717  69.7420502 108.5386051  77.4589205
  70.0520267 108.7474939  78.9259458  69.4678061 122.2103965  66.9145349
  70.4008734 122.1449527  67.1178225  69.3801274 123.0460232  66.4559882
  72.0966077 121.5269835  63.8749297  72.0179709 121.1929699  64.7685055
  72.9175744 122.0191603  63.8740769  74.7944269 114.3931575  77.0825615
  74.7620589 113.4547575  77.2685299  75.4044892 114.4715611  76.3491440
  66.6327600 113.2627627  63.1252819  67.5786704 113.1333836  63.1941237
  66.2541844 112.5242289  63.6022248  74.9438757 111.1842618  77.1283899
  74.4277806 110.4001075  76.9413827  75.8278706 110.8561335  77.2930418
  72.6049484 104.9283634  73.0879711  72.4074305 104.6198722  73.9723043
  73.2149190 105.6545272  73.2177641  80.6120818 115.4547581  76.2231652
  81.3424207 115.1932869  76.7839356  80.0027764 114.7176303  76.2633720
  78.6936116 113.5955444  76.8206103  77.9669279 113.4611409  76.2122595
  78.2783402 113.9032273  77.6262821  66.5166292 117.3145374  84.5853476
  67.4369302 117.4923973  84.7793523  66.4815875 116.3701419  84.4333176
  64.8170517 111.1877604  63.0607705  63.9101972 110.8910717  63.1370418
  65.0946498 110.8907422  62.1941991  55.7348457 112.5083967  73.5106751
  55.4151241 111.6549275  73.2181125  55.1881885 112.7232545  74.2664718
  59.5128365 115.2246408  77.2276258  59.7314374 116.1563516  77.2464291
  59.9254138 114.8654383  78.0131061  66.4332582 105.7314494  69.2151946
  65.6233311 105.3861579  69.5907192  67.1216999 105.4222037  69.8039558
  68.3623131 104.8092540  70.8376243  68.9154169 105.2287994  71.4966266
  68.5993217 103.8828289  70.8799199  64.3856230 110.7979614  86.6179007
  64.2852957 111.7473971  86.5491098  64.1677772 110.4697853  85.7455077
  63.5869301 108.0464539  63.2019684  64.4488465 108.3719437  63.4615501
  63.7719645 107.2596035  62.6892750  55.6036717 116.1286879  75.4799873
  54.9100188 115.7140832  74.9669827  56.3509708 116.1707415  74.8833292
  71.7401938 106.9193066  70.3454907  71.1600607 107.5777870  69.9632959
  71.4737870 106.0970410  69.9342324  70.1905504 106.3198123  72.5476227
  70.6905282 106.4314658  71.7390546  70.8341112 106.0159176  73.1877036
  64.2487500 114.2276753  85.4344068  63.7654582 115.0277113  85.6407957
  64.3348439 114.2384698  84.4811512  57.5173460 116.0605133  73.3565888
  57.4944148 116.1592820  72.4047771  57.8274096 116.9070283  73.6783054
  60.1760837 118.1181288  77.4712502  61.1304091 118.0865230  77.4042434
  59.9773361 117.6571911  78.2862728  60.7660220 116.6882404  80.0383300
  61.5853109 117.1826482  80.0618137  61.0397027 115.7714372  80.0100867
  70.5226816 109.0793156  69.4011255  69.6352671 109.3642807  69.1831450
  70.9380805 108.9186919  68.5538532  73.8741352 109.1039677  73.1165594
  74.6501742 109.5936129  73.3890211  73.1489486 109.5297731  73.5737464
  76.3113911 109.8167296  74.1739535  76.9058401 109.5763032  73.4632843
  76.3840494 109.0974427  74.8013071  69.6670029 118.8437831  63.4959275
  70.3705879 119.0487833  64.1116931  68.9432678 119.4114592  63.7608359
  70.4967840 114.5947692  69.6161545  70.4403041 115.0516243  68.7769178
  71.0496182 113.8338376  69.4384388  74.3072645 110.3837424  70.4411665
  74.0509580 109.9834059  71.2719872  73.6825513 111.0981218  70.3161804
  78.6184983 113.1233497  72.9482956  78.0584541 113.1926686  73.7214518
  78.0128487 112.9474482  72.2282452  71.5756727 119.2820360  65.5457735
  72.4102331 118.8501558  65.3635210  71.4141070 119.1102373  66.4734630
  71.2302619 115.7852473  66.9114074  71.1751423 115.6196745  65.9702519
  70.6048674 116.4928506  67.0676264  56.0195134 111.0220537  80.7375497
  56.6653997 110.5119491  81.2262722  55.8112285 111.7589219  81.3118922
  68.5448526 118.0901385  86.2367637  69.4139686 118.2642037  85.8754272
  68.0655277 118.9095802  86.1143367  64.5398744 105.2860582  66.4899393
  64.5277414 106.2302422  66.6467664  65.4322166 105.1030728  66.1958854
  62.7134706 125.2098486  77.9157071  63.6161953 125.2422096  78.2323566
  62.4872076 124.2798937  77.9303407  64.4688308 123.9629473  74.5767150
  63.5183939 123.9631334  74.4631522  64.7720794 123.2162207  74.0603184
  68.3550864 101.8803359  70.7445330  67.5883260 101.3261845  70.8902012
  68.7661569 101.9525228  71.6059481  60.3592625 108.1688155  84.8350511
  61.2224086 107.8124959  85.0453835  59.7858035 107.8302049  85.5225915
  80.2041002 129.7990011  75.6412912  80.8419412 129.6796758  74.9376252
  80.0861845 130.7470855  75.7000864  77.0130708 129.7517439  75.5774437
  76.6749220 129.6358504  74.6894971  77.8820476 129.3508604  75.5575443
  77.4950491 130.9052291  81.5360642  77.4839132 130.5105089  80.6641146
  77.6571130 130.1718363  82.1294414  74.7138987 128.5205686  64.9091377
  74.9664508 127.9987208  64.1474840  73.7763547 128.3571832  65.0118060
  79.7582270 127.5241465  72.7166120  80.5445359 127.1060888  72.3656537
  80.0220975 128.4287557  72.8847768  85.1590697 127.4616698  73.6199098
  85.8915869 126.8915915  73.8536928  84.4030053 127.0738298  74.0605604
  76.7766817 129.8843939  70.8162441  76.4125024 129.3574560  71.5275362
  77.6333933 129.4942409  70.6428926  82.6816118 121.1738272  78.0793707
  82.3499442 122.0433683  77.8554922  82.0861731 120.8574556  78.7587737
  76.4172304 124.9133839  65.8123789  76.5846706 125.7814076  66.1794260
  76.2269473 125.0761121  64.8885079  82.5744781 125.8933358  75.1587057
  81.6661658 125.8248767  74.8645818  82.5232377 126.3705303  75.9868883
  76.3961525 127.3691497  66.7970456  76.2761150 127.8148547  67.6355937
  75.7014113 127.7176814  66.2383994  76.6485647 127.3123004  83.1021954
  75.8718981 127.8716924  83.0924819  77.2876210 127.7979787  83.6236825
  84.4406427 124.0949797  76.9364931  83.7980808 124.3882330  76.2904726
  83.9361356 123.9802717  77.7418128  82.0946591 127.8412970  67.6250790
  83.0064447 128.0740357  67.4498488  81.5856238 128.4250014  67.0625869
  76.7318429 127.2010204  78.6345640  77.5779624 127.6249618  78.7780289
  76.6717066 126.5443829  79.3284203  79.8817874 124.8614573  80.2926813
  79.6378806 125.6156633  79.7561089  80.1577805 125.2399920  81.1274061
  79.4382566 124.0171006  75.8740651  78.5767045 124.3152259  76.1657389
  79.4645001 124.2341405  74.9421684  75.1913021 128.6836349  69.0904022
  75.8937065 129.1357392  69.5577948  74.8593650 128.0420168  69.7183915
  73.6393383 127.2748105  83.4655231  73.0092043 127.9564386  83.6990628
  73.5329471 127.1631187  82.5208370  68.9338355 126.9419901  74.3921156
  68.1437409 127.1977430  73.9161266  69.4249603 127.7568239  74.4973196
  70.8853101 127.3064481  71.3504632  70.0884264 127.4183175  71.8688128
  70.6578693 127.6451133  70.4845523  72.9174126 121.5768871  85.8280482
  72.5241071 121.0235070  86.5028127  73.7340266 121.8879450  86.2187000
  75.8342087 122.9926750  83.4200739  76.5751800 123.5933903  83.3405201
  76.0660009 122.2504388  82.8618782  79.7799250 119.0207853  77.6965021
  79.4363519 119.9109495  77.6204131  80.1478212 118.8309511  76.8334606
  79.7449532 129.0116464  66.2037456  79.2296156 129.7821069  66.4425843
  79.4726841 128.3381601  66.8270517  77.3296643 123.8566165  71.2622694
  76.4738240 123.4673016  71.0828333  77.7423595 123.9358126  70.4022480
  78.8595790 121.3912508  75.6614254  78.3560586 121.3542644  74.8482059
  79.1526397 122.3005251  75.7210911  75.1038676 121.4751238  74.6680436
  75.9691673 121.2794047  74.3086325  75.1716185 121.2461590  75.5949792
  79.5335835 126.8843556  68.0297237  79.2285971 127.1989706  68.8807380
  80.4866278 126.9624976  68.0724570  72.7100995 123.7053446  72.0396802
  73.2844747 123.4828628  71.3069995  73.2971977 123.7742141  72.7925404
  81.7680572 129.5927173  72.8461179  82.2812454 130.2257165  73.3482889
  82.4181796 128.9928368  72.4804539  73.0370582 125.7357907  66.0592688
  72.2007894 126.0732594  66.3801962  72.8975352 125.6006887  65.1219825
  75.0123663 120.5794695  70.7671872  74.3588075 120.2643712  70.1428487
  74.9704137 119.9570435  71.4931695  78.2461403 127.0676628  75.0919520
  77.3283964 127.2891576  74.9341208  78.6621547 127.1422939  74.2331227
  79.0296451 128.4668044  70.2222200  79.7768270 128.9789441  69.9129322
  79.2988040 128.1452097  71.0826593  81.4775288 125.5025160  72.2040989
  80.7398045 124.9902547  72.5351232  81.7302061 125.0625542  71.3924266
  81.5786915 118.2801412  72.7982758  81.8845792 117.4198776  72.5108673
  82.3039520 118.8719033  72.5981752  75.8507995 128.5755205  73.3058949
  75.9056605 127.6229042  73.2301426  75.0399197 128.7314645  73.7900248
  73.7900355 127.1932265  71.0649328  72.9768220 127.4926436  71.4714520
  74.2859349 126.7987954  71.7823811  79.3874567 127.6574090  79.8964222
  79.7423954 127.8845563  80.7558688  80.0346698 127.9892467  79.2741477
  73.2814430 124.7650621  76.6810563  73.9213809 124.6239380  75.9833527
  72.4491960 124.4785134  76.3049165  70.3657497 128.2096133  68.8705308
  69.4355085 128.1480588  69.0875271  70.4614969 127.6872086  68.0741950
  70.2843046 124.7350946  71.4583550  70.5449863 125.6496279  71.3492711
  71.1060218 124.2675388  71.6080163  71.7567971 126.1488703  78.6282375
  72.4291025 125.9406065  77.9795024  70.9297758 125.9510789  78.1887607
  77.6593543 122.7750644  80.6448035  77.0121458 123.4740594  80.5512512
  78.4294559 123.2086788  81.0124284  77.8357678 130.6131409  78.7044855
  78.7649738 130.7642568  78.5313823  77.4148708 130.7015430  77.8493502
  74.7877769 129.1351265  78.8768491  75.4977388 128.4944457  78.8355110
  74.7447077 129.3864160  79.7994672  73.5006703 126.1216483  80.6964131
  72.9644060 125.6707222  81.3485727  72.9123412 126.2562392  79.9534595
  72.9108962 125.5805135  63.2590595  72.0338429 125.4593935  62.8952841
  73.3866715 124.7891213  63.0069483  69.2345824 125.2572491  77.7817125
  69.1504013 124.6498160  77.0467535  68.4128531 125.7481509  77.7826622
  79.4069538 123.7426054  73.1487320  79.9038238 122.9896017  72.8288391
  78.6356520 123.7790371  72.5830530  75.9904507 125.8843437  72.8759005
  75.6202295 125.3314478  73.5639911  76.4863600 125.2801571  72.3234005
  83.8771870 128.3415061  71.2575778  84.3432323 129.1743052  71.1836081
  84.3279371 127.8760042  71.9621036  81.8488533 120.7095648  75.2966679
  80.9351613 120.9399875  75.4648886  82.2781635 120.7934092  76.1480712
  81.6194992 128.8985540  77.7966573  80.9666442 129.1461447  77.1419026
  81.9975372 128.0849678  77.4629051  77.6682565 129.6405351  84.2832610
  76.9923202 129.5399480  84.9534986  78.4910199 129.4844565  84.7468608
  71.3869841 123.2947428  79.1212111  71.4511167 124.1562259  78.7089509
  71.3236961 122.6821430  78.3884470  70.8622113 125.3670561  82.7685145
  71.4894152 124.9847638  83.3822670  70.0050032 125.1484763  83.1340838
  67.6387656 127.1746990  68.7003500  67.9341097 126.2657668  68.6470554
  66.7375692 127.1534729  68.3784503  71.1681903 125.2502986  74.6831049
  70.4468489 125.8638954  74.5438522  71.9575159 125.7860751  74.6047695
  73.9708217 122.5857413  80.9571701  74.4942618 122.8319709  81.7198010
  73.7520550 123.4177448  80.5374838  69.3675498 124.8561087  68.8242825
  69.0388204 123.9758466  68.6417931  69.7214868 124.8008756  69.7119215
  72.4817321 125.1434057  69.1918303  72.8213393 125.6719978  68.4696911
  72.9289441 125.4814463  69.9676870  75.1760762 123.5271108  78.6421371
  74.8357582 122.7278921  79.0442051  74.4699768 123.8272819  78.0698204
  75.8277233 120.6120420  77.0948694  76.6503303 120.1380899  76.9727584
  76.0715297 121.3910904  77.5947380  74.4685468 123.6408679  67.3911596
  75.1893830 124.0189932  66.8875313  73.8450772 124.3597556  67.4946574
  78.6116591 124.3453828  68.3269928  78.8280205 125.2278466  68.0258756
  78.1310658 123.9540041  67.5975570  73.3515812 127.3039541  74.9040673
  73.2060393 127.6179844  75.7964954  72.8741016 127.9224441  74.3511571
  75.2112195 124.2942089  74.9521562  75.1973764 123.3983182  74.6153860
  75.9284623 124.3012753  75.5859848  77.0638326 124.7279429  76.9974690
  76.8056104 125.6496500  76.9959020  76.5323366 124.3309864  77.6875154
  74.6149091 123.1756469  70.2209132  74.7365002 122.2473115  70.4200020
  74.3251133 123.1895155  69.3087448  77.4840281 120.8611380  73.3575852
  77.5061978 120.9250713  72.4027832  77.9008340 120.0215888  73.5516358
  74.0990171 124.6888467  84.4299065  74.1478326 125.5650589  84.0476835
  74.6412685 124.1465860  83.8570708  81.9946654 128.0652984  82.3392237
  82.8956516 127.9259449  82.0476235  82.0694628 128.2307439  83.2790415
  76.3289459 125.4419839  81.1845424  75.4592768 125.7353405  80.9128012
  76.5648939 126.0260284  81.9052687  79.0328493 121.6599456  78.7010844
  79.5510437 122.3960483  78.3757333  78.6783626 121.9663449  79.5357603
  70.6127430 126.5204137  66.8172250  69.9196675 126.5948492  66.1612286
  70.3679182 125.7564481  67.3393767  79.2841087 118.0799739  74.2211741
  79.5642841 117.4122928  74.8472167  80.0691694 118.2728834  73.7086404
  83.1549945 126.5017372  77.9683316  84.1067368 126.6015470  77.9895540
  82.9853396 125.7095641  78.4781400  81.1764325 123.5872956  78.1542717
  80.5814257 123.8677968  77.4589205  80.8914022 124.0766857  78.9259458
  77.4721354 128.5919545  63.1252819  78.4180459 128.4625753  63.1941237
  77.0935599 127.8534207  63.6022248  85.7832512 126.5134536  77.1283899
  85.2671560 125.7292992  76.9413827  86.6672460 126.1853252  77.2930418
  83.4443239 120.2575551  73.0879711  83.2468060 119.9490639  73.9723043
  84.0542944 120.9837190  73.2177641  75.6564271 126.5169522  63.0607705
  74.7495727 126.2202634  63.1370418  75.9340252 126.2199340  62.1941991
  77.2726337 121.0606411  69.2151946  76.4627065 120.7153496  69.5907192
  77.9610754 120.7513955  69.8039558  79.2016885 120.1384458  70.8376243
  79.7547924 120.5579911  71.4966266  79.4386972 119.2120206  70.8799199
  75.2249984 126.1271532  86.6179007  75.1246711 127.0765889  86.5491098
  75.0071526 125.7989771  85.7455077  74.4263056 123.3756457  63.2019684
  75.2882220 123.7011355  63.4615501  74.6113400 122.5887953  62.6892750
  82.5795692 122.2484983  70.3454907  81.9994361 122.9069787  69.9632959
  82.3131625 121.4262328  69.9342324  81.0299259 121.6490041  72.5476227
  81.5299037 121.7606575  71.7390546  81.6734867 121.3451094  73.1877036
  81.3620570 124.4085074  69.4011255  80.4746425 124.6934724  69.1831450
  81.7774559 124.2478837  68.5538532  84.7135106 124.4331595  73.1165594
  85.4895497 124.9228047  73.3890211  83.9883241 124.8589649  73.5737464
  87.1507665 125.1459214  74.1739535  87.7452156 124.9054950  73.4632843
  87.2234249 124.4266344  74.8013071  81.3361594 129.9239610  69.6161545
  81.2796795 130.3808161  68.7769178  81.8889936 129.1630294  69.4384388
  85.1466400 125.7129341  70.4411665  84.8903334 125.3125977  71.2719872
  84.5219268 126.4273135  70.3161804  82.0696373 131.1144391  66.9114074
  82.0145177 130.9488662  65.9702519  81.4442429 131.8220424  67.0676264
  66.8588888 126.3512455  80.7375497  67.5047752 125.8411409  81.2262722
  66.6506039 127.0881137  81.3118922  75.3792499 120.6152500  66.4899393
  75.3671169 121.5594340  66.6467664  76.2715921 120.4322645  66.1958854
  79.1944618 117.2095276  70.7445330  78.4277014 116.6553763  70.8902012
  79.6055323 117.2817145  71.6059481  71.1986379 123.4980072  84.8350511
  72.0617841 123.1416877  85.0453835  70.6251790 123.1593967  85.5225915
  15.1678476  14.8300627  62.3658219  15.8056886  14.7107375  61.6621559
  15.0499319  15.7781471  62.4246171  11.9768182  14.7828056  62.3019743
  11.6386694  14.6669120  61.4140278  12.8457951  14.3819221  62.2820749
   7.8354998  16.6363532  58.2916634   7.2719863  16.5453469  57.5232922
   7.7207393  15.8163436  58.7719127  12.4587965  15.9362907  68.2605949
  12.4476606  15.5415706  67.3886452  12.6208605  15.2028980  68.8539720
   5.3819430  18.1314724  61.1300855   6.1740722  17.7905548  60.7147154
   5.6216080  18.2409699  62.0503008  13.4154557  20.3034500  53.6031099
  12.7642537  20.8888580  53.2165113  14.2098920  20.8340695  53.6626137
   7.3410184  17.3923637  54.0018233   8.1141060  16.8452624  53.8631109
   7.6935583  18.2567886  54.2132695   9.1795226  18.7200019  67.2085133
   8.8885092  19.6245650  67.0931799   9.8152211  18.7616547  67.9229202
  10.1051433  16.0976868  63.7986492  10.7015006  15.8732890  63.0843455
  10.1626405  15.3561613  64.4011940   9.6776462  13.5516303  51.6336683
   9.9301982  13.0297824  50.8720146   8.7401021  13.3882448  51.7363367
  14.7219745  12.5552081  59.4411427  15.5082834  12.1371504  59.0901844
  14.9858449  13.4598173  59.6093075  14.8929822  17.9924932  54.1400083
  14.2575655  18.0659558  54.8520988  14.5627228  18.5818530  53.4619163
  20.1228172  12.4927315  60.3444405  20.8553344  11.9226531  60.5782235
  19.3667527  12.1048915  60.7850911   9.3972750  15.4544409  53.8361058
   9.2809009  14.7789312  54.5042143   9.5075010  14.9676783  53.0193211
  11.7404291  14.9154556  57.5407748  11.3762499  14.3885177  58.2520669
  12.5971407  14.5253025  57.3674233  14.1385112  18.4061435  64.2034926
  13.8385835  19.3086473  64.0950734  13.7936171  18.1393618  65.0556079
   7.5897593  14.8575231  60.2371631   6.6648090  14.7251446  60.4449323
   7.8382006  15.6369451  60.7341573  17.5382255  10.9243975  61.8832364
  16.6299133  10.8559383  61.5891125  17.4869851  11.4015920  62.7114189
  11.3598999  12.4002113  53.5215763  11.2398624  12.8459164  54.3601243
  10.6651588  12.7487431  52.9629301   9.1205891  25.1705755  57.1705894
   9.0429921  26.1213580  57.2494375   8.5167535  24.8251627  57.8280820
  11.6123121  12.3433620  69.8267261  10.8356455  12.9027541  69.8170126
  12.2513684  12.8290403  70.3482131  19.4043902   9.1260413  63.6610238
  18.7618282   9.4192946  63.0150032  18.8998830   9.0113334  64.4663434
  17.0584065  12.8723586  54.3496097  17.9701922  13.1050973  54.1743794
  16.5493712  13.4560631  53.7871176   9.8669493  15.1519074  69.3885228
  10.6084178  15.6904118  69.1120052   9.1606479  15.7785362  69.5456780
  15.3424833  17.2948214  67.9857390  15.7508189  16.8530625  67.2412022
  14.6202095  16.7200842  68.2391582  11.6955903  12.2320821  65.3590946
  12.5417098  12.6560235  65.5025595  11.6354541  11.5754445  66.0529510
  15.6653648  17.8549405  61.7409678  15.0362510  18.0195119  61.0385746
  15.2779310  18.2691014  62.5120642  19.5442880  18.7903843  59.0954042
  18.8593918  19.1702744  58.5451075  19.6286729  19.3999169  59.8285990
  14.8455348   9.8925189  67.0172120  14.6016280  10.6467250  66.4806396
  15.1215279  10.2710537  67.8519367  16.7993811  16.4363802  65.6949386
  17.0110706  17.0795562  65.0183767  16.7523559  15.6026118  65.2271316
  14.4020040   9.0481622  62.5985958  13.5404519   9.3462876  62.8902695
  14.4282475   9.2652021  61.6666990  11.2181610  17.5923813  59.0059764
  11.6819955  17.8711516  58.2164386  10.9538408  16.6907257  58.8232854
   8.1105691  17.1395294  61.9439527   8.6807048  17.5682563  61.3057011
   8.7013803  16.8577879  62.6423712  10.1550496  13.7146965  55.8149329
  10.8574539  14.1668009  56.2823255   9.8231124  13.0730784  56.4429222
  17.9139639  19.3135757  63.8671743  18.7357083  18.9115944  63.5854425
  17.9102042  19.2103991  64.8187859  11.6796243  18.8619800  66.0232454
  11.7440675  19.3240208  66.8590625  10.9707166  18.2317165  66.1514763
  26.0045632  15.6574506  60.2156715  25.2509341  15.0881904  60.0600719
  26.1393173  15.6237170  61.1627349  11.3944260  20.5287908  55.8911434
  11.2589935  21.3739444  56.3196282  11.9354073  20.7307186  55.1277368
   4.8473658  18.0463346  56.4639359   5.3598178  18.8406596  56.6144924
   5.4996370  17.3489636  56.3972960   6.6568542  21.1629102  58.5462112
   6.8335171  22.0847067  58.3583096   7.4525376  20.8487521  58.9756492
  13.0212737  21.1511474  70.0211776  12.5776591  20.3647853  69.7032680
  13.6829950  21.3390625  69.3555667   7.7799858  22.6807276  64.5472454
   8.3307283  22.5524339  63.7749448   6.9411334  22.9802165  64.1967347
  15.1193975  21.4314274  68.0493177  15.1012450  22.2523155  67.5573446
  16.0413895  21.3068350  68.2743318  11.5767029  18.9458404  68.8916686
  12.1095366  18.1846692  68.6615994  11.0481110  18.6532056  69.6340840
  14.7087007  14.0427081  52.9282762  14.1933630  14.8131686  53.1671150
  14.4364315  13.3692217  53.5515824  19.6821281  16.7959436  54.8635936
  18.9050723  16.4570595  54.4191098  20.3612762  16.8012059  54.1890901
  14.4973310  11.9154173  54.7542544  14.1923445  12.2300322  55.6052687
  15.4503752  11.9935593  54.7969877  12.9419742  18.0744396  56.4035498
  12.4141103  17.3397156  56.0908735  12.4407244  18.8519073  56.1575466
  17.9212588  16.2693417  61.5202544  17.2636262  16.9592678  61.6082673
  18.7252987  16.6589849  61.8636530  16.7318046  14.6237789  59.5706486
  17.2449928  15.2567781  60.0728195  17.3819270  14.0238985  59.2049846
  11.0872342  15.8924607  49.4070471  10.1799404  15.6613860  49.6061620
  11.5843374  15.0962226  49.5944452  13.9940421  24.6022114  52.3267157
  13.3202119  24.9053811  52.9352115  14.3806243  25.4051194  51.9772614
  13.2098877  12.0987245  61.8164826  12.2921439  12.3202192  61.6586514
  13.6259021  12.1733556  60.9576534  13.9933925  13.4978661  56.9467506
  14.7405744  14.0100058  56.6374628  14.2625515  13.1762713  57.8071900
  12.2660575  15.9937201  53.9294461  11.3571794  15.7096234  54.0266930
  12.2955659  16.4136280  53.0697768  17.4979843  19.6043791  57.6985628
  17.0442170  18.7634701  57.7550819  16.8673809  20.2405189  58.0360408
  16.4412762  10.5335777  58.9286296  15.7035519  10.0213163  59.2596538
  16.6939536  10.0936159  58.1169573  15.9412782  21.4420288  58.6335446
  16.2335756  22.0025345  57.9147812  16.4511402  21.7348849  59.3888606
  10.8145469  13.6065822  60.0304256  10.8694079  12.6539658  59.9546733
  10.0036671  13.7625261  60.5145554  11.9636663  17.5345945  51.2682539
  11.5256093  16.8181804  50.8088177  12.7047104  17.7622060  50.7067631
  10.9046407  22.2200639  59.7228900  10.8622586  22.4461485  58.7937432
  11.8209106  21.9864013  59.8714701  14.3512041  12.6884706  66.6209529
  14.7061429  12.9156179  67.4803995  14.9984172  13.0203083  65.9986784
  20.0809778  15.8103142  57.3258858  19.9427676  16.0004738  56.3980047
  19.7245997  16.5722525  57.7826909  20.1079157  17.8779669  62.3370129
  20.5415664  17.7854958  63.1853183  20.8210738  17.8537170  61.6990145
   9.0212208  19.0963668  59.5190862   9.8152806  18.6013988  59.3173437
   8.3103900  18.5681531  59.1558568  13.8407052  21.4781763  63.8703230
  13.8944075  22.0472700  64.6380946  12.9721834  21.6483648  63.5057267
  20.9694707  17.9203370  64.8703015  21.1630597  18.8249180  65.1162290
  20.8695325  17.4610789  65.7041600  16.0309816  18.0710113  70.4443895
  15.8795322  17.8420664  69.5273979  16.0214495  19.0280714  70.4575240
  12.7995152  15.6442025  65.4290162  13.7287212  15.7953185  65.2559129
  12.3786182  15.7326046  64.5738808  11.5983484  19.6692690  63.1988699
  11.4594570  19.3011474  64.0714638  10.8098080  20.1840329  63.0272657
  12.1931636  24.7701786  54.5414236  12.3683391  24.2989829  55.3559859
  11.5064424  25.3967552  54.7695497  13.1488699  19.0474292  60.5877537
  12.8138532  19.0075062  61.4835187  12.6492645  18.3819008  60.1147947
   7.1232943  14.4541922  66.1130118   6.9852741  13.7222161  66.7141657
   8.0337866  14.3650823  65.8314306  16.0847891  16.3930327  50.8614597
  15.4677061  15.6677155  50.7647650  15.6164379  17.1539687  50.5181671
   9.7515244  14.1661882  65.6013798  10.4614862  13.5255074  65.5600416
   9.7084552  14.4174777  66.5239979  17.7402022  21.1029235  68.5220377
  17.6814568  20.4188455  67.8550960  18.1421541  21.8448225  68.0701003
   6.7592721  27.9191149  61.3154096   6.9989319  28.5509673  61.9933115
   5.9161918  27.5679189  61.6019455  17.7419430  19.0668819  66.7534357
  16.8546208  18.7294741  66.8760756  18.3117981  18.3351850  66.9903122
  11.2720583  23.7270271  63.7195600  11.1990754  24.5325243  64.2314905
  10.8297976  23.9262237  62.8943622  11.0610363  22.9642041  57.2298422
  10.2777884  23.5063722  57.3236646  11.7603108  23.4816021  57.6292663
  22.2236770  14.4777036  61.5150919  22.2126646  15.3601752  61.1444852
  21.3554150  14.1248587  61.3205456  13.7319266  23.6257105  65.8753759
  14.4447239  24.2604570  65.8029660  13.2409295  23.7220971  65.0593761
  15.4536793  17.5308358  57.4471050  14.5193072  17.6509821  57.2775755
  15.6313462  16.6280825  57.1831060  18.8409345  13.3725677  57.9821085
  19.3069797  14.2053669  57.9081387  19.2916845  12.9070659  58.6866343
   8.7831180  21.3751549  66.6959330   9.4840639  22.0088032  66.8488724
   8.3126295  21.7166280  65.9354969  16.9085576  19.7169499  54.9807237
  17.1845420  19.6026093  55.8901111  16.0390075  19.3186984  54.9419410
  16.5832466  13.9296156  64.5211880  15.9303916  14.1772064  63.8664333
  16.9612846  13.1160295  64.1874357  13.5439640  23.9655850  58.6240050
  13.7262034  23.1477505  59.0867803  14.3672626  24.1823542  58.1864940
  13.8781805  22.8924035  55.8855099  14.4069572  22.3816489  55.2725261
  14.1410025  22.5766565  56.7500632  12.6320039  14.6715967  71.0077917
  11.9560676  14.5710097  71.6780292  13.4547673  14.5155181  71.4713914
   4.3798898  20.9087904  63.6290432   4.9652335  20.1631592  63.7618336
   4.1823737  21.2191861  64.5127096   7.2337553  23.9439151  58.6452875
   6.5647929  24.4285279  58.1616915   7.0950423  24.1908372  59.5596253
  11.3742822  25.9782895  65.2435533  11.9261130  26.1414516  66.0084618
  11.7149015  26.5687333  64.5715558  16.2253696  20.8044152  71.0984187
  16.7693600  21.4174111  70.6039142  15.6440541  21.3623731  71.6151200
  14.5111209  23.9264870  62.2299215  14.3862349  23.1254610  61.7210161
  15.1690300  24.4211064  61.7413185  16.5746118  21.7273890  63.8578765
  15.6276453  21.6079242  63.7857092  16.9228891  20.8396388  63.9405027
  13.5792551  21.5226607  60.0583118  13.4317513  20.5943314  60.2390688
  14.4046044  21.5446697  59.5740193  17.1826673  22.3455165  61.1447990
  18.1073220  22.1398027  61.0072441  17.0141976  22.0971567  62.0537332
  16.9721989  22.8640833  56.5010082  17.1458866  22.2987255  55.7483934
  17.4650880  23.6641728  56.3189572  22.8261380  15.6277256  58.1200381
  23.2692526  14.8784581  57.7219505  21.9487890  15.6187392  57.7374113
  17.9597161  22.1807597  53.6006980  18.6548066  22.8014290  53.8194295
  18.3020312  21.3302948  53.8759358  19.8588584  19.6307303  55.1294311
  20.3839909  19.9694576  54.4043631  19.7710937  18.6954318  54.9457445
  11.5208633  23.5441376  67.2584187  11.8295760  23.2990523  68.1306887
  12.3184115  23.7488015  66.7703058  11.5429245  25.6979286  59.4889564
  11.1034236  25.2055665  60.1822421  12.2937362  25.1552254  59.2481639
   4.0221584  21.8890827  59.4914192   4.8479604  21.5894599  59.1112836
   3.6715636  21.1198449  59.9403981   8.9903117  21.2417295  61.5611866
   8.3683127  20.5788000  61.2614093   9.6607984  21.2678427  60.8785513
   2.2230189  19.8077153  60.4503126   1.3862098  19.3799328  60.2687127
   2.1953835  20.0009597  61.3873917  19.5482491  20.2640206  70.4345509
  18.7578034  20.2464345  69.8950008  19.3115845  20.8028500  71.1894545
  19.6680366  17.1132673  67.7478237  19.7178371  16.9482680  68.6893760
  19.5594289  16.2459932  67.3576118   8.5516624  19.7921219  55.0370326
   8.7004745  20.4756683  54.3836999   9.3583068  19.7726309  55.5519782
  16.9584128  13.0963601  69.0637544  17.8593991  12.9570066  68.7721542
  17.0332103  13.2618056  70.0035721  21.1698562  19.5329614  67.9920259
  20.8783371  19.8959595  68.8283720  20.5570694  18.8196623  67.8133591
  22.3694245  17.0982494  60.5122829  23.2041136  17.5372298  60.6760389
  22.5053374  16.6221147  59.6931075  19.4185751  14.6562229  66.4600317
  19.8939872  14.8489875  65.6519168  18.4951316  14.7121415  66.2143700
   6.3069257  15.8186396  56.0431395   6.0615299  14.9148726  56.2411605
   6.4765172  15.8203547  55.1010873  12.0512030  22.2869349  52.5082074
  11.4785997  22.9059536  52.0552545  12.6244823  22.8368711  53.0421996
  18.1187420  11.5327989  64.6928622  19.0704843  11.6326087  64.7140846
  17.9490870  10.7406258  65.2026707  16.1401799   8.6183572  64.8788023
  15.5451731   8.8988585  64.1834512  15.8551496   9.1077473  65.6504764
  15.2709290  22.5706499  53.6390656  16.2039963  22.5052061  53.8423531
  15.1832502  23.4062766  53.1805189  17.8997306  21.8872369  50.5994603
  17.8210938  21.5532233  51.4930361  18.7206973  22.3794137  50.5986076
  20.5975497  14.7534109  63.8070922  20.5651818  13.8150109  63.9930606
  21.2076121  14.8318145  63.0736747  12.4358828  13.6230162  49.8498126
  13.3817933  13.4936370  49.9186544  12.0573073  12.8844824  50.3267554
  20.7469986  11.5445152  63.8529205  20.2309035  10.7603609  63.6659134
  21.6309934  11.2163869  64.0175725  26.4152047  15.8150116  62.9476959
  27.1455436  15.5535404  63.5084662  25.8058993  15.0778838  62.9879027
  24.4967344  13.9557978  63.5451410  23.7700508  13.8213943  62.9367902
  24.0814631  14.2634807  64.3508128  12.3197521  17.6747908  71.3098783
  13.2400530  17.8526507  71.5038830  12.2847104  16.7303953  71.1578482
   5.3159593  15.5848942  63.9521564   5.5345603  16.5166050  63.9709598
   5.7285367  15.2256917  64.7376368  17.5433167   7.2795600  57.0700214
  16.9631836   7.9380404  56.6878266  17.2769099   6.4572944  56.6587631
  10.0518729  14.5879287  72.1589375   9.5685810  15.3879647  72.3653264
  10.1379668  14.5987232  71.2056819   3.3204688  16.4207667  60.0811194
   3.2975376  16.5195354  59.1293077   3.6305325  17.2672818  60.4028360
   5.9792066  18.4783822  64.1957809   6.9335320  18.4467764  64.1287740
   5.7804590  18.0174446  65.0108035   6.5691448  17.0484938  66.7628606
   7.3884337  17.5429017  66.7863444   6.8428256  16.1316906  66.7346174
  16.3258045   9.4395690  56.1256562  15.4383900   9.7245341  55.9076757
  16.7412034   9.2789454  55.2783839  19.6772581   9.4642211  59.8410901
  20.4532971   9.9538664  60.1135518  18.9520715   9.8900265  60.2982771
  22.1145139  10.1769830  60.8984842  22.7089630   9.9365566  60.1878150
  22.1871723   9.4576961  61.5258378   4.3342295  24.0203441  61.2128006
   4.1996763  23.2603842  60.6466005   3.9174357  24.7444341  60.7456795
  15.4701258  19.2040365  50.2204582  16.1737108  19.4090367  50.8362237
  14.7463907  19.7717127  50.4853665  16.2999068  14.9550226  56.3406852
  16.2434270  15.4118778  55.5014484  16.8527411  14.1940911  56.1629695
  20.1103874  10.7439958  57.1656971  19.8540808  10.3436594  57.9965179
  19.4856742  11.4583752  57.0407111  24.4216212  13.4836031  59.6728263
  23.8615770  13.5529221  60.4459825  23.8159715  13.3077016  58.9527759
   7.4911421  24.9172758  61.4246449   7.3743805  25.8618191  61.3225139
   6.6703867  24.6146320  61.8132248  17.3787955  19.6422894  52.2703042
  18.2133559  19.2104092  52.0880517  17.2172298  19.4704908  53.1979936
  17.0333848  16.1455007  53.6359381  16.9782651  15.9799279  52.6947825
  16.4079903  16.8531040  53.7921571  14.3479755  18.4503919  72.9612944
  15.2170914  18.6244571  72.5999579  13.8686506  19.2698336  72.8388673
   8.5165935  25.5701020  64.6402378   9.4193182  25.6024630  64.9568872
   8.2903305  24.6401471  64.6548713  10.2719537  24.3232007  61.3012456
   9.3215168  24.3233868  61.1876828  10.5752023  23.5764741  60.7848491
  26.0072231  30.1592545  62.3658219  26.6450641  30.0399292  61.6621559
  25.8893073  31.1073389  62.4246171  22.8161937  30.1119973  62.3019743
  22.4780448  29.9961038  61.4140278  23.6851705  29.7111138  62.2820749
  18.6748753  31.9655450  58.2916634  18.1113618  31.8745387  57.5232922
  18.5601148  31.1455354  58.7719127  23.2981720  31.2654825  68.2605949
  23.2870361  30.8707623  67.3886452  23.4602359  30.5320898  68.8539720
  16.2213184  33.4606641  61.1300855  17.0134476  33.1197466  60.7147154
  16.4609835  33.5701616  62.0503008  24.2548311  35.6326417  53.6031099
  23.6036291  36.2180498  53.2165113  25.0492674  36.1632612  53.6626137
  18.1803938  32.7215555  54.0018233  18.9534814  32.1744542  53.8631109
  18.5329337  33.5859804  54.2132695  20.0188981  34.0491937  67.2085133
  19.7278847  34.9537568  67.0931799  20.6545965  34.0908464  67.9229202
  20.9445188  31.4268785  63.7986492  21.5408760  31.2024808  63.0843455
  21.0020159  30.6853531  64.4011940  20.5170216  28.8808221  51.6336683
  20.7695737  28.3589742  50.8720146  19.5794775  28.7174366  51.7363367
  25.5613499  27.8843999  59.4411427  26.3476588  27.4663422  59.0901844
  25.8252203  28.7890091  59.6093075  25.7323576  33.3216849  54.1400083
  25.0969409  33.3951476  54.8520988  25.4020983  33.9110448  53.4619163
  30.9621926  27.8219232  60.3444405  31.6947098  27.2518449  60.5782235
  30.2061282  27.4340833  60.7850911  20.2366505  30.7836327  53.8361058
  20.1202763  30.1081230  54.5042143  20.3468765  30.2968701  53.0193211
  22.5798046  30.2446474  57.5407748  22.2156253  29.7177095  58.2520669
  23.4365162  29.8544943  57.3674233  28.4847347  21.5340806  64.8039014
  28.1530671  22.4036217  64.5800229  27.8892960  21.2177090  65.4833044
  22.2203533  25.2736373  52.5369096  22.3877935  26.1416610  52.9039567
  22.0300702  25.4363655  51.6130385  24.9778866  33.7353352  64.2034926
  24.6779589  34.6378391  64.0950734  24.6329926  33.4685535  65.0556079
  18.4291348  30.1867149  60.2371631  17.5041844  30.0543363  60.4449323
  18.6775761  30.9661368  60.7341573  28.3776010  26.2535892  61.8832364
  27.4692887  26.1851301  61.5891125  28.3263606  26.7307837  62.7114189
  22.1992754  27.7294031  53.5215763  22.0792379  28.1751082  54.3601243
  21.5045342  28.0779349  52.9629301  15.7900159  29.8300423  61.0715420
  15.9192540  30.0834902  61.9854832  15.1097610  30.4228131  60.7520075
  19.9599646  40.4997673  57.1705894  19.8823676  41.4505498  57.2494375
  19.3561289  40.1543545  57.8280820  22.4516876  27.6725538  69.8267261
  21.6750210  28.2319458  69.8170126  23.0907439  28.1582321  70.3482131
  30.2437656  24.4552331  63.6610238  29.6012036  24.7484864  63.0150032
  29.7392585  24.3405251  64.4663434  27.8977820  28.2015504  54.3496097
  28.8095676  28.4342891  54.1743794  27.3887467  28.7852548  53.7871176
  20.7063248  30.4810991  69.3885228  21.4477932  31.0196035  69.1120052
  20.0000233  31.1077280  69.5456780  26.1818588  32.6240132  67.9857390
  26.5901944  32.1822542  67.2412022  25.4595849  32.0492759  68.2391582
  22.5349658  27.5612739  65.3590946  23.3810853  27.9852152  65.5025595
  22.4748295  26.9046363  66.0529510  26.5047402  33.1841323  61.7409678
  25.8756265  33.3487037  61.0385746  26.1173064  33.5982932  62.5120642
  30.3836634  34.1195760  59.0954042  29.6987672  34.4994662  58.5451075
  30.4680483  34.7291087  59.8285990  25.6849103  25.2217107  67.0172120
  25.4410035  25.9759168  66.4806396  25.9609033  25.6002455  67.8519367
  27.6387566  31.7655719  65.6949386  27.8504461  32.4087479  65.0183767
  27.5917314  30.9318036  65.2271316  25.2413795  24.3773540  62.5985958
  24.3798274  24.6754794  62.8902695  25.2676229  24.5943939  61.6666990
  22.0575364  32.9215731  59.0059764  22.5213710  33.2003434  58.2164386
  21.7932162  32.0199175  58.8232854  18.9499445  32.4687212  61.9439527
  19.5200802  32.8974481  61.3057011  19.5407557  32.1869797  62.6423712
  20.9944250  29.0438883  55.8149329  21.6968293  29.4959927  56.2823255
  20.6624879  28.4022702  56.4429222  19.4424612  27.6350640  70.1900538
  18.8123272  28.3166920  70.4235935  19.3360700  27.5233721  69.2453676
  14.7369584  27.3022436  61.1166462  13.9468638  27.5579964  60.6406573
  15.2280831  28.1170773  61.2218503  28.7533394  34.6427675  63.8671743
  29.5750837  34.2407862  63.5854425  28.7495797  34.5395909  64.8187859
  16.6884329  27.6667015  58.0749939  15.8915493  27.7785709  58.5933435
  16.4609922  28.0053667  57.2090829  22.5189997  34.1911718  66.0232454
  22.5834430  34.6532125  66.8590625  21.8100921  33.5609083  66.1514763
  13.0207287  27.5552926  63.5481453  13.2715326  28.4399936  63.8139029
  13.5566835  27.3757528  62.7756545  36.8439387  30.9866423  60.2156715
  36.0903095  30.4173821  60.0600719  36.9786928  30.9529088  61.1627349
  22.2338015  35.8579826  55.8911434  22.0983690  36.7031361  56.3196282
  22.7747827  36.0599103  55.1277368  18.7205354  21.9371405  72.5525789
  18.3272300  21.3837604  73.2273433  19.5371495  22.2481984  72.9432307
  15.6867412  33.3755264  56.4639359  16.1991933  34.1698514  56.6144924
  16.3390125  32.6781554  56.3972960  17.4962297  36.4921020  58.5462112
  17.6728925  37.4138985  58.3583096  18.2919130  36.1779439  58.9756492
  21.6373315  23.3529285  70.1446046  22.3783029  23.9536438  70.0650508
  21.8691238  22.6106922  69.5864088  16.7814653  28.5385652  68.4224275
  16.6668169  27.6370909  68.7231374  15.9259171  28.7849349  68.0709092
  23.8606491  36.4803392  70.0211776  23.4170345  35.6939771  69.7032680
  24.5223705  36.6682543  69.3555667  18.6193612  38.0099194  64.5472454
  19.1701037  37.8816257  63.7749448  17.7805088  38.3094083  64.1967347
  25.9587729  36.7606192  68.0493177  25.9406205  37.5815073  67.5573446
  26.8807649  36.6360267  68.2743318  22.4160783  34.2750322  68.8916686
  22.9489120  33.5138610  68.6615994  21.8874864  33.9823973  69.6340840
  25.5830478  19.3810387  64.4210327  25.2394748  20.2712029  64.3449438
  25.9509441  19.1912045  63.5579912  13.6516329  31.7043918  57.2398929
  14.4891551  32.1140926  57.0232637  13.8294597  30.7643360  57.2099123
  25.5480761  29.3718999  52.9282762  25.0327384  30.1423603  53.1671150
  25.2758069  28.6984135  53.5515824  23.1327872  24.2168699  57.9868001
  22.2769468  23.8275550  57.8073640  23.5454824  24.2960660  57.1267786
  24.6627019  21.7515043  62.3859561  24.1591814  21.7145178  61.5727366
  24.9557626  22.6607785  62.4456217  20.9069905  21.8353772  61.3925742
  21.7722901  21.6396581  61.0331632  20.9747414  21.6064124  62.3195099
  30.5215035  32.1251353  54.8635936  29.7444478  31.7862513  54.4191098
  31.2006516  32.1303976  54.1890901  25.3367064  27.2446091  54.7542544
  25.0317200  27.5592240  55.6052687  26.2897506  27.3227511  54.7969877
  23.7813496  33.4036314  56.4035498  23.2534858  32.6689074  56.0908735
  23.2800999  34.1810990  56.1575466  28.7606342  31.5985334  61.5202544
  28.1030017  32.2884596  61.6082673  29.5646741  31.9881766  61.8636530
  18.5132224  24.0655980  58.7642109  19.0875976  23.8431162  58.0315302
  19.1003206  24.1344675  59.5170710  27.5711801  29.9529707  59.5706486
  28.0843683  30.5859699  60.0728195  28.2213025  29.3530903  59.2049846
  18.8401811  26.0960441  52.7837994  18.0039123  26.4335128  53.1047269
  18.7006580  25.9609421  51.8465131  20.8154891  20.9397229  57.4917179
  20.1619304  20.6246246  56.8673793  20.7735366  20.3172970  58.2177001
  21.9266096  31.2216524  49.4070471  21.0193158  30.9905778  49.6061620
  22.4237128  30.4254144  49.5944452  24.8334175  39.9314031  52.3267157
  24.1595874  40.2345728  52.9352115  25.2199997  40.7343112  51.9772614
  24.0492632  27.4279163  61.8164826  23.1315193  27.6494110  61.6586514
  24.4652775  27.5025473  60.9576534  24.8327680  28.8270578  56.9467506
  25.5799498  29.3391976  56.6374628  25.1019269  28.5054631  57.8071900
  23.1054330  31.3229119  53.9294461  22.1965549  31.0388152  54.0266930
  23.1349413  31.7428198  53.0697768  28.3373597  34.9335709  57.6985628
  27.8835924  34.0926618  57.7550819  27.7067564  35.5697107  58.0360408
  27.2806517  25.8627695  58.9286296  26.5429273  25.3505081  59.2596538
  27.5333290  25.4228076  58.1169573  26.7806536  36.7712205  58.6335446
  27.0729511  37.3317262  57.9147812  27.2905157  37.0640766  59.3888606
  27.3818144  18.6403947  59.5228065  27.6877021  17.7801310  59.2353980
  28.1070749  19.2321567  59.3227059  13.6742500  29.0434633  57.9109663
  13.4766900  28.4503994  57.1860729  13.1189164  28.7386843  58.6285602
  21.6539224  28.9357740  60.0304256  21.7087834  27.9831576  59.9546733
  20.8430426  29.0917179  60.5145554  22.8030417  32.8637863  51.2682539
  22.3649847  32.1473722  50.8088177  23.5440858  33.0913978  50.7067631
  19.5931584  27.5534799  57.7894635  18.7799449  27.8528970  58.1959827
  20.0890578  27.1590488  58.5069117  21.7440162  37.5492556  59.7228900
  21.7016340  37.7753403  58.7937432  22.6602860  37.3155931  59.8714701
  25.1905795  28.0176624  66.6209529  25.5455183  28.2448097  67.4803995
  25.8377927  28.3495001  65.9986784  30.9203532  31.1395060  57.3258858
  30.7821431  31.3296656  56.3980047  30.5639751  31.9014443  57.7826909
  19.0845658  25.1253155  63.4055870  19.7245038  24.9841914  62.7078833
  18.2523189  24.8387668  63.0294472  30.9472912  33.2071587  62.3370129
  31.3809419  33.1146876  63.1853183  31.6604493  33.1829087  61.6990145
  19.8605962  34.4255585  59.5190862  20.6546561  33.9305906  59.3173437
  19.1497655  33.8973449  59.1558568  24.6800807  36.8073681  63.8703230
  24.7337829  37.3764617  64.6380946  23.8115588  36.9775566  63.5057267
  16.1688726  28.5698667  55.5950615  15.2386314  28.5083123  55.8120577
  16.2646198  28.0474620  54.7987256  16.0874275  25.0953480  58.1828857
  16.3481092  26.0098813  58.0738017  16.9091447  24.6277923  58.3325470
  17.5599200  26.5091237  65.3527681  18.2322254  26.3008599  64.7040330
  16.7328987  26.3113323  64.9132914  31.8088461  33.2495287  64.8703015
  32.0024352  34.1541098  65.1162290  31.7089080  32.7902707  65.7041600
  23.4624772  23.1353178  67.3693342  22.8152687  23.8343128  67.2757819
  24.2325788  23.5689322  67.7369590  26.8703570  33.4002030  70.4443895
  26.7189077  33.1712582  69.5273979  26.8608250  34.3572632  70.4575240
  23.6388907  30.9733943  65.4290162  24.5680967  31.1245103  65.2559129
  23.2179937  31.0617964  64.5738808  22.4377238  34.9984607  63.1988699
  22.2988324  34.6303392  64.0714638  21.6491835  35.5132247  63.0272657
  23.0325390  40.0993704  54.5414236  23.2077146  39.6281747  55.3559859
  22.3458178  40.7259470  54.7695497  23.9882453  34.3766210  60.5877537
  23.6532286  34.3366980  61.4835187  23.4886399  33.7110926  60.1147947
  17.9626697  29.7833840  66.1130118  17.8246495  29.0514079  66.7141657
  18.8731621  29.6942740  65.8314306  26.9241645  31.7222244  50.8614597
  26.3070816  30.9969073  50.7647650  26.4558134  32.4831605  50.5181671
  20.5908998  29.4953799  65.6013798  21.3008617  28.8546992  65.5600416
  20.5478306  29.7466694  66.5239979  28.5795777  36.4321153  68.5220377
  28.5208323  35.7480373  67.8550960  28.9815295  37.1740143  68.0701003
  19.3037932  26.4819017  67.4209438  18.7675289  26.0309756  68.0731034
  18.7154641  26.6164926  66.6779902  17.5986476  43.2483067  61.3154096
  17.8383074  43.8801591  61.9933115  16.7555672  42.8971107  61.6019455
  18.7140191  25.9407669  49.9835901  17.8369657  25.8196470  49.6198148
  19.1897944  25.1493747  49.7314790  28.5813184  34.3960737  66.7534357
  27.6939963  34.0586659  66.8760756  29.1511735  33.6643768  66.9903122
  10.2342331  30.7284828  60.0777408  10.9213371  30.4146558  59.4898424
  10.0790460  31.6326193  59.8044660  15.0377053  25.6175025  64.5062432
  14.9535242  25.0100695  63.7712842  14.2159760  26.1084043  64.5071928
  22.1114337  39.0562189  63.7195600  22.0384509  39.8617161  64.2314905
  21.6691731  39.2554155  62.8943622  21.9004117  38.2933959  57.2298422
  21.1171639  38.8355639  57.3236646  22.5996862  38.8107939  57.6292663
  25.2100767  24.1028589  59.8732627  25.7069467  23.3498551  59.5533697
  24.4387749  24.1392905  59.3075836  33.0630525  29.8068954  61.5150919
  33.0520401  30.6893670  61.1444852  32.1947904  29.4540505  61.3205456
  24.5713021  38.9549023  65.8753759  25.2840993  39.5896488  65.8029660
  24.0803050  39.0512889  65.0593761  26.2930548  32.8600276  57.4471050
  25.3586827  32.9801738  57.2775755  26.4707216  31.9572743  57.1831060
  21.7935736  26.2445972  59.6004312  21.4233523  25.6917012  60.2885217
  22.2894828  25.6404105  59.0479312  29.6803099  28.7017595  57.9821085
  30.1463551  29.5345587  57.9081387  30.1310600  28.2362577  58.6866343
  19.6224934  36.7043467  66.6959330  20.3234394  37.3379950  66.8488724
  19.1520049  37.0458198  65.9354969  27.7479330  35.0461416  54.9807237
  28.0239174  34.9318011  55.8901111  26.8783829  34.6478901  54.9419410
  27.6519762  21.0698182  62.0211986  26.7382842  21.3002409  62.1894193
  28.0812863  21.1536626  62.8726018  27.4226220  29.2588074  64.5211880
  26.7697671  29.5063981  63.8664333  27.8006600  28.4452212  64.1874357
  24.3833394  39.2947767  58.6240050  24.5655789  38.4769423  59.0867803
  25.2066380  39.5115459  58.1864940  24.7175560  38.2215952  55.8855099
  25.2463326  37.7108407  55.2725261  24.9803779  37.9058483  56.7500632
  23.4713793  30.0007885  71.0077917  22.7954430  29.9002014  71.6780292
  24.2941427  29.8447099  71.4713914  15.2192653  36.2379822  63.6290432
  15.8046089  35.4923510  63.7618336  15.0217491  36.5483778  64.5127096
  18.0731308  39.2731069  58.6452875  17.4041683  39.7577197  58.1616915
  17.9344177  39.5200289  59.5596253   9.8110307  28.8085422  62.3494875
   9.8494407  28.2749013  63.1431994   9.3050600  28.2820627  61.7305853
  22.2136576  41.3074813  65.2435533  22.7654884  41.4706434  66.0084618
  22.5542770  41.8979250  64.5715558  17.1901070  23.6549962  65.8457418
  17.2542396  24.5164793  65.4334815  17.1268190  23.0423964  65.1129776
  16.6653342  25.7273095  69.4930452  17.2925381  25.3450172  70.1067976
  15.8081261  25.5087297  69.8586144  27.0647451  36.1336070  71.0984187
  27.6087355  36.7466028  70.6039142  26.4834296  36.6915648  71.6151200
  13.4418885  27.5349524  55.4248807  13.7372326  26.6260202  55.3715861
  12.5406921  27.5137263  55.1029809  25.3504964  39.2556788  62.2299215
  25.2256103  38.4546528  61.7210161  26.0084055  39.7502981  61.7413185
  16.9713132  25.6105521  61.4076355  16.2499718  26.2241488  61.2683829
  17.7606388  26.1463285  61.3293001  27.4139872  37.0565808  63.8578765
  26.4670208  36.9371159  63.7857092  27.7622645  36.1688306  63.9405027
  19.7739445  22.9459947  67.6817007  20.2973847  23.1922244  68.4443316
  19.5551779  23.7779982  67.2620145  15.1706726  25.2163622  55.5488132
  14.8419433  24.3361001  55.3663238  15.5246097  25.1611290  56.4364521
  24.4186305  36.8518524  60.0583118  24.2711268  35.9235232  60.2390688
  25.2439799  36.8738615  59.5740193  18.2848550  25.5036591  55.9163610
  18.6244622  26.0322513  55.1942218  18.7320670  25.8416998  56.6922176
  28.0220427  37.6747083  61.1447990  28.9466975  37.4689944  61.0072441
  27.8535731  37.4263484  62.0537332  20.9791990  23.8873642  65.3666678
  20.6388811  23.0881455  65.7687358  20.2730997  24.1875353  64.7943511
  21.6308462  20.9722955  63.8194001  22.4534532  20.4983433  63.6972891
  21.8746526  21.7513438  64.3192687  20.2716697  24.0011213  54.1156902
  20.9925059  24.3792466  53.6120619  19.6482001  24.7200090  54.2191880
  24.4147820  24.7056362  55.0515235  24.6311434  25.5881000  54.7504063
  23.9341887  24.3142575  54.3220877  19.1547041  27.6642075  61.6285979
  19.0091622  27.9782378  62.5210261  18.6772245  28.2826976  61.0756878
  21.0143424  24.6544623  61.6766869  21.0004993  23.7585717  61.3399167
  21.7315852  24.6615287  62.3105155  22.8669555  25.0881963  63.7219996
  22.6087332  26.0099034  63.7204327  22.3354595  24.6912398  64.4120460
  27.8115743  38.1932751  56.5010082  27.9852621  37.6279173  55.7483934
  28.3044635  38.9933645  56.3189572  13.6292703  30.2047420  64.5673641
  13.0846171  30.9807228  64.6993915  14.5072053  30.5518224  64.4092762
  20.4180320  23.5359003  56.9454439  20.5396231  22.6075650  57.1445327
  20.1282362  23.5497689  56.0332754  23.2871510  21.2213914  60.0821159
  23.3093207  21.2853247  59.1273138  23.7039569  20.3818423  60.2761665
  33.6655135  30.9569173  58.1200381  34.1086281  30.2076499  57.7219505
  32.7881645  30.9479310  57.7374113  28.7990916  37.5099515  53.6006980
  29.4941820  38.1306208  53.8194295  29.1414066  36.6594866  53.8759358
  14.4158725  29.3317316  67.4603797  13.6740461  29.4799951  68.0468428
  14.0951469  29.5925581  66.5970547  30.6982339  34.9599220  55.1294311
  31.2233663  35.2986493  54.4043631  30.6104692  34.0246236  54.9457445
  22.3602388  38.8733294  67.2584187  22.6689514  38.6282441  68.1306887
  23.1577870  39.0779933  66.7703058  22.3823000  41.0271204  59.4889564
  21.9427990  40.5347582  60.1822421  23.1331117  40.4844171  59.2481639
  14.8615339  37.2182745  59.4914192  15.6873359  36.9186516  59.1112836
  14.5109391  36.4490367  59.9403981  19.8296872  36.5709213  61.5611866
  19.2076881  35.9079918  61.2614093  20.5001739  36.5970345  60.8785513
  13.0623944  35.1369071  60.4503126  12.2255852  34.7091245  60.2687127
  13.0347589  35.3301514  61.3873917  19.9021399  25.0491001  71.1544372
  19.9509555  25.9253124  70.7722141  20.4443914  24.5068394  70.5816015
  30.3876245  35.5932124  70.4345509  29.5971789  35.5756263  69.8950008
  30.1509600  36.1320418  71.1894545  30.5074120  32.4424590  67.7478237
  30.5572125  32.2774598  68.6893760  30.3988043  31.5751850  67.3576118
  19.3910379  35.1213136  55.0370326  19.5398499  35.8048601  54.3836999
  20.1976822  35.1018226  55.5519782  27.7977882  28.4255519  69.0637544
  28.6987745  28.2861983  68.7721542  27.8725857  28.5909973  70.0035721
  22.1320688  25.8022373  67.9090730  21.2623997  26.0955939  67.6373319
  22.3680168  26.3862818  68.6297994  32.0092317  34.8621532  67.9920259
  31.7177125  35.2251513  68.8283720  31.3964448  34.1488540  67.8133591
  33.2087999  32.4274412  60.5122829  34.0434891  32.8664216  60.6760389
  33.3447128  31.9513065  59.6931075  30.2579505  29.9854147  66.4600317
  30.7333627  30.1781793  65.6519168  29.3345071  30.0413332  66.2143700
  17.1463012  31.1478314  56.0431395  16.9009054  30.2440644  56.2411605
  17.3158926  31.1495464  55.1010873  24.8359722  22.0201990  65.4256151
  25.3541666  22.7563017  65.1002639  24.4814854  22.3265983  66.2602910
  16.4158659  26.8806671  53.5417557  15.7227904  26.9551026  52.8857593
  16.1710411  26.1167015  54.0639073  25.0872316  18.4402273  60.9457047
  25.3674070  17.7725462  61.5717474  25.8722923  18.6331368  60.4331711
  22.8905784  37.6161267  52.5082074  22.3179751  38.2351454  52.0552545
  23.4638578  38.1660628  53.0421996  28.9581174  26.8619907  64.6928622
  29.9098597  26.9618004  64.7140846  28.7884625  26.0698175  65.2026707
  26.9795554  23.9475490  64.8788023  26.3845486  24.2280503  64.1834512
  26.6945250  24.4369391  65.6504764  26.1103044  37.8998417  53.6390656
  27.0433717  37.8343978  53.8423531  26.0226257  38.7354684  53.1805189
  28.7391061  37.2164287  50.5994603  28.6604692  36.8824151  51.4930361
  29.5600728  37.7086055  50.5986076  31.4369252  30.0826026  63.8070922
  31.4045572  29.1442027  63.9930606  32.0469876  30.1610063  63.0736747
  23.2752583  28.9522079  49.8498126  24.2211688  28.8228287  49.9186544
  22.8966828  28.2136741  50.3267554  31.5863740  26.8737070  63.8529205
  31.0702789  26.0895526  63.6659134  32.4703689  26.5455786  64.0175725
  29.2474467  20.6178085  59.8125018  29.0499288  20.3093174  60.6968350
  29.8574173  21.3439724  59.9422948  37.2545802  31.1442033  62.9476959
  37.9849190  30.8827321  63.5084662  36.6452747  30.4070755  62.9879027
  35.3361099  29.2849896  63.5451410  34.6094262  29.1505861  62.9367902
  34.9208386  29.5926724  64.3508128  23.1591275  33.0039825  71.3098783
  24.0794285  33.1818425  71.5038830  23.1240858  32.0595871  71.1578482
  21.4595500  26.8772056  49.7853011  20.5526955  26.5805168  49.8615725
  21.7371481  26.5801874  48.9187298  12.3773440  28.1978419  60.2352058
  12.0576225  27.3443727  59.9426432  11.8306869  28.4126997  60.9910025
  16.1553348  30.9140860  63.9521564  16.3739358  31.8457968  63.9709598
  16.5679122  30.5548835  64.7376368  23.0757566  21.4208945  55.9397253
  22.2658294  21.0756030  56.3152499  23.7641983  21.1116489  56.5284864
  25.0048114  20.4986992  57.5621549  25.5579153  20.9182446  58.2211572
  25.2418200  19.5722740  57.6044505  21.0281213  26.4874066  73.3424313
  20.9277940  27.4368423  73.2736404  20.8102755  26.1592305  72.4700383
  20.2294285  23.7358991  49.9264991  21.0913449  24.0613889  50.1860808
  20.4144629  22.9490487  49.4138056  12.2461700  31.8181331  62.2045179
  11.5525172  31.4035283  61.6915134  12.9934691  31.8601867  61.6078598
  28.3826921  22.6087517  57.0700214  27.8025590  23.2672321  56.6878266
  28.1162854  21.7864862  56.6587631  26.8330487  22.0092575  59.2721534
  27.3330266  22.1209110  58.4635853  27.4766095  21.7053628  59.9122342
  20.8912483  29.9171205  72.1589375  20.4079565  30.7171565  72.3653264
  20.9773422  29.9279150  71.2056819  14.1598443  31.7499584  60.0811194
  14.1369131  31.8487272  59.1293077  14.4699079  32.5964735  60.4028360
  16.8185821  33.8075739  64.1957809  17.7729074  33.7759682  64.1287740
  16.6198344  33.3466363  65.0108035  17.4085203  32.3776856  66.7628606
  18.2278092  32.8720934  66.7863444  17.6822011  31.4608824  66.7346174
  27.1651799  24.7687608  56.1256562  26.2777654  25.0537258  55.9076757
  27.5805788  24.6081371  55.2783839  30.5166335  24.7934129  59.8410901
  31.2926725  25.2830581  60.1135518  29.7914469  25.2192183  60.2982771
  32.9538894  25.5061748  60.8984842  33.5483385  25.2657484  60.1878150
  33.0265478  24.7868879  61.5258378  15.1736050  39.3495359  61.2128006
  15.0390517  38.5895760  60.6466005  14.7568112  40.0736259  60.7456795
  26.3095013  34.5332282  50.2204582  27.0130863  34.7382285  50.8362237
  25.5857661  35.1009044  50.4853665  27.1392823  30.2842144  56.3406852
  27.0828024  30.7410695  55.5014484  27.6921165  29.5232828  56.1629695
  30.9497629  26.0731876  57.1656971  30.6934563  25.6728511  57.9965179
  30.3250497  26.7875670  57.0407111  35.2609967  28.8127949  59.6728263
  34.7009525  28.8821138  60.4459825  34.6553470  28.6368933  58.9527759
  18.3305175  40.2464676  61.4246449  18.2137560  41.1910108  61.3225139
  17.5097622  39.9438238  61.8132248  28.2181710  34.9714812  52.2703042
  29.0527314  34.5396010  52.0880517  28.0566053  34.7996825  53.1979936
  27.8727602  31.4746925  53.6359381  27.8176406  31.3091196  52.6947825
  27.2473657  32.1822958  53.7921571  12.6620117  26.7114989  67.4620803
  13.3078981  26.2013943  67.9508028  12.4537268  27.4483671  68.0364229
  25.1873509  33.7795837  72.9612944  26.0564669  33.9536489  72.5999579
  24.7080261  34.5990254  72.8388673  21.1823728  20.9755034  53.2144700
  21.1702397  21.9196874  53.3712970  22.0747149  20.7925179  52.9204161
  19.3559690  40.8992938  64.6402378  20.2586936  40.9316548  64.9568872
  19.1297060  39.9693389  64.6548713  21.1113292  39.6523924  61.3012456
  20.1608923  39.6525786  61.1876828  21.4145778  38.9056659  60.7848491
  24.9975847  17.5697811  57.4690636  24.2308243  17.0156297  57.6147319
  25.4086552  17.6419679  58.3304788  17.0017608  23.8582606  71.5595818
  17.8649070  23.5019411  71.7699142  16.4283019  23.5196501  72.2471222
  36.8465985  45.4884463  62.3658219  37.4844395  45.3691210  61.6621559
  36.7286828  46.4365307  62.4246171  33.6555691  45.4411891  62.3019743
  33.3174203  45.3252956  61.4140278  34.5245460  45.0403056  62.2820749
  29.5142507  47.2947367  58.2916634  28.9507372  47.2037304  57.5232922
  29.3994902  46.4747272  58.7719127  34.1375474  46.5946743  68.2605949
  34.1264115  46.1999541  67.3886452  34.2996114  45.8612815  68.8539720
  27.0606939  48.7898559  61.1300855  27.8528231  48.4489384  60.7147154
  27.3003589  48.8993534  62.0503008  29.0197693  48.0507472  54.0018233
  29.7928569  47.5036459  53.8631109  29.3723092  48.9151721  54.2132695
  30.8582735  49.3783854  67.2085133  30.5672601  50.2829485  67.0931799
  31.4939720  49.4200382  67.9229202  31.7838942  46.7560703  63.7986492
  32.3802515  46.5316725  63.0843455  31.8413914  46.0145448  64.4011940
  31.3563971  44.2100138  51.6336683  31.6089491  43.6881660  50.8720146
  30.4188530  44.0466284  51.7363367  36.4007254  43.2135917  59.4411427
  37.1870343  42.7955340  59.0901844  36.6645958  44.1182009  59.6093075
  36.5717331  48.6508767  54.1400083  35.9363164  48.7243393  54.8520988
  36.2414737  49.2402366  53.4619163  31.0760259  46.1128244  53.8361058
  30.9596518  45.4373148  54.5042143  31.1862519  45.6260618  53.0193211
  33.4191800  45.5738391  57.5407748  33.0550008  45.0469012  58.2520669
  34.2758916  45.1836860  57.3674233  39.3241101  36.8632724  64.8039014
  38.9924426  37.7328135  64.5800229  38.7286714  36.5469008  65.4833044
  33.0597287  40.6028291  52.5369096  33.2271690  41.4708527  52.9039567
  32.8694456  40.7655573  51.6130385  35.8172621  49.0645270  64.2034926
  35.5173344  49.9670309  64.0950734  35.4723680  48.7977453  65.0556079
  29.2685102  45.5159067  60.2371631  28.3435598  45.3835281  60.4449323
  29.5169515  46.2953286  60.7341573  39.2169764  41.5827810  61.8832364
  38.3086642  41.5143219  61.5891125  39.1657360  42.0599755  62.7114189
  33.0386508  43.0585949  53.5215763  32.9186133  43.5042999  54.3601243
  32.3439097  43.4071266  52.9629301  26.6293913  45.1592340  61.0715420
  26.7586294  45.4126819  61.9854832  25.9491364  45.7520048  60.7520075
  33.2910630  43.0017456  69.8267261  32.5143964  43.5611376  69.8170126
  33.9301193  43.4874239  70.3482131  41.0831411  39.7844249  63.6610238
  40.4405791  40.0776782  63.0150032  40.5786339  39.6697169  64.4663434
  38.7371574  43.5307422  54.3496097  39.6489431  43.7634808  54.1743794
  38.2281221  44.1144466  53.7871176  31.5457002  45.8102909  69.3885228
  32.2871687  46.3487953  69.1120052  30.8393988  46.4369198  69.5456780
  37.0212342  47.9532050  67.9857390  37.4295698  47.5114460  67.2412022
  36.2989604  47.3784677  68.2391582  33.3743412  42.8904656  65.3590946
  34.2204607  43.3144070  65.5025595  33.3142050  42.2338281  66.0529510
  36.5242857  40.5509025  67.0172120  36.2803789  41.3051085  66.4806396
  36.8002788  40.9294372  67.8519367  36.0807549  39.7065458  62.5985958
  35.2192028  40.0046711  62.8902695  36.1069984  39.9235857  61.6666990
  32.8969119  48.2507648  59.0059764  33.3607464  48.5295351  58.2164386
  32.6325917  47.3491093  58.8232854  29.7893200  47.7979130  61.9439527
  30.3594557  48.2266398  61.3057011  30.3801311  47.5161715  62.6423712
  31.8338005  44.3730801  55.8149329  32.5362048  44.8251844  56.2823255
  31.5018633  43.7314619  56.4429222  30.2818366  42.9642557  70.1900538
  29.6517027  43.6458838  70.4235935  30.1754454  42.8525639  69.2453676
  25.5763339  42.6314353  61.1166462  24.7862393  42.8871882  60.6406573
  26.0674586  43.4462691  61.2218503  27.5278084  42.9958933  58.0749939
  26.7309247  43.1077627  58.5933435  27.3003676  43.3345585  57.2090829
  33.3583752  49.5203636  66.0232454  33.4228184  49.9824043  66.8590625
  32.6494675  48.8901001  66.1514763  23.8601042  42.8844844  63.5481453
  24.1109080  43.7691854  63.8139029  24.3960590  42.7049445  62.7756545
  29.5599109  37.2663323  72.5525789  29.1666054  36.7129522  73.2273433
  30.3765249  37.5773902  72.9432307  26.5261167  48.7047181  56.4639359
  27.0385687  49.4990432  56.6144924  27.1783879  48.0073472  56.3972960
  28.3356051  51.8212938  58.5462112  28.5122680  52.7430902  58.3583096
  29.1312885  51.5071357  58.9756492  32.4767070  38.6821202  70.1446046
  33.2176783  39.2828355  70.0650508  32.7084993  37.9398840  69.5864088
  27.6208408  43.8677569  68.4224275  27.5061923  42.9662827  68.7231374
  26.7652926  44.1141266  68.0709092  34.7000246  51.8095310  70.0211776
  34.2564100  51.0231688  69.7032680  35.3617459  51.9974460  69.3555667
  29.4587367  53.3391111  64.5472454  30.0094792  53.2108175  63.7749448
  28.6198843  53.6386000  64.1967347  33.2554538  49.6042239  68.8916686
  33.7882875  48.8430527  68.6615994  32.7268619  49.3115891  69.6340840
  36.4224233  34.7102305  64.4210327  36.0788502  35.6003947  64.3449438
  36.7903195  34.5203963  63.5579912  24.4910083  47.0335836  57.2398929
  25.3285305  47.4432844  57.0232637  24.6688351  46.0935278  57.2099123
  36.3874516  44.7010916  52.9282762  35.8721139  45.4715521  53.1671150
  36.1151824  44.0276052  53.5515824  33.9721627  39.5460617  57.9868001
  33.1163223  39.1567467  57.8073640  34.3848578  39.6252578  57.1267786
  35.5020773  37.0806960  62.3859561  34.9985569  37.0437095  61.5727366
  35.7951380  37.9899703  62.4456217  31.7463659  37.1645690  61.3925742
  32.6116656  36.9688499  61.0331632  31.8141168  36.9356042  62.3195099
  36.1760819  42.5738008  54.7542544  35.8710954  42.8884158  55.6052687
  37.1291261  42.6519428  54.7969877  29.3525978  39.3947898  58.7642109
  29.9269730  39.1723079  58.0315302  29.9396961  39.4636592  59.5170710
  38.4105555  45.2821625  59.5706486  38.9237437  45.9151617  60.0728195
  39.0606779  44.6822820  59.2049846  29.6795565  41.4252359  52.7837994
  28.8432878  41.7627046  53.1047269  29.5400335  41.2901339  51.8465131
  31.6548646  36.2689147  57.4917179  31.0013058  35.9538164  56.8673793
  31.6129120  35.6464887  58.2177001  32.7659851  46.5508442  49.4070471
  31.8586912  46.3197695  49.6061620  33.2630883  45.7546061  49.5944452
  34.8886386  42.7571080  61.8164826  33.9708948  42.9786027  61.6586514
  35.3046530  42.8317391  60.9576534  35.6721434  44.1562496  56.9467506
  36.4193253  44.6683893  56.6374628  35.9413024  43.8346549  57.8071900
  33.9448084  46.6521037  53.9294461  33.0359303  46.3680070  54.0266930
  33.9743168  47.0720115  53.0697768  38.1200271  41.1919612  58.9286296
  37.3823028  40.6796999  59.2596538  38.3727045  40.7519994  58.1169573
  38.2211898  33.9695864  59.5228065  38.5270775  33.1093228  59.2353980
  38.9464503  34.5613485  59.3227059  24.5136255  44.3726551  57.9109663
  24.3160654  43.7795912  57.1860729  23.9582919  44.0678761  58.6285602
  32.4932978  44.2649657  60.0304256  32.5481588  43.3123494  59.9546733
  31.6824180  44.4209096  60.5145554  33.6424172  48.1929780  51.2682539
  33.2043602  47.4765639  50.8088177  34.3834613  48.4205895  50.7067631
  30.4325338  42.8826717  57.7894635  29.6193204  43.1820888  58.1959827
  30.9284332  42.4882406  58.5069117  36.0299550  43.3468542  66.6209529
  36.3848938  43.5740015  67.4803995  36.6771681  43.6786918  65.9986784
  29.9239413  40.4545073  63.4055870  30.5638792  40.3133832  62.7078833
  29.0916943  40.1679586  63.0294472  30.6999717  49.7547503  59.5190862
  31.4940315  49.2597823  59.3173437  29.9891409  49.2265366  59.1558568
  27.0082480  43.8990585  55.5950615  26.0780068  43.8375040  55.8120577
  27.1039952  43.3766538  54.7987256  26.9268029  40.4245398  58.1828857
  27.1874847  41.3390731  58.0738017  27.7485202  39.9569840  58.3325470
  28.3992955  41.8383155  65.3527681  29.0716008  41.6300517  64.7040330
  27.5722741  41.6405241  64.9132914  34.3018527  38.4645096  67.3693342
  33.6546442  39.1635045  67.2757819  35.0719542  38.8981240  67.7369590
  37.7097325  48.7293948  70.4443895  37.5582831  48.5004500  69.5273979
  37.7002004  49.6864549  70.4575240  34.4782661  46.3025861  65.4290162
  35.4074721  46.4537020  65.2559129  34.0573691  46.3909881  64.5738808
  34.8276208  49.7058128  60.5877537  34.4926041  49.6658898  61.4835187
  34.3280154  49.0402844  60.1147947  28.8020452  45.1125758  66.1130118
  28.6640250  44.3805997  66.7141657  29.7125375  45.0234658  65.8314306
  37.7635400  47.0514162  50.8614597  37.1464570  46.3260990  50.7647650
  37.2951888  47.8123522  50.5181671  31.4302753  44.8245717  65.6013798
  32.1402371  44.1838909  65.5600416  31.3872061  45.0758612  66.5239979
  30.1431687  41.8110935  67.4209438  29.6069044  41.3601673  68.0731034
  29.5548395  41.9456844  66.6779902  28.4380230  58.5774984  61.3154096
  28.6776828  59.2093508  61.9933115  27.5949427  58.2263024  61.6019455
  29.5533946  41.2699586  49.9835901  28.6763412  41.1488387  49.6198148
  30.0291699  40.4785665  49.7314790  21.0736086  46.0576746  60.0777408
  21.7607125  45.7438476  59.4898424  20.9184214  46.9618111  59.8044660
  25.8770808  40.9466943  64.5062432  25.7928997  40.3392612  63.7712842
  25.0553514  41.4375961  64.5071928  36.0494522  39.4320506  59.8732627
  36.5463221  38.6790469  59.5533697  35.2781503  39.4684823  59.3075836
  32.6329490  41.5737889  59.6004312  32.2627278  41.0208930  60.2885217
  33.1288583  40.9696023  59.0479312  30.4618689  52.0335384  66.6959330
  31.1628148  52.6671867  66.8488724  29.9913804  52.3750116  65.9354969
  38.4913516  36.3990100  62.0211986  37.5776596  36.6294327  62.1894193
  38.9206618  36.4828544  62.8726018  38.2619975  44.5879992  64.5211880
  37.6091425  44.8355899  63.8664333  38.6400355  43.7744130  64.1874357
  34.3107548  45.3299803  71.0077917  33.6348185  45.2293932  71.6780292
  35.1335182  45.1739016  71.4713914  26.0586407  51.5671739  63.6290432
  26.6439844  50.8215427  63.7618336  25.8611245  51.8775696  64.5127096
  28.9125062  54.6022987  58.6452875  28.2435438  55.0869114  58.1616915
  28.7737932  54.8492207  59.5596253  20.6504062  44.1377339  62.3494875
  20.6888161  43.6040930  63.1431994  20.1444355  43.6112545  61.7305853
  28.0294824  38.9841880  65.8457418  28.0936151  39.8456711  65.4334815
  27.9661944  38.3715882  65.1129776  27.5047097  41.0565013  69.4930452
  28.1319135  40.6742090  70.1067976  26.6475015  40.8379214  69.8586144
  24.2812639  42.8641442  55.4248807  24.5766080  41.9552120  55.3715861
  23.3800675  42.8429181  55.1029809  27.8106886  40.9397438  61.4076355
  27.0893472  41.5533406  61.2683829  28.6000142  41.4755203  61.3293001
  30.6133200  38.2751865  67.6817007  31.1367602  38.5214161  68.4443316
  30.3945533  39.1071900  67.2620145  26.0100481  40.5455539  55.5488132
  25.6813187  39.6652918  55.3663238  26.3639852  40.4903208  56.4364521
  29.1242304  40.8328509  55.9163610  29.4638377  41.3614430  55.1942218
  29.5714425  41.1708915  56.6922176  31.8185745  39.2165560  65.3666678
  31.4782565  38.4173373  65.7687358  31.1124751  39.5167271  64.7943511
  32.4702217  36.3014872  63.8194001  33.2928286  35.8275350  63.6972891
  32.7140280  37.0805356  64.3192687  31.1110451  39.3303131  54.1156902
  31.8318814  39.7084383  53.6120619  30.4875755  40.0492008  54.2191880
  35.2541574  40.0348280  55.0515235  35.4705189  40.9172918  54.7504063
  34.7735641  39.6434493  54.3220877  29.9940796  42.9933993  61.6285979
  29.8485376  43.3074296  62.5210261  29.5165999  43.6118893  61.0756878
  31.8537178  39.9836541  61.6766869  31.8398747  39.0877634  61.3399167
  32.5709606  39.9907205  62.3105155  33.7063309  40.4173881  63.7219996
  33.4481087  41.3390952  63.7204327  33.1748349  40.0204316  64.4120460
  24.4686458  45.5339337  64.5673641  23.9239926  46.3099145  64.6993915
  25.3465808  45.8810142  64.4092762  31.2574074  38.8650921  56.9454439
  31.3789986  37.9367567  57.1445327  30.9676117  38.8789607  56.0332754
  34.1265265  36.5505832  60.0821159  34.1486962  36.6145165  59.1273138
  34.5433324  35.7110340  60.2761665  25.2552480  44.6609234  67.4603797
  24.5134216  44.8091869  68.0468428  24.9345224  44.9217499  66.5970547
  25.7009093  52.5474662  59.4914192  26.5267113  52.2478434  59.1112836
  25.3503145  51.7782285  59.9403981  30.6690626  51.9001131  61.5611866
  30.0470636  51.2371836  61.2614093  31.3395493  51.9262262  60.8785513
  23.9017698  50.4660989  60.4503126  23.0649607  50.0383163  60.2687127
  23.8741344  50.6593432  61.3873917  30.7415154  40.3782919  71.1544372
  30.7903309  41.2545041  70.7722141  31.2837668  39.8360312  70.5816015
  38.6371637  43.7547436  69.0637544  39.5381500  43.6153901  68.7721542
  38.7119611  43.9201891  70.0035721  32.9714442  41.1314291  67.9090730
  32.1017752  41.4247857  67.6373319  33.2073923  41.7154736  68.6297994
  27.9856766  46.4770231  56.0431395  27.7402808  45.5732561  56.2411605
  28.1552681  46.4787382  55.1010873  35.6753476  37.3493908  65.4256151
  36.1935420  38.0854935  65.1002639  35.3208609  37.6557901  66.2602910
  27.2552414  42.2098589  53.5417557  26.5621659  42.2842944  52.8857593
  27.0104166  41.4458933  54.0639073  35.9266070  33.7694190  60.9457047
  36.2067824  33.1017379  61.5717474  36.7116677  33.9623286  60.4331711
  39.7974929  42.1911824  64.6928622  40.7492352  42.2909922  64.7140846
  39.6278379  41.3990093  65.2026707  37.8189308  39.2767408  64.8788023
  37.2239240  39.5572420  64.1834512  37.5339005  39.7661309  65.6504764
  34.1146337  44.2813997  49.8498126  35.0605442  44.1520205  49.9186544
  33.7360582  43.5428659  50.3267554  40.0868222  35.9470003  59.8125018
  39.8893043  35.6385091  60.6968350  40.6967927  36.6731642  59.9422948
  33.9985030  48.3331743  71.3098783  34.9188039  48.5110342  71.5038830
  33.9634613  47.3887789  71.1578482  32.2989254  42.2063973  49.7853011
  31.3920710  41.9097086  49.8615725  32.5765235  41.9093792  48.9187298
  23.2167195  43.5270337  60.2352058  22.8969979  42.6735645  59.9426432
  22.6700623  43.7418915  60.9910025  26.9947102  46.2432778  63.9521564
  27.2133112  47.1749886  63.9709598  27.4072876  45.8840752  64.7376368
  33.9151320  36.7500863  55.9397253  33.1052048  36.4047948  56.3152499
  34.6035737  36.4408407  56.5284864  35.8441868  35.8278910  57.5621549
  36.3972907  36.2474363  58.2211572  36.0811955  34.9014658  57.6044505
  31.8674968  41.8165984  73.3424313  31.7671695  42.7660341  73.2736404
  31.6496510  41.4884223  72.4700383  31.0688039  39.0650909  49.9264991
  31.9307203  39.3905807  50.1860808  31.2538383  38.2782405  49.4138056
  23.0855455  47.1473248  62.2045179  22.3918926  46.7327201  61.6915134
  23.8328446  47.1893785  61.6078598  39.2220676  37.9379435  57.0700214
  38.6419345  38.5964239  56.6878266  38.9556608  37.1156780  56.6587631
  37.6724242  37.3384493  59.2721534  38.1724020  37.4501027  58.4635853
  38.3159850  37.0345546  59.9122342  31.7306238  45.2463122  72.1589375
  31.2473319  46.0463483  72.3653264  31.8167177  45.2571067  71.2056819
  24.9992197  47.0791502  60.0811194  24.9762885  47.1779189  59.1293077
  25.3092834  47.9256653  60.4028360  27.6579575  49.1367657  64.1957809
  28.6122829  49.1051599  64.1287740  27.4592099  48.6758281  65.0108035
  28.2478957  47.7068773  66.7628606  29.0671846  48.2012852  66.7863444
  28.5215765  46.7900741  66.7346174  38.0045554  40.0979525  56.1256562
  37.1171409  40.3829176  55.9076757  38.4199543  39.9373289  55.2783839
  41.3560090  40.1226046  59.8410901  42.1320480  40.6122499  60.1135518
  40.6308224  40.5484101  60.2982771  26.0129804  54.6787277  61.2128006
  25.8784272  53.9187678  60.6466005  25.5961866  55.4028176  60.7456795
  37.1488767  49.8624200  50.2204582  37.8524617  50.0674203  50.8362237
  36.4251416  50.4300962  50.4853665  37.9786577  45.6134061  56.3406852
  37.9221779  46.0702613  55.5014484  38.5314920  44.8524746  56.1629695
  29.1698930  55.5756594  61.4246449  29.0531314  56.5202026  61.3225139
  28.3491376  55.2730155  61.8132248  38.7121357  46.8038843  53.6359381
  38.6570160  46.6383114  52.6947825  38.0867412  47.5114876  53.7921571
  23.5013872  42.0406907  67.4620803  24.1472735  41.5305861  67.9508028
  23.2931023  42.7775589  68.0364229  36.0267264  49.1087755  72.9612944
  36.8958423  49.2828407  72.5999579  35.5474015  49.9282171  72.8388673
  32.0217482  36.3046952  53.2144700  32.0096152  37.2488792  53.3712970
  32.9140904  36.1217097  52.9204161  35.8369602  32.8989728  57.4690636
  35.0701997  32.3448215  57.6147319  36.2480307  32.9711597  58.3304788
  27.8411363  39.1874524  71.5595818  28.7042824  38.8311329  71.7699142
  27.2676773  38.8488419  72.2471222  50.4178570  67.8748122  50.5994603
  50.3392201  67.5407986  51.4930361  51.2388237  68.3669890  50.5986076
  56.7729575  81.6202170  53.6031099  56.1217554  82.2056251  53.2165113
  57.5673938  82.1508365  53.6626137  53.0351480  74.8683974  51.6336683
  53.2877000  74.3465495  50.8720146  52.0976039  74.7050119  51.7363367
  58.2504840  79.3092602  54.1400083  57.6150673  79.3827229  54.8520988
  57.9202246  79.8986201  53.4619163  54.7174017  73.7169784  53.5215763
  54.5973642  74.1626835  54.3601243  54.0226606  74.0655102  52.9629301
  53.5125514  75.0314636  55.8149329  54.2149557  75.4835680  56.2823255
  53.1806142  74.3898455  56.4429222  49.2065593  73.6542768  58.0749939
  48.4096756  73.7661462  58.5933435  48.9791185  73.9929420  57.2090829
  46.1697592  77.6919671  57.2398929  47.0072814  78.1016679  57.0232637
  46.3475860  76.7519113  57.2099123  58.0662025  75.3594752  52.9282762
  57.5508648  76.1299356  53.1671150  57.7939333  74.6859888  53.5515824
  63.0396299  78.1127106  54.8635936  62.2625741  77.7738266  54.4191098
  63.7187780  78.1179729  54.1890901  57.8548328  73.2321844  54.7542544
  57.5498463  73.5467993  55.6052687  58.8078770  73.3103264  54.7969877
  56.2994760  79.3912067  56.4035498  55.7716121  78.6564827  56.0908735
  55.7982262  80.1686743  56.1575466  51.3583074  72.0836194  52.7837994
  50.5220387  72.4210881  53.1047269  51.2187844  71.9485174  51.8465131
  54.4447360  77.2092277  49.4070471  53.5374421  76.9781531  49.6061620
  54.9418392  76.4129897  49.5944452  55.6235593  77.3104872  53.9294461
  54.7146812  77.0263905  54.0266930  55.6530677  77.7303951  53.0697768
  60.8554861  80.9211462  57.6985628  60.4017188  80.0802372  57.7550819
  60.2248827  81.5572860  58.0360408  55.3211681  78.8513616  51.2682539
  54.8831111  78.1349475  50.8088177  56.0622122  79.0789731  50.7067631
  52.1112847  73.5410552  57.7894635  51.2980713  73.8404723  58.1959827
  52.6071841  73.1466241  58.5069117  48.6869989  74.5574420  55.5950615
  47.7567577  74.4958876  55.8120577  48.7827461  74.0350373  54.7987256
  59.4422909  77.7097997  50.8614597  58.8252079  76.9844826  50.7647650
  58.9739397  78.4707358  50.5181671  51.2321454  71.9283422  49.9835901
  50.3550921  71.8072223  49.6198148  51.7079208  71.1369500  49.7314790
  42.7523595  76.7160581  60.0777408  43.4394634  76.4022312  59.4898424
  42.5971723  77.6201946  59.8044660  60.2660594  81.0337169  54.9807237
  60.5420438  80.9193764  55.8901111  59.3965093  80.6354654  54.9419410
  56.9329083  70.6932115  55.0515235  57.1492697  71.5756753  54.7504063
  56.4523150  70.3018328  54.3220877  61.3172179  83.4975268  53.6006980
  62.0123084  84.1181961  53.8194295  61.6595329  82.6470619  53.8759358
  63.2163602  80.9474973  55.1294311  63.7414927  81.2862246  54.4043631
  63.1285955  80.0121989  54.9457445  45.5805207  81.1244824  60.4503126
  44.7437116  80.6966998  60.2687127  45.5528853  81.3177267  61.3873917
  48.9339923  72.8682424  53.5417557  48.2409168  72.9426779  52.8857593
  48.6891675  72.1042768  54.0639073  55.4087048  83.6037020  52.5082074
  54.8361015  84.2227207  52.0552545  55.9819841  84.1536381  53.0421996
  61.2572324  83.2040040  50.5994603  61.1785956  82.8699904  51.4930361
  62.0781991  83.6961808  50.5986076  55.7933846  74.9397832  49.8498126
  56.7392951  74.8104041  49.9186544  55.4148091  74.2012494  50.3267554
  53.9776763  72.8647809  49.7853011  53.0708219  72.5680922  49.8615725
  54.2552744  72.5677627  48.9187298  58.8276276  80.5208036  50.2204582
  59.5312126  80.7258038  50.8362237  58.1038925  81.0884797  50.4853665
  60.7362973  80.9590565  52.2703042  61.5708577  80.5271763  52.0880517
  60.5747316  80.7872578  53.1979936  60.3908866  77.4622678  53.6359381
  60.3357669  77.2966949  52.6947825  59.7654921  78.1698711  53.7921571
  51.8740953  86.8868691  64.6402378  52.7768200  86.9192301  64.9568872
  51.6478323  85.9569142  64.6548713  69.3647249  91.4760216  62.3658219
  70.0025658  91.3566963  61.6621559  69.2468091  92.4241060  62.4246171
  66.1736955  91.4287644  62.3019743  65.8355466  91.3128709  61.4140278
  67.0426723  91.0278809  62.2820749  62.0323770  93.2823120  58.2916634
  61.4688636  93.1913057  57.5232922  61.9176166  92.4623025  58.7719127
  59.5788202  94.7774312  61.1300855  60.3709494  94.4365137  60.7147154
  59.8184853  94.8869287  62.0503008  67.6123329  96.9494088  53.6031099
  66.9611309  97.5348168  53.2165113  68.4067692  97.4800283  53.6626137
  61.5378956  94.0383225  54.0018233  62.3109832  93.4912212  53.8631109
  61.8904355  94.9027475  54.2132695  63.3763999  95.3659607  67.2085133
  63.0853865  96.2705238  67.0931799  64.0120983  95.4076135  67.9229202
  64.3020206  92.7436456  63.7986492  64.8983778  92.5192478  63.0843455
  64.3595177  92.0021201  64.4011940  63.8745234  90.1975891  51.6336683
  64.1270755  89.6757413  50.8720146  62.9369793  90.0342037  51.7363367
  68.9188517  89.2011670  59.4411427  69.7051606  88.7831093  59.0901844
  69.1827221  90.1057762  59.6093075  69.0898594  94.6384520  54.1400083
  68.4544427  94.7119147  54.8520988  68.7596001  95.2278119  53.4619163
  74.3196944  89.1386903  60.3444405  75.0522116  88.5686120  60.5782235
  73.5636300  88.7508503  60.7850911  63.5941523  92.1003997  53.8361058
  63.4777781  91.4248901  54.5042143  63.7043783  91.6136371  53.0193211
  65.9373064  91.5614144  57.5407748  65.5731271  91.0344765  58.2520669
  66.7940180  91.1712613  57.3674233  65.5778551  86.5904044  52.5369096
  65.7452953  87.4584280  52.9039567  65.3875720  86.7531326  51.6130385
  68.3353884  95.0521023  64.2034926  68.0354607  95.9546062  64.0950734
  67.9904944  94.7853206  65.0556079  61.7866365  91.5034820  60.2371631
  60.8616862  91.3711034  60.4449323  62.0350779  92.2829039  60.7341573
  65.5567772  89.0461702  53.5215763  65.4367397  89.4918752  54.3601243
  64.8620360  89.3947019  52.9629301  59.1475177  91.1468093  61.0715420
  59.2767558  91.4002572  61.9854832  58.4672628  91.7395801  60.7520075
  63.3174664 101.8165343  57.1705894  63.2398694 102.7673168  57.2494375
  62.7136307 101.4711216  57.8280820  71.2552838  89.5183175  54.3496097
  72.1670694  89.7510562  54.1743794  70.7462485  90.1020219  53.7871176
  64.0638266  91.7978662  69.3885228  64.8052950  92.3363706  69.1120052
  63.3575251  92.4244951  69.5456780  69.8622420  94.5008993  61.7409678
  69.2331283  94.6654707  61.0385746  69.4748082  94.9150603  62.5120642
  73.7411652  95.4363431  59.0954042  73.0562690  95.8162332  58.5451075
  73.8255501  96.0458758  59.8285990  70.9962584  93.0823390  65.6949386
  71.2079479  93.7255150  65.0183767  70.9492332  92.2485707  65.2271316
  65.4150382  94.2383401  59.0059764  65.8788728  94.5171104  58.2164386
  65.1507180  93.3366846  58.8232854  62.3074463  93.7854883  61.9439527
  62.8775820  94.2142151  61.3057011  62.8982575  93.5037468  62.6423712
  64.3519268  90.3606554  55.8149329  65.0543311  90.8127597  56.2823255
  64.0199897  89.7190373  56.4429222  72.1108412  95.9595346  63.8671743
  72.9325855  95.5575533  63.5854425  72.1070814  95.8563580  64.8187859
  65.8765015  95.5079389  66.0232454  65.9409448  95.9699796  66.8590625
  65.1675939  94.8776754  66.1514763  80.2014405  92.3034094  60.2156715
  79.4478113  91.7341492  60.0600719  80.3361946  92.2696758  61.1627349
  65.5913033  97.1747496  55.8911434  65.4558708  98.0199032  56.3196282
  66.1322845  97.3766774  55.1277368  59.0442430  94.6922934  56.4639359
  59.5566951  95.4866185  56.6144924  59.6965143  93.9949225  56.3972960
  60.8537315  97.8088691  58.5462112  61.0303943  98.7306655  58.3583096
  61.6494148  97.4947110  58.9756492  60.1389671  89.8553322  68.4224275
  60.0243186  88.9538580  68.7231374  59.2834189  90.1017019  68.0709092
  67.2181509  97.7971063  70.0211776  66.7745363  97.0107441  69.7032680
  67.8798723  97.9850213  69.3555667  61.9768630  99.3266864  64.5472454
  62.5276055  99.1983928  63.7749448  61.1380106  99.6261753  64.1967347
  69.3162747  98.0773863  68.0493177  69.2981223  98.8982744  67.5573446
  70.2382667  97.9527938  68.2743318  65.7735801  95.5917992  68.8916686
  66.3064138  94.8306280  68.6615994  65.2449882  95.2991644  69.6340840
  57.0091347  93.0211589  57.2398929  57.8466569  93.4308597  57.0232637
  57.1869615  92.0811031  57.2099123  68.9055779  90.6886669  52.9282762
  68.3902402  91.4591274  53.1671150  68.6333087  90.0151805  53.5515824
  73.8790053  93.4419024  54.8635936  73.1019496  93.1030183  54.4191098
  74.5581534  93.4471647  54.1890901  68.6942082  88.5613761  54.7542544
  68.3892218  88.8759911  55.6052687  69.6472524  88.6395181  54.7969877
  67.1388514  94.7203985  56.4035498  66.6109876  93.9856744  56.0908735
  66.6376017  95.4978661  56.1575466  72.1181360  92.9153005  61.5202544
  71.4605034  93.6052267  61.6082673  72.9221759  93.3049437  61.8636530
  70.9286819  91.2697378  59.5706486  71.4418701  91.9027370  60.0728195
  71.5788043  90.6698573  59.2049846  62.1976829  87.4128112  52.7837994
  61.3614141  87.7502799  53.1047269  62.0581598  87.2777092  51.8465131
  65.2841114  92.5384195  49.4070471  64.3768176  92.3073448  49.6061620
  65.7812146  91.7421814  49.5944452  68.1909193 101.2481702  52.3267157
  67.5170892 101.5513399  52.9352115  68.5775015 102.0510782  51.9772614
  68.1902697  90.1438249  56.9467506  68.9374516  90.6559646  56.6374628
  68.4594287  89.8222302  57.8071900  66.4629348  92.6396790  53.9294461
  65.5540567  92.3555823  54.0266930  66.4924431  93.0595868  53.0697768
  71.6948615  96.2503379  57.6985628  71.2410942  95.4094289  57.7550819
  71.0642582  96.8864778  58.0360408  70.1381554  98.0879876  58.6335446
  70.4304529  98.6484933  57.9147812  70.6480175  98.3808437  59.3888606
  65.0114242  90.2525410  60.0304256  65.0662851  89.2999247  59.9546733
  64.2005444  90.4084850  60.5145554  66.1605435  94.1805533  51.2682539
  65.7224865  93.4641392  50.8088177  66.9015876  94.4081648  50.7067631
  65.1015179  98.8660227  59.7228900  65.0591358  99.0921073  58.7937432
  66.0177878  98.6323602  59.8714701  74.2778550  92.4562731  57.3258858
  74.1396449  92.6464327  56.3980047  73.9214769  93.2182113  57.7826909
  74.3047930  94.5239258  62.3370129  74.7384437  94.4314547  63.1853183
  75.0179511  94.4996758  61.6990145  63.2180980  95.7423256  59.5190862
  64.0121579  95.2473576  59.3173437  62.5072673  95.2141119  59.1558568
  68.0375825  98.1241352  63.8703230  68.0912847  98.6932288  64.6380946
  67.1690606  98.2943237  63.5057267  75.1663479  94.5662958  64.8703015
  75.3599369  95.4708769  65.1162290  75.0664098  94.1070377  65.7041600
  70.2278588  94.7169701  70.4443895  70.0764094  94.4880253  69.5273979
  70.2183268  95.6740302  70.4575240  66.9963924  92.2901614  65.4290162
  67.9255984  92.4412773  65.2559129  66.5754955  92.3785634  64.5738808
  65.7952256  96.3152278  63.1988699  65.6563342  95.9471062  64.0714638
  65.0066852  96.8299918  63.0272657  66.3900408 101.4161375  54.5414236
  66.5652164 100.9449418  55.3559859  65.7033196 102.0427141  54.7695497
  67.3457471  95.6933881  60.5877537  67.0107304  95.6534651  61.4835187
  66.8461417  95.0278597  60.1147947  61.3201715  91.1001511  66.1130118
  61.1821513  90.3681750  66.7141657  62.2306639  91.0110411  65.8314306
  70.2816663  93.0389915  50.8614597  69.6645834  92.3136743  50.7647650
  69.8133152  93.7999275  50.5181671  63.9484016  90.8121470  65.6013798
  64.6583635  90.1714662  65.5600416  63.9053324  91.0634365  66.5239979
  71.9370795  97.7488823  68.5220377  71.8783341  97.0648044  67.8550960
  72.3390313  98.4907813  68.0701003  60.9561494 104.5650737  61.3154096
  61.1958092 105.1969261  61.9933115  60.1130690 104.2138777  61.6019455
  62.0715209  87.2575339  49.9835901  61.1944675  87.1364140  49.6198148
  62.5472962  86.4661418  49.7314790  71.9388202  95.7128407  66.7534357
  71.0514981  95.3754329  66.8760756  72.5086753  94.9811439  66.9903122
  53.5917349  92.0452499  60.0777408  54.2788389  91.7314229  59.4898424
  53.4365478  92.9493864  59.8044660  65.4689355 100.3729860  63.7195600
  65.3959527 101.1784831  64.2314905  65.0266748 100.5721826  62.8943622
  65.2579135  99.6101630  57.2298422  64.4746657 100.1523310  57.3236646
  65.9571880 100.1275609  57.6292663  76.4205543  91.1236625  61.5150919
  76.4095419  92.0061340  61.1444852  75.5522922  90.7708176  61.3205456
  67.9288039 100.2716694  65.8753759  68.6416011 100.9064159  65.8029660
  67.4378068 100.3680560  65.0593761  69.6505566  94.1767946  57.4471050
  68.7161845  94.2969409  57.2775755  69.8282234  93.2740413  57.1831060
  73.0378117  90.0185266  57.9821085  73.5038569  90.8513257  57.9081387
  73.4885618  89.5530247  58.6866343  62.9799952  98.0211137  66.6959330
  63.6809412  98.6547620  66.8488724  62.5095067  98.3625869  65.9354969
  71.1054348  96.3629087  54.9807237  71.3814192  96.2485682  55.8901111
  70.2358847  95.9646572  54.9419410  70.7801238  90.5755745  64.5211880
  70.1272689  90.8231652  63.8664333  71.1581618  89.7619883  64.1874357
  67.7408412 100.6115438  58.6240050  67.9230807  99.7937094  59.0867803
  68.5641398 100.8283130  58.1864940  68.0750578  99.5383623  55.8855099
  68.6038344  99.0276078  55.2725261  68.3378797  99.2226153  56.7500632
  58.5767671  97.5547492  63.6290432  59.1621107  96.8091180  63.7618336
  58.3792509  97.8651449  64.5127096  61.4306326 100.5898740  58.6452875
  60.7616701 101.0744867  58.1616915  61.2919195 100.8367960  59.5596253
  53.1685325  90.1253093  62.3494875  53.2069425  89.5916683  63.1431994
  52.6625618  89.5988298  61.7305853  65.5711594 102.6242483  65.2435533
  66.1229902 102.7874105  66.0084618  65.9117788 103.2146921  64.5715558
  70.4222469  97.4503741  71.0984187  70.9662373  98.0633699  70.6039142
  69.8409313  98.0083319  71.6151200  68.7079982 100.5724459  62.2299215
  68.5831121  99.7714199  61.7210161  69.3659073 101.0670652  61.7413185
  70.7714890  98.3733479  63.8578765  69.8245226  98.2538830  63.7857092
  71.1197663  97.4855977  63.9405027  67.7761323  98.1686195  60.0583118
  67.6286286  97.2402902  60.2390688  68.6014817  98.1906286  59.5740193
  61.6423568  86.8204262  55.9163610  61.9819640  87.3490183  55.1942218
  62.0895688  87.1584668  56.6922176  71.3795445  98.9914754  61.1447990
  72.3041993  98.7857615  61.0072441  71.2110748  98.7431155  62.0537332
  63.6291715  85.3178884  54.1156902  64.3500077  85.6960137  53.6120619
  63.0057019  86.0367761  54.2191880  62.5122059  88.9809746  61.6285979
  62.3666640  89.2950049  62.5210261  62.0347263  89.5994646  61.0756878
  71.1690761  99.5100421  56.5010082  71.3427639  98.9446844  55.7483934
  71.6619653 100.3101316  56.3189572  77.0230152  92.2736844  58.1200381
  77.4661299  91.5244169  57.7219505  76.1456663  92.2646981  57.7374113
  72.1565934  98.8267186  53.6006980  72.8516838  99.4473878  53.8194295
  72.4989084  97.9762537  53.8759358  74.0557357  96.2766891  55.1294311
  74.5808681  96.6154164  54.4043631  73.9679709  95.3413906  54.9457445
  65.7177406 100.1900965  67.2584187  66.0264532  99.9450112  68.1306887
  66.5152888 100.3947603  66.7703058  65.7398018 102.3438874  59.4889564
  65.3003008 101.8515253  60.1822421  66.4906135 101.8011842  59.2481639
  58.2190357  98.5350415  59.4914192  59.0448377  98.2354187  59.1112836
  57.8684409  97.7658038  59.9403981  63.1871890  97.8876884  61.5611866
  62.5651899  97.2247589  61.2614093  63.8576757  97.9138015  60.8785513
  56.4198962  96.4536742  60.4503126  55.5830870  96.0258916  60.2687127
  56.3922607  96.6469185  61.3873917  73.7451263  96.9099795  70.4345509
  72.9546807  96.8923934  69.8950008  73.5084618  97.4488089  71.1894545
  73.8649138  93.7592261  67.7478237  73.9147143  93.5942269  68.6893760
  73.7563061  92.8919520  67.3576118  62.7485397  96.4380807  55.0370326
  62.8973517  97.1216271  54.3836999  63.5551840  96.4185897  55.5519782
  75.3667335  96.1789203  67.9920259  75.0752143  96.5419183  68.8283720
  74.7539466  95.4656211  67.8133591  76.5663017  93.7442082  60.5122829
  77.4009909  94.1831887  60.6760389  76.7022146  93.2680736  59.6931075
  73.6154523  91.3021817  66.4600317  74.0908645  91.4949464  65.6519168
  72.6920088  91.3581003  66.2143700  60.5038030  92.4645985  56.0431395
  60.2584072  91.5608315  56.2411605  60.6733944  92.4663135  55.1010873
  66.2480802  98.9328937  52.5082074  65.6754769  99.5519124  52.0552545
  66.8213596  99.4828299  53.0421996  69.4678062  99.2166087  53.6390656
  70.4008735  99.1511649  53.8423531  69.3801275 100.0522354  53.1805189
  72.0966079  98.5331958  50.5994603  72.0179710  98.1991821  51.4930361
  72.9175746  99.0253726  50.5986076  74.7944270  91.3993697  63.8070922
  74.7620590  90.4609698  63.9930606  75.4044894  91.4777734  63.0736747
  66.6327601  90.2689750  49.8498126  67.5786705  90.1395958  49.9186544
  66.2541846  89.5304412  50.3267554  80.6120820  92.4609704  62.9476959
  81.3424208  92.1994992  63.5084662  80.0027765  91.7238426  62.9879027
  78.6936117  90.6017567  63.5451410  77.9669280  90.4673531  62.9367902
  78.2783404  90.9094395  64.3508128  66.5166293  94.3207496  71.3098783
  67.4369303  94.4986095  71.5038830  66.4815876  93.3763542  71.1578482
  64.8170518  88.1939726  49.7853011  63.9101973  87.8972839  49.8615725
  65.0946499  87.8969545  48.9187298  59.5128366  92.2308531  63.9521564
  59.7314376  93.1625639  63.9709598  59.9254140  91.8716505  64.7376368
  66.4332584  82.7376616  55.9397253  65.6233312  82.3923701  56.3152499
  67.1217001  82.4284160  56.5284864  63.5869303  85.0526662  49.9264991
  64.4488467  85.3781560  50.1860808  63.7719647  84.2658158  49.4138056
  55.6036718  93.1349001  62.2045179  54.9100190  92.7202954  61.6915134
  56.3509709  93.1769538  61.6078598  64.2487501  91.2338875  72.1589375
  63.7654583  92.0339236  72.3653264  64.3348440  91.2446820  71.2056819
  57.5173461  93.0667255  60.0811194  57.4944149  93.1654942  59.1293077
  57.8274097  93.9132406  60.4028360  60.1760839  95.1243410  64.1957809
  61.1304092  95.0927353  64.1287740  59.9773362  94.6634034  65.0108035
  60.7660221  93.6944526  66.7628606  61.5853110  94.1888605  66.7863444
  61.0397029  92.7776494  66.7346174  76.3113912  86.8229419  60.8984842
  76.9058403  86.5825155  60.1878150  76.3840496  86.1036549  61.5258378
  58.5311067 100.6663030  61.2128006  58.3965535  99.9063431  60.6466005
  58.1143130 101.3903930  60.7456795  69.6670031  95.8499953  50.2204582
  70.3705881  96.0549956  50.8362237  68.9432679  96.4176715  50.4853665
  70.4967841  91.6009814  56.3406852  70.4403042  92.0578366  55.5014484
  71.0496183  90.8400499  56.1629695  74.3072647  87.3899546  57.1656971
  74.0509581  86.9896182  57.9965179  73.6825515  88.1043340  57.0407111
  78.6184985  90.1295620  59.6728263  78.0584543  90.1988809  60.4459825
  78.0128488  89.9536604  58.9527759  61.6880193 101.5632347  61.4246449
  61.5712578 102.5077779  61.3225139  60.8672640 101.2605908  61.8132248
  71.5756728  96.2882482  52.2703042  72.4102332  95.8563681  52.0880517
  71.4141071  96.1164496  53.1979936  71.2302620  92.7914596  53.6359381
  71.1751424  92.6258867  52.6947825  70.6048675  93.4990629  53.7921571
  68.5448527  95.0963508  72.9612944  69.4139687  95.2704160  72.5999579
  68.0655279  95.9157924  72.8388673  64.5398746  82.2922705  53.2144700
  64.5277415  83.2364545  53.3712970  65.4322167  82.1092850  52.9204161
  62.7134707 102.2160609  64.6402378  63.6161954 102.2484219  64.9568872
  62.4872078 101.2861060  64.6548713  64.4688310 100.9691595  61.3012456
  63.5183941 100.9693457  61.1876828  64.7720796 100.2224330  60.7848491
  80.2041003 106.8052134  62.3658219  80.8419413 106.6858881  61.6621559
  80.0861846 107.7532977  62.4246171  77.0130709 106.7579562  62.3019743
  76.6749221 106.6420626  61.4140278  77.8820477 106.3570727  62.2820749
  72.8717525 108.6115038  58.2916634  72.3082390 108.5204975  57.5232922
  72.7569920 107.7914942  58.7719127  77.4950492 107.9114413  68.2605949
  77.4839133 107.5167212  67.3886452  77.6571132 107.1780486  68.8539720
  70.4181957 110.1066230  61.1300855  71.2103249 109.7657054  60.7147154
  70.6578607 110.2161205  62.0503008  78.4517084 112.2786006  53.6031099
  77.8005063 112.8640086  53.2165113  79.2461447 112.8092201  53.6626137
  72.3772711 109.3675143  54.0018233  73.1503587 108.8204130  53.8631109
  72.7298110 110.2319392  54.2132695  74.2157753 110.6951525  67.2085133
  73.9247619 111.5997156  67.0931799  74.8514738 110.7368053  67.9229202
  75.1413960 108.0728374  63.7986492  75.7377533 107.8484396  63.0843455
  75.1988932 107.3313119  64.4011940  74.7138989 105.5267809  51.6336683
  74.9664509 105.0049330  50.8720146  73.7763548 105.3633954  51.7363367
  79.7582271 104.5303587  59.4411427  80.5445361 104.1123011  59.0901844
  80.0220976 105.4349680  59.6093075  79.9292349 109.9676438  54.1400083
  79.2938182 110.0411064  54.8520988  79.5989755 110.5570037  53.4619163
  85.1590699 104.4678821  60.3444405  85.8915871 103.8978037  60.5782235
  84.4030054 104.0800421  60.7850911  74.4335277 107.4295915  53.8361058
  74.3171536 106.7540818  54.5042143  74.5437537 106.9428289  53.0193211
  76.7766818 106.8906062  57.5407748  76.4125026 106.3636683  58.2520669
  77.6333934 106.5004531  57.3674233  82.6816119  98.1800395  64.8039014
  82.3499444  99.0495806  64.5800229  82.0861732  97.8636679  65.4833044
  76.4172305 101.9195962  52.5369096  76.5846708 102.7876198  52.9039567
  76.2269474 102.0823243  51.6130385  79.1747638 110.3812941  64.2034926
  78.8748362 111.2837979  64.0950734  78.8298698 110.1145124  65.0556079
  72.6260120 106.8326738  60.2371631  71.7010616 106.7002952  60.4449323
  72.8744533 107.6120957  60.7341573  82.5744782 102.8995481  61.8832364
  81.6661660 102.8310889  61.5891125  82.5232378 103.3767426  62.7114189
  76.3961526 104.3753619  53.5215763  76.2761151 104.8210670  54.3601243
  75.7014115 104.7238937  52.9629301  69.9868931 106.4760011  61.0715420
  70.1161312 106.7294490  61.9854832  69.3066382 107.0687719  60.7520075
  74.1568418 117.1457261  57.1705894  74.0792448 118.0965086  57.2494375
  73.5530062 116.8003134  57.8280820  76.6485648 104.3185126  69.8267261
  75.8718982 104.8779047  69.8170126  77.2876211 104.8041909  70.3482131
  84.4406429 101.1011919  63.6610238  83.7980809 101.3944452  63.0150032
  83.9361357 100.9864840  64.4663434  82.0946592 104.8475092  54.3496097
  83.0064448 105.0802479  54.1743794  81.5856239 105.4312137  53.7871176
  74.9032020 107.1270580  69.3885228  75.6446705 107.6655624  69.1120052
  74.1969006 107.7536869  69.5456780  80.3787360 109.2699720  67.9857390
  80.7870716 108.8282131  67.2412022  79.6564622 108.6952348  68.2391582
  76.7318430 104.2072327  65.3590946  77.5779625 104.6311741  65.5025595
  76.6717068 103.5505951  66.0529510  80.7016175 109.8300911  61.7409678
  80.0725037 109.9946625  61.0385746  80.3141837 110.2442520  62.5120642
  84.5805407 110.7655349  59.0954042  83.8956445 111.1454250  58.5451075
  84.6649256 111.3750675  59.8285990  79.8817875 101.8676695  67.0172120
  79.6378807 102.6218756  66.4806396  80.1577806 102.2462043  67.8519367
  81.8356338 108.4115308  65.6949386  82.0473233 109.0547068  65.0183767
  81.7886086 107.5777624  65.2271316  79.4382567 101.0233128  62.5985958
  78.5767046 101.3214382  62.8902695  79.4645002 101.2403527  61.6666990
  76.2544137 109.5675319  59.0059764  76.7182482 109.8463022  58.2164386
  75.9900935 108.6658764  58.8232854  73.1468218 109.1146801  61.9439527
  73.7169575 109.5434069  61.3057011  73.7376329 108.8329385  62.6423712
  75.1913023 105.6898471  55.8149329  75.8937066 106.1419515  56.2823255
  74.8593651 105.0482290  56.4429222  73.6393384 104.2810228  70.1900538
  73.0092045 104.9626509  70.4235935  73.5329472 104.1693310  69.2453676
  68.9338357 103.9482024  61.1166462  68.1437411 104.2039553  60.6406573
  69.4249604 104.7630362  61.2218503  82.9502166 111.2887263  63.8671743
  83.7719610 110.8867450  63.5854425  82.9464569 111.1855497  64.8187859
  70.8853102 104.3126603  58.0749939  70.0884265 104.4245298  58.5933435
  70.6578694 104.6513255  57.2090829  76.7158770 110.8371306  66.0232454
  76.7803202 111.2991714  66.8590625  76.0069693 110.2068671  66.1514763
  67.2176060 104.2012514  63.5481453  67.4684098 105.0859524  63.8139029
  67.7535608 104.0217116  62.7756545  91.0408159 107.6326012  60.2156715
  90.2871868 107.0633410  60.0600719  91.1755700 107.5988676  61.1627349
  76.4306787 112.5039414  55.8911434  76.2952462 113.3490950  56.3196282
  76.9716600 112.7058692  55.1277368  72.9174127  98.5830994  72.5525789
  72.5241072  98.0297192  73.2273433  73.7340267  98.8941572  72.9432307
  69.8836185 110.0214852  56.4639359  70.3960705 110.8158102  56.6144924
  70.5358897 109.3241142  56.3972960  71.6931069 113.1380608  58.5462112
  71.8697698 114.0598573  58.3583096  72.4887903 112.8239027  58.9756492
  75.8342088  99.9988873  70.1446046  76.5751801 100.5996026  70.0650508
  76.0660011  99.2566511  69.5864088  70.9783426 105.1845240  68.4224275
  70.8636941 104.2830497  68.7231374  70.1227944 105.4308937  68.0709092
  78.0575264 113.1262980  70.0211776  77.6139118 112.3399359  69.7032680
  78.7192477 113.3142131  69.3555667  72.8162385 114.6558782  64.5472454
  73.3669810 114.5275845  63.7749448  71.9773861 114.9553671  64.1967347
  80.1556502 113.4065780  68.0493177  80.1374977 114.2274661  67.5573446
  81.0776422 113.2819856  68.2743318  76.6129556 110.9209910  68.8916686
  77.1457893 110.1598198  68.6615994  76.0843637 110.6283562  69.6340840
  79.7799251  96.0269976  64.4210327  79.4363520  96.9171618  64.3449438
  80.1478213  95.8371633  63.5579912  67.8485101 108.3503506  57.2398929
  68.6860323 108.7600515  57.0232637  68.0263369 107.4102948  57.2099123
  79.7449534 106.0178587  52.9282762  79.2296157 106.7883192  53.1671150
  79.4726842 105.3443723  53.5515824  77.3296645 100.8628288  57.9868001
  76.4738241 100.4735138  57.8073640  77.7423596 100.9420249  57.1267786
  78.8595791  98.3974631  62.3859561  78.3560587  98.3604766  61.5727366
  79.1526398  99.3067374  62.4456217  75.1038677  98.4813361  61.3925742
  75.9691674  98.2856169  61.0331632  75.1716186  98.2523712  62.3195099
  84.7183808 108.7710942  54.8635936  83.9413250 108.4322101  54.4191098
  85.3975289 108.7763565  54.1890901  79.5335837 103.8905679  54.7542544
  79.2285972 104.2051828  55.6052687  80.4866279 103.9687099  54.7969877
  77.9782269 110.0495902  56.4035498  77.4503630 109.3148662  56.0908735
  77.4769771 110.8270579  56.1575466  82.9575115 108.2444923  61.5202544
  82.2998789 108.9344184  61.6082673  83.7615514 108.6341355  61.8636530
  72.7100996 100.7115569  58.7642109  73.2844748 100.4890750  58.0315302
  73.2971979 100.7804263  59.5170710  81.7680573 106.5989296  59.5706486
  82.2812455 107.2319287  60.0728195  82.4181797 105.9990491  59.2049846
  73.0370583 102.7420030  52.7837994  72.2007895 103.0794716  53.1047269
  72.8975353 102.6069009  51.8465131  75.0123664  97.5856818  57.4917179
  74.3588076  97.2705835  56.8673793  74.9704138  96.9632558  58.2177001
  76.1234869 107.8676113  49.4070471  75.2161930 107.6365366  49.6061620
  76.6205901 107.0713732  49.5944452  79.0302948 116.5773620  52.3267157
  78.3564646 116.8805317  52.9352115  79.4168770 117.3802700  51.9772614
  78.2461404 104.0738751  61.8164826  77.3283966 104.2953698  61.6586514
  78.6621548 104.1485062  60.9576534  79.0296452 105.4730167  56.9467506
  79.7768271 105.9851564  56.6374628  79.2988042 105.1514219  57.8071900
  77.3023102 107.9688707  53.9294461  76.3934321 107.6847740  54.0266930
  77.3318186 108.3887786  53.0697768  82.5342370 111.5795297  57.6985628
  82.0804697 110.7386207  57.7550819  81.9036336 112.2156695  58.0360408
  81.4775289 102.5087283  58.9286296  80.7398046 101.9964669  59.2596538
  81.7302063 102.0687665  58.1169573  80.9775309 113.4171794  58.6335446
  81.2698283 113.9776851  57.9147812  81.4873929 113.7100355  59.3888606
  81.5786916  95.2863535  59.5228065  81.8845793  94.4260898  59.2353980
  82.3039521  95.8781155  59.3227059  67.8711273 105.6894222  57.9109663
  67.6735672 105.0963582  57.1860729  67.3157937 105.3846432  58.6285602
  75.8507996 105.5817328  60.0304256  75.9056606 104.6291164  59.9546733
  75.0399198 105.7376767  60.5145554  76.9999190 109.5097451  51.2682539
  76.5618620 108.7933310  50.8088177  77.7409631 109.7373566  50.7067631
  73.7900356 104.1994388  57.7894635  72.9768222 104.4988558  58.1959827
  74.2859350 103.8050077  58.5069117  75.9408934 114.1952145  59.7228900
  75.8985113 114.4212991  58.7937432  76.8571633 113.9615519  59.8714701
  79.3874568 104.6636212  66.6209529  79.7423956 104.8907685  67.4803995
  80.0346699 104.9954589  65.9986784  85.1172305 107.7854648  57.3258858
  84.9790203 107.9756244  56.3980047  84.7608524 108.5474031  57.7826909
  73.2814431 101.7712743  63.4055870  73.9213810 101.6301502  62.7078833
  72.4491961 101.4847257  63.0294472  85.1441684 109.8531175  62.3370129
  85.5778191 109.7606464  63.1853183  85.8573265 109.8288676  61.6990145
  74.0574735 111.0715174  59.5190862  74.8515333 110.5765494  59.3173437
  73.3466427 110.5433037  59.1558568  78.8769579 113.4533269  63.8703230
  78.9306602 114.0224206  64.6380946  78.0084361 113.6235154  63.5057267
  70.3657498 105.2158256  55.5950615  69.4355086 105.1542711  55.8120577
  70.4614970 104.6934208  54.7987256  70.2843047 101.7413068  58.1828857
  70.5449865 102.6558402  58.0738017  71.1060220 101.2737511  58.3325470
  71.7567973 103.1550826  65.3527681  72.4291026 102.9468188  64.7040330
  70.9297759 102.9572912  64.9132914  86.0057234 109.8954876  64.8703015
  86.1993124 110.8000686  65.1162290  85.9057852 109.4362295  65.7041600
  77.6593545  99.7812766  67.3693342  77.0121460 100.4802716  67.2757819
  78.4294560 100.2148910  67.7369590  81.0672343 110.0461619  70.4443895
  80.9157849 109.8172170  69.5273979  81.0577022 111.0032220  70.4575240
  77.8357679 107.6193531  65.4290162  78.7649739 107.7704691  65.2559129
  77.4148709 107.7077552  64.5738808  76.6346011 111.6444196  63.1988699
  76.4957096 111.2762980  64.0714638  75.8460607 112.1591835  63.0272657
  77.2294163 116.7453292  54.5414236  77.4045918 116.2741335  55.3559859
  76.5426951 117.3719058  54.7695497  78.1851226 111.0225798  60.5877537
  77.8501059 110.9826568  61.4835187  77.6855172 110.3570514  60.1147947
  72.1595470 106.4293428  66.1130118  72.0215268 105.6973667  66.7141657
  73.0700393 106.3402329  65.8314306  81.1210418 108.3681833  50.8614597
  80.5039588 107.6428661  50.7647650  80.6526906 109.1291193  50.5181671
  74.7877771 106.1413388  65.6013798  75.4977389 105.5006580  65.5600416
  74.7447079 106.3926283  66.5239979  82.7764549 113.0780741  68.5220377
  82.7177095 112.3939961  67.8550960  83.1784068 113.8199731  68.0701003
  73.5006705 103.1278606  67.4209438  72.9644062 102.6769344  68.0731034
  72.9123413 103.2624515  66.6779902  71.7955248 119.8942655  61.3154096
  72.0351846 120.5261179  61.9933115  70.9524444 119.5430695  61.6019455
  72.9108963 102.5867257  49.9835901  72.0338430 102.4656058  49.6198148
  73.3866717 101.7953335  49.7314790  82.7781956 111.0420325  66.7534357
  81.8908735 110.7046247  66.8760756  83.3480508 110.3103356  66.9903122
  64.4311104 107.3744417  60.0777408  65.1182143 107.0606147  59.4898424
  64.2759232 108.2785781  59.8044660  69.2345826 102.2634613  64.5062432
  69.1504014 101.6560283  63.7712842  68.4128532 102.7543632  64.5071928
  76.3083110 115.7021777  63.7195600  76.2353281 116.5076749  64.2314905
  75.8660503 115.9013743  62.8943622  76.0972889 114.9393547  57.2298422
  75.3140411 115.4815228  57.3236646  76.7965635 115.4567527  57.6292663
  79.4069540 100.7488177  59.8732627  79.9038239  99.9958139  59.5533697
  78.6356521 100.7852494  59.3075836  87.2599297 106.4528542  61.5150919
  87.2489173 107.3353258  61.1444852  86.3916676 106.1000093  61.3205456
  78.7681793 115.6008611  65.8753759  79.4809766 116.2356076  65.8029660
  78.2771822 115.6972477  65.0593761  80.4899320 109.5059864  57.4471050
  79.5555599 109.6261327  57.2775755  80.6675989 108.6032331  57.1831060
  75.9904508 102.8905560  59.6004312  75.6202296 102.3376600  60.2885217
  76.4863601 102.2863693  59.0479312  83.8771872 105.3477183  57.9821085
  84.3432324 106.1805175  57.9081387  84.3279372 104.8822165  58.6866343
  73.8193707 113.3503055  66.6959330  74.5203166 113.9839538  66.8488724
  73.3488822 113.6917786  65.9354969  81.9448103 111.6921005  54.9807237
  82.2207947 111.5777599  55.8901111  81.0752602 111.2938490  54.9419410
  81.8488534  97.7157770  62.0211986  80.9351614  97.9461997  62.1894193
  82.2781636  97.7996214  62.8726018  81.6194993 105.9047662  64.5211880
  80.9666443 106.1523570  63.8664333  81.9975373 105.0911801  64.1874357
  78.5802167 115.9407356  58.6240050  78.7624561 115.1229011  59.0867803
  79.4035153 116.1575048  58.1864940  78.9144332 114.8675541  55.8855099
  79.4432099 114.3567995  55.2725261  79.1772552 114.5518071  56.7500632
  77.6682566 106.6467473  71.0077917  76.9923203 106.5461603  71.6780292
  78.4910200 106.4906687  71.4713914  69.4161425 112.8839410  63.6290432
  70.0014862 112.1383098  63.7618336  69.2186263 113.1943367  64.5127096
  72.2700080 115.9190657  58.6452875  71.6010455 116.4036785  58.1616915
  72.1312950 116.1659878  59.5596253  64.0079080 105.4545010  62.3494875
  64.0463179 104.9208601  63.1431994  63.5019373 104.9280216  61.7305853
  76.4105349 117.9534401  65.2435533  76.9623657 118.1166022  66.0084618
  76.7511542 118.5438839  64.5715558  71.3869842 100.3009551  65.8457418
  71.4511169 101.1624382  65.4334815  71.3236962  99.6883552  65.1129776
  70.8622115 102.3732683  69.4930452  71.4894153 101.9909761  70.1067976
  70.0050033 102.1546885  69.8586144  81.2616223 112.7795658  71.0984187
  81.8056127 113.3925617  70.6039142  80.6803068 113.3375237  71.6151200
  67.6387657 104.1809112  55.4248807  67.9341098 103.2719791  55.3715861
  66.7375693 104.1596852  55.1029809  79.5473736 115.9016376  62.2299215
  79.4224876 115.1006116  61.7210161  80.2052827 116.3962570  61.7413185
  71.1681904 102.2565109  61.4076355  70.4468490 102.8701077  61.2683829
  71.9575160 102.7922874  61.3293001  81.6108644 113.7025397  63.8578765
  80.6638980 113.5830748  63.7857092  81.9591418 112.8147895  63.9405027
  73.9708218  99.5919535  67.6817007  74.4942620  99.8381832  68.4443316
  73.7520551 100.4239570  67.2620145  69.3675499 101.8623210  55.5488132
  69.0388205 100.9820589  55.3663238  69.7214870 101.8070879  56.4364521
  78.6155078 113.4978113  60.0583118  78.4680040 112.5694820  60.2390688
  79.4408571 113.5198203  59.5740193  72.4817322 102.1496180  55.9163610
  72.8213395 102.6782101  55.1942218  72.9289443 102.4876586  56.6922176
  82.2189200 114.3206671  61.1447990  83.1435747 114.1149533  61.0072441
  82.0504503 114.0723073  62.0537332  75.1760763 100.5333231  65.3666678
  74.8357583  99.7341044  65.7687358  74.4699769 100.8334941  64.7943511
  75.8277235  97.6182543  63.8194001  76.6503304  97.1443021  63.6972891
  76.0715298  98.3973027  64.3192687  74.4685469 100.6470801  54.1156902
  75.1893832 101.0252054  53.6120619  73.8450773 101.3659678  54.2191880
  78.6116592 101.3515950  55.0515235  78.8280206 102.2340588  54.7504063
  78.1310659 100.9602164  54.3220877  73.3515813 104.3101664  61.6285979
  73.2060394 104.6241967  62.5210261  72.8741017 104.9286564  61.0756878
  75.2112196 101.3004212  61.6766869  75.1973765 100.4045305  61.3399167
  75.9284624 101.3074875  62.3105155  77.0638327 101.7341552  63.7219996
  76.8056105 102.6558622  63.7204327  76.5323367 101.3371986  64.4120460
  82.0084516 114.8392339  56.5010082  82.1821393 114.2738761  55.7483934
  82.5013407 115.6393234  56.3189572  67.8261476 106.8507008  64.5673641
  67.2814944 107.6266816  64.6993915  68.7040825 107.1977812  64.4092762
  74.6149092 100.1818592  56.9454439  74.7365003  99.2535238  57.1445327
  74.3251135 100.1957278  56.0332754  77.4840283  97.8673502  60.0821159
  77.5061979  97.9312835  59.1273138  77.9008342  97.0278011  60.2761665
  87.8623907 107.6028762  58.1200381  88.3055053 106.8536087  57.7219505
  86.9850417 107.5938898  57.7374113  82.9959688 114.1559103  53.6006980
  83.6910593 114.7765796  53.8194295  83.3382838 113.3054455  53.8759358
  68.6127497 105.9776904  67.4603797  67.8709234 106.1259540  68.0468428
  68.2920242 106.2385170  66.5970547  84.8951111 111.6058809  55.1294311
  85.4202436 111.9446082  54.4043631  84.8073464 110.6705824  54.9457445
  76.5571160 115.5192882  67.2584187  76.8658287 115.2742029  68.1306887
  77.3546642 115.7239521  66.7703058  76.5791772 117.6730792  59.4889564
  76.1396762 117.1807171  60.1822421  77.3299889 117.1303760  59.2481639
  69.0584111 113.8642333  59.4914192  69.8842131 113.5646105  59.1112836
  68.7078163 113.0949955  59.9403981  74.0265644 113.2168801  61.5611866
  73.4045654 112.5539506  61.2614093  74.6970511 113.2429933  60.8785513
  67.2592716 111.7828659  60.4503126  66.4224625 111.3550834  60.2687127
  67.2316362 111.9761103  61.3873917  74.0990172 101.6950589  71.1544372
  74.1478327 102.5712712  70.7722141  74.6412686 101.1527982  70.5816015
  84.5845017 112.2391712  70.4345509  83.7940561 112.2215851  69.8950008
  84.3478372 112.7780006  71.1894545  84.7042893 109.0884179  67.7478237
  84.7540897 108.9234186  68.6893760  84.5956816 108.2211438  67.3576118
  73.5879151 111.7672725  55.0370326  73.7367272 112.4508189  54.3836999
  74.3945595 111.7477815  55.5519782  81.9946655 105.0715107  69.0637544
  82.8956518 104.9321572  68.7721542  82.0694629 105.2369562  70.0035721
  76.3289460 102.4481962  67.9090730  75.4592770 102.7415528  67.6373319
  76.5648941 103.0322407  68.6297994  86.2061089 111.5081120  67.9920259
  85.9145898 111.8711101  68.8283720  85.5933221 110.7948129  67.8133591
  87.4056772 109.0734000  60.5122829  88.2403663 109.5123804  60.6760389
  87.5415900 108.5972653  59.6931075  84.4548278 106.6313735  66.4600317
  84.9302399 106.8241381  65.6519168  83.5313843 106.6872921  66.2143700
  71.3431784 107.7937902  56.0431395  71.0977826 106.8900232  56.2411605
  71.5127699 107.7955053  55.1010873  79.0328494  98.6661579  65.4256151
  79.5510438  99.4022605  65.1002639  78.6783627  98.9725572  66.2602910
  70.6127432 103.5266260  53.5417557  69.9196677 103.6010615  52.8857593
  70.3679184 102.7626603  54.0639073  79.2841088  95.0861861  60.9457047
  79.5642842  94.4185050  61.5717474  80.0691695  95.2790957  60.4331711
  77.0874557 114.2620855  52.5082074  76.5148524 114.8811042  52.0552545
  77.6607350 114.8120217  53.0421996  83.1549947 103.5079495  64.6928622
  84.1067370 103.6077593  64.7140846  82.9853397 102.7157764  65.2026707
  81.1764326 100.5935078  64.8788023  80.5814258 100.8740091  64.1834512
  80.8914023 101.0828979  65.6504764  80.3071817 114.5458005  53.6390656
  81.2402490 114.4803567  53.8423531  80.2195029 115.3814272  53.1805189
  82.9359833 113.8623875  50.5994603  82.8573465 113.5283739  51.4930361
  83.7569500 114.3545643  50.5986076  85.6338024 106.7285615  63.8070922
  85.6014345 105.7901616  63.9930606  86.2438648 106.8069651  63.0736747
  77.4721355 105.5981668  49.8498126  78.4180460 105.4687876  49.9186544
  77.0935600 104.8596330  50.3267554  85.7832513 103.5196658  63.8529205
  85.2671562 102.7355115  63.6659134  86.6672461 103.1915375  64.0175725
  83.4443240  97.2637674  59.8125018  83.2468061  96.9552762  60.6968350
  84.0542945  97.9899313  59.9422948  91.4514574 107.7901622  62.9476959
  92.1817963 107.5286910  63.5084662  90.8421520 107.0530344  62.9879027
  89.5329871 105.9309484  63.5451410  88.8063035 105.7965449  62.9367902
  89.1177158 106.2386313  64.3508128  77.3560048 109.6499414  71.3098783
  78.2763057 109.8278013  71.5038830  77.3209631 108.7055459  71.1578482
  75.6564272 103.5231644  49.7853011  74.7495728 103.2264757  49.8615725
  75.9340253 103.2261462  48.9187298  66.5742213 104.8438008  60.2352058
  66.2544997 103.9903316  59.9426432  66.0275641 105.0586586  60.9910025
  70.3522120 107.5600449  63.9521564  70.5708130 108.4917556  63.9709598
  70.7647894 107.2008423  64.7376368  77.2726338  98.0668534  55.9397253
  76.4627066  97.7215619  56.3152499  77.9610755  97.7576078  56.5284864
  79.2016886  97.1446581  57.5621549  79.7547925  97.5642034  58.2211572
  79.4386973  96.2182329  57.6044505  75.2249986 103.1333654  73.3424313
  75.1246713 104.0828011  73.2736404  75.0071528 102.8051893  72.4700383
  74.4263057 100.3818579  49.9264991  75.2882221 100.7073478  50.1860808
  74.6113401  99.5950075  49.4138056  66.4430473 108.4640919  62.2045179
  65.7493944 108.0494872  61.6915134  67.1903464 108.5061456  61.6078598
  82.5795694  99.2547106  57.0700214  81.9994363  99.9131910  56.6878266
  82.3131626  98.4324450  56.6587631  81.0299260  98.6552164  59.2721534
  81.5299038  98.7668698  58.4635853  81.6734868  98.3513216  59.9122342
  75.0881256 106.5630793  72.1589375  74.6048337 107.3631153  72.3653264
  75.1742195 106.5738738  71.2056819  68.3567215 108.3959173  60.0811194
  68.3337903 108.4946860  59.1293077  68.6667852 109.2424324  60.4028360
  71.0154593 110.4535328  64.1957809  71.9697847 110.4219270  64.1287740
  70.8167117 109.9925952  65.0108035  71.6053975 109.0236444  66.7628606
  72.4246864 109.5180523  66.7863444  71.8790783 108.1068412  66.7346174
  81.3620572 101.4147196  56.1256562  80.4746427 101.6996847  55.9076757
  81.7774561 101.2540960  55.2783839  84.7135108 101.4393717  59.8410901
  85.4895498 101.9290170  60.1135518  83.9883242 101.8651771  60.2982771
  87.1507666 102.1521336  60.8984842  87.7452157 101.9117072  60.1878150
  87.2234250 101.4328467  61.5258378  69.3704822 115.9954947  61.2128006
  69.2359290 115.2355348  60.6466005  68.9536884 116.7195847  60.7456795
  80.5063785 111.1791871  50.2204582  81.2099635 111.3841873  50.8362237
  79.7826434 111.7468633  50.4853665  81.3361595 106.9301732  56.3406852
  81.2796797 107.3870284  55.5014484  81.8889938 106.1692417  56.1629695
  85.1466401 102.7191464  57.1656971  84.8903335 102.3188100  57.9965179
  84.5219269 103.4335258  57.0407111  89.4578739 105.4587537  59.6728263
  88.8978297 105.5280727  60.4459825  88.8522242 105.2828522  58.9527759
  72.5273948 116.8924264  61.4246449  72.4106332 117.8369697  61.3225139
  71.7066394 116.5897826  61.8132248  82.4150482 111.6174400  52.2703042
  83.2496086 111.1855599  52.0880517  82.2534825 111.4456414  53.1979936
  82.0696375 108.1206513  53.6359381  82.0145178 107.9550785  52.6947825
  81.4442430 108.8282546  53.7921571  66.8588890 103.3574578  67.4620803
  67.5047753 102.8473532  67.9508028  66.6506041 104.0943259  68.0364229
  79.3842282 110.4255425  72.9612944  80.2533441 110.5996078  72.5999579
  78.9049033 111.2449842  72.8388673  75.3792500  97.6214622  53.2144700
  75.3671170  98.5656462  53.3712970  76.2715922  97.4384768  52.9204161
  73.5528462 117.5452526  64.6402378  74.4555709 117.5776137  64.9568872
  73.3265832 116.6152977  64.6548713  75.3082064 116.2983513  61.3012456
  74.3577695 116.2985374  61.1876828  75.6114550 115.5516247  60.7848491
  79.1944619  94.2157399  57.4690636  78.4277015  93.6615886  57.6147319
  79.6055324  94.2879268  58.3304788  71.1986381 100.5042195  71.5595818
  72.0617842 100.1479000  71.7699142  70.6251791 100.1656090  72.2471222
  91.0434757 122.1344051  62.3658219  91.6813167 122.0150799  61.6621559
  90.9255600 123.0824895  62.4246171  87.8524464 122.0871479  62.3019743
  87.5142975 121.9712544  61.4140278  88.7214232 121.6862644  62.2820749
  83.7111279 123.9406956  58.2916634  83.1476145 123.8496893  57.5232922
  83.5963675 123.1206860  58.7719127  88.3344247 123.2406331  68.2605949
  88.3232888 122.8459129  67.3886452  88.4964886 122.5072404  68.8539720
  81.2575711 125.4358147  61.1300855  82.0497003 125.0948972  60.7147154
  81.4972362 125.5453122  62.0503008  83.2166465 124.6967061  54.0018233
  83.9897341 124.1496048  53.8631109  83.5691864 125.5611310  54.2132695
  85.0551508 126.0243443  67.2085133  84.7641374 126.9289074  67.0931799
  85.6908492 126.0659970  67.9229202  85.9807715 123.4020291  63.7986492
  86.5771287 123.1776314  63.0843455  86.0382686 122.6605037  64.4011940
  85.5532743 120.8559727  51.6336683  85.8058264 120.3341248  50.8720146
  84.6157302 120.6925872  51.7363367  90.5976026 119.8595505  59.4411427
  91.3839115 119.4414928  59.0901844  90.8614730 120.7641597  59.6093075
  95.9984453 119.7970738  60.3444405  96.7309625 119.2269955  60.5782235
  95.2423809 119.4092339  60.7850911  85.2729032 122.7587833  53.8361058
  85.1565290 122.0832736  54.5042143  85.3831292 122.2720207  53.0193211
  87.6160573 122.2197980  57.5407748  87.2518780 121.6928601  58.2520669
  88.4727689 121.8296449  57.3674233  93.5209873 113.5092312  64.8039014
  93.1893198 114.3787723  64.5800229  92.9255487 113.1928596  65.4833044
  87.2566060 117.2487879  52.5369096  87.4240462 118.1168116  52.9039567
  87.0663229 117.4115161  51.6130385  83.4653874 122.1618655  60.2371631
  82.5404371 122.0294869  60.4449323  83.7138288 122.9412874  60.7341573
  93.4138537 118.2287399  61.8832364  92.5055414 118.1602807  61.5891125
  93.3626133 118.7059343  62.7114189  87.2355281 119.7045537  53.5215763
  87.1154906 120.1502588  54.3601243  86.5407869 120.0530855  52.9629301
  80.8262686 121.8051929  61.0715420  80.9555067 122.0586408  61.9854832
  80.1460137 122.3979637  60.7520075  87.4879403 119.6477044  69.8267261
  86.7112737 120.2070964  69.8170126  88.1269966 120.1333827  70.3482131
  95.2800183 116.4303837  63.6610238  94.6374563 116.7236370  63.0150032
  94.7755112 116.3156757  64.4663434  92.9340347 120.1767010  54.3496097
  93.8458203 120.4094397  54.1743794  92.4249994 120.7604054  53.7871176
  85.7425775 122.4562497  69.3885228  86.4840459 122.9947541  69.1120052
  85.0362760 123.0828786  69.5456780  91.2181115 124.5991638  67.9857390
  91.6264471 124.1574048  67.2412022  90.4958376 124.0244265  68.2391582
  87.5712185 119.5364245  65.3590946  88.4173380 119.9603658  65.5025595
  87.5110822 118.8797869  66.0529510  90.7211630 117.1968613  67.0172120
  90.4772562 117.9510674  66.4806396  90.9971560 117.5753961  67.8519367
  90.2776322 116.3525046  62.5985958  89.4160801 116.6506300  62.8902695
  90.3038756 116.5695445  61.6666990  87.0937891 124.8967237  59.0059764
  87.5576237 125.1754940  58.2164386  86.8294689 123.9950681  58.8232854
  83.9861972 124.4438718  61.9439527  84.5563329 124.8725987  61.3057011
  84.5770084 124.1621303  62.6423712  86.0306777 121.0190389  55.8149329
  86.7330820 121.4711433  56.2823255  85.6987406 120.3774208  56.4429222
  84.4787139 119.6102146  70.1900538  83.8485799 120.2918427  70.4235935
  84.3723226 119.4985227  69.2453676  79.7732111 119.2773942  61.1166462
  78.9831165 119.5331470  60.6406573  80.2643358 120.0922280  61.2218503
  81.7246856 119.6418521  58.0749939  80.9278020 119.7537215  58.5933435
  81.4972449 119.9805173  57.2090829  87.5552524 126.1663224  66.0232454
  87.6196957 126.6283631  66.8590625  86.8463448 125.5360589  66.1514763
  78.0569814 119.5304432  63.5481453  78.3077852 120.4151442  63.8139029
  78.5929362 119.3509034  62.7756545  83.7567881 113.9122911  72.5525789
  83.3634827 113.3589110  73.2273433  84.5734022 114.2233490  72.9432307
  80.7229939 125.3506770  56.4639359  81.2354460 126.1450020  56.6144924
  81.3752652 124.6533060  56.3972960  82.5324824 128.4672526  58.5462112
  82.7091452 129.3890491  58.3583096  83.3281657 128.1530945  58.9756492
  86.6735842 115.3280791  70.1446046  87.4145556 115.9287944  70.0650508
  86.9053765 114.5858428  69.5864088  81.8177180 120.5137158  68.4224275
  81.7030695 119.6122415  68.7231374  80.9621698 120.7600855  68.0709092
  83.6556139 129.9850700  64.5472454  84.2063564 129.8567763  63.7749448
  82.8167615 130.2845589  64.1967347  87.4523310 126.2501828  68.8916686
  87.9851647 125.4890116  68.6615994  86.9237391 125.9575479  69.6340840
  90.6193005 111.3561894  64.4210327  90.2757275 112.2463535  64.3449438
  90.9871968 111.1663551  63.5579912  78.6878856 123.6795424  57.2398929
  79.5254078 124.0892432  57.0232637  78.8657124 122.7394866  57.2099123
  90.5843288 121.3470505  52.9282762  90.0689911 122.1175109  53.1671150
  90.3120596 120.6735641  53.5515824  88.1690399 116.1920205  57.9868001
  87.3131995 115.8027056  57.8073640  88.5817351 116.2712166  57.1267786
  89.6989546 113.7266549  62.3859561  89.1954341 113.6896684  61.5727366
  89.9920153 114.6359291  62.4456217  85.9432432 113.8105278  61.3925742
  86.8085428 113.6148087  61.0331632  86.0109940 113.5815630  62.3195099
  90.3729591 119.2197597  54.7542544  90.0679727 119.5343746  55.6052687
  91.3260033 119.2979017  54.7969877  88.8176023 125.3787820  56.4035498
  88.2897385 124.6440580  56.0908735  88.3163526 126.1562496  56.1575466
  83.5494751 116.0407486  58.7642109  84.1238503 115.8182668  58.0315302
  84.1365733 116.1096181  59.5170710  92.6074328 121.9281213  59.5706486
  93.1206210 122.5611205  60.0728195  93.2575552 121.3282409  59.2049846
  83.8764338 118.0711947  52.7837994  83.0401650 118.4086634  53.1047269
  83.7369107 117.9360927  51.8465131  85.8517418 112.9148735  57.4917179
  85.1981831 112.5997752  56.8673793  85.8097892 112.2924476  58.2177001
  86.9628623 123.1968030  49.4070471  86.0555685 122.9657284  49.6061620
  87.4599655 122.4005650  49.5944452  89.0855159 119.4030669  61.8164826
  88.1677720 119.6245616  61.6586514  89.5015302 119.4776979  60.9576534
  89.8690206 120.8022084  56.9467506  90.6162025 121.3143482  56.6374628
  90.1381796 120.4806137  57.8071900  88.1416857 123.2980625  53.9294461
  87.2328076 123.0139658  54.0266930  88.1711940 123.7179704  53.0697768
  92.3169044 117.8379201  58.9286296  91.5791800 117.3256587  59.2596538
  92.5695817 117.3979582  58.1169573  92.4180671 110.6155453  59.5228065
  92.7239548 109.7552816  59.2353980  93.1433276 111.2073073  59.3227059
  78.7105027 121.0186139  57.9109663  78.5129427 120.4255500  57.1860729
  78.1551691 120.7138349  58.6285602  86.6901751 120.9109246  60.0304256
  86.7450360 119.9583082  59.9546733  85.8792953 121.0668685  60.5145554
  87.8392944 124.8389369  51.2682539  87.4012374 124.1225228  50.8088177
  88.5803385 125.0665484  50.7067631  84.6294111 119.5286306  57.7894635
  83.8161976 119.8280476  58.1959827  85.1253105 119.1341994  58.5069117
  90.2268322 119.9928130  66.6209529  90.5817710 120.2199603  67.4803995
  90.8740453 120.3246507  65.9986784  84.1208185 117.1004661  63.4055870
  84.7607565 116.9593420  62.7078833  83.2885716 116.8139174  63.0294472
  84.8968489 126.4007091  59.5190862  85.6909088 125.9057412  59.3173437
  84.1860182 125.8724955  59.1558568  81.2051253 120.5450173  55.5950615
  80.2748841 120.4834629  55.8120577  81.3008725 120.0226126  54.7987256
  81.1236802 117.0704986  58.1828857  81.3843619 117.9850319  58.0738017
  81.9453974 116.6029429  58.3325470  82.5961727 118.4842743  65.3527681
  83.2684781 118.2760105  64.7040330  81.7691514 118.2864829  64.9132914
  88.4987299 115.1104684  67.3693342  87.8515214 115.8094634  67.2757819
  89.2688315 115.5440828  67.7369590  88.6751433 122.9485449  65.4290162
  89.6043493 123.0996609  65.2559129  88.2542463 123.0369470  64.5738808
  87.4739765 126.9736113  63.1988699  87.3350851 126.6054898  64.0714638
  86.6854361 127.4883753  63.0272657  89.0244980 126.3517716  60.5877537
  88.6894813 126.3118486  61.4835187  88.5248926 125.6862432  60.1147947
  82.9989224 121.7585346  66.1130118  82.8609022 121.0265585  66.7141657
  83.9094148 121.6694246  65.8314306  91.9604172 123.6973750  50.8614597
  91.3433343 122.9720579  50.7647650  91.4920661 124.4583111  50.5181671
  85.6271525 121.4705306  65.6013798  86.3371144 120.8298498  65.5600416
  85.5840833 121.7218200  66.5239979  84.3400459 118.4570523  67.4209438
  83.8037816 118.0061262  68.0731034  83.7517167 118.5916432  66.6779902
  83.7502718 117.9159175  49.9835901  82.8732184 117.7947976  49.6198148
  84.2260471 117.1245253  49.7314790  75.2704858 122.7036335  60.0777408
  75.9575898 122.3898065  59.4898424  75.1152987 123.6077699  59.8044660
  80.0739580 117.5926531  64.5062432  79.9897769 116.9852201  63.7712842
  79.2522287 118.0835549  64.5071928  90.2463294 116.0780095  59.8732627
  90.7431994 115.3250057  59.5533697  89.4750276 116.1144411  59.3075836
  91.3293075 124.8351782  57.4471050  90.3949354 124.9553244  57.2775755
  91.5069743 123.9324249  57.1831060  86.8298263 118.2197478  59.6004312
  86.4596050 117.6668518  60.2885217  87.3257355 117.6155611  59.0479312
  94.7165626 120.6769101  57.9821085  95.1826078 121.5097093  57.9081387
  95.1673127 120.2114083  58.6866343  84.6587461 128.6794973  66.6959330
  85.3596921 129.3131456  66.8488724  84.1882576 129.0209704  65.9354969
  92.6882289 113.0449688  62.0211986  91.7745369 113.2753915  62.1894193
  93.1175390 113.1288132  62.8726018  92.4588747 121.2339580  64.5211880
  91.8060198 121.4815488  63.8664333  92.8369127 120.4203718  64.1874357
  88.5076320 121.9759391  71.0077917  87.8316957 121.8753520  71.6780292
  89.3303954 121.8198605  71.4713914  80.2555179 128.2131328  63.6290432
  80.8408616 127.4675016  63.7618336  80.0580018 128.5235284  64.5127096
  74.8472834 120.7836928  62.3494875  74.8856934 120.2500519  63.1431994
  74.3413127 120.2572133  61.7305853  82.2263597 115.6301468  65.8457418
  82.2904923 116.4916299  65.4334815  82.1630717 115.0175470  65.1129776
  81.7015869 117.7024601  69.4930452  82.3287908 117.3201678  70.1067976
  80.8443788 117.4838803  69.8586144  78.4781412 119.5101030  55.4248807
  78.7734853 118.6011708  55.3715861  77.5769448 119.4888769  55.1029809
  82.0075659 117.5857027  61.4076355  81.2862245 118.1992994  61.2683829
  82.7968915 118.1214791  61.3293001  84.8101972 114.9211453  67.6817007
  85.3336374 115.1673750  68.4443316  84.5914306 115.7531488  67.2620145
  80.2069253 117.1915128  55.5488132  79.8781960 116.3112507  55.3663238
  80.5608624 117.1362796  56.4364521  83.3211077 117.4788097  55.9163610
  83.6607149 118.0074019  55.1942218  83.7683197 117.8168504  56.6922176
  86.0154517 115.8625148  65.3666678  85.6751338 115.0632961  65.7687358
  85.3093524 116.1626859  64.7943511  86.6670989 112.9474461  63.8194001
  87.4897059 112.4734939  63.6972891  86.9109053 113.7264944  64.3192687
  85.3079224 115.9762719  54.1156902  86.0287586 116.3543972  53.6120619
  84.6844528 116.6951596  54.2191880  89.4510347 116.6807868  55.0515235
  89.6673961 117.5632506  54.7504063  88.9704414 116.2894081  54.3220877
  84.1909568 119.6393581  61.6285979  84.0454149 119.9533884  62.5210261
  83.7134772 120.2578482  61.0756878  86.0505951 116.6296129  61.6766869
  86.0367520 115.7337223  61.3399167  86.7678379 116.6366793  62.3105155
  87.9032082 117.0633469  63.7219996  87.6449859 117.9850540  63.7204327
  87.3717122 116.6663904  64.4120460  78.6655230 122.1798926  64.5673641
  78.1208698 122.9558734  64.6993915  79.5434580 122.5269730  64.4092762
  85.4542847 115.5110510  56.9454439  85.5758758 114.5827156  57.1445327
  85.1644889 115.5249196  56.0332754  88.3234037 113.1965420  60.0821159
  88.3455734 113.2604753  59.1273138  88.7402096 112.3569929  60.2761665
  79.4521252 121.3068822  67.4603797  78.7102988 121.4551457  68.0468428
  79.1313996 121.5677088  66.5970547  79.8977866 129.1934251  59.4914192
  80.7235886 128.8938023  59.1112836  79.5471918 128.4241873  59.9403981
  84.8659399 128.5460719  61.5611866  84.2439408 127.8831424  61.2614093
  85.5364266 128.5721851  60.8785513  78.0986471 127.1120577  60.4503126
  77.2618379 126.6842751  60.2687127  78.0710116 127.3053020  61.3873917
  84.9383926 117.0242507  71.1544372  84.9872082 117.9004630  70.7722141
  85.4806441 116.4819900  70.5816015  84.4272906 127.0964642  55.0370326
  84.5761026 127.7800107  54.3836999  85.2339349 127.0769732  55.5519782
  92.8340409 120.4007025  69.0637544  93.7350272 120.2613489  68.7721542
  92.9088384 120.5661479  70.0035721  87.1683215 117.7773879  67.9090730
  86.2986524 118.0707445  67.6373319  87.4042695 118.3614324  68.6297994
  82.1825539 123.1229820  56.0431395  81.9371581 122.2192150  56.2411605
  82.3521453 123.1246970  55.1010873  89.8722249 113.9953496  65.4256151
  90.3904192 114.7314523  65.1002639  89.5177381 114.3017490  66.2602910
  81.4521186 118.8558177  53.5417557  80.7590431 118.9302532  52.8857593
  81.2072938 118.0918521  54.0639073  90.1234843 110.4153779  60.9457047
  90.4036597 109.7476968  61.5717474  90.9085450 110.6082874  60.4331711
  93.9943701 118.8371413  64.6928622  94.9461124 118.9369510  64.7140846
  93.8247152 118.0449681  65.2026707  92.0158081 115.9226996  64.8788023
  91.4208013 116.2032009  64.1834512  91.7307777 116.4120897  65.6504764
  88.3115110 120.9273585  49.8498126  89.2574214 120.7979794  49.9186544
  87.9329355 120.1888247  50.3267554  96.6226267 118.8488576  63.8529205
  96.1065316 118.0647033  63.6659134  97.5066216 118.5207293  64.0175725
  94.2836994 112.5929591  59.8125018  94.0861815 112.2844680  60.6968350
  94.8936700 113.3191230  59.9422948  88.1953802 124.9791332  71.3098783
  89.1156812 125.1569931  71.5038830  88.1603385 124.0347377  71.1578482
  86.4958027 118.8523562  49.7853011  85.5889482 118.5556675  49.8615725
  86.7734008 118.5553380  48.9187298  77.4135967 120.1729925  60.2352058
  77.0938752 119.3195233  59.9426432  76.8669395 120.3878503  60.9910025
  81.1915875 122.8892366  63.9521564  81.4101885 123.8209474  63.9709598
  81.6041649 122.5300341  64.7376368  88.1120093 113.3960452  55.9397253
  87.3020821 113.0507537  56.3152499  88.8004510 113.0867995  56.5284864
  90.0410641 112.4738498  57.5621549  90.5941680 112.8933952  58.2211572
  90.2780727 111.5474246  57.6044505  86.0643740 118.4625572  73.3424313
  85.9640467 119.4119929  73.2736404  85.8465282 118.1343811  72.4700383
  85.2656812 115.7110497  49.9264991  86.1275976 116.0365395  50.1860808
  85.4507156 114.9241993  49.4138056  77.2824227 123.7932837  62.2045179
  76.5887699 123.3786790  61.6915134  78.0297218 123.8353373  61.6078598
  93.4189448 114.5839023  57.0700214  92.8388117 115.2423828  56.6878266
  93.1525381 113.7616368  56.6587631  91.8693014 113.9844081  59.2721534
  92.3692793 114.0960616  58.4635853  92.5128622 113.6805134  59.9122342
  85.9275010 121.8922711  72.1589375  85.4442092 122.6923071  72.3653264
  86.0135949 121.9030656  71.2056819  79.1960970 123.7251090  60.0811194
  79.1731658 123.8238778  59.1293077  79.5061606 124.5716241  60.4028360
  81.8548348 125.7827246  64.1957809  82.8091601 125.7511188  64.1287740
  81.6560871 125.3217869  65.0108035  82.4447730 124.3528362  66.7628606
  83.2640619 124.8472440  66.7863444  82.7184538 123.4360330  66.7346174
  92.2014326 116.7439114  56.1256562  91.3140181 117.0288765  55.9076757
  92.6168315 116.5832877  55.2783839  95.5528862 116.7685635  59.8410901
  96.3289252 117.2582087  60.1135518  94.8276996 117.1943689  60.2982771
  97.9901421 117.4813254  60.8984842  98.5845912 117.2408990  60.1878150
  98.0628004 116.7620385  61.5258378  92.1755350 122.2593650  56.3406852
  92.1190551 122.7162201  55.5014484  92.7283692 121.4984334  56.1629695
  95.9860156 118.0483382  57.1656971  95.7297090 117.6480017  57.9965179
  95.3613024 118.7627176  57.0407111  92.9090129 123.4498431  53.6359381
  92.8538933 123.2842702  52.6947825  92.2836184 124.1574464  53.7921571
  77.6982644 118.6866495  67.4620803  78.3441508 118.1765449  67.9508028
  77.4899795 119.4235177  68.0364229  86.2186255 112.9506540  53.2144700
  86.2064924 113.8948380  53.3712970  87.1109676 112.7676685  52.9204161
  90.0338374 109.5449317  57.4690636  89.2670770 108.9907803  57.6147319
  90.4449079 109.6171185  58.3304788  82.0380135 115.8334113  71.5595818
  82.9011597 115.4770917  71.7699142  81.4645546 115.4948007  72.2471222
  26.0072232   7.1654668  49.0903525  26.6450642   7.0461415  48.3866865
  25.8893075   8.1135512  49.1491477  22.8161938   7.1182096  49.0265050
  22.4780450   7.0023161  48.1385585  23.6851706   6.7173261  49.0066056
  18.6748754   8.9717572  45.0161941  18.1113619   8.8807509  44.2478229
  18.5601149   8.1517477  45.4964433  23.2981721   8.2716948  54.9851255
  23.2870362   7.8769746  54.1131759  23.4602361   7.5383020  55.5785027
  16.2213186  10.4668764  47.8546161  17.0134478  10.1259588  47.4392461
  16.4609836  10.5763739  48.7748315  24.2548313  12.6388540  40.3276406
  23.6036292  13.2242620  39.9410420  25.0492675  13.1694735  40.3871443
  18.1803940   9.7277677  40.7263540  18.9534816   9.1806664  40.5876416
  18.5329339  10.5921926  40.9378001  20.0188982  11.0554059  53.9330439
  19.7278848  11.9599690  53.8177106  20.6545967  11.0970587  54.6474509
  20.9445189   8.4330908  50.5231799  21.5408761   8.2086930  49.8088762
  21.0020161   7.6915653  51.1257247  20.5170217   5.8870343  38.3581990
  20.7695738   5.3651864  37.5965453  19.5794777   5.7236489  38.4608674
  25.5613500   4.8906122  46.1656733  26.3476590   4.4725545  45.8147150
  25.8252205   5.7952214  46.3338382  25.7323578  10.3278972  40.8645390
  25.0969411  10.4013598  41.5766295  25.4020984  10.9172571  40.1864469
  30.9621927   4.8281355  47.0689712  31.6947099   4.2580572  47.3027541
  30.2061283   4.4402955  47.5096217  20.2366506   7.7898449  40.5606365
  20.1202764   7.1143353  41.2287449  20.3468766   7.3030823  39.7438518
  22.5798047   7.2508596  44.2653054  22.2156254   6.7239217  44.9765976
  23.4365163   6.8607065  44.0919540  24.9778867  10.7415475  50.9280233
  24.6779590  11.6440514  50.8196040  24.6329927  10.4747658  51.7801386
  18.4291349   7.1929272  46.9616937  17.5041845   7.0605486  47.1694629
  18.6775762   7.9723491  47.4586880  28.3776011   3.2598015  48.6077670
  27.4692888   3.1913423  48.3136431  28.3263607   3.7369960  49.4359496
  22.1992755   4.7356153  40.2461070  22.0792380   5.1813204  41.0846550
  21.5045343   5.0841471  39.6874608  19.9599647  17.5059795  43.8951201
  19.8823677  18.4567620  43.9739681  19.3561291  17.1605668  44.5526127
  22.4516877   4.6787661  56.5512568  21.6750211   5.2381581  56.5415432
  23.0907440   5.1644444  57.0727438  30.2437658   1.4614453  50.3855544
  29.6012038   1.7546987  49.7395339  29.7392586   1.3467374  51.1908741
  27.8977821   5.2077627  41.0741404  28.8095677   5.4405013  40.8989101
  27.3887468   5.7914671  40.5116482  20.7063249   7.4873114  56.1130535
  21.4477934   8.0258158  55.8365358  20.0000235   8.1139403  56.2702086
  26.1818589   9.6302254  54.7102696  26.5901945   9.1884665  53.9657329
  25.4595850   9.0554882  54.9636889  22.5349659   4.5674861  52.0836253
  23.3810854   4.9914275  52.2270902  22.4748297   3.9108486  52.7774816
  26.5047403  10.1903445  48.4654985  25.8756266  10.3549159  47.7631053
  26.1173066  10.6045055  49.2365949  30.3836635  11.1257883  45.8199349
  29.6987674  11.5056784  45.2696382  30.4680485  11.7353210  46.5531297
  25.6849104   2.2279230  53.7417427  25.4410036   2.9821290  53.2051702
  25.9609035   2.6064577  54.5764674  27.6387567   8.7717842  52.4194692
  27.8504462   9.4149602  51.7429073  27.5917315   7.9380159  51.9516622
  25.2413796   1.3835663  49.3231264  24.3798275   1.6816916  49.6148002
  25.2676231   1.6006062  48.3912297  22.0575365   9.9277853  45.7305070
  22.5213711  10.2065556  44.9409693  21.7932163   9.0261298  45.5478161
  18.9499446   9.4749335  48.6684833  19.5200803   9.9036603  48.0302318
  19.5407558   9.1931919  49.3669019  20.9944251   6.0501006  42.5394635
  21.6968295   6.5022049  43.0068562  20.6624880   5.4084824  43.1674528
  28.7533395  11.6489797  50.5917050  29.5750839  11.2469985  50.3099731
  28.7495798  11.5458032  51.5433165  22.5189998  11.1973841  52.7477760
  22.5834431  11.6594248  53.5835932  21.8100922  10.5671206  52.8760070
  36.8439388   7.9928546  46.9402021  36.0903096   7.4235944  46.7846026
  36.9786929   7.9591210  47.8872656  22.2338016  12.8641948  42.6156740
  22.0983691  13.7093484  43.0441588  22.7747829  13.0661226  41.8522674
  15.6867413  10.3817386  43.1884666  16.1991934  11.1760636  43.3390230
  16.3390126   9.6843677  43.1218267  17.4962298  13.4983142  45.2707419
  17.6728926  14.4201107  45.0828403  18.2919132  13.1841562  45.7001799
  23.8606492  13.4865515  56.7457083  23.4170347  12.7001893  56.4277987
  24.5223706  13.6744665  56.0800973  18.6193614  15.0161316  51.2717761
  19.1701039  14.8878380  50.4994755  17.7805089  15.3156205  50.9212654
  25.9587730  13.7668315  54.7738484  25.9406206  14.5877196  54.2818753
  26.8807651  13.6422390  54.9988625  22.4160785  11.2812444  55.6161992
  22.9489121  10.5200732  55.3861300  21.8874866  10.9886096  56.3586147
  25.5480762   6.3781121  39.6528069  25.0327386   7.1485726  39.8916456
  25.2758071   5.7046257  40.2761131  30.5215036   9.1313476  41.5881243
  29.7444479   8.7924635  41.1436405  31.2006517   9.1366099  40.9136208
  25.3367065   4.2508213  41.4787850  25.0317201   4.5654362  42.3297993
  26.2897508   4.3289633  41.5215183  23.7813497  10.4098437  43.1280804
  23.2534859   9.6751196  42.8154042  23.2801000  11.1873113  42.8820773
  28.7606343   8.6047457  48.2447851  28.1030018   9.2946718  48.3327979
  29.5646743   8.9943889  48.5881837  27.5711802   6.9591830  46.2951792
  28.0843684   7.5921822  46.7973502  28.2213026   6.3593025  45.9295152
  21.9266098   8.2278647  36.1315777  21.0193159   7.9967900  36.3306926
  22.4237129   7.4316266  36.3189759  24.8334176  16.9376154  39.0512463
  24.1595875  17.2407851  39.6597421  25.2199998  17.7405234  38.7017920
  24.0492633   4.4341285  48.5410133  23.1315194   4.6556232  48.3831821
  24.4652777   4.5087596  47.6821840  24.8327681   5.8332701  43.6712813
  25.5799500   6.3454098  43.3619935  25.1019270   5.5116754  44.5317207
  23.1054331   8.3291242  40.6539767  22.1965550   8.0450275  40.7512237
  23.1349415   8.7490320  39.7943074  28.3373598  11.9397831  44.4230935
  27.8835925  11.0988741  44.4796125  27.7067565  12.5759230  44.7605715
  27.2806518   2.8689817  45.6531602  26.5429275   2.3567203  45.9841845
  27.5333291   2.4290199  44.8414879  26.7806538  13.7774328  45.3580753
  27.0729512  14.3379385  44.6393119  27.2905158  14.0702889  46.1133912
  21.6539225   5.9419862  46.7549563  21.7087835   4.9893699  46.6792039
  20.8430427   6.0979301  47.2390861  22.8030419   9.8699985  37.9927846
  22.3649849   9.1535844  37.5333483  23.5440860  10.0976100  37.4312937
  21.7440163  14.5554679  46.4474206  21.7016342  14.7815525  45.5182738
  22.6602862  14.3218054  46.5960007  25.1905797   5.0238747  53.3454835
  25.5455184   5.2510220  54.2049301  25.8377928   5.3557123  52.7232091
  30.9203534   8.1457182  44.0504164  30.7821432   8.3358778  43.1225354
  30.5639752   8.9076565  44.5072216  30.9472913  10.2133709  49.0615436
  31.3809420  10.1208999  49.9098490  31.6604494  10.1891210  48.4235452
  19.8605964  11.4317708  46.2436169  20.6546562  10.9368028  46.0418744
  19.1497656  10.9035571  45.8803875  24.6800808  13.8135804  50.5948537
  24.7337830  14.3826740  51.3626253  23.8115589  13.9837689  50.2302574
  31.8088463  10.2557410  51.5948321  32.0024353  11.1603221  51.8407596
  31.7089081   9.7964829  52.4286906  26.8703571  10.4064153  57.1689202
  26.7189078  10.1774705  56.2519286  26.8608251  11.3634754  57.1820547
  23.6388908   7.9796066  52.1535468  24.5680968   8.1307225  51.9804436
  23.2179938   8.0680086  51.2984115  22.4377240  12.0046730  49.9234006
  22.2988325  11.6365514  50.7959944  21.6491836  12.5194369  49.7517964
  23.0325392  17.1055826  41.2659543  23.2077147  16.6343870  42.0805165
  22.3458180  17.7321593  41.4940803  23.9882455  11.3828333  47.3122844
  23.6532287  11.3429103  48.2080494  23.4886400  10.7173049  46.8393254
  17.9626699   6.7895963  52.8375425  17.8246497   6.0576202  53.4386964
  18.8731622   6.7004863  52.5559613  26.9241646   8.7284367  37.5859904
  26.3070817   8.0031195  37.4892956  26.4558135   9.4893727  37.2426978
  20.5908999   6.5015922  52.3259105  21.3008618   5.8609114  52.2845723
  20.5478308   6.7528817  53.2485285  28.5795778  13.4383275  55.2465684
  28.5208324  12.7542496  54.5796267  28.9815296  14.1802265  54.7946310
  17.5986477  20.2545189  48.0399403  17.8383075  20.8863713  48.7178421
  16.7555673  19.9033229  48.3264762  28.5813185  11.4022859  53.4779664
  27.6939964  11.0648781  53.6006062  29.1511736  10.6705891  53.7148429
  22.1114339  16.0624312  50.4440907  22.0384510  16.8679283  50.9560211
  21.6691732  16.2616277  49.6188928  21.9004118  15.2996082  43.9543728
  21.1171640  15.8417762  44.0481953  22.5996863  15.8170061  44.3537969
  33.0630526   6.8131077  48.2396225  33.0520402   7.6955792  47.8690158
  32.1947905   6.4602628  48.0450762  24.5713022  15.9611146  52.5999065
  25.2840994  16.5958611  52.5274967  24.0803051  16.0575012  51.7839067
  26.2930549   9.8662398  44.1716357  25.3586828   9.9863861  44.0021061
  26.4707218   8.9634865  43.9076367  29.6803100   5.7079718  44.7066391
  30.1463553   6.5407709  44.6326694  30.1310601   5.2424699  45.4111650
  19.6224936  13.7105589  53.4204636  20.3234395  14.3442072  53.5734030
  19.1520051  14.0520321  52.6600276  27.7479332  12.0523539  41.7052543
  28.0239175  11.9380134  42.6146417  26.8783830  11.6541024  41.6664716
  27.4226222   6.2650197  51.2457187  26.7697672   6.5126104  50.5909639
  27.8006602   5.4514335  50.9119664  24.3833396  16.3009890  45.3485357
  24.5655790  15.4831546  45.8113109  25.2066382  16.5177582  44.9110247
  24.7175561  15.2278075  42.6100405  25.2463328  14.7170530  41.9970567
  24.9803781  14.9120605  43.4745938  23.4713795   7.0070008  57.7323224
  22.7954432   6.9064137  58.4025599  24.2941429   6.8509221  58.1959221
  15.2192654  13.2441944  50.3535739  15.8046091  12.4985632  50.4863643
  15.0217492  13.5545901  51.2372403  18.0731309  16.2793192  45.3698181
  17.4041684  16.7639319  44.8862221  17.9344179  16.5262412  46.2841560
  22.2136578  18.3136935  51.9680840  22.7654886  18.4768557  52.7329925
  22.5542771  18.9041373  51.2960865  27.0647452  13.1398193  57.8229494
  27.6087356  13.7528151  57.3284449  26.4834297  13.6977771  58.3396507
  25.3504965  16.2618911  48.9544522  25.2256104  15.4608650  48.4455467
  26.0084056  16.7565104  48.4658492  27.4139873  14.0627931  50.5824072
  26.4670209  13.9433282  50.5102399  27.7622646  13.1750429  50.6650333
  24.4186307  13.8580647  46.7828424  24.2711269  12.9297354  46.9635994
  25.2439800  13.8800738  46.2985499  28.0220428  14.6809206  47.8693297
  28.9466976  14.4752067  47.7317748  27.8535732  14.4325607  48.7782638
  27.8115745  15.1994873  43.2255388  27.9852622  14.6341296  42.4729241
  28.3044636  15.9995768  43.0434878  33.6655136   7.9631296  44.8445688
  34.1086282   7.2138621  44.4464811  32.7881646   7.9541432  44.4619420
  28.7990917  14.5161638  40.3252287  29.4941822  15.1368330  40.5439601
  29.1414067  13.6656989  40.6004665  30.6982340  11.9661343  41.8539617
  31.2233664  12.3048616  41.1288937  30.6104693  11.0308358  41.6702752
  22.3602389  15.8795417  53.9829494  22.6689515  15.6344563  54.8552194
  23.1577871  16.0842055  53.4948364  22.3823001  18.0333326  46.2134871
  21.9427991  17.5409705  46.9067727  23.1331118  17.4906294  45.9726946
  14.8615340  14.2244867  46.2159499  15.6873360  13.9248639  45.8358142
  14.5109392  13.4552490  46.6649287  19.8296873  13.5771335  48.2857172
  19.2076882  12.9142040  47.9859400  20.5001740  13.6032467  47.6030820
  13.0623945  12.1431194  47.1748432  12.2255853  11.7153368  46.9932434
  13.0347590  12.3363637  48.1119223  30.3876246  12.5994247  57.1590815
  29.5971790  12.5818386  56.6195315  30.1509601  13.1382540  57.9139852
  30.5074121   9.4486713  54.4723544  30.5572126   9.2836721  55.4139067
  30.3988045   8.5813972  54.0821425  19.3910380  12.1275259  41.7615633
  19.5398500  12.8110723  41.1082306  20.1976823  12.1080349  42.2765089
  27.7977884   5.4317641  55.7882851  28.6987746   5.2924106  55.4966848
  27.8725858   5.5972096  56.7281028  32.0092318  11.8683655  54.7165565
  31.7177126  12.2313635  55.5529026  31.3964449  11.1550663  54.5378898
  33.2088000   9.4336534  47.2368136  34.0434892   9.8726338  47.4005696
  33.3447129   8.9575188  46.4176381  30.2579506   6.9916269  53.1845623
  30.7333628   7.1843916  52.3764475  29.3345072   7.0475455  52.9389007
  17.1463013   8.1540436  42.7676702  16.9009055   7.2502766  42.9656912
  17.3158928   8.1557587  41.8256180  22.8905786  14.6223389  39.2327380
  22.3179753  15.2413576  38.7797852  23.4638579  15.1722751  39.7667302
  28.9581175   3.8682029  51.4173929  29.9098598   3.9680127  51.4386153
  28.7884626   3.0760298  51.9272013  26.9795555   0.9537613  51.6033330
  26.3845487   1.2342625  50.9079819  26.6945252   1.4431513  52.3750071
  26.1103045  14.9060539  40.3635962  27.0433719  14.8406101  40.5668838
  26.0226258  15.7416806  39.9050495  28.7391062  14.2226410  37.3239910
  28.6604694  13.8886273  38.2175668  29.5600729  14.7148178  37.3231382
  31.4369253   7.0888149  50.5316229  31.4045573   6.1504150  50.7175912
  32.0469877   7.1672186  49.7982054  23.2752584   5.9584202  36.5743433
  24.2211689   5.8290410  36.6431851  22.8966829   5.2198864  37.0512861
  31.5863742   3.8799192  50.5774512  31.0702790   3.0957649  50.3904441
  32.4703690   3.5517909  50.7421031  37.2545803   8.1504156  49.6722265
  37.9849192   7.8889444  50.2329969  36.6452749   7.4132878  49.7124333
  35.3361100   6.2912018  50.2696717  34.6094264   6.1567983  49.6613208
  34.9208387   6.5988847  51.0753435  23.1591277  10.0101948  58.0344090
  24.0794286  10.1880547  58.2284136  23.1240860   9.0657993  57.8823789
  16.1553349   7.9202983  50.6766871  16.3739359   8.8520091  50.6954905
  16.5679123   7.5610957  51.4621675  28.3826922  -0.3850360  43.7945520
  27.8025591   0.2734444  43.4123573  28.1162855  -1.2073015  43.3832938
  20.8912485   6.9233327  58.8834681  20.4079566   7.7233687  59.0898570
  20.9773424   6.9341272  57.9302125  14.1598444   8.7561707  46.8056501
  14.1369132   8.8549394  45.8538384  14.4699081   9.6026858  47.1273667
  16.8185822  10.8137862  50.9203115  17.7729076  10.7821804  50.8533047
  16.6198346  10.3528486  51.7353341  17.4085204   9.3838978  53.4873913
  18.2278093   9.8783057  53.5108750  17.6822012   8.4670946  53.4591480
  27.1651800   1.7749730  42.8501868  26.2777655   2.0599381  42.6322063
  27.5805789   1.6143494  42.0029145  30.5166336   1.7996251  46.5656208
  31.2926727   2.2892704  46.8380824  29.7914471   2.2254306  47.0228077
  32.9538895   2.5123871  47.6230148  33.5483386   2.2719607  46.9123457
  33.0265479   1.7931001  48.2503685  15.1736051  16.3557482  47.9373313
  15.0390519  15.5957882  47.3711311  14.7568113  17.0798381  47.4702102
  26.3095014  11.5394405  36.9449888  27.0130864  11.7444408  37.5607544
  25.5857663  12.1071167  37.2098972  27.1392824   7.2904266  43.0652159
  27.0828025   7.7472818  42.2259791  27.6921167   6.5294951  42.8875001
  30.9497630   3.0793998  43.8902278  30.6934564   2.6790634  44.7210486
  30.3250498   3.7937792  43.7652417  35.2609968   5.8190071  46.3973569
  34.7009526   5.8883261  47.1705132  34.6553471   5.6431056  45.6773066
  18.3305177  17.2526799  48.1491756  18.2137561  18.1972231  48.0470446
  17.5097623  16.9500360  48.5377555  28.2181711  11.9776934  38.9948348
  29.0527315  11.5458133  38.8125823  28.0566054  11.8058948  39.9225243
  27.8727603   8.4809048  40.3604688  27.8176407   8.3153319  39.4193132
  27.2473659   9.1885081  40.5166877  25.1873511  10.7857959  59.6858251
  26.0564670  10.9598612  59.3244885  24.7080262  11.6052376  59.5633980
  19.3559691  17.9055060  51.3647684  20.2586938  17.9378671  51.6814179
  19.1297061  16.9755511  51.3794020  21.1113293  16.6586047  48.0257763
  20.1608924  16.6587909  47.9122135  21.4145779  15.9118782  47.5093797
  36.8465986  22.4946585  49.0903525  37.4844396  22.3753333  48.3866865
  36.7286829  23.4427429  49.1491477  33.6555693  22.4474014  49.0265050
  33.3174204  22.3315078  48.1385585  34.5245461  22.0465179  49.0066056
  29.5142508  24.3009490  45.0161941  28.9507373  24.2099427  44.2478229
  29.3994903  23.4809394  45.4964433  34.1375476  23.6008865  54.9851255
  34.1264116  23.2061664  54.1131759  34.2996115  22.8674938  55.5785027
  27.0606940  25.7960682  47.8546161  27.8528232  25.4551506  47.4392461
  27.3003590  25.9055657  48.7748315  35.0942067  27.9680458  40.3276406
  34.4430047  28.5534538  39.9410420  35.8886430  28.4986653  40.3871443
  29.0197694  25.0569595  40.7263540  29.7928570  24.5098582  40.5876416
  29.3723093  25.9213844  40.9378001  30.8582737  26.3845977  53.9330439
  30.5672603  27.2891608  53.8177106  31.4939721  26.4262505  54.6474509
  31.7838944  23.7622826  50.5231799  32.3802516  23.5378848  49.8088762
  31.8413915  23.0207571  51.1257247  31.3563972  21.2162261  38.3581990
  31.6089493  20.6943782  37.5965453  30.4188531  21.0528406  38.4608674
  36.4007255  20.2198039  46.1656733  37.1870344  19.8017462  45.8147150
  36.6645959  21.1244131  46.3338382  36.5717332  25.6570890  40.8645390
  35.9363165  25.7305516  41.5766295  36.2414739  26.2464488  40.1864469
  41.8015682  20.1573272  47.0689712  42.5340854  19.5872489  47.3027541
  41.0455038  19.7694873  47.5096217  31.0760261  23.1190367  40.5606365
  30.9596519  22.4435270  41.2287449  31.1862521  22.6322741  39.7438518
  33.4191802  22.5800514  44.2653054  33.0550009  22.0531135  44.9765976
  34.2758918  22.1898983  44.0919540  39.3241102  13.8694847  51.5284320
  38.9924427  14.7390258  51.3045535  38.7286716  13.5531131  52.2078351
  33.0597289  17.6090414  39.2614403  33.2271691  18.4770650  39.6284874
  32.8694458  17.7717695  38.3375692  35.8172622  26.0707393  50.9280233
  35.5173345  26.9732431  50.8196040  35.4723681  25.8039576  51.7801386
  29.2685103  22.5221189  46.9616937  28.3435600  22.3897403  47.1694629
  29.5169516  23.3015409  47.4586880  39.2169766  18.5889933  48.6077670
  38.3086643  18.5205341  48.3136431  39.1657361  19.0661878  49.4359496
  33.0386509  20.0648071  40.2461070  32.9186135  20.5105122  41.0846550
  32.3439098  20.4133389  39.6874608  26.6293914  22.1654463  47.7960727
  26.7586295  22.4188942  48.7100138  25.9491366  22.7582171  47.4765382
  30.7993402  32.8351713  43.8951201  30.7217431  33.7859538  43.9739681
  30.1955045  32.4897585  44.5526127  33.2910631  20.0079578  56.5512568
  32.5143965  20.5673498  56.5415432  33.9301194  20.4936361  57.0727438
  41.0831412  16.7906371  50.3855544  40.4405792  17.0838904  49.7395339
  40.5786341  16.6759291  51.1908741  38.7371576  20.5369544  41.0741404
  39.6489432  20.7696931  40.8989101  38.2281223  21.1206589  40.5116482
  31.5457004  22.8165032  56.1130535  32.2871688  23.3550076  55.8365358
  30.8393989  23.4431320  56.2702086  37.0212343  24.9594172  54.7102696
  37.4295699  24.5176583  53.9657329  36.2989605  24.3846800  54.9636889
  33.3743413  19.8966779  52.0836253  34.2204609  20.3206192  52.2270902
  33.3142051  19.2400403  52.7774816  37.3441158  25.5195363  48.4654985
  36.7150020  25.6841077  47.7631053  36.9566820  25.9336972  49.2365949
  41.2230390  26.4549801  45.8199349  40.5381428  26.8348702  45.2696382
  41.3074239  27.0645127  46.5531297  36.5242859  17.5571147  53.7417427
  36.2803791  18.3113208  53.2051702  36.8002789  17.9356495  54.5764674
  38.4781321  24.1009760  52.4194692  38.6898217  24.7441520  51.7429073
  38.4311070  23.2672076  51.9516622  36.0807550  16.7127580  49.3231264
  35.2192029  17.0108834  49.6148002  36.1069985  16.9297979  48.3912297
  32.8969120  25.2569771  45.7305070  33.3607465  25.5357474  44.9409693
  32.6325918  24.3553215  45.5478161  29.7893201  24.8041252  48.6684833
  30.3594558  25.2328521  48.0302318  30.3801313  24.5223837  49.3669019
  31.8338006  21.3792923  42.5394635  32.5362049  21.8313967  43.0068562
  31.5018634  20.7376742  43.1674528  30.2818367  19.9704680  56.9145845
  29.6517028  20.6520961  57.1481241  30.1754455  19.8587761  55.9698983
  25.5763340  19.6376476  47.8411769  24.7862394  19.8934004  47.3651879
  26.0674587  20.4524814  47.9463809  39.5927149  26.9781715  50.5917050
  40.4144593  26.5761902  50.3099731  39.5889552  26.8749949  51.5433165
  27.5278085  20.0021055  44.7995246  26.7309249  20.1139749  45.3178741
  27.3003677  20.3407707  43.9336136  33.3583753  26.5265758  52.7477760
  33.4228185  26.9886166  53.5835932  32.6494677  25.8963123  52.8760070
  23.8601043  19.8906966  50.2726760  24.1109081  20.7753976  50.5384336
  24.3960591  19.7111568  49.5001851  47.6833142  23.3220464  46.9402021
  46.9296851  22.7527862  46.7846026  47.8180684  23.2883128  47.8872656
  33.0731771  28.1933866  42.6156740  32.9377445  29.0385402  43.0441588
  33.6141583  28.3953143  41.8522674  29.5599110  14.2725446  59.2771096
  29.1666056  13.7191644  59.9518740  30.3765250  14.5836024  59.6677613
  26.5261168  25.7109304  43.1884666  27.0385688  26.5052554  43.3390230
  27.1783881  25.0135594  43.1218267  28.3356053  28.8275060  45.2707419
  28.5122681  29.7493025  45.0828403  29.1312886  28.5133479  45.7001799
  32.4767071  15.6883325  56.8691352  33.2176785  16.2890478  56.7895815
  32.7084994  14.9460963  56.3109395  27.6208409  20.8739692  55.1469582
  27.5061924  19.9724949  55.4476681  26.7652927  21.1203389  54.7954398
  34.7000247  28.8157432  56.7457083  34.2564101  28.0293811  56.4277987
  35.3617460  29.0036583  56.0800973  29.4587368  30.3453234  51.2717761
  30.0094793  30.2170297  50.4994755  28.6198844  30.6448123  50.9212654
  36.7981485  29.0960232  54.7738484  36.7799960  29.9169113  54.2818753
  37.7201405  28.9714308  54.9988625  33.2554539  26.6104362  55.6161992
  33.7882876  25.8492650  55.3861300  32.7268620  26.3178014  56.3586147
  36.4224234  11.7164428  51.1455634  36.0788503  12.6066069  51.0694745
  36.7903197  11.5266085  50.2825219  24.4910085  24.0397958  43.9644236
  25.3285307  24.4494967  43.7477944  24.6688352  23.0997400  43.9344430
  36.3874517  21.7073039  39.6528069  35.8721140  22.4777643  39.8916456
  36.1151825  21.0338175  40.2761131  33.9721628  16.5522740  44.7113307
  33.1163224  16.1629590  44.5318946  34.3848580  16.6314700  43.8513093
  35.5020774  14.0869083  49.1104867  34.9985570  14.0499218  48.2972672
  35.7951381  14.9961826  49.1701524  31.7463660  14.1707813  48.1171049
  32.6116657  13.9750621  47.7576938  31.8141169  13.9418164  49.0440406
  41.3608791  24.4605393  41.5881243  40.5838234  24.1216553  41.1436405
  42.0400272  24.4658017  40.9136208  36.1760820  19.5800131  41.4787850
  35.8710956  19.8946280  42.3297993  37.1291262  19.6581551  41.5215183
  34.6207252  25.7390354  43.1280804  34.0928613  25.0043114  42.8154042
  34.1194755  26.5165031  42.8820773  39.6000098  23.9339375  48.2447851
  38.9423772  24.6238636  48.3327979  40.4040497  24.3235807  48.5881837
  29.3525979  16.4010021  45.4887416  29.9269731  16.1785202  44.7560609
  29.9396962  16.4698715  46.2416017  38.4105557  22.2883747  46.2951792
  38.9237438  22.9213739  46.7973502  39.0606781  21.6884943  45.9295152
  29.6795567  18.4314482  39.5083301  28.8432879  18.7689168  39.8292576
  29.5400336  18.2963461  38.5710438  31.6548647  13.2751269  44.2162485
  31.0013059  12.9600287  43.5919100  31.6129121  12.6527010  44.9422308
  32.7659852  23.5570565  36.1315777  31.8586914  23.3259818  36.3306926
  33.2630884  22.7608184  36.3189759  35.6727931  32.2668072  39.0512463
  34.9989630  32.5699768  39.6597421  36.0593753  33.0697152  38.7017920
  34.8886387  19.7633203  48.5410133  33.9708949  19.9848150  48.3831821
  35.3046531  19.8379513  47.6821840  35.6721435  21.1624619  43.6712813
  36.4193254  21.6746016  43.3619935  35.9413025  20.8408671  44.5317207
  33.9448085  23.6583159  40.6539767  33.0359305  23.3742192  40.7512237
  33.9743169  24.0782238  39.7943074  39.1767353  27.2689749  44.4230935
  38.7229680  26.4280659  44.4796125  38.5461320  27.9051147  44.7605715
  38.1200272  18.1981735  45.6531602  37.3823029  17.6859121  45.9841845
  38.3727046  17.7582117  44.8414879  37.6200292  29.1066246  45.3580753
  37.9123266  29.6671303  44.6393119  38.1298913  29.3994807  46.1133912
  38.2211900  10.9757987  46.2473372  38.5270777  10.1155350  45.9599287
  38.9464505  11.5675607  46.0472366  24.5136256  21.3788674  44.6354970
  24.3160656  20.7858034  43.9106036  23.9582920  21.0740884  45.3530908
  32.4932979  21.2711780  46.7549563  32.5481589  20.3185616  46.6792039
  31.6824182  21.4271219  47.2390861  33.6424173  25.1991903  37.9927846
  33.2043603  24.4827762  37.5333483  34.3834614  25.4268018  37.4312937
  30.4325339  19.8888840  44.5139942  29.6193205  20.1883010  44.9205134
  30.9284334  19.4944529  45.2314424  32.5833917  29.8846597  46.4474206
  32.5410096  30.1107443  45.5182738  33.4996616  29.6509971  46.5960007
  36.0299551  20.3530664  53.3454835  36.3848939  20.5802137  54.2049301
  36.6771682  20.6849041  52.7232091  41.7597288  23.4749100  44.0504164
  41.6215187  23.6650696  43.1225354  41.4033507  24.2368483  44.5072216
  29.9239414  17.4607195  50.1301177  30.5638793  17.3195954  49.4324140
  29.0916945  17.1741709  49.7539779  41.7866668  25.5425627  49.0615436
  42.2203174  25.4500916  49.9098490  42.4998248  25.5183128  48.4235452
  30.6999718  26.7609626  46.2436169  31.4940317  26.2659946  46.0418744
  29.9891410  26.2327489  45.8803875  35.5194563  29.1427721  50.5948537
  35.5731585  29.7118658  51.3626253  34.6509344  29.3129606  50.2302574
  27.0082482  20.9052707  42.3195922  26.0780070  20.8437163  42.5365884
  27.1039954  20.3828660  41.5232563  26.9268031  17.4307520  44.9074163
  27.1874848  18.3452853  44.7983324  27.7485203  16.9631963  45.0570776
  28.3992956  18.8445277  52.0772988  29.0716009  18.6362640  51.4285637
  27.5722742  18.6467363  51.6378220  42.6482217  25.5849328  51.5948321
  42.8418107  26.4895138  51.8407596  42.5482835  25.1256747  52.4286906
  34.3018528  15.4707218  54.0938649  33.6546443  16.1697168  54.0003125
  35.0719543  15.9043362  54.4614897  37.7097326  25.7356071  57.1689202
  37.5582832  25.5066622  56.2519286  37.7002005  26.6926672  57.1820547
  34.4782662  23.3087983  52.1535468  35.4074722  23.4599143  51.9804436
  34.0573692  23.3972004  51.2984115  33.2770994  27.3338648  49.9234006
  33.1382080  26.9657432  50.7959944  32.4885590  27.8486287  49.7517964
  33.8719146  32.4347744  41.2659543  34.0470902  31.9635787  42.0805165
  33.1851934  33.0613510  41.4940803  34.8276209  26.7120250  47.3122844
  34.4926042  26.6721020  48.2080494  34.3280155  26.0464966  46.8393254
  28.8020453  22.1187880  52.8375425  28.6640251  21.3868119  53.4386964
  29.7125377  22.0296780  52.5559613  37.7635401  24.0576285  37.5859904
  37.1464571  23.3323113  37.4892956  37.2951889  24.8185645  37.2426978
  31.4302754  21.8307840  52.3259105  32.1402372  21.1901032  52.2845723
  31.3872062  22.0820735  53.2485285  39.4189533  28.7675193  55.2465684
  39.3602079  28.0834413  54.5796267  39.8209051  29.5094183  54.7946310
  30.1431688  18.8173058  54.1454744  29.6069045  18.3663796  54.7976340
  29.5548396  18.9518966  53.4025208  28.4380231  35.5837107  48.0399403
  28.6776830  36.2155631  48.7178421  27.5949428  35.2325147  48.3264762
  29.5533947  18.2761709  36.7081208  28.6763413  18.1550510  36.3443454
  30.0291700  17.4847787  36.4560096  39.4206940  26.7314777  53.4779664
  38.5333719  26.3940699  53.6006062  39.9905491  25.9997808  53.7148429
  21.0736087  23.0638869  46.8022715  21.7607127  22.7500599  46.2143730
  20.9184216  23.9680233  46.5289966  25.8770809  17.9529065  51.2307739
  25.7928998  17.3454735  50.4958149  25.0553515  18.4438084  51.2317235
  32.9508093  31.3916229  50.4440907  32.8778265  32.1971201  50.9560211
  32.5085486  31.5908195  49.6188928  32.7397873  30.6287999  43.9543728
  31.9565395  31.1709680  44.0481953  33.4390618  31.1461979  44.3537969
  36.0494523  16.4382629  46.5977934  36.5463222  15.6852591  46.2779004
  35.2781504  16.4746945  46.0321143  43.9024280  22.1422994  48.2396225
  43.8914157  23.0247710  47.8690158  43.0341660  21.7894545  48.0450762
  35.4106777  31.2903063  52.5999065  36.1234749  31.9250528  52.5274967
  34.9196805  31.3866929  51.7839067  37.1324304  25.1954316  44.1716357
  36.1980582  25.3155779  44.0021061  37.3100972  24.2926783  43.9076367
  32.6329492  18.5800012  46.3249618  32.2627279  18.0271052  47.0130524
  33.1288584  17.9758145  45.7724618  40.5196855  21.0371635  44.7066391
  40.9857307  21.8699627  44.6326694  40.9704355  20.5716617  45.4111650
  30.4618690  29.0397507  53.4204636  31.1628150  29.6733990  53.5734030
  29.9913805  29.3812238  52.6600276  38.5873086  27.3815457  41.7052543
  38.8632930  27.2672051  42.6146417  37.7177585  26.9832941  41.6664716
  38.4913518  13.4052222  48.7457293  37.5776597  13.6356449  48.9139499
  38.9206619  13.4890666  49.5971325  38.2619976  21.5942114  51.2457187
  37.6091426  21.8418022  50.5909639  38.6400356  20.7806252  50.9119664
  35.2227150  31.6301807  45.3485357  35.4049545  30.8123463  45.8113109
  36.0460136  31.8469500  44.9110247  35.5569316  30.5569993  42.6100405
  36.0857082  30.0462447  41.9970567  35.8197535  30.2412523  43.4745938
  34.3107549  22.3361925  57.7323224  33.6348186  22.2356055  58.4025599
  35.1335183  22.1801139  58.1959221  26.0586408  28.5733862  50.3535739
  26.6439845  27.8277550  50.4863643  25.8611247  28.8837819  51.2372403
  28.9125064  31.6085109  45.3698181  28.2435439  32.0931237  44.8862221
  28.7737933  31.8554330  46.2841560  20.6504063  21.1439462  49.0740182
  20.6888163  20.6103053  49.8677300  20.1444356  20.6174668  48.4551159
  33.0530332  33.6428853  51.9680840  33.6048640  33.8060474  52.7329925
  33.3936526  34.2333291  51.2960865  28.0294825  15.9904003  52.5702724
  28.0936152  16.8518834  52.1580122  27.9661946  15.3778004  51.8375083
  27.5047098  18.0627135  56.2175759  28.1319137  17.6804212  56.8313283
  26.6475017  17.8441337  56.5831451  37.9041206  28.4690110  57.8229494
  38.4481110  29.0820069  57.3284449  37.3228051  29.0269689  58.3396507
  24.2812641  19.8703564  42.1494113  24.5766082  18.9614243  42.0961167
  23.3800676  19.8491304  41.8275116  36.1898719  31.5910828  48.9544522
  36.0649859  30.7900568  48.4455467  36.8477810  32.0857022  48.4658492
  27.8106888  17.9459561  48.1321662  27.0893473  18.5595529  47.9929135
  28.6000143  18.4817326  48.0538308  38.2533628  29.3919848  50.5824072
  37.3063963  29.2725200  50.5102399  38.6016401  28.5042346  50.6650333
  30.6133201  15.2813987  54.4062314  31.1367603  15.5276284  55.1688623
  30.3945534  16.1134022  53.9865451  26.0100482  17.5517662  42.2733439
  25.6813188  16.6715041  42.0908545  26.3639853  17.4965331  43.1609828
  35.2580061  29.1872565  46.7828424  35.1105023  28.2589272  46.9635994
  36.0833555  29.2092655  46.2985499  29.1242305  17.8390632  42.6408916
  29.4638378  18.3676553  41.9187525  29.5714426  18.1771038  43.4167483
  38.8614183  30.0101123  47.8693297  39.7860730  29.8043985  47.7317748
  38.6929486  29.7617525  48.7782638  31.8185746  16.2227682  52.0911984
  31.4782567  15.4235495  52.4932664  31.1124752  16.5229393  51.5188818
  32.4702218  13.3076995  50.5439307  33.2928287  12.8337473  50.4218198
  32.7140282  14.0867479  51.0437994  31.1110452  16.3365253  40.8402209
  31.8318815  16.7146506  40.3365926  30.4875757  17.0554130  40.9437187
  35.2541575  17.0410402  41.7760541  35.4705190  17.9235040  41.4749370
  34.7735643  16.6496616  41.0466183  29.9940797  19.9996115  48.3531286
  29.8485377  20.3136419  49.2455567  29.5166000  20.6181016  47.8002185
  31.8537180  16.9898663  48.4012176  31.8398748  16.0939757  48.0644473
  32.5709608  16.9969327  49.0350462  33.7063310  17.4236004  50.4465303
  33.4481088  18.3453074  50.4449633  33.1748351  17.0266438  51.1365767
  38.6509499  30.5286791  43.2255388  38.8246377  29.9633213  42.4729241
  39.1438390  31.3287686  43.0434878  24.4686459  22.5401460  51.2918947
  23.9239927  23.3161268  51.4239221  25.3465809  22.8872264  51.1338069
  31.2574076  15.8713044  43.6699746  31.3789987  14.9429690  43.8690633
  30.9676118  15.8851730  42.7578061  34.1265266  13.5567954  46.8066466
  34.1486963  13.6207287  45.8518445  34.5433325  12.7172463  47.0006972
  44.5048890  23.2923214  44.8445688  44.9480036  22.5430539  44.4464811
  43.6275401  23.2833350  44.4619420  39.6384672  29.8453555  40.3252287
  40.3335576  30.4660248  40.5439601  39.9807822  28.9948906  40.6004665
  25.2552481  21.6671356  54.1849104  24.5134217  21.8153992  54.7713734
  24.9345225  21.9279622  53.3215853  41.5376095  27.2953261  41.8539617
  42.0627419  27.6340533  41.1288937  41.4498447  26.3600276  41.6702752
  33.1996143  31.2087334  53.9829494  33.5083270  30.9636481  54.8552194
  33.9971625  31.4133973  53.4948364  33.2216755  33.3625244  46.2134871
  32.7821746  32.8701623  46.9067727  33.9724872  32.8198212  45.9726946
  25.7009094  29.5536785  46.2159499  26.5267114  29.2540557  45.8358142
  25.3503146  28.7844407  46.6649287  30.6690628  28.9063253  48.2857172
  30.0470637  28.2433958  47.9859400  31.3395495  28.9324385  47.6030820
  23.9017700  27.4723111  47.1748432  23.0649608  27.0445286  46.9932434
  23.8741345  27.6655555  48.1119223  30.7415155  17.3845041  57.8789678
  30.7903311  18.2607164  57.4967448  31.2837669  16.8422434  57.3061321
  41.2270001  27.9286164  57.1590815  40.4365544  27.9110303  56.6195315
  40.9903355  28.4674458  57.9139852  41.3467876  24.7778631  54.4723544
  41.3965881  24.6128638  55.4139067  41.2381799  23.9105890  54.0821425
  30.2304135  27.4567176  41.7615633  30.3792255  28.1402641  41.1082306
  31.0370578  27.4372267  42.2765089  38.6371638  20.7609559  55.7882851
  39.5381501  20.6216024  55.4966848  38.7119613  20.9264014  56.7281028
  32.9714444  18.1376414  54.6336037  32.1017753  18.4309980  54.3618625
  33.2073924  18.7216859  55.3543301  42.8486073  27.1975572  54.7165565
  42.5570881  27.5605553  55.5529026  42.2358204  26.4842581  54.5378898
  44.0481755  24.7628452  47.2368136  44.8828646  25.2018256  47.4005696
  44.1840884  24.2867105  46.4176381  41.0973261  22.3208187  53.1845623
  41.5727383  22.5135833  52.3764475  40.1738826  22.3767373  52.9389007
  27.9856768  23.4832354  42.7676702  27.7402809  22.5794684  42.9656912
  28.1552682  23.4849505  41.8256180  35.6753477  14.3556030  52.1501457
  36.1935421  15.0917057  51.8247946  35.3208610  14.6620024  52.9848216
  27.2552415  19.2160712  40.2662863  26.5621660  19.2905067  39.6102899
  27.0104167  18.4521055  40.7884380  35.9266072  10.7756313  47.6702354
  36.2067825  10.1079502  48.2962780  36.7116678  10.9685409  47.1577018
  33.7299540  29.9515307  39.2327380  33.1573507  30.5705494  38.7797852
  34.3032334  30.5014669  39.7667302  39.7974930  19.1973947  51.4173929
  40.7492353  19.2972045  51.4386153  39.6278380  18.4052216  51.9272013
  37.8189309  16.2829530  51.6033330  37.2239241  16.5634543  50.9079819
  37.5339006  16.7723431  52.3750071  36.9496800  30.2352457  40.3635962
  37.8827473  30.1698019  40.5668838  36.8620013  31.0708724  39.9050495
  39.5784817  29.5518327  37.3239910  39.4998448  29.2178191  38.2175668
  40.3994483  30.0440095  37.3231382  42.2763008  22.4180067  50.5316229
  42.2439328  21.4796067  50.7175912  42.8863631  22.4964103  49.7982054
  34.1146339  21.2876120  36.5743433  35.0605443  21.1582328  36.6431851
  33.7360584  20.5490782  37.0512861  42.4257496  19.2091110  50.5774512
  41.9096545  18.4249567  50.3904441  43.3097445  18.8809827  50.7421031
  40.0868223  12.9532126  46.5370325  39.8893044  12.6447214  47.4213656
  40.6967929  13.6793765  46.6668254  48.0939558  23.4796074  49.6722265
  48.8242946  23.2181362  50.2329969  47.4846503  22.7424795  49.7124333
  46.1754855  21.6203936  50.2696717  45.4488018  21.4859901  49.6613208
  45.7602142  21.9280765  51.0753435  33.9985031  25.3393866  58.0344090
  34.9188041  25.5172465  58.2284136  33.9634614  24.3949911  57.8823789
  32.2989256  19.2126096  36.5098318  31.3920711  18.9159209  36.5861032
  32.5765237  18.9155914  35.6432604  23.2167196  20.5332459  46.9597364
  22.8969980  19.6797768  46.6671738  22.6700624  20.7481038  47.7155332
  26.9947104  23.2494900  50.6766871  27.2133113  24.1812008  50.6954905
  27.4072877  22.8902875  51.4621675  33.9151321  13.7562986  42.6642559
  33.1052050  13.4110071  43.0397805  34.6035738  13.4470529  43.2530171
  35.8441870  12.8341033  44.2866856  36.3972908  13.2536486  44.9456879
  36.0811956  11.9076781  44.3289812  31.8674969  18.8228106  60.0669620
  31.7671696  19.7722463  59.9981711  31.6496511  18.4946345  59.1945690
  31.0688040  16.0713031  36.6510297  31.9307204  16.3967930  36.9106114
  31.2538384  15.2844527  36.1383363  23.0855456  24.1535371  48.9290486
  22.3918928  23.7389324  48.4160440  23.8328447  24.1955907  48.3323905
  39.2220677  14.9441558  43.7945520  38.6419346  15.6026362  43.4123573
  38.9556609  14.1218902  43.3832938  37.6724243  14.3446615  45.9966840
  38.1724022  14.4563150  45.1881159  38.3159851  14.0407668  46.6367649
  31.7306239  22.2525245  58.8834681  31.2473321  23.0525605  59.0898570
  31.8167178  22.2633190  57.9302125  24.9992199  24.0853625  46.8056501
  24.9762887  24.1841312  45.8538384  25.3092835  24.9318776  47.1273667
  27.6579576  26.1429780  50.9203115  28.6122830  26.1113722  50.8533047
  27.4592100  25.6820403  51.7353341  28.2478959  24.7130896  53.4873913
  29.0671848  25.2074974  53.5108750  28.5215766  23.7962864  53.4591480
  38.0045555  17.1041648  42.8501868  37.1171410  17.3891299  42.6322063
  38.4199544  16.9435411  42.0029145  41.3560091  17.1288169  46.5656208
  42.1320481  17.6184622  46.8380824  40.6308225  17.5546223  47.0228077
  43.7932650  17.8415788  47.6230148  44.3877140  17.6011524  46.9123457
  43.8659233  17.1222919  48.2503685  26.0129805  31.6849399  47.9373313
  25.8784273  30.9249800  47.3711311  25.5961868  32.4090299  47.4702102
  37.1488768  26.8686323  36.9449888  37.8524618  27.0736325  37.5607544
  36.4251417  27.4363085  37.2098972  37.9786579  22.6196184  43.0652159
  37.9221780  23.0764735  42.2259791  38.5314921  21.8586869  42.8875001
  41.7891384  18.4085916  43.8902278  41.5328319  18.0082552  44.7210486
  41.1644253  19.1229710  43.7652417  46.1003722  21.1481989  46.3973569
  45.5403280  21.2175178  47.1705132  45.4947226  20.9722974  45.6773066
  29.1698931  32.5818716  48.1491756  29.0531315  33.5264149  48.0470446
  28.3491377  32.2792278  48.5377555  39.0575466  27.3068852  38.9948348
  39.8921070  26.8750050  38.8125823  38.8959809  27.1350866  39.9225243
  38.7121358  23.8100965  40.3604688  38.6570162  23.6445237  39.4193132
  38.0867413  24.5176998  40.5166877  23.5013873  19.0469030  54.1866110
  24.1472736  18.5367984  54.6753335  23.2931024  19.7837711  54.7609535
  36.0267265  26.1149877  59.6858251  36.8958425  26.2890529  59.3244885
  35.5474017  26.9344294  59.5633980  32.0217483  13.3109074  39.9390006
  32.0096153  14.2550914  40.0958277  32.9140905  13.1279220  39.6449467
  30.1953445  33.2346978  51.3647684  31.0980692  33.2670588  51.6814179
  29.9690815  32.3047429  51.3794020  31.9507047  31.9877965  48.0257763
  31.0002678  31.9879826  47.9122135  32.2539533  31.2410699  47.5093797
  35.8369603   9.9051851  44.1935943  35.0701999   9.3510338  44.3392625
  36.2480308   9.9773720  45.0550095  27.8411364  16.1936647  58.2841124
  28.7042825  15.8373452  58.4944449  27.2676775  15.8550542  58.9716528
  47.6859741  37.8238503  49.0903525  48.3238151  37.7045250  48.3866865
  47.5680584  38.7719347  49.1491477  44.4949447  37.7765931  49.0265050
  44.1567959  37.6606996  48.1385585  45.3639215  37.3757096  49.0066056
  40.3536263  39.6301408  45.0161941  39.7901128  39.5391345  44.2478229
  40.2388658  38.8101312  45.4964433  37.9000695  41.1252599  47.8546161
  38.6921987  40.7843424  47.4392461  38.1397345  41.2347574  48.7748315
  45.9335821  43.2972375  40.3276406  45.2823801  43.8826456  39.9410420
  46.7280184  43.8278570  40.3871443  39.8591449  40.3861512  40.7263540
  40.6322325  39.8390500  40.5876416  40.2116848  41.2505762  40.9378001
  42.6232698  39.0914743  50.5231799  43.2196270  38.8670766  49.8088762
  42.6807670  38.3499489  51.1257247  42.1957726  36.5454179  38.3581990
  42.4483247  36.0235700  37.5965453  41.2582286  36.3820324  38.4608674
  47.2401009  35.5489957  46.1656733  48.0264099  35.1309380  45.8147150
  47.5039714  36.4536049  46.3338382  47.4111087  40.9862807  40.8645390
  46.7756920  41.0597434  41.5766295  47.0808493  41.5756406  40.1864469
  52.6409436  35.4865190  47.0689712  53.3734608  34.9164407  47.3027541
  51.8848792  35.0986791  47.5096217  41.9154015  38.4482285  40.5606365
  41.7990273  37.7727188  41.2287449  42.0256275  37.9614658  39.7438518
  44.2585556  37.9092432  44.2653054  43.8943763  37.3823053  44.9765976
  45.1152672  37.5190901  44.0919540  50.1634857  29.1986764  51.5284320
  49.8318182  30.0682175  51.3045535  49.5680470  28.8823048  52.2078351
  43.8991043  32.9382331  39.2614403  44.0665445  33.8062568  39.6284874
  43.7088212  33.1009613  38.3375692  46.6566376  41.3999310  50.9280233
  46.3567099  42.3024349  50.8196040  46.3117436  41.1331493  51.7801386
  40.1078858  37.8513107  46.9616937  39.1829354  37.7189321  47.1694629
  40.3563271  38.6307326  47.4586880  50.0563520  33.9181850  48.6077670
  49.1480397  33.8497259  48.3136431  50.0051116  34.3953795  49.4359496
  43.8780264  35.3939989  40.2461070  43.7579889  35.8397040  41.0846550
  43.1832852  35.7425306  39.6874608  37.4687669  37.4946381  47.7960727
  37.5980050  37.7480860  48.7100138  36.7885120  38.0874089  47.4765382
  41.6387156  48.1643631  43.8951201  41.5611186  49.1151456  43.9739681
  41.0348800  47.8189503  44.5526127  51.9225166  32.1198289  50.3855544
  51.2799547  32.4130822  49.7395339  51.4180095  32.0051209  51.1908741
  49.5765330  35.8661462  41.0741404  50.4883186  36.0988849  40.8989101
  49.0674977  36.4498506  40.5116482  48.1834912  40.8487280  48.4654985
  47.5543775  41.0132995  47.7631053  47.7960575  41.2628890  49.2365949
  52.0624144  41.7841718  45.8199349  51.3775182  42.1640620  45.2696382
  52.1467994  42.3937045  46.5531297  46.9201305  32.0419498  49.3231264
  46.0585784  32.3400752  49.6148002  46.9463740  32.2589897  48.3912297
  43.7362874  40.5861689  45.7305070  44.2001220  40.8649392  44.9409693
  43.4719672  39.6845133  45.5478161  40.6286955  40.1333170  48.6684833
  41.1988312  40.5620438  48.0302318  41.2195067  39.8515755  49.3669019
  42.6731760  36.7084841  42.5394635  43.3755804  37.1605885  43.0068562
  42.3412389  36.0668660  43.1674528  41.1212122  35.2996598  56.9145845
  40.4910782  35.9812878  57.1481241  41.0148210  35.1879679  55.9698983
  36.4157094  34.9668394  47.8411769  35.6256148  35.2225922  47.3651879
  36.9068342  35.7816731  47.9463809  38.3671840  35.3312973  44.7995246
  37.5703003  35.4431667  45.3178741  38.1397432  35.6699625  43.9336136
  34.6994797  35.2198884  50.2726760  34.9502836  36.1045894  50.5384336
  35.2354346  35.0403486  49.5001851  58.5226897  38.6512381  46.9402021
  57.7690605  38.0819779  46.7846026  58.6574438  38.6175046  47.8872656
  43.9125525  43.5225784  42.6156740  43.7771200  44.3677319  43.0441588
  44.4535338  43.7245061  41.8522674  40.3992865  29.6017363  59.2771096
  40.0059810  29.0483562  59.9518740  41.2159005  29.9127942  59.6677613
  37.3654922  41.0401222  43.1884666  37.8779443  41.8344472  43.3390230
  38.0177635  40.3427512  43.1218267  39.1749807  44.1566978  45.2707419
  39.3516435  45.0784943  45.0828403  39.9706641  43.8425397  45.7001799
  43.3160826  31.0175242  56.8691352  44.0570539  31.6182396  56.7895815
  43.5478748  30.2752880  56.3109395  38.4602164  36.2031610  55.1469582
  38.3455679  35.3016867  55.4476681  37.6046681  36.4495306  54.7954398
  40.2981123  45.6745152  51.2717761  40.8488548  45.5462215  50.4994755
  39.4592598  45.9740041  50.9212654  47.2617989  27.0456345  51.1455634
  46.9182258  27.9357987  51.0694745  47.6296951  26.8558003  50.2825219
  35.3303839  39.3689876  43.9644236  36.1679061  39.7786884  43.7477944
  35.5082107  38.4289318  43.9344430  47.2268271  37.0364957  39.6528069
  46.7114895  37.8069561  39.8916456  46.9545580  36.3630093  40.2761131
  44.8115382  31.8814657  44.7113307  43.9556979  31.4921508  44.5318946
  45.2242334  31.9606618  43.8513093  46.3414529  29.4161001  49.1104867
  45.8379325  29.3791136  48.2972672  46.6345136  30.3253743  49.1701524
  42.5857415  29.4999730  48.1171049  43.4510412  29.3042539  47.7576938
  42.6534924  29.2710082  49.0440406  52.2002545  39.7897311  41.5881243
  51.4231988  39.4508471  41.1436405  52.8794026  39.7949934  40.9136208
  47.0154574  34.9092049  41.4787850  46.7104710  35.2238198  42.3297993
  47.9685017  34.9873469  41.5215183  45.4601006  41.0682272  43.1280804
  44.9322368  40.3335032  42.8154042  44.9588509  41.8456948  42.8820773
  50.4393852  39.2631292  48.2447851  49.7817527  39.9530554  48.3327979
  51.2434252  39.6527724  48.5881837  40.1919734  31.7301938  45.4887416
  40.7663486  31.5077120  44.7560609  40.7790716  31.7990633  46.2416017
  49.2499311  37.6175665  46.2951792  49.7631193  38.2505657  46.7973502
  49.9000535  37.0176861  45.9295152  40.5189321  33.7606399  39.5083301
  39.6826633  34.0981086  39.8292576  40.3794091  33.6255379  38.5710438
  42.4942402  28.6043187  44.2162485  41.8406814  28.2892204  43.5919100
  42.4522876  27.9818928  44.9422308  43.6053606  38.8862482  36.1315777
  42.6980668  38.6551736  36.3306926  44.1024638  38.0900101  36.3189759
  46.5121685  47.5959989  39.0512463  45.8383384  47.8991686  39.6597421
  46.8987507  48.3989070  38.7017920  45.7280142  35.0925121  48.5410133
  44.8102703  35.3140068  48.3831821  46.1440286  35.1671431  47.6821840
  46.5115190  36.4916536  43.6712813  47.2587009  37.0037934  43.3619935
  46.7806779  36.1700589  44.5317207  44.7841840  38.9875077  40.6539767
  43.8753059  38.7034110  40.7512237  44.8136924  39.4074156  39.7943074
  48.9594027  33.5273653  45.6531602  48.2216784  33.0151039  45.9841845
  49.2120800  33.0874034  44.8414879  49.0605654  26.3049905  46.2473372
  49.3664531  25.4447268  45.9599287  49.7858259  26.8967525  46.0472366
  35.3530010  36.7080591  44.6354970  35.1554410  36.1149952  43.9106036
  34.7976674  36.4032801  45.3530908  43.3326734  36.6003698  46.7549563
  43.3875344  35.6477534  46.6792039  42.5217936  36.7563137  47.2390861
  44.4817928  40.5283821  37.9927846  44.0437358  39.8119680  37.5333483
  45.2228369  40.7559936  37.4312937  41.2719094  35.2180757  44.5139942
  40.4586959  35.5174928  44.9205134  41.7678088  34.8236446  45.2314424
  43.4227672  45.2138514  46.4474206  43.3803851  45.4399361  45.5182738
  44.3390371  44.9801889  46.5960007  52.5991043  38.8041018  44.0504164
  52.4608941  38.9942614  43.1225354  52.2427261  39.5660401  44.5072216
  40.7633169  32.7899113  50.1301177  41.4032548  32.6487872  49.4324140
  39.9310699  32.5033626  49.7539779  52.6260422  40.8717545  49.0615436
  53.0596929  40.7792834  49.9098490  53.3392003  40.8475045  48.4235452
  41.5393473  42.0901543  46.2436169  42.3334071  41.5951863  46.0418744
  40.8285165  41.5619406  45.8803875  37.8476236  36.2344625  42.3195922
  36.9173824  36.1729081  42.5365884  37.9433708  35.7120578  41.5232563
  37.7661785  32.7599438  44.9074163  38.0268602  33.6744771  44.7983324
  38.5878957  32.2923880  45.0570776  39.2386710  34.1737195  52.0772988
  39.9109764  33.9654557  51.4285637  38.4116497  33.9759281  51.6378220
  45.1412282  30.7999136  54.0938649  44.4940197  31.4989086  54.0003125
  45.9113298  31.2335280  54.4614897  44.1164749  42.6630565  49.9234006
  43.9775834  42.2949350  50.7959944  43.3279345  43.1778205  49.7517964
  44.7112901  47.7639662  41.2659543  44.8864656  47.2927705  42.0805165
  44.0245689  48.3905428  41.4940803  45.6669964  42.0412168  47.3122844
  45.3319796  42.0012938  48.2080494  45.1673909  41.3756884  46.8393254
  39.6414208  37.4479798  52.8375425  39.5034006  36.7160037  53.4386964
  40.5519131  37.3588698  52.5559613  48.6029155  39.3868202  37.5859904
  47.9858326  38.6615031  37.4892956  48.1345644  40.1477563  37.2426978
  42.2696508  37.1599757  52.3259105  42.9796127  36.5192950  52.2845723
  42.2265816  37.4112652  53.2485285  40.9825442  34.1464975  54.1454744
  40.4462799  33.6955714  54.7976340  40.3942151  34.2810884  53.4025208
  40.3927701  33.6053627  36.7081208  39.5157168  33.4842427  36.3443454
  40.8685454  32.8139705  36.4560096  31.9129841  38.3930786  46.8022715
  32.6000881  38.0792516  46.2143730  31.7577970  39.2972151  46.5289966
  36.7164564  33.2820983  51.2307739  36.6322752  32.6746653  50.4958149
  35.8947270  33.7730001  51.2317235  43.5791627  45.9579917  43.9543728
  42.7959149  46.5001597  44.0481953  44.2784372  46.4753897  44.3537969
  46.8888277  31.7674547  46.5977934  47.3856977  31.0144509  46.2779004
  46.1175259  31.8038863  46.0321143  54.7418035  37.4714912  48.2396225
  54.7307911  38.3539627  47.8690158  53.8735414  37.1186463  48.0450762
  47.9718058  40.5246234  44.1716357  47.0374337  40.6447696  44.0021061
  48.1494727  39.6218700  43.9076367  43.4723246  33.9091929  46.3249618
  43.1021034  33.3562970  47.0130524  43.9682339  33.3050063  45.7724618
  51.3590609  36.3663553  44.7066391  51.8251062  37.1991545  44.6326694
  51.8098110  35.9008535  45.4111650  49.3307272  28.7344140  48.7457293
  48.4170352  28.9648367  48.9139499  49.7600374  28.8182584  49.5971325
  36.8980163  43.9025780  50.3535739  37.4833600  43.1569467  50.4863643
  36.7005001  44.2129736  51.2372403  39.7518818  46.9377027  45.3698181
  39.0829193  47.4223155  44.8862221  39.6131688  47.1846247  46.2841560
  31.4897818  36.4731380  49.0740182  31.5281917  35.9394970  49.8677300
  30.9838110  35.9466585  48.4551159  38.8688580  31.3195920  52.5702724
  38.9329906  32.1810751  52.1580122  38.8055700  30.7069922  51.8375083
  38.3440852  33.3919053  56.2175759  38.9712891  33.0096130  56.8313283
  37.4868771  33.1733255  56.5831451  35.1206395  35.1995482  42.1494113
  35.4159836  34.2906160  42.0961167  34.2194431  35.1783221  41.8275116
  38.6500642  33.2751478  48.1321662  37.9287228  33.8887446  47.9929135
  39.4393898  33.8109243  48.0538308  41.4526956  30.6105905  54.4062314
  41.9761357  30.8568202  55.1688623  41.2339289  31.4425940  53.9865451
  36.8494237  32.8809580  42.2733439  36.5206943  32.0006959  42.0908545
  37.2033607  32.8257248  43.1609828  39.9636060  33.1682549  42.6408916
  40.3032132  33.6968471  41.9187525  40.4108180  33.5062956  43.4167483
  42.6579501  31.5519600  52.0911984  42.3176321  30.7527413  52.4932664
  41.9518507  31.8521311  51.5188818  43.3095972  28.6368913  50.5439307
  44.1322042  28.1629391  50.4218198  43.5534036  29.4159396  51.0437994
  41.9504207  31.6657171  40.8402209  42.6712569  32.0438424  40.3365926
  41.3269511  32.3846048  40.9437187  46.0935330  32.3702320  41.7760541
  46.3098944  33.2526958  41.4749370  45.6129397  31.9788533  41.0466183
  40.8334551  35.3288033  48.3531286  40.6879132  35.6428336  49.2455567
  40.3559755  35.9472933  47.8002185  42.6930934  32.3190581  48.4012176
  42.6792503  31.4231674  48.0644473  43.4103362  32.3261245  49.0350462
  44.5457065  32.7527921  50.4465303  44.2874843  33.6744992  50.4449633
  44.0142105  32.3558356  51.1365767  35.3080213  37.8693378  51.2918947
  34.7633681  38.6453186  51.4239221  36.1859563  38.2164182  51.1338069
  42.0967830  31.2004961  43.6699746  42.2183741  30.2721608  43.8690633
  41.8069872  31.2143647  42.7578061  44.9659020  28.8859872  46.8066466
  44.9880717  28.9499205  45.8518445  45.3827079  28.0464381  47.0006972
  55.3442645  38.6215131  44.8445688  55.7873791  37.8722457  44.4464811
  54.4669155  38.6125268  44.4619420  36.0946235  36.9963274  54.1849104
  35.3527971  37.1445909  54.7713734  35.7738980  37.2571539  53.3215853
  36.5402849  44.8828703  46.2159499  37.3660869  44.5832474  45.8358142
  36.1896901  44.1136325  46.6649287  41.5084382  44.2355171  48.2857172
  40.8864391  43.5725876  47.9859400  42.1789249  44.2616303  47.6030820
  34.7411454  42.8015029  47.1748432  33.9043362  42.3737203  46.9932434
  34.7135099  42.9947472  48.1119223  41.5808910  32.7136959  57.8789678
  41.6297065  33.5899082  57.4967448  42.1231424  32.1714352  57.3061321
  41.0697889  42.7859094  41.7615633  41.2186009  43.4694559  41.1082306
  41.8764332  42.7664184  42.2765089  43.8108198  33.4668331  54.6336037
  42.9411507  33.7601897  54.3618625  44.0467678  34.0508776  55.3543301
  54.8875509  40.0920370  47.2368136  55.7222401  40.5310174  47.4005696
  55.0234638  39.6159023  46.4176381  38.8250522  38.8124272  42.7676702
  38.5796564  37.9086602  42.9656912  38.9946437  38.8141422  41.8256180
  46.5147232  29.6847948  52.1501457  47.0329176  30.4208975  51.8247946
  46.1602365  29.9911941  52.9848216  38.0946170  34.5452629  40.2662863
  37.4015414  34.6196984  39.6102899  37.8497921  33.7812973  40.7884380
  46.7659826  26.1048231  47.6702354  47.0461580  25.4371420  48.2962780
  47.5510433  26.2977326  47.1577018  44.5693295  45.2807225  39.2327380
  43.9967262  45.8997412  38.7797852  45.1426088  45.8306586  39.7667302
  48.6583064  31.6121448  51.6033330  48.0632996  31.8926461  50.9079819
  48.3732761  32.1015349  52.3750071  50.4178571  44.8810245  37.3239910
  50.3392203  44.5470109  38.2175668  51.2388238  45.3732013  37.3231382
  53.1156762  37.7471984  50.5316229  53.0833082  36.8087985  50.7175912
  53.7257386  37.8256021  49.7982054  44.9540093  36.6168037  36.5743433
  45.8999198  36.4874245  36.6431851  44.5754338  35.8782699  37.0512861
  53.2651251  34.5383028  50.5774512  52.7490299  33.7541484  50.3904441
  54.1491199  34.2101744  50.7421031  50.9261978  28.2824043  46.5370325
  50.7286799  27.9739132  47.4213656  51.5361683  29.0085682  46.6668254
  58.9333312  38.8087991  49.6722265  59.6636701  38.5473279  50.2329969
  58.3240258  38.0716713  49.7124333  57.0148609  36.9495854  50.2696717
  56.2881773  36.8151819  49.6613208  56.5995896  37.2572682  51.0753435
  43.1383010  34.5418014  36.5098318  42.2314466  34.2451126  36.5861032
  43.4158991  34.2447832  35.6432604  34.0560951  35.8624377  46.9597364
  33.7363735  35.0089685  46.6671738  33.5094379  36.0772955  47.7155332
  37.8340858  38.5786818  50.6766871  38.0526868  39.5103926  50.6954905
  38.2466632  38.2194793  51.4621675  44.7545076  29.0854903  42.6642559
  43.9445804  28.7401988  43.0397805  45.4429493  28.7762447  43.2530171
  46.6835624  28.1632950  44.2866856  47.2366663  28.5828404  44.9456879
  46.9205711  27.2368698  44.3289812  42.7068723  34.1520024  60.0669620
  42.6065450  35.1014381  59.9981711  42.4890265  33.8238263  59.1945690
  41.9081795  31.4004949  36.6510297  42.7700959  31.7259847  36.9106114
  42.0932139  30.6136445  36.1383363  33.9249211  39.4827289  48.9290486
  33.2312682  39.0681241  48.4160440  34.6722202  39.5247825  48.3323905
  50.0614431  30.2733475  43.7945520  49.4813100  30.9318279  43.4123573
  49.7950364  29.4510820  43.3832938  48.5117998  29.6738533  45.9966840
  49.0117776  29.7855068  45.1881159  49.1553606  29.3699586  46.6367649
  35.8385953  39.4145542  46.8056501  35.8156641  39.5133230  45.8538384
  36.1486590  40.2610693  47.1273667  38.4973331  41.4721697  50.9203115
  39.4516585  41.4405640  50.8533047  38.2985855  41.0112321  51.7353341
  39.0872713  40.0422813  53.4873913  39.9065602  40.5366892  53.5108750
  39.3609521  39.1254782  53.4591480  48.8439309  32.4333566  42.8501868
  47.9565164  32.7183216  42.6322063  49.2593298  32.2727329  42.0029145
  52.1953845  32.4580087  46.5656208  52.9714236  32.9476539  46.8380824
  51.4701980  32.8838141  47.0228077  54.6326404  33.1707706  47.6230148
  55.2270895  32.9303442  46.9123457  54.7052988  32.4514837  48.2503685
  36.8523560  47.0141317  47.9373313  36.7178028  46.2541718  47.3711311
  36.4355622  47.7382217  47.4702102  47.9882523  42.1978240  36.9449888
  48.6918373  42.4028243  37.5607544  47.2645172  42.7655002  37.2098972
  48.8180333  37.9488102  43.0652159  48.7615534  38.4056653  42.2259791
  49.3708676  37.1878786  42.8875001  52.6285139  33.7377834  43.8902278
  52.3722073  33.3374469  44.7210486  52.0038007  34.4521628  43.7652417
  56.9397477  36.4773907  46.3973569  56.3797035  36.5467096  47.1705132
  56.3340980  36.3014891  45.6773066  40.0092686  47.9110634  48.1491756
  39.8925070  48.8556066  48.0470446  39.1885132  47.6084195  48.5377555
  49.5515112  39.1392883  40.3604688  49.4963916  38.9737154  39.4193132
  48.9261168  39.8468916  40.5166877  34.3407627  34.3760947  54.1866110
  34.9866491  33.8659901  54.6753335  34.1324778  35.1129629  54.7609535
  42.8611238  28.6400992  39.9390006  42.8489908  29.5842832  40.0958277
  43.7534660  28.4571137  39.6449467  42.7900802  47.3169882  48.0257763
  41.8396433  47.3171744  47.9122135  43.0933288  46.5702617  47.5093797
  46.6763357  25.2343769  44.1935943  45.9095753  24.6802255  44.3392625
  47.0874062  25.3065637  45.0550095  38.6805118  31.5228564  58.2841124
  39.5436580  31.1665369  58.4944449  38.1070529  31.1842459  58.9716528
  53.0351481  51.8746096  38.3581990  53.2877002  51.3527618  37.5965453
  52.0976040  51.7112242  38.4608674  54.7384798  48.2674249  39.2614403
  54.9059200  49.1354485  39.6284874  54.5481967  48.4301531  38.3375692
  53.3336156  43.9335105  44.2162485  52.6800568  43.6184122  43.5919100
  53.2916630  43.3110845  44.9422308  51.2321456  48.9345544  36.7081208
  50.3550922  48.8134345  36.3443454  51.7079209  48.1431623  36.4560096
  56.9329084  47.6994238  41.7760541  57.1492699  48.5818875  41.4749370
  56.4523152  47.3080451  41.0466183  55.8052775  44.2151790  46.8066466
  55.8274472  44.2791123  45.8518445  56.2220834  43.3756298  47.0006972
  53.9776765  49.8709931  36.5098318  53.0708220  49.5743044  36.5861032
  54.2552746  49.5739749  35.6432604  55.5938830  44.4146821  42.6642559
  54.7839559  44.0693906  43.0397805  56.2823247  44.1054365  43.2530171
  57.5229379  43.4924868  44.2866856  58.0760417  43.9120321  44.9456879
  57.7599465  42.5660616  44.3289812  52.7475549  46.7296867  36.6510297
  53.6094713  47.0551765  36.9106114  52.9325893  45.9428363  36.1383363
  57.5157112  40.5635686  44.1935943  56.7489508  40.0094173  44.3392625
  57.9267817  40.6357555  45.0550095  59.5788204  71.7836435  47.8546161
  60.3709496  71.4427259  47.4392461  59.8184854  71.8931410  48.7748315
  67.6123330  73.9556211  40.3276406  66.9611310  74.5410291  39.9410420
  68.4067693  74.4862406  40.3871443  61.5378958  71.0445348  40.7263540
  62.3109834  70.4974335  40.5876416  61.8904356  71.9089597  40.9378001
  63.3174665  78.8227466  43.8951201  63.2398695  79.7735291  43.9739681
  62.7136309  78.4773338  44.5526127  73.7411653  72.4425554  45.8199349
  73.0562691  72.8224455  45.2696382  73.8255503  73.0520880  46.5531297
  80.2014406  69.3096217  46.9402021  79.4478114  68.7403615  46.7846026
  80.3361947  69.2758881  47.8872656  65.5913034  74.1809619  42.6156740
  65.4558709  75.0261155  43.0441588  66.1322846  74.3828897  41.8522674
  59.0442431  71.6985057  43.1884666  59.5566952  72.4928307  43.3390230
  59.6965144  71.0011347  43.1218267  60.8537316  74.8150813  45.2707419
  61.0303944  75.7368778  45.0828403  61.6494150  74.5009232  45.7001799
  61.9768632  76.3328987  51.2717761  62.5276057  76.2046050  50.4994755
  61.1380107  76.6323876  50.9212654  68.9405498  57.7040181  51.1455634
  68.5969767  58.5941822  51.0694745  69.3084460  57.5141838  50.2825219
  57.0091348  70.0273711  43.9644236  57.8466570  70.4370720  43.7477944
  57.1869616  69.0873153  43.9344430  68.1909194  78.2543825  39.0512463
  67.5170893  78.5575521  39.6597421  68.5775016  79.0572905  38.7017920
  70.1381556  75.0941999  45.3580753  70.4304530  75.6547056  44.6393119
  70.6480176  75.3870560  46.1133912  65.1015181  75.8722350  46.4474206
  65.0591360  76.0983196  45.5182738  66.0177880  75.6385724  46.5960007
  63.2180982  72.7485379  46.2436169  64.0121580  72.2535699  46.0418744
  62.5072674  72.2203242  45.8803875  68.0375826  75.1303474  50.5948537
  68.0912848  75.6994411  51.3626253  67.1690607  75.3005359  50.2302574
  65.7952258  73.3214401  49.9234006  65.6563343  72.9533185  50.7959944
  65.0066854  73.8362040  49.7517964  66.3900409  78.4223497  41.2659543
  66.5652165  77.9511540  42.0805165  65.7033198  79.0489263  41.4940803
  60.9561495  81.5712860  48.0399403  61.1958093  82.2031384  48.7178421
  60.1130691  81.2200900  48.3264762  53.5917350  69.0514622  46.8022715
  54.2788390  68.7376352  46.2143730  53.4365479  69.9555986  46.5289966
  65.4689357  77.3791982  50.4440907  65.3959528  78.1846954  50.9560211
  65.0266750  77.5783948  49.6188928  65.2579136  76.6163752  43.9543728
  64.4746658  77.1585433  44.0481953  65.9571881  77.1337732  44.3537969
  76.4205544  68.1298747  48.2396225  76.4095420  69.0123463  47.8690158
  75.5522923  67.7770298  48.0450762  67.9288040  77.2778816  52.5999065
  68.6416012  77.9126281  52.5274967  67.4378069  77.3742682  51.7839067
  67.7408414  77.6177560  45.3485357  67.9230808  76.7999216  45.8113109
  68.5641400  77.8345253  44.9110247  68.0750579  76.5445746  42.6100405
  68.6038345  76.0338200  41.9970567  68.3378799  76.2288276  43.4745938
  58.5767672  74.5609615  50.3535739  59.1621109  73.8153303  50.4863643
  58.3792510  74.8713572  51.2372403  61.4306327  77.5960862  45.3698181
  60.7616702  78.0806990  44.8862221  61.2919197  77.8430083  46.2841560
  65.5711596  79.6304606  51.9680840  66.1229904  79.7936227  52.7329925
  65.9117789  80.2209044  51.2960865  68.7079983  77.5786581  48.9544522
  68.5831122  76.7776321  48.4455467  69.3659074  78.0732775  48.4658492
  70.7714891  75.3795601  50.5824072  69.8245227  75.2600953  50.5102399
  71.1197664  74.4918099  50.6650333  67.7761325  75.1748318  46.7828424
  67.6286287  74.2465025  46.9635994  68.6014818  75.1968408  46.2985499
  71.3795446  75.9976876  47.8693297  72.3041994  75.7919738  47.7317748
  71.2110750  75.7493278  48.7782638  71.1690763  76.5162544  43.2255388
  71.3427640  75.9508966  42.4729241  71.6619654  77.3163439  43.0434878
  72.1565935  75.8329308  40.3252287  72.8516840  76.4536001  40.5439601
  72.4989085  74.9824659  40.6004665  74.0557358  73.2829014  41.8539617
  74.5808682  73.6216287  41.1288937  73.9679711  72.3476029  41.6702752
  65.7398019  79.3500997  46.2134871  65.3003009  78.8577376  46.9067727
  66.4906136  78.8073965  45.9726946  58.2190358  75.5412538  46.2159499
  59.0448378  75.2416310  45.8358142  57.8684410  74.7720160  46.6649287
  63.1871891  74.8939006  48.2857172  62.5651900  74.2309711  47.9859400
  63.8576758  74.9200138  47.6030820  56.4198963  73.4598864  47.1748432
  55.5830871  73.0321039  46.9932434  56.3922608  73.6531308  48.1119223
  62.7485398  73.4442929  41.7615633  62.8973518  74.1278394  41.1082306
  63.5551841  73.4248020  42.2765089  76.5663018  70.7504205  47.2368136
  77.4009910  71.1894009  47.4005696  76.7022147  70.2742858  46.4176381
  60.5038031  69.4708107  42.7676702  60.2584073  68.5670437  42.9656912
  60.6733946  69.4725258  41.8256180  66.2480804  75.9391060  39.2327380
  65.6754771  76.5581247  38.7797852  66.8213597  76.4890422  39.7667302
  69.4678063  76.2228210  40.3635962  70.4008736  76.1573772  40.5668838
  69.3801276  77.0584477  39.9050495  80.6120821  69.4671827  49.6722265
  81.3424209  69.2057115  50.2329969  80.0027766  68.7300548  49.7124333
  57.5173462  70.0729378  46.8056501  57.4944150  70.1717065  45.8538384
  57.8274099  70.9194529  47.1273667  58.5311069  77.6725152  47.9373313
  58.3965537  76.9125553  47.3711311  58.1143131  78.3966052  47.4702102
  78.6184986  67.1357742  46.3973569  78.0584544  67.2050931  47.1705132
  78.0128489  66.9598727  45.6773066  61.6880195  78.5694469  48.1491756
  61.5712579  79.5139902  48.0470446  60.8672641  78.2668031  48.5377555
  62.7134709  79.2222731  51.3647684  63.6161955  79.2546341  51.6814179
  62.4872079  78.2923182  51.3794020  64.4688311  77.9753718  48.0257763
  63.5183942  77.9755579  47.9122135  64.7720797  77.2286452  47.5093797
  80.2041004  83.8114256  49.0903525  80.8419414  83.6921003  48.3866865
  80.0861847  84.7595100  49.1491477  77.0130711  83.7641684  49.0265050
  76.6749222  83.6482749  48.1385585  77.8820479  83.3632849  49.0066056
  72.8717526  85.6177161  45.0161941  72.3082391  85.5267098  44.2478229
  72.7569921  84.7977065  45.4964433  70.4181958  87.1128352  47.8546161
  71.2103250  86.7719177  47.4392461  70.6578608  87.2223327  48.7748315
  78.4517085  89.2848128  40.3276406  77.8005065  89.8702209  39.9410420
  79.2461448  89.8154323  40.3871443  72.3772712  86.3737265  40.7263540
  73.1503588  85.8266253  40.5876416  72.7298111  87.2381515  40.9378001
  74.2157755  87.7013648  53.9330439  73.9247621  88.6059279  53.8177106
  74.8514739  87.7430175  54.6474509  75.1413962  85.0790496  50.5231799
  75.7377534  84.8546519  49.8088762  75.1988933  84.3375242  51.1257247
  74.7138990  82.5329932  38.3581990  74.9664511  82.0111453  37.5965453
  73.7763549  82.3696077  38.4608674  79.7582273  81.5365710  46.1656733
  80.5445362  81.1185133  45.8147150  80.0220977  82.4411802  46.3338382
  79.9292350  86.9738560  40.8645390  79.2938183  87.0473187  41.5766295
  79.5989757  87.5632159  40.1864469  85.1590700  81.4740943  47.0689712
  85.8915872  80.9040160  47.3027541  84.4030056  81.0862544  47.5096217
  74.4335279  84.4358038  40.5606365  74.3171537  83.7602941  41.2287449
  74.5437539  83.9490411  39.7438518  76.7766820  83.8968185  44.2653054
  76.4125027  83.3698806  44.9765976  77.6333936  83.5066654  44.0919540
  82.6816120  75.1862517  51.5284320  82.3499445  76.0557928  51.3045535
  82.0861734  74.8698801  52.2078351  76.4172307  78.9258084  39.2614403
  76.5846709  79.7938321  39.6284874  76.2269476  79.0885366  38.3375692
  79.1747640  87.3875063  50.9280233  78.8748363  88.2900102  50.8196040
  78.8298699  87.1207246  51.7801386  72.6260121  83.8388860  46.9616937
  71.7010618  83.7065074  47.1694629  72.8744534  84.6183079  47.4586880
  82.5744784  79.9057603  48.6077670  81.6661661  79.8373012  48.3136431
  82.5232379  80.3829548  49.4359496  76.3961527  81.3815742  40.2461070
  76.2761153  81.8272793  41.0846550  75.7014116  81.7301060  39.6874608
  69.9868932  83.4822134  47.7960727  70.1161313  83.7356613  48.7100138
  69.3066384  84.0749842  47.4765382  74.1568420  94.1519384  43.8951201
  74.0792449  95.1027209  43.9739681  73.5530063  93.8065256  44.5526127
  84.4406430  78.1074042  50.3855544  83.7980810  78.4006575  49.7395339
  83.9361358  77.9926962  51.1908741  82.0946594  81.8537215  41.0741404
  83.0064450  82.0864602  40.8989101  81.5856241  82.4374259  40.5116482
  80.3787361  86.2761843  54.7102696  80.7870717  85.8344253  53.9657329
  79.6564623  85.7014470  54.9636889  80.7016176  86.8363033  48.4654985
  80.0725038  87.0008748  47.7631053  80.3141838  87.2504643  49.2365949
  84.5805408  87.7717471  45.8199349  83.8956446  88.1516373  45.2696382
  84.6649257  88.3812798  46.5531297  79.8817877  78.8738818  53.7417427
  79.6378809  79.6280879  53.2051702  80.1577807  79.2524166  54.5764674
  81.8356339  85.4177430  52.4194692  82.0473235  86.0609190  51.7429073
  81.7886088  84.5839747  51.9516622  79.4382568  78.0295251  49.3231264
  78.5767047  78.3276505  49.6148002  79.4645003  78.2465650  48.3912297
  76.2544138  86.5737442  45.7305070  76.7182483  86.8525145  44.9409693
  75.9900936  85.6720886  45.5478161  73.1468219  86.1208923  48.6684833
  73.7169576  86.5496191  48.0302318  73.7376331  85.8391508  49.3669019
  75.1913024  82.6960594  42.5394635  75.8937067  83.1481638  43.0068562
  74.8593652  82.0544413  43.1674528  68.9338358  80.9544147  47.8411769
  68.1437412  81.2101675  47.3651879  69.4249605  81.7692484  47.9463809
  82.9502167  88.2949386  50.5917050  83.7719611  87.8929573  50.3099731
  82.9464570  88.1917620  51.5433165  70.8853103  81.3188726  44.7995246
  70.0884266  81.4307420  45.3178741  70.6578695  81.6575378  43.9336136
  76.7158771  87.8433429  52.7477760  76.7803203  88.3053836  53.5835932
  76.0069695  87.2130794  52.8760070  67.2176061  81.2074637  50.2726760
  67.4684099  82.0921647  50.5384336  67.7535609  81.0279239  49.5001851
  91.0408160  84.6388134  46.9402021  90.2871869  84.0695532  46.7846026
  91.1755702  84.6050799  47.8872656  76.4306788  89.5101537  42.6156740
  76.2952463  90.3553072  43.0441588  76.9716601  89.7120814  41.8522674
  69.8836186  87.0276975  43.1884666  70.3960706  87.8220225  43.3390230
  70.5358899  86.3303265  43.1218267  71.6931071  90.1442731  45.2707419
  71.8697699  91.0660696  45.0828403  72.4887904  89.8301150  45.7001799
  78.0575265  90.1325103  56.7457083  77.6139119  89.3461482  56.4277987
  78.7192478  90.3204254  56.0800973  72.8162386  91.6620905  51.2717761
  73.3669811  91.5337968  50.4994755  71.9773862  91.9615794  50.9212654
  80.1556503  90.4127903  54.7738484  80.1374978  91.2336784  54.2818753
  81.0776423  90.2881978  54.9988625  76.6129557  87.9272032  55.6161992
  77.1457894  87.1660321  55.3861300  76.0843638  87.6345684  56.3586147
  79.7799252  73.0332098  51.1455634  79.4363521  73.9233740  51.0694745
  80.1478215  72.8433756  50.2825219  67.8485103  85.3565629  43.9644236
  68.6860325  85.7662637  43.7477944  68.0263370  84.4165071  43.9344430
  79.7449535  83.0240710  39.6528069  79.2296158  83.7945314  39.8916456
  79.4726843  82.3505846  40.2761131  77.3296646  77.8690410  44.7113307
  76.4738242  77.4797261  44.5318946  77.7423598  77.9482371  43.8513093
  78.8595792  75.4036754  49.1104867  78.3560588  75.3666889  48.2972672
  79.1526399  76.3129496  49.1701524  75.1038678  75.4875483  48.1171049
  75.9691675  75.2918292  47.7576938  75.1716187  75.2585835  49.0440406
  84.7183809  85.7773064  41.5881243  83.9413252  85.4384224  41.1436405
  85.3975290  85.7825687  40.9136208  79.5335838  80.8967802  41.4787850
  79.2285974  81.2113951  42.3297993  80.4866280  80.9749222  41.5215183
  77.9782270  87.0558025  43.1280804  77.4503631  86.3210785  42.8154042
  77.4769773  87.8332701  42.8820773  82.9575116  85.2507045  48.2447851
  82.2998790  85.9406307  48.3327979  83.7615515  85.6403477  48.5881837
  72.7100997  77.7177691  45.4887416  73.2844749  77.4952873  44.7560609
  73.2971980  77.7866386  46.2416017  81.7680575  83.6051418  46.2951792
  82.2812456  84.2381410  46.7973502  82.4181798  83.0052614  45.9295152
  73.0370584  79.7482152  39.5083301  72.2007897  80.0856839  39.8292576
  72.8975354  79.6131132  38.5710438  75.0123665  74.5918940  44.2162485
  74.3588077  74.2767957  43.5919100  74.9704139  73.9694681  44.9422308
  76.1234870  84.8738235  36.1315777  75.2161932  84.6427489  36.3306926
  76.6205902  84.0775854  36.3189759  79.0302949  93.5835742  39.0512463
  78.3564648  93.8867439  39.6597421  79.4168771  94.3864823  38.7017920
  78.2461405  81.0800874  48.5410133  77.3283967  81.3015821  48.3831821
  78.6621549  81.1547184  47.6821840  79.0296453  82.4792289  43.6712813
  79.7768272  82.9913687  43.3619935  79.2988043  82.1576342  44.5317207
  77.3023103  84.9750830  40.6539767  76.3934323  84.6909863  40.7512237
  77.3318187  85.3949909  39.7943074  82.5342371  88.5857420  44.4230935
  82.0804698  87.7448329  44.4796125  81.9036338  89.2218818  44.7605715
  81.4775290  79.5149406  45.6531602  80.7398047  79.0026792  45.9841845
  81.7302064  79.0749787  44.8414879  80.9775310  90.4233916  45.3580753
  81.2698284  90.9838973  44.6393119  81.4873931  90.7162477  46.1133912
  81.5786918  72.2925658  46.2473372  81.8845795  71.4323021  45.9599287
  82.3039523  72.8843278  46.0472366  67.8711274  82.6956344  44.6354970
  67.6735674  82.1025705  43.9106036  67.3157938  82.3908554  45.3530908
  75.8507997  82.5879451  46.7549563  75.9056607  81.6353287  46.6792039
  75.0399199  82.7438890  47.2390861  76.9999191  86.5159574  37.9927846
  76.5618621  85.7995433  37.5333483  77.7409632  86.7435689  37.4312937
  73.7900357  81.2056510  44.5139942  72.9768223  81.5050681  44.9205134
  74.2859352  80.8112199  45.2314424  75.9408935  91.2014267  46.4474206
  75.8985114  91.4275114  45.5182738  76.8571634  90.9677642  46.5960007
  79.3874569  81.6698335  53.3454835  79.7423957  81.8969808  54.2049301
  80.0346700  82.0016712  52.7232091  85.1172306  84.7916771  44.0504164
  84.9790205  84.9818367  43.1225354  84.7608525  85.5536154  44.5072216
  73.2814432  78.7774866  50.1301177  73.9213811  78.6363625  49.4324140
  72.4491963  78.4909379  49.7539779  85.1441686  86.8593298  49.0615436
  85.5778192  86.7668587  49.9098490  85.8573266  86.8350798  48.4235452
  74.0574736  88.0777296  46.2436169  74.8515335  87.5827617  46.0418744
  73.3466428  87.5495160  45.8803875  78.8769580  90.4595392  50.5948537
  78.9306603  91.0286328  51.3626253  78.0084362  90.6297277  50.2302574
  70.3657499  82.2220378  42.3195922  69.4355088  82.1604834  42.5365884
  70.4614971  81.6996331  41.5232563  70.2843049  78.7475191  44.9074163
  70.5449866  79.6620524  44.7983324  71.1060221  78.2799634  45.0570776
  71.7567974  80.1612948  52.0772988  72.4291027  79.9530310  51.4285637
  70.9297760  79.9635034  51.6378220  86.0057235  86.9016998  51.5948321
  86.1993125  87.8062809  51.8407596  85.9057853  86.4424418  52.4286906
  81.0672344  87.0523741  57.1689202  80.9157850  86.8234293  56.2519286
  81.0577023  88.0094343  57.1820547  77.8357680  84.6255654  52.1535468
  78.7649740  84.7766814  51.9804436  77.4148710  84.7139675  51.2984115
  76.6346012  88.6506318  49.9234006  76.4957098  88.2825103  50.7959944
  75.8460608  89.1653958  49.7517964  77.2294164  93.7515415  41.2659543
  77.4045920  93.2803458  42.0805165  76.5426952  94.3781181  41.4940803
  78.1851227  88.0287921  47.3122844  77.8501060  87.9888691  48.2080494
  77.6855173  87.3632637  46.8393254  72.1595471  83.4355551  52.8375425
  72.0215269  82.7035790  53.4386964  73.0700395  83.3464451  52.5559613
  81.1210419  85.3743955  37.5859904  80.5039589  84.6490784  37.4892956
  80.6526907  86.1353316  37.2426978  82.7764550  90.0842864  55.2465684
  82.7177097  89.4002084  54.5796267  83.1784069  90.8261854  54.7946310
  71.7955249  96.9004778  48.0399403  72.0351847  97.5323302  48.7178421
  70.9524446  96.5492818  48.3264762  72.9108965  79.5929380  36.7081208
  72.0338431  79.4718180  36.3443454  73.3866718  78.8015458  36.4560096
  82.7781958  88.0482448  53.4779664  81.8908737  87.7108369  53.6006062
  83.3480509  87.3165479  53.7148429  64.4311105  84.3806539  46.8022715
  65.1182145  84.0668269  46.2143730  64.2759234  85.2847904  46.5289966
  69.2345827  79.2696736  51.2307739  69.1504016  78.6622406  50.4958149
  68.4128533  79.7605754  51.2317235  76.3083111  92.7083900  50.4440907
  76.2353283  93.5138872  50.9560211  75.8660504  92.9075866  49.6188928
  76.0972891  91.9455670  43.9543728  75.3140413  92.4877350  44.0481953
  76.7965636  92.4629650  44.3537969  79.4069541  77.7550300  46.5977934
  79.9038240  77.0020262  46.2779004  78.6356522  77.7914616  46.0321143
  87.2599298  83.4590665  48.2396225  87.2489175  84.3415380  47.8690158
  86.3916678  83.1062216  48.0450762  78.7681795  92.6070734  52.5999065
  79.4809767  93.2418199  52.5274967  78.2771823  92.7034600  51.7839067
  80.4899322  86.5121987  44.1716357  79.5555600  86.6323449  44.0021061
  80.6675990  85.6094454  43.9076367  75.9904510  79.8967683  46.3249618
  75.6202297  79.3438723  47.0130524  76.4863602  79.2925816  45.7724618
  83.8771873  82.3539306  44.7066391  84.3432325  83.1867298  44.6326694
  84.3279373  81.8884288  45.4111650  73.8193708  90.3565178  53.4204636
  74.5203168  90.9901661  53.5734030  73.3488823  90.6979909  52.6600276
  81.9448104  88.6983127  41.7052543  82.2207948  88.5839722  42.6146417
  81.0752603  88.3000612  41.6664716  81.8488536  74.7219893  48.7457293
  80.9351615  74.9524120  48.9139499  82.2781637  74.8058337  49.5971325
  81.6194994  82.9109785  51.2457187  80.9666444  83.1585692  50.5909639
  81.9975374  82.0973923  50.9119664  78.5802168  92.9469478  45.3485357
  78.7624563  92.1291134  45.8113109  79.4035154  93.1637170  44.9110247
  78.9144334  91.8737663  42.6100405  79.4432100  91.3630118  41.9970567
  79.1772553  91.5580194  43.4745938  69.4161426  89.8901533  50.3535739
  70.0014863  89.1445220  50.4863643  69.2186265  90.2005489  51.2372403
  72.2700081  92.9252780  45.3698181  71.6010457  93.4098908  44.8862221
  72.1312951  93.1722000  46.2841560  64.0079081  82.4607133  49.0740182
  64.0463180  81.9270723  49.8677300  63.5019374  81.9342338  48.4551159
  76.4105350  94.9596523  51.9680840  76.9623658  95.1228145  52.7329925
  76.7511544  95.5500961  51.2960865  81.2616224  89.7857781  57.8229494
  81.8056128  90.3987739  57.3284449  80.6803069  90.3437359  58.3396507
  67.6387659  81.1871235  42.1494113  67.9341100  80.2781913  42.0961167
  66.7375694  81.1658974  41.8275116  79.5473737  92.9078499  48.9544522
  79.4224877  92.1068239  48.4455467  80.2052828  93.4024692  48.4658492
  71.1681906  79.2627232  48.1321662  70.4468491  79.8763199  47.9929135
  71.9575161  79.7984996  48.0538308  81.6108646  90.7087519  50.5824072
  80.6638981  90.5892870  50.5102399  81.9591419  89.8210017  50.6650333
  69.3675500  78.8685333  42.2733439  69.0388206  77.9882712  42.0908545
  69.7214871  78.8133001  43.1609828  78.6155079  90.5040235  46.7828424
  78.4680041  89.5756943  46.9635994  79.4408573  90.5260326  46.2985499
  72.4817323  79.1558302  42.6408916  72.8213396  79.6844224  41.9187525
  72.9289444  79.4938709  43.4167483  82.2189201  91.3268794  47.8693297
  83.1435748  91.1211655  47.7317748  82.0504504  91.0785195  48.7782638
  74.4685470  77.6532924  40.8402209  75.1893833  78.0314177  40.3365926
  73.8450775  78.3721801  40.9437187  78.6116593  78.3578073  41.7760541
  78.8280208  79.2402711  41.4749370  78.1310660  77.9664286  41.0466183
  73.3515815  81.3163786  48.3531286  73.2060395  81.6304089  49.2455567
  72.8741018  81.9348687  47.8002185  75.2112198  78.3066334  48.4012176
  75.1973766  77.4107427  48.0644473  75.9284626  78.3136998  49.0350462
  77.0638328  78.7403674  50.4465303  76.8056106  79.6620745  50.4449633
  76.5323369  78.3434109  51.1365767  82.0084517  91.8454462  43.2255388
  82.1821395  91.2800884  42.4729241  82.5013408  92.6455356  43.0434878
  67.8261477  83.8569131  51.2918947  67.2814945  84.6328939  51.4239221
  68.7040827  84.2039935  51.1338069  74.6149094  77.1880714  43.6699746
  74.7365005  76.2597361  43.8690633  74.3251136  77.2019400  42.7578061
  77.4840284  74.8735625  46.8066466  77.5061981  74.9374958  45.8518445
  77.9008343  74.0340134  47.0006972  87.8623908  84.6090884  44.8445688
  88.3055054  83.8598210  44.4464811  86.9850419  84.6001021  44.4619420
  82.9959690  91.1621226  40.3252287  83.6910594  91.7827919  40.5439601
  83.3382840  90.3116577  40.6004665  68.6127499  82.9839027  54.1849104
  67.8709235  83.1321662  54.7713734  68.2920243  83.2447292  53.3215853
  84.8951113  88.6120931  41.8539617  85.4202437  88.9508204  41.1288937
  84.8073465  87.6767947  41.6702752  76.5571161  92.5255005  53.9829494
  76.8658288  92.2804152  54.8552194  77.3546643  92.7301644  53.4948364
  76.5791773  94.6792915  46.2134871  76.1396764  94.1869293  46.9067727
  77.3299890  94.1365882  45.9726946  69.0584112  90.8704456  46.2159499
  69.8842132  90.5708227  45.8358142  68.7078164  90.1012078  46.6649287
  74.0265646  90.2230924  48.2857172  73.4045655  89.5601629  47.9859400
  74.6970512  90.2492056  47.6030820  67.2592717  88.7890782  47.1748432
  66.4224626  88.3612956  46.9932434  67.2316363  88.9823225  48.1119223
  84.5845019  89.2453835  57.1590815  83.7940562  89.2277974  56.6195315
  84.3478373  89.7842129  57.9139852  84.7042894  86.0946301  54.4723544
  84.7540899  85.9296309  55.4139067  84.5956817  85.2273560  54.0821425
  73.5879152  88.7734847  41.7615633  73.7367273  89.4570312  41.1082306
  74.3945596  88.7539937  42.2765089  81.9946656  82.0777229  55.7882851
  82.8956519  81.9383694  55.4966848  82.0694631  82.2431684  56.7281028
  86.2061091  88.5143243  54.7165565  85.9145899  88.8773224  55.5529026
  85.5933222  87.8010251  54.5378898  87.4056773  86.0796123  47.2368136
  88.2403664  86.5185927  47.4005696  87.5415902  85.6034776  46.4176381
  84.4548279  83.6375858  53.1845623  84.9302400  83.8303504  52.3764475
  83.5313844  83.6935043  52.9389007  71.3431785  84.8000025  42.7676702
  71.0977827  83.8962355  42.9656912  71.5127700  84.8017175  41.8256180
  79.0328495  75.6723701  52.1501457  79.5510439  76.4084728  51.8247946
  78.6783628  75.9787694  52.9848216  70.6127433  80.5328382  40.2662863
  69.9196678  80.6072737  39.6102899  70.3679185  79.7688726  40.7884380
  79.2841090  72.0923984  47.6702354  79.5642843  71.4247173  48.2962780
  80.0691696  72.2853079  47.1577018  77.0874558  91.2682978  39.2327380
  76.5148525  91.8873165  38.7797852  77.6607352  91.8182339  39.7667302
  83.1549948  80.5141618  51.4173929  84.1067371  80.6139715  51.4386153
  82.9853398  79.7219886  51.9272013  81.1764327  77.5997201  51.6033330
  80.5814259  77.8802214  50.9079819  80.8914024  78.0891102  52.3750071
  80.3071818  91.5520128  40.3635962  81.2402491  91.4865689  40.5668838
  80.2195031  92.3876395  39.9050495  82.9359834  90.8685998  37.3239910
  82.8573466  90.5345862  38.2175668  83.7569501  91.3607766  37.3231382
  85.6338026  83.7347737  50.5316229  85.6014346  82.7963738  50.7175912
  86.2438649  83.8131774  49.7982054  77.4721357  82.6043790  36.5743433
  78.4180461  82.4749998  36.6431851  77.0935601  81.8658452  37.0512861
  85.7832514  80.5258781  50.5774512  85.2671563  79.7417237  50.3904441
  86.6672463  80.1977497  50.7421031  83.4443241  74.2699796  46.5370325
  83.2468062  73.9614885  47.4213656  84.0542947  74.9961435  46.6668254
  91.4514576  84.7963744  49.6722265  92.1817964  84.5349032  50.2329969
  90.8421521  84.0592466  49.7124333  89.5329873  82.9371607  50.2696717
  88.8063036  82.8027572  49.6613208  89.1177160  83.2448435  51.0753435
  75.6564274  80.5293767  36.5098318  74.7495729  80.2326879  36.5861032
  75.9340255  80.2323585  35.6432604  66.5742214  81.8500130  46.9597364
  66.2544998  80.9965438  46.6671738  66.0275642  82.0648708  47.7155332
  70.3522122  84.5662571  50.6766871  70.5708131  85.4979679  50.6954905
  70.7647895  84.2070546  51.4621675  77.2726339  75.0730656  42.6642559
  76.4627068  74.7277741  43.0397805  77.9610756  74.7638200  43.2530171
  79.2016888  74.1508703  44.2866856  79.7547926  74.5704157  44.9456879
  79.4386974  73.2244451  44.3289812  66.4430474  85.4703042  48.9290486
  65.7493945  85.0556994  48.4160440  67.1903465  85.5123578  48.3323905
  82.5795695  76.2609228  43.7945520  81.9994364  76.9194032  43.4123573
  82.3131627  75.4386573  43.3832938  81.0299261  75.6614286  45.9966840
  81.5299039  75.7730821  45.1881159  81.6734869  75.3575339  46.6367649
  68.3567217  85.4021295  46.8056501  68.3337905  85.5008983  45.8538384
  68.6667853  86.2486446  47.1273667  71.0154594  87.4597450  50.9203115
  71.9697848  87.4281393  50.8533047  70.8167118  86.9988074  51.7353341
  71.6053977  86.0298566  53.4873913  72.4246866  86.5242645  53.5108750
  71.8790784  85.1130535  53.4591480  81.3620573  78.4209319  42.8501868
  80.4746428  78.7058969  42.6322063  81.7774562  78.2603082  42.0029145
  84.7135109  78.4455840  46.5656208  85.4895499  78.9352292  46.8380824
  83.9883243  78.8713894  47.0228077  87.1507668  79.1583459  47.6230148
  87.7452158  78.9179195  46.9123457  87.2234251  78.4390590  48.2503685
  69.3704823  93.0017070  47.9373313  69.2359291  92.2417471  47.3711311
  68.9536886  93.7257970  47.4702102  80.5063786  88.1853993  36.9449888
  81.2099636  88.3903996  37.5607544  79.7826435  88.7530755  37.2098972
  81.3361597  83.9363855  43.0652159  81.2796798  84.3932406  42.2259791
  81.8889939  83.1754539  42.8875001  85.1466402  79.7253587  43.8902278
  84.8903337  79.3250222  44.7210486  84.5219270  80.4397381  43.7652417
  89.4578740  82.4649660  46.3973569  88.8978298  82.5342849  47.1705132
  88.8522244  82.2890644  45.6773066  72.5273949  93.8986387  48.1491756
  72.4106333  94.8431819  48.0470446  71.7066395  93.5959949  48.5377555
  82.4150484  88.6236523  38.9948348  83.2496088  88.1917721  38.8125823
  82.2534827  88.4518536  39.9225243  82.0696376  85.1268636  40.3604688
  82.0145180  84.9612907  39.4193132  81.4442431  85.8344669  40.5166877
  66.8588891  80.3636700  54.1866110  67.5047754  79.8535654  54.6753335
  66.6506042  81.1005382  54.7609535  79.3842283  87.4317548  59.6858251
  80.2533443  87.6058200  59.3244885  78.9049034  88.2511965  59.5633980
  75.3792501  74.6276745  39.9390006  75.3671171  75.5718585  40.0958277
  76.2715923  74.4446890  39.6449467  73.5528463  94.5514649  51.3647684
  74.4555710  94.5838259  51.6814179  73.3265833  93.6215100  51.3794020
  75.3082065  93.3045635  48.0257763  74.3577696  93.3047497  47.9122135
  75.6114551  92.5578370  47.5093797  91.0434759  99.1406174  49.0903525
  91.6813169  99.0212921  48.3866865  90.9255602 100.0887018  49.1491477
  87.8524465  99.0933602  49.0265050  87.5142977  98.9774667  48.1385585
  88.7214233  98.6924767  49.0066056  83.7111281 100.9469078  45.0161941
  83.1476146 100.8559015  44.2478229  83.5963676 100.1268983  45.4964433
  88.3344248 100.2468454  54.9851255  88.3232889  99.8521252  54.1131759
  88.4964887  99.5134526  55.5785027  81.2575713 102.4420270  47.8546161
  82.0497005 102.1011095  47.4392461  81.4972363 102.5515245  48.7748315
  89.2910839 104.6140046  40.3276406  88.6398819 105.1994126  39.9410420
  90.0855202 105.1446241  40.3871443  83.2166467 101.7029183  40.7263540
  83.9897343 101.1558170  40.5876416  83.5691865 102.5673432  40.9378001
  85.0551509 103.0305565  53.9330439  84.7641375 103.9351196  53.8177106
  85.6908494 103.0722093  54.6474509  85.9807716 100.4082414  50.5231799
  86.5771288 100.1838436  49.8088762  86.0382688  99.6667159  51.1257247
  85.5532744  97.8621849  38.3581990  85.8058265  97.3403371  37.5965453
  84.6157304  97.6987995  38.4608674  90.5976027  96.8657628  46.1656733
  91.3839116  96.4477051  45.8147150  90.8614732  97.7703720  46.3338382
  90.7686105 102.3030478  40.8645390  90.1331938 102.3765104  41.5766295
  90.4383511 102.8924077  40.1864469  95.9984454  96.8032861  47.0689712
  96.7309626  96.2332078  47.3027541  95.2423810  96.4154461  47.5096217
  85.2729033  99.7649955  40.5606365  85.1565291  99.0894859  41.2287449
  85.3831293  99.2782329  39.7438518  87.6160574  99.2260102  44.2653054
  87.2518781  98.6990723  44.9765976  88.4727690  98.8358571  44.0919540
  93.5209875  90.5154435  51.5284320  93.1893200  91.3849846  51.3045535
  92.9255488  90.1990719  52.2078351  87.2566061  94.2550002  39.2614403
  87.4240463  95.1230238  39.6284874  87.0663230  94.4177284  38.3375692
  90.0141394 102.7166981  50.9280233  89.7142117 103.6192020  50.8196040
  89.6692454 102.4499164  51.7801386  83.4653876  99.1680778  46.9616937
  82.5404372  99.0356992  47.1694629  83.7138289  99.9474997  47.4586880
  93.4138538  95.2349521  48.6077670  92.5055415  95.1664930  48.3136431
  93.3626134  95.7121466  49.4359496  87.2355282  96.7107660  40.2461070
  87.1154907  97.1564710  41.0846550  86.5407870  97.0592977  39.6874608
  80.8262687  98.8114051  47.7960727  80.9555068  99.0648530  48.7100138
  80.1460138  99.4041759  47.4765382  84.9962174 109.4811301  43.8951201
  84.9186204 110.4319126  43.9739681  84.3923818 109.1357174  44.5526127
  87.4879404  96.6539167  56.5512568  86.7112738  97.2133087  56.5415432
  88.1269967  97.1395950  57.0727438  95.2800184  93.4365960  50.3855544
  94.6374565  93.7298493  49.7395339  94.7755113  93.3218880  51.1908741
  92.9340348  97.1829133  41.0741404  93.8458204  97.4156519  40.8989101
  92.4249995  97.7666177  40.5116482  85.7425776  99.4624620  56.1130535
  86.4840460 100.0009664  55.8365358  85.0362762 100.0890909  56.2702086
  91.2181116 101.6053761  54.7102696  91.6264472 101.1636171  53.9657329
  90.4958377 101.0306388  54.9636889  87.5712186  96.5426367  52.0836253
  88.4173381  96.9665781  52.2270902  87.5110823  95.8859992  52.7774816
  91.5409930 102.1654951  48.4654985  90.9118793 102.3300665  47.7631053
  91.1535592 102.5796561  49.2365949  95.4199162 103.1009389  45.8199349
  94.7350200 103.4808290  45.2696382  95.5043012 103.7104716  46.5531297
  90.7211631  94.2030736  53.7417427  90.4772563  94.9572796  53.2051702
  90.9971562  94.5816083  54.5764674  92.6750094 100.7469348  52.4194692
  92.8866989 101.3901108  51.7429073  92.6279842  99.9131665  51.9516622
  90.2776323  93.3587169  49.3231264  89.4160802  93.6568422  49.6148002
  90.3038758  93.5757568  48.3912297  87.0937892 101.9029359  45.7305070
  87.5576238 102.1817062  44.9409693  86.8294690 101.0012804  45.5478161
  83.9861973 101.4500841  48.6684833  84.5563330 101.8788109  48.0302318
  84.5770085 101.1683425  49.3669019  86.0306778  98.0252512  42.5394635
  86.7330822  98.4773555  43.0068562  85.6987407  97.3836330  43.1674528
  84.4787140  96.6164268  56.9145845  83.8485800  97.2980549  57.1481241
  84.3723228  96.5047350  55.9698983  79.7732112  96.2836064  47.8411769
  78.9831166  96.5393593  47.3651879  80.2643360  97.0984402  47.9463809
  93.7895922 103.6241303  50.5917050  94.6113366 103.2221491  50.3099731
  93.7858325 103.5209538  51.5433165  81.7246858  96.6480644  44.7995246
  80.9278021  96.7599338  45.3178741  81.4972450  96.9867296  43.9336136
  87.5552525 103.1725347  52.7477760  87.6196958 103.6345754  53.5835932
  86.8463449 102.5422712  52.8760070  78.0569815  96.5366555  50.2726760
  78.3077854  97.4213565  50.5384336  78.5929364  96.3571156  49.5001851
 101.8801915  99.9680052  46.9402021 101.1265623  99.3987450  46.7846026
 102.0149456  99.9342716  47.8872656  87.2700543 104.8393454  42.6156740
  87.1346218 105.6844990  43.0441588  87.8110355 105.0412732  41.8522674
  83.7567883  90.9185034  59.2771096  83.3634828  90.3651233  59.9518740
  84.5734023  91.2295613  59.6677613  80.7229940 102.3568892  43.1884666
  81.2354461 103.1512143  43.3390230  81.3752653 101.6595183  43.1218267
  82.5324825 105.4734649  45.2707419  82.7091453 106.3952613  45.0828403
  83.3281659 105.1593068  45.7001799  86.6735844  92.3342913  56.8691352
  87.4145557  92.9350066  56.7895815  86.9053766  91.5920551  56.3109395
  81.8177182  97.5199280  55.1469582  81.7030697  96.6184538  55.4476681
  80.9621699  97.7662977  54.7954398  88.8969019 105.4617021  56.7457083
  88.4532874 104.6753399  56.4277987  89.5586233 105.6496171  56.0800973
  83.6556141 106.9912822  51.2717761  84.2063566 106.8629886  50.4994755
  82.8167616 107.2907711  50.9212654  90.9950257 105.7419821  54.7738484
  90.9768733 106.5628702  54.2818753  91.9170177 105.6173896  54.9988625
  87.4523312 103.2563950  55.6161992  87.9851648 102.4952238  55.3861300
  86.9237393 102.9637602  56.3586147  90.6193007  88.3624016  51.1455634
  90.2757276  89.2525658  51.0694745  90.9871969  88.1725674  50.2825219
  78.6878857 100.6857547  43.9644236  79.5254079 101.0954555  43.7477944
  78.8657125  99.7456989  43.9344430  90.5843289  98.3532627  39.6528069
  90.0689913  99.1237232  39.8916456  90.3120598  97.6797763  40.2761131
  88.1690400  93.1982328  44.7113307  87.3131997  92.8089178  44.5318946
  88.5817352  93.2774289  43.8513093  89.6989547  90.7328671  49.1104867
  89.1954343  90.6958806  48.2972672  89.9920154  91.6421414  49.1701524
  85.9432433  90.8167401  48.1171049  86.8085430  90.6210210  47.7576938
  86.0109942  90.5877753  49.0440406  95.5577563 101.1064982  41.5881243
  94.7807006 100.7676141  41.1436405  96.2369044 101.1117605  40.9136208
  90.3729592  96.2259719  41.4787850  90.0679728  96.5405868  42.3297993
  91.3260035  96.3041139  41.5215183  88.8176024 102.3849943  43.1280804
  88.2897386 101.6502702  42.8154042  88.3163527 103.1624619  42.8820773
  93.7968870 100.5798963  48.2447851  93.1392545 101.2698225  48.3327979
  94.6009270 100.9695395  48.5881837  83.5494752  93.0469609  45.4887416
  84.1238504  92.8244790  44.7560609  84.1365734  93.1158303  46.2416017
  92.6074329  98.9343336  46.2951792  93.1206211  99.5673328  46.7973502
  93.2575553  98.3344531  45.9295152  83.8764339  95.0774070  39.5083301
  83.0401651  95.4148756  39.8292576  83.7369109  94.9423050  38.5710438
  85.8517420  89.9210858  44.2162485  85.1981832  89.6059875  43.5919100
  85.8097894  89.2986598  44.9422308  86.9628624 100.2030153  36.1315777
  86.0555686  99.9719406  36.3306926  87.4599656  99.4067772  36.3189759
  89.8696703 108.9127660  39.0512463  89.1958402 109.2159357  39.6597421
  90.2562525 109.7156740  38.7017920  89.0855160  96.4092791  48.5410133
  88.1677721  96.6307738  48.3831821  89.5015304  96.4839102  47.6821840
  89.8690208  97.8084207  43.6712813  90.6162027  98.3205604  43.3619935
  90.1381797  97.4868260  44.5317207  88.1416858 100.3042748  40.6539767
  87.2328077 100.0201781  40.7512237  88.1711942 100.7241826  39.7943074
  93.3736125 103.9149337  44.4230935  92.9198452 103.0740247  44.4796125
  92.7430092 104.5510736  44.7605715  92.3169045  94.8441323  45.6531602
  91.5791802  94.3318710  45.9841845  92.5695818  94.4041705  44.8414879
  91.8169065 105.7525834  45.3580753  92.1092039 106.3130891  44.6393119
  92.3267685 106.0454395  46.1133912  92.4180672  87.6217575  46.2473372
  92.7239549  86.7614939  45.9599287  93.1433277  88.2135195  46.0472366
  78.7105028  98.0248262  44.6354970  78.5129428  97.4317623  43.9106036
  78.1551692  97.7200472  45.3530908  86.6901752  97.9171368  46.7549563
  86.7450362  96.9645205  46.6792039  85.8792954  98.0730807  47.2390861
  87.8392946 101.8451491  37.9927846  87.4012376 101.1287350  37.5333483
  88.5803387 102.0727606  37.4312937  84.6294112  96.5348428  44.5139942
  83.8161977  96.8342599  44.9205134  85.1253106  96.1404117  45.2314424
  86.7802690 106.5306185  46.4474206  86.7378869 106.7567031  45.5182738
  87.6965389 106.2969560  46.5960007  90.2268324  96.9990253  53.3454835
  90.5817711  97.2261726  54.2049301  90.8740455  97.3308629  52.7232091
  95.9566060 100.1208688  44.0504164  95.8183959 100.3110284  43.1225354
  95.6002279 100.8828071  44.5072216  84.1208187  94.1066784  50.1301177
  84.7607566  93.9655543  49.4324140  83.2885717  93.8201297  49.7539779
  95.9835440 102.1885215  49.0615436  96.4171947 102.0960505  49.9098490
  96.6967021 102.1642716  48.4235452  84.8968491 103.4069214  46.2436169
  85.6909089 102.9119534  46.0418744  84.1860183 102.8787077  45.8803875
  89.7163335 105.7887310  50.5948537  89.7700357 106.3578246  51.3626253
  88.8478116 105.9589195  50.2302574  81.2051254  97.5512296  42.3195922
  80.2748842  97.4896751  42.5365884  81.3008726  97.0288249  41.5232563
  81.1236803  94.0767109  44.9074163  81.3843620  94.9912442  44.7983324
  81.9453975  93.6091551  45.0570776  82.5961728  95.4904866  52.0772988
  83.2684782  95.2822228  51.4285637  81.7691515  95.2926952  51.6378220
  96.8450990 102.2308916  51.5948321  97.0386880 103.1354727  51.8407596
  96.7451608 101.7716335  52.4286906  88.4987300  92.1166807  54.0938649
  87.8515215  92.8156756  54.0003125  89.2688316  92.5502951  54.4614897
  91.9066098 102.3815659  57.1689202  91.7551605 102.1526211  56.2519286
  91.8970778 103.3386260  57.1820547  88.6751435  99.9547572  52.1535468
  89.6043495 100.1058731  51.9804436  88.2542465 100.0431592  51.2984115
  87.4739767 103.9798236  49.9234006  87.3350852 103.6117020  50.7959944
  86.6854363 104.4945875  49.7517964  88.0687918 109.0807333  41.2659543
  88.2439674 108.6095376  42.0805165  87.3820707 109.7073099  41.4940803
  89.0244982 103.3579839  47.3122844  88.6894814 103.3180609  48.2080494
  88.5248927 102.6924555  46.8393254  82.9989226  98.7647469  52.8375425
  82.8609024  98.0327708  53.4386964  83.9094149  98.6756369  52.5559613
  91.9604173 100.7035873  37.5859904  91.3433344  99.9782701  37.4892956
  91.4920662 101.4645233  37.2426978  85.6271526  98.4767428  52.3259105
  86.3371145  97.8360620  52.2845723  85.5840834  98.7280323  53.2485285
  93.6158305 105.4134781  55.2465684  93.5570851 104.7294002  54.5796267
  94.0177823 106.1553771  54.7946310  84.3400460  95.4632646  54.1454744
  83.8037817  95.0123384  54.7976340  83.7517169  95.5978555  53.4025208
  82.6349004 112.2296695  48.0399403  82.8745602 112.8615219  48.7178421
  81.7918200 111.8784735  48.3264762  83.7502719  94.9221297  36.7081208
  82.8732186  94.8010098  36.3443454  84.2260472  94.1307376  36.4560096
  93.6175712 103.3774365  53.4779664  92.7302491 103.0400287  53.6006062
  94.1874263 102.6457397  53.7148429  75.2704859  99.7098457  46.8022715
  75.9575899  99.3960187  46.2143730  75.1152988 100.6139822  46.5289966
  80.0739581  94.5988654  51.2307739  79.9897770  93.9914323  50.4958149
  79.2522288  95.0897672  51.2317235  87.1476866 108.0375818  50.4440907
  87.0747037 108.8430789  50.9560211  86.7054259 108.2367784  49.6188928
  86.9366645 107.2747588  43.9543728  86.1534167 107.8169268  44.0481953
  87.6359390 107.7921567  44.3537969  90.2463295  93.0842217  46.5977934
  90.7431995  92.3312180  46.2779004  89.4750277  93.1206534  46.0321143
  98.0993053  98.7882583  48.2396225  98.0882929  99.6707298  47.8690158
  97.2310432  98.4354134  48.0450762  89.6075549 107.9362652  52.5999065
  90.3203521 108.5710117  52.5274967  89.1165578 108.0326518  51.7839067
  91.3293076 101.8413904  44.1716357  90.3949355 101.9615367  44.0021061
  91.5069745 100.9386371  43.9076367  86.8298264  95.2259600  46.3249618
  86.4596052  94.6730641  47.0130524  87.3257357  94.6217734  45.7724618
  94.7165627  97.6831224  44.7066391  95.1826080  98.5159215  44.6326694
  95.1673128  97.2176205  45.4111650  84.6587463 105.6857095  53.4204636
  85.3596922 106.3193578  53.5734030  84.1882578 106.0271827  52.6600276
  92.7841859 104.0275045  41.7052543  93.0601702 103.9131640  42.6146417
  91.9146357 103.6292530  41.6664716  92.6882290  90.0511811  48.7457293
  91.7745370  90.2816038  48.9139499  93.1175392  90.1350255  49.5971325
  92.4588749  98.2401703  51.2457187  91.8060199  98.4877610  50.5909639
  92.8369129  97.4265841  50.9119664  89.4195923 108.2761396  45.3485357
  89.6018317 107.4583052  45.8113109  90.2428909 108.4929088  44.9110247
  89.7538088 107.2029581  42.6100405  90.2825854 106.6922036  41.9970567
  90.0166308 106.8872111  43.4745938  88.5076322  98.9821514  57.7323224
  87.8316959  98.8815643  58.4025599  89.3303956  98.8260727  58.1959221
  80.2555181 105.2193450  50.3535739  80.8408618 104.4737138  50.4863643
  80.0580019 105.5297407  51.2372403  83.1093836 108.2544698  45.3698181
  82.4404211 108.7390825  44.8862221  82.9706706 108.5013918  46.2841560
  74.8472835  97.7899050  49.0740182  74.8856935  97.2562641  49.8677300
  74.3413128  97.2634256  48.4551159  87.2499105 110.2888441  51.9680840
  87.8017413 110.4520063  52.7329925  87.5905298 110.8792879  51.2960865
  82.2263598  92.6363591  52.5702724  82.2904924  93.4978422  52.1580122
  82.1630718  92.0237593  51.8375083  81.7015870  94.7086724  56.2175759
  82.3287909  94.3263801  56.8313283  80.8443789  94.4900925  56.5831451
  92.1009979 105.1149699  57.8229494  92.6449883 105.7279657  57.3284449
  91.5196824 105.6729277  58.3396507  78.4781413  96.5163153  42.1494113
  78.7734854  95.6073831  42.0961167  77.5769449  96.4950892  41.8275116
  90.3867492 108.2370417  48.9544522  90.2618631 107.4360157  48.4455467
  91.0446583 108.7316610  48.4658492  82.0075660  94.5919149  48.1321662
  81.2862246  95.2055117  47.9929135  82.7968916  95.1276914  48.0538308
  92.4502400 106.0379437  50.5824072  91.5032736 105.9184788  50.5102399
  92.7985173 105.1501935  50.6650333  84.8101974  91.9273576  54.4062314
  85.3336375  92.1735872  55.1688623  84.5914307  92.7593611  53.9865451
  80.2069255  94.1977250  42.2733439  79.8781961  93.3174629  42.0908545
  80.5608625  94.1424919  43.1609828  89.4548834 105.8332153  46.7828424
  89.3073796 104.9048860  46.9635994  90.2802327 105.8552244  46.2985499
  83.3211078  94.4850220  42.6408916  83.6607150  95.0136141  41.9187525
  83.7683198  94.8230626  43.4167483  93.0582955 106.6560712  47.8693297
  93.9829503 106.4503573  47.7317748  92.8898259 106.4077113  48.7782638
  86.0154519  92.8687271  52.0911984  85.6751339  92.0695084  52.4932664
  85.3093525  93.1688982  51.5188818  86.6670990  89.9536583  50.5439307
  87.4897060  89.4797061  50.4218198  86.9109054  90.7327067  51.0437994
  85.3079225  92.9824842  40.8402209  86.0287587  93.3606094  40.3365926
  84.6844529  93.7013718  40.9437187  89.4510348  93.6869991  41.7760541
  89.6673962  94.5694629  41.4749370  88.9704415  93.2956204  41.0466183
  84.1909569  96.6455704  48.3531286  84.0454150  96.9596007  49.2455567
  83.7134773  97.2640604  47.8002185  86.0505952  93.6358252  48.4012176
  86.0367521  92.7399345  48.0644473  86.7678380  93.6428916  49.0350462
  87.9032083  94.0695592  50.4465303  87.6449861  94.9912663  50.4449633
  87.3717123  93.6726027  51.1365767  92.8478272 107.1746379  43.2255388
  93.0215149 106.6092802  42.4729241  93.3407163 107.9747274  43.0434878
  78.6655231  99.1861048  51.2918947  78.1208699  99.9620856  51.4239221
  79.5434581  99.5331853  51.1338069  85.4542848  92.5172632  43.6699746
  85.5758759  91.5889278  43.8690633  85.1644890  92.5311318  42.7578061
  88.3234038  90.2027543  46.8066466  88.3455735  90.2666876  45.8518445
  88.7402097  89.3632051  47.0006972  98.7017663  99.9382802  44.8445688
  99.1448809  99.1890127  44.4464811  97.8244173  99.9292938  44.4619420
  93.8353444 106.4913144  40.3252287  94.5304349 107.1119836  40.5439601
  94.1776594 105.6408495  40.6004665  79.4521253  98.3130945  54.1849104
  78.7102989  98.4613580  54.7713734  79.1313998  98.5739210  53.3215853
  95.7344867 103.9412849  41.8539617  96.2596191 104.2800122  41.1288937
  95.6467220 103.0059864  41.6702752  87.3964916 107.8546923  53.9829494
  87.7052042 107.6096070  54.8552194  88.1940398 108.0593561  53.4948364
  87.4185528 110.0084832  46.2134871  86.9790518 109.5161211  46.9067727
  88.1693645 109.4657800  45.9726946  79.8977867 106.1996373  46.2159499
  80.7235887 105.9000145  45.8358142  79.5471919 105.4303996  46.6649287
  84.8659400 105.5522841  48.2857172  84.2439409 104.8893547  47.9859400
  85.5364267 105.5783973  47.6030820  78.0986472 104.1182700  47.1748432
  77.2618380 103.6904874  46.9932434  78.0710117 104.3115143  48.1119223
  84.9383928  94.0304630  57.8789678  84.9872083  94.9066752  57.4967448
  85.4806442  93.4882023  57.3061321  95.4238773 104.5745753  57.1590815
  94.6334317 104.5569892  56.6195315  95.1872128 105.1134046  57.9139852
  95.5436648 101.4238219  54.4723544  95.5934653 101.2588227  55.4139067
  95.4350572 100.5565478  54.0821425  84.4272907 104.1026765  41.7615633
  84.5761027 104.7862229  41.1082306  85.2339350 104.0831855  42.2765089
  92.8340411  97.4069147  55.7882851  93.7350273  97.2675612  55.4966848
  92.9088385  97.5723602  56.7281028  87.1683216  94.7836002  54.6336037
  86.2986525  95.0769568  54.3618625  87.4042696  95.3676447  55.3543301
  97.0454845 103.8435161  54.7165565  96.7539653 104.2065141  55.5529026
  96.4326976 103.1302169  54.5378898  98.2450527 101.4088040  47.2368136
  99.0797419 101.8477844  47.4005696  98.3809656 100.9326694  46.4176381
  95.2942033  98.9667775  53.1845623  95.7696155  99.1595422  52.3764475
  94.3707599  99.0226961  52.9389007  82.1825540 100.1291942  42.7676702
  81.9371582  99.2254272  42.9656912  82.3521455 100.1309093  41.8256180
  89.8722250  91.0015619  52.1501457  90.3904194  91.7376646  51.8247946
  89.5177383  91.3079612  52.9848216  81.4521187  95.8620300  40.2662863
  80.7590432  95.9364655  39.6102899  81.2072939  95.0980644  40.7884380
  90.1234844  87.4215901  47.6702354  90.4036598  86.7539090  48.2962780
  90.9085451  87.6144997  47.1577018  87.9268313 106.5974895  39.2327380
  87.3542280 107.2165082  38.7797852  88.5001106 107.1474257  39.7667302
  93.9943702  95.8433535  51.4173929  94.9461125  95.9431633  51.4386153
  93.8247153  95.0511804  51.9272013  92.0158082  92.9289119  51.6033330
  91.4208014  93.2094131  50.9079819  91.7307779  93.4183020  52.3750071
  91.1465572 106.8812045  40.3635962  92.0796245 106.8157607  40.5668838
  91.0588785 107.7168312  39.9050495  93.7753589 106.1977916  37.3239910
  93.6967220 105.8637779  38.2175668  94.5963256 106.6899684  37.3231382
  96.4731780  99.0639655  50.5316229  96.4408100  98.1255656  50.7175912
  97.0832404  99.1423692  49.7982054  88.3115111  97.9335708  36.5743433
  89.2574216  97.8041916  36.6431851  87.9329356  97.1950370  37.0512861
  96.6226269  95.8550698  50.5774512  96.1065317  95.0709155  50.3904441
  97.5066217  95.5269415  50.7421031  94.2836996  89.5991714  46.5370325
  94.0861817  89.2906802  47.4213656  94.8936701  90.3253353  46.6668254
 102.2908330 100.1255662  49.6722265 103.0211718  99.8640950  50.2329969
 101.6815275  99.3884384  49.7124333 100.3723627  98.2663524  50.2696717
  99.6456791  98.1319489  49.6613208  99.9570914  98.5740353  51.0753435
  88.1953804 101.9853454  58.0344090  89.1156813 102.1632053  58.2284136
  88.1603387 101.0409500  57.8823789  86.4958028  95.8585684  36.5098318
  85.5889484  95.5618797  36.5861032  86.7734009  95.5615502  35.6432604
  77.4135969  97.1792048  46.9597364  77.0938753  96.3257356  46.6671738
  76.8669397  97.3940626  47.7155332  81.1915876  99.8954489  50.6766871
  81.4101886 100.8271597  50.6954905  81.6041650  99.5362463  51.4621675
  88.1120094  90.4022574  42.6642559  87.3020822  90.0569659  43.0397805
  88.8004511  90.0930118  43.2530171  90.0410642  89.4800621  44.2866856
  90.5941681  89.8996074  44.9456879  90.2780729  88.5536369  44.3289812
  86.0643741  95.4687695  60.0669620  85.9640468  96.4182052  59.9981711
  85.8465283  95.1405933  59.1945690  85.2656813  92.7172620  36.6510297
  86.1275977  93.0427518  36.9106114  85.4507157  91.9304116  36.1383363
  77.2824229 100.7994959  48.9290486  76.5887700 100.3848912  48.4160440
  78.0297220 100.8415496  48.3323905  93.4189449  91.5901146  43.7945520
  92.8388118  92.2485950  43.4123573  93.1525382  90.7678491  43.3832938
  91.8693016  90.9906204  45.9966840  92.3692794  91.1022738  45.1881159
  92.5128624  90.6867257  46.6367649  85.9275011  98.8984833  58.8834681
  85.4442093  99.6985194  59.0898570  86.0135950  98.9092778  57.9302125
  79.1960971 100.7313213  46.8056501  79.1731659 100.8300900  45.8538384
  79.5061608 101.5778364  47.1273667  81.8548349 102.7889368  50.9203115
  82.8091602 102.7573310  50.8533047  81.6560873 102.3279992  51.7353341
  82.4447731 101.3590484  53.4873913  83.2640620 101.8534563  53.5108750
  82.7184539 100.4422452  53.4591480  92.2014327  93.7501236  42.8501868
  91.3140182  94.0350887  42.6322063  92.6168316  93.5895000  42.0029145
  95.5528863  93.7747757  46.5656208  96.3289254  94.2644210  46.8380824
  94.8276998  94.2005812  47.0228077  97.9901422  94.4875377  47.6230148
  98.5845913  94.2471113  46.9123457  98.0628006  93.7682507  48.2503685
  80.2098578 108.3308988  47.9373313  80.0753046 107.5709388  47.3711311
  79.7930640 109.0549887  47.4702102  91.3457541 103.5145911  36.9449888
  92.0493391 103.7195914  37.5607544  90.6220190 104.0822673  37.2098972
  92.1755351  99.2655772  43.0652159  92.1190552  99.7224324  42.2259791
  92.7283693  98.5046457  42.8875001  95.9860157  95.0545504  43.8902278
  95.7297091  94.6542140  44.7210486  95.3613025  95.7689298  43.7652417
 100.2972495  97.7941578  46.3973569  99.7372053  97.8634767  47.1705132
  99.6915998  97.6182562  45.6773066  83.3667704 109.2278305  48.1491756
  83.2500088 110.1723737  48.0470446  82.5460150 108.9251866  48.5377555
  93.2544238 103.9528440  38.9948348  94.0889842 103.5209639  38.8125823
  93.0928581 103.7810454  39.9225243  92.9090130 100.4560554  40.3604688
  92.8538934 100.2904825  39.4193132  92.2836186 101.1636587  40.5166877
  77.6982645  95.6928618  54.1866110  78.3441509  95.1827572  54.6753335
  77.4899796  96.4297300  54.7609535  90.2236038 102.7609466  59.6858251
  91.0927197 102.9350118  59.3244885  89.7442789 103.5803882  59.5633980
  86.2186256  89.9568663  39.9390006  86.2064926  90.9010503  40.0958277
  87.1109678  89.7738808  39.6449467  84.3922218 109.8806567  51.3647684
  85.2949464 109.9130177  51.6814179  84.1659588 108.9507017  51.3794020
  86.1475820 108.6337553  48.0257763  85.1971451 108.6339415  47.9122135
  86.4508306 107.8870288  47.5093797  90.0338375  86.5511439  44.1935943
  89.2670771  85.9969926  44.3392625  90.4449080  86.6233308  45.0550095
  82.0380136  92.8396235  58.2841124  82.9011598  92.4833040  58.4944449
  81.4645547  92.5010130  58.9716528 101.8828513 114.4698091  49.0903525
 102.5206923 114.3504839  48.3866865 101.7649356 115.4178935  49.1491477
  98.6918220 114.4225520  49.0265050  98.3536731 114.3066584  48.1385585
  99.5607988 114.0216685  49.0066056  94.5505035 116.2760996  45.0161941
  93.9869900 116.1850933  44.2478229  94.4357430 115.4560900  45.4964433
  99.1738003 115.5760371  54.9851255  99.1626643 115.1813170  54.1131759
  99.3358642 114.8426444  55.5785027  92.0969467 117.7712188  47.8546161
  92.8890759 117.4303012  47.4392461  92.3366117 117.8807163  48.7748315
  94.0560221 117.0321101  40.7263540  94.8291097 116.4850088  40.5876416
  94.4085620 117.8965350  40.9378001  95.8945264 118.3597483  53.9330439
  95.6035130 119.2643114  53.8177106  96.5302248 118.4014011  54.6474509
  96.8201471 115.7374332  50.5231799  97.4165043 115.5130354  49.8088762
  96.8776442 114.9959077  51.1257247  96.3926499 113.1913767  38.3581990
  96.6452020 112.6695288  37.5965453  95.4551058 113.0279912  38.4608674
 101.4369782 112.1949545  46.1656733 102.2232871 111.7768968  45.8147150
 101.7008486 113.0995637  46.3338382 106.8378209 112.1324779  47.0689712
 107.5703381 111.5623995  47.3027541 106.0817565 111.7446379  47.5096217
  96.1122788 115.0941873  40.5606365  95.9959046 114.4186776  41.2287449
  96.2225048 114.6074247  39.7438518  98.4554329 114.5552020  44.2653054
  98.0912536 114.0282641  44.9765976  99.3121444 114.1650489  44.0919540
 104.3603629 105.8446353  51.5284320 104.0286954 106.7141764  51.3045535
 103.7649243 105.5282637  52.2078351  98.0959816 109.5841920  39.2614403
  98.2634218 110.4522156  39.6284874  97.9056985 109.7469201  38.3375692
  94.3047630 114.4972695  46.9616937  93.3798127 114.3648910  47.1694629
  94.5532043 115.2766915  47.4586880 104.2532293 110.5641439  48.6077670
 103.3449170 110.4956847  48.3136431 104.2019888 111.0413384  49.4359496
  98.0749036 112.0399577  40.2461070  97.9548662 112.4856628  41.0846550
  97.3801625 112.3884895  39.6874608  91.6656441 114.1405969  47.7960727
  91.7948822 114.3940448  48.7100138  90.9853893 114.7333677  47.4765382
  98.3273158 111.9831084  56.5512568  97.5506492 112.5425005  56.5415432
  98.9663721 112.4687867  57.0727438 106.1193939 108.7657877  50.3855544
 105.4768319 109.0590410  49.7395339 105.6148867 108.6510798  51.1908741
 103.7734103 112.5121050  41.0741404 104.6851959 112.7448437  40.8989101
 103.2643750 113.0958095  40.5116482  96.5819531 114.7916538  56.1130535
  97.3234215 115.3301582  55.8365358  95.8756516 115.4182826  56.2702086
 102.0574870 116.9345678  54.7102696 102.4658226 116.4928089  53.9657329
 101.3352132 116.3598306  54.9636889  98.4105940 111.8718285  52.0836253
  99.2567136 112.2957699  52.2270902  98.3504578 111.2151909  52.7774816
 101.5605386 109.5322653  53.7417427 101.3166318 110.2864714  53.2051702
 101.8365316 109.9108001  54.5764674 101.1170077 108.6879086  49.3231264
 100.2554556 108.9860340  49.6148002 101.1432512 108.9049485  48.3912297
  97.9331647 117.2321277  45.7305070  98.3969992 117.5108980  44.9409693
  97.6688445 116.3304721  45.5478161  94.8255728 116.7792758  48.6684833
  95.3957085 117.2080027  48.0302318  95.4163840 116.4975343  49.3669019
  96.8700533 113.3544429  42.5394635  97.5724576 113.8065473  43.0068562
  96.5381161 112.7128248  43.1674528  95.3180894 111.9456186  56.9145845
  94.6879555 112.6272467  57.1481241  95.2116982 111.8339268  55.9698983
  90.6125867 111.6127982  47.8411769  89.8224921 111.8685510  47.3651879
  91.1037114 112.4276320  47.9463809  92.5640612 111.9772561  44.7995246
  91.7671775 112.0891255  45.3178741  92.3366204 112.3159213  43.9336136
  98.3946280 118.5017264  52.7477760  98.4590712 118.9637672  53.5835932
  97.6857204 117.8714629  52.8760070  88.8963570 111.8658472  50.2726760
  89.1471608 112.7505482  50.5384336  89.4323118 111.6863074  49.5001851
  94.5961637 106.2476952  59.2771096  94.2028583 105.6943150  59.9518740
  95.4127777 106.5587530  59.6677613  91.5623695 117.6860810  43.1884666
  92.0748215 118.4804060  43.3390230  92.2146408 116.9887100  43.1218267
  93.3718580 120.8026566  45.2707419  93.5485208 121.7244531  45.0828403
  94.1675413 120.4884985  45.7001799  97.5129598 107.6634831  56.8691352
  98.2539311 108.2641984  56.7895815  97.7447521 106.9212469  56.3109395
  92.6570936 112.8491198  55.1469582  92.5424451 111.9476455  55.4476681
  91.8015454 113.0954895  54.7954398  94.4949895 122.3204740  51.2717761
  95.0457320 122.1921803  50.4994755  93.6561371 122.6199629  50.9212654
  98.2917066 118.5855868  55.6161992  98.8245403 117.8244156  55.3861300
  97.7631147 118.2929520  56.3586147 101.4586761 103.6915934  51.1455634
 101.1151030 104.5817575  51.0694745 101.8265724 103.5017591  50.2825219
  89.5272612 116.0149464  43.9644236  90.3647834 116.4246473  43.7477944
  89.7050879 115.0748906  43.9344430 101.4237044 113.6824545  39.6528069
 100.9083667 114.4529150  39.8916456 101.1514352 113.0089681  40.2761131
  99.0084155 108.5274246  44.7113307  98.1525751 108.1381096  44.5318946
  99.4211107 108.6066206  43.8513093 100.5383301 106.0620589  49.1104867
 100.0348097 106.0250724  48.2972672 100.8313908 106.9713332  49.1701524
  96.7826187 106.1459319  48.1171049  97.6479184 105.9502127  47.7576938
  96.8503696 105.9169670  49.0440406 101.2123347 111.5551637  41.4787850
 100.9073482 111.8697786  42.3297993 102.1653789 111.6333057  41.5215183
  99.6569779 117.7141860  43.1280804  99.1291140 116.9794620  42.8154042
  99.1557281 118.4916537  42.8820773  94.3888506 108.3761527  45.4887416
  94.9632258 108.1536708  44.7560609  94.9759489 108.4450221  46.2416017
 103.4468084 114.2635253  46.2951792 103.9599965 114.8965245  46.7973502
 104.0969307 113.6636449  45.9295152  94.7158093 110.4065988  39.5083301
  93.8795406 110.7440674  39.8292576  94.5762863 110.2714967  38.5710438
  96.6911174 105.2502775  44.2162485  96.0375586 104.9351793  43.5919100
  96.6491648 104.6278516  44.9422308  97.8022379 115.5322071  36.1315777
  96.8949441 115.3011324  36.3306926  98.2993411 114.7359690  36.3189759
  99.9248914 111.7384709  48.5410133  99.0071476 111.9599656  48.3831821
 100.3409058 111.8131020  47.6821840 100.7083962 113.1376125  43.6712813
 101.4555781 113.6497522  43.3619935 100.9775552 112.8160177  44.5317207
  98.9810612 115.6334665  40.6539767  98.0721832 115.3493698  40.7512237
  99.0105696 116.0533744  39.7943074 103.1562799 110.1733241  45.6531602
 102.4185556 109.6610627  45.9841845 103.4089573 109.7333623  44.8414879
 103.2574427 102.9509493  46.2473372 103.5633303 102.0906856  45.9599287
 103.9827031 103.5427113  46.0472366  89.5498783 113.3540180  44.6354970
  89.3523183 112.7609540  43.9106036  88.9945447 113.0492390  45.3530908
  97.5295506 113.2463286  46.7549563  97.5844116 112.2937122  46.6792039
  96.7186708 113.4022725  47.2390861  98.6786700 117.1743409  37.9927846
  98.2406130 116.4579268  37.5333483  99.4197141 117.4019524  37.4312937
  95.4687866 111.8640346  44.5139942  94.6555732 112.1634516  44.9205134
  95.9646861 111.4696035  45.2314424 101.0662078 112.3282170  53.3454835
 101.4211466 112.5553643  54.2049301 101.7134209 112.6600547  52.7232091
  94.9601941 109.4358701  50.1301177  95.6001320 109.2947460  49.4324140
  94.1279472 109.1493215  49.7539779  95.7362245 118.7361132  46.2436169
  96.5302843 118.2411452  46.0418744  95.0253937 118.2078995  45.8803875
  92.0445008 112.8804213  42.3195922  91.1142597 112.8188669  42.5365884
  92.1402480 112.3580166  41.5232563  91.9630558 109.4059026  44.9074163
  92.2237375 110.3204360  44.7983324  92.7847730 108.9383469  45.0570776
  93.4355483 110.8196783  52.0772988  94.1078536 110.6114146  51.4285637
  92.6085269 110.6218869  51.6378220  99.3381055 107.4458724  54.0938649
  98.6908970 108.1448674  54.0003125 100.1082070 107.8794868  54.4614897
  99.5145189 115.2839489  52.1535468 100.4437249 115.4350649  51.9804436
  99.0936219 115.3723510  51.2984115  98.3133521 119.3090154  49.9234006
  98.1744607 118.9408938  50.7959944  97.5248117 119.8237793  49.7517964
  99.8638736 118.6871756  47.3122844  99.5288569 118.6472526  48.2080494
  99.3642682 118.0216472  46.8393254  93.8382980 114.0939386  52.8375425
  93.7002778 113.3619625  53.4386964  94.7487904 114.0048287  52.5559613
 102.7997928 116.0327791  37.5859904 102.1827098 115.3074619  37.4892956
 102.3314416 116.7937151  37.2426978  96.4665281 113.8059346  52.3259105
  97.1764899 113.1652538  52.2845723  96.4234589 114.0572241  53.2485285
  95.1794215 110.7924564  54.1454744  94.6431572 110.3415302  54.7976340
  94.5910923 110.9270472  53.4025208  94.5896474 110.2513215  36.7081208
  93.7125940 110.1302016  36.3443454  95.0654227 109.4599293  36.4560096
  86.1098614 115.0390375  46.8022715  86.7969654 114.7252105  46.2143730
  85.9546743 115.9431739  46.5289966  90.9133336 109.9280571  51.2307739
  90.8291525 109.3206241  50.4958149  90.0916042 110.4189590  51.2317235
 101.0857050 108.4134135  46.5977934 101.5825749 107.6604097  46.2779004
 100.3144031 108.4498452  46.0321143 102.1686831 117.1705822  44.1716357
 101.2343109 117.2907285  44.0021061 102.3463499 116.2678289  43.9076367
  97.6692019 110.5551518  46.3249618  97.2989806 110.0022558  47.0130524
  98.1651111 109.9509651  45.7724618 105.5559382 113.0123141  44.7066391
 106.0219834 113.8451133  44.6326694 106.0066882 112.5468123  45.4111650
  95.4981217 121.0149013  53.4204636  96.1990677 121.6485496  53.5734030
  95.0276332 121.3563744  52.6600276 103.5276045 105.3803728  48.7457293
 102.6139124 105.6107955  48.9139499 103.9569146 105.4642172  49.5971325
 103.2982503 113.5693620  51.2457187 102.6453953 113.8169528  50.5909639
 103.6762883 112.7557759  50.9119664  99.3470076 114.3113431  57.7323224
  98.6710713 114.2107561  58.4025599 100.1697710 114.1552645  58.1959221
  91.0948935 120.5485368  50.3535739  91.6802372 119.8029056  50.4863643
  90.8973774 120.8589325  51.2372403  85.6866590 113.1190968  49.0740182
  85.7250689 112.5854559  49.8677300  85.1806883 112.5926174  48.4551159
  93.0657352 107.9655509  52.5702724  93.1298679 108.8270340  52.1580122
  93.0024473 107.3529510  51.8375083  92.5409625 110.0378641  56.2175759
  93.1681664 109.6555719  56.8313283  91.6837544 109.8192843  56.5831451
  89.3175168 111.8455070  42.1494113  89.6128609 110.9365749  42.0961167
  88.4163203 111.8242810  41.8275116  92.8469415 109.9211067  48.1321662
  92.1256000 110.5347035  47.9929135  93.6362670 110.4568832  48.0538308
  95.6495728 107.2565493  54.4062314  96.1730130 107.5027790  55.1688623
  95.4308061 108.0885528  53.9865451  91.0463009 109.5269168  42.2733439
  90.7175715 108.6466547  42.0908545  91.4002380 109.4716837  43.1609828
  94.1604832 109.8142138  42.6408916  94.5000905 110.3428059  41.9187525
  94.6076953 110.1522544  43.4167483  96.8548273 108.1979188  52.0911984
  96.5145093 107.3987002  52.4932664  96.1487279 108.4980899  51.5188818
  97.5064745 105.2828501  50.5439307  98.3290814 104.8088979  50.4218198
  97.7502808 106.0618985  51.0437994  96.1472979 108.3116759  40.8402209
  96.8681342 108.6898012  40.3365926  95.5238284 109.0305636  40.9437187
 100.2904102 109.0161908  41.7760541 100.5067717 109.8986546  41.4749370
  99.8098169 108.6248122  41.0466183  95.0303324 111.9747622  48.3531286
  94.8847904 112.2887925  49.2455567  94.5528527 112.5932522  47.8002185
  96.8899707 108.9650170  48.4012176  96.8761275 108.0691263  48.0644473
  97.6072135 108.9720833  49.0350462  98.7425837 109.3987510  50.4465303
  98.4843615 110.3204580  50.4449633  98.2110878 109.0017944  51.1365767
  89.5048986 114.5152966  51.2918947  88.9602454 115.2912774  51.4239221
  90.3828336 114.8623770  51.1338069  96.2936603 107.8464550  43.6699746
  96.4152514 106.9181196  43.8690633  96.0038645 107.8603236  42.7578061
  99.1627793 105.5319460  46.8066466  99.1849490 105.5958793  45.8518445
  99.5795852 104.6923969  47.0006972  90.2915008 113.6422862  54.1849104
  89.5496744 113.7905498  54.7713734  89.9707752 113.9031128  53.3215853
  90.7371621 121.5288291  46.2159499  91.5629641 121.2292063  45.8358142
  90.3865673 120.7595913  46.6649287  95.7053155 120.8814759  48.2857172
  95.0833164 120.2185464  47.9859400  96.3758021 120.9075891  47.6030820
  88.9380226 119.4474617  47.1748432  88.1012135 119.0196792  46.9932434
  88.9103872 119.6407061  48.1119223  95.7777682 109.3596547  57.8789678
  95.8265838 110.2358670  57.4967448  96.3200196 108.8173940  57.3061321
  95.2666661 119.4318683  41.7615633  95.4154782 120.1154147  41.1082306
  96.0733105 119.4123773  42.2765089 103.6734165 112.7361065  55.7882851
 104.5744028 112.5967530  55.4966848 103.7482140 112.9015520  56.7281028
  98.0076970 110.1127920  54.6336037  97.1380280 110.4061486  54.3618625
  98.2436451 110.6968365  55.3543301  93.0219294 115.4583860  42.7676702
  92.7765336 114.5546190  42.9656912  93.1915209 115.4601011  41.8256180
 100.7116004 106.3307537  52.1501457 101.2297948 107.0668563  51.8247946
 100.3571137 106.6371530  52.9848216  92.2914942 111.1912218  40.2662863
  91.5984187 111.2656573  39.6102899  92.0466694 110.4272561  40.7884380
 100.9628598 102.7507819  47.6702354 101.2430352 102.0831008  48.2962780
 101.7479205 102.9436915  47.1577018 104.8337457 111.1725453  51.4173929
 105.7854880 111.2723551  51.4386153 104.6640907 110.3803722  51.9272013
 102.8551836 108.2581036  51.6033330 102.2601768 108.5386049  50.9079819
 102.5701533 108.7474937  52.3750071  99.1508865 113.2627626  36.5743433
 100.0967970 113.1333834  36.6431851  98.7723110 112.5242288  37.0512861
 107.4620023 111.1842616  50.5774512 106.9459072 110.4001073  50.3904441
 108.3459972 110.8561333  50.7421031 105.1230750 104.9283632  46.5370325
 104.9255571 104.6198720  47.4213656 105.7330456 105.6545271  46.6668254
  99.0347558 117.3145372  58.0344090  99.9550567 117.4923971  58.2284136
  98.9997141 116.3701417  57.8823789  97.3351783 111.1877602  36.5098318
  96.4283238 110.8910715  36.5861032  97.6127764 110.8907420  35.6432604
  88.2529723 112.5083966  46.9597364  87.9332507 111.6549274  46.6671738
  87.7063151 112.7232544  47.7155332  92.0309631 115.2246407  50.6766871
  92.2495640 116.1563514  50.6954905  92.4435404 114.8654381  51.4621675
  98.9513848 105.7314492  42.6642559  98.1414577 105.3861577  43.0397805
  99.6398265 105.4222036  43.2530171 100.8804397 104.8092539  44.2866856
 101.4335435 105.2287992  44.9456879 101.1174483 103.8828287  44.3289812
  96.9037496 110.7979612  60.0669620  96.8034223 111.7473969  59.9981711
  96.6859038 110.4697851  59.1945690  96.1050567 108.0464537  36.6510297
  96.9669731 108.3719436  36.9106114  96.2900911 107.2596033  36.1383363
  88.1217983 116.1286877  48.9290486  87.4281454 115.7140830  48.4160440
  88.8690974 116.1707414  48.3323905 104.2583204 106.9193064  43.7945520
 103.6781873 107.5777868  43.4123573 103.9919136 106.0970408  43.3832938
 102.7086770 106.3198121  45.9966840 103.2086548 106.4314656  45.1881159
 103.3522378 106.0159174  46.6367649  96.7668766 114.2276751  58.8834681
  96.2835848 115.0277111  59.0898570  96.8529705 114.2384696  57.9302125
  90.0354726 116.0605131  46.8056501  90.0125414 116.1592818  45.8538384
  90.3455362 116.9070282  47.1273667  92.6942103 118.1181286  50.9203115
  93.6485357 118.0865228  50.8533047  92.4954627 117.6571910  51.7353341
  93.2841486 116.6882402  53.4873913  94.1034375 117.1826481  53.5108750
  93.5578293 115.7714370  53.4591480 103.0408082 109.0793154  42.8501868
 102.1533937 109.3642805  42.6322063 103.4562071 108.9186918  42.0029145
 106.3922618 109.1039675  46.5656208 107.1683008 109.5936128  46.8380824
 105.6670752 109.5297729  47.0228077 108.8295177 109.8167294  47.6230148
 109.4239667 109.5763030  46.9123457 108.9021760 109.0974425  48.2503685
  91.0492332 123.6600905  47.9373313  90.9146800 122.9001306  47.3711311
  90.6324394 124.3841805  47.4702102 103.0149106 114.5947690  43.0652159
 102.9584307 115.0516242  42.2259791 103.5677448 113.8338375  42.8875001
 106.8253911 110.3837422  43.8902278 106.5690846 109.9834058  44.7210486
 106.2006779 111.0981216  43.7652417 103.7483885 115.7852471  40.3604688
 103.6932689 115.6196743  39.4193132 103.1229940 116.4928504  40.5166877
  88.5376400 111.0220536  54.1866110  89.1835263 110.5119490  54.6753335
  88.3293551 111.7589217  54.7609535  97.0580010 105.2860580  39.9390006
  97.0458680 106.2302420  40.0958277  97.9503432 105.1030726  39.6449467
 100.8732130 101.8803357  44.1935943 100.1064526 101.3261844  44.3392625
 101.2842835 101.9525226  45.0550095  92.8773891 108.1688153  58.2841124
  93.7405352 107.8124958  58.4944449  92.3039301 107.8302048  58.9716528
  36.8465988  -0.4991292  35.8148832  37.4844398  -0.6184545  35.1112172
  36.7286830   0.4489552  35.8736784  33.6555694  -0.5463864  35.7510357
  33.3174205  -0.6622799  34.8630891  34.5245462  -0.9472699  35.7311363
  34.1375477   0.6070988  41.7096562  34.1264118   0.2123786  40.8377066
  34.2996116  -0.1262940  42.3030334  27.0606941   2.8022804  34.5791468
  27.8528233   2.4613629  34.1637767  27.3003592   2.9117779  35.4993621
  30.8582738   3.3908100  40.6575746  30.5672604   4.2953730  40.5422412
  31.4939722   3.4324627  41.3719816  31.7838945   0.7684948  37.2477106
  32.3802517   0.5440971  36.5334069  31.8413916   0.0269694  37.8502554
  41.8015683  -2.8364605  33.7935018  42.5340855  -3.4065388  34.0272848
  41.0455039  -3.2243005  34.2341524  35.8172623   3.0769515  37.6525540
  35.5173346   3.9794554  37.5441347  35.4723683   2.8101698  38.5046693
  39.2169767  -4.4047945  35.3322977  38.3086644  -4.4732536  35.0381738
  39.1657363  -3.9276000  36.1604803  30.7993403   9.8413835  30.6196507
  30.7217433  10.7921661  30.6984988  30.1955046   9.4959708  31.2771434
  33.2910633  -2.9858299  43.2757874  32.5143967  -2.4264379  43.2660739
  33.9301196  -2.5001516  43.7972744  41.0831413  -6.2031506  37.1100851
  40.4405793  -5.9098973  36.4640646  40.5786342  -6.3178586  37.9154048
  31.5457005  -0.1772846  42.8375841  32.2871689   0.3612198  42.5610665
  30.8393990   0.4493443  42.9947393  37.0212345   1.9656295  41.4348003
  37.4295701   1.5238705  40.6902635  36.2989606   1.3908922  41.6882196
  33.3743415  -3.0971098  38.8081560  34.2204610  -2.6731685  38.9516209
  33.3142052  -3.7537474  39.5020123  37.3441159   2.5257485  35.1900292
  36.7150022   2.6903200  34.4876360  36.9566821   2.9399095  35.9611256
  41.2230391   3.4611923  32.5444655  40.5381429   3.8410825  31.9941689
  41.3074240   4.0707250  33.2776603  36.5242860  -5.4366730  40.4662733
  36.2803792  -4.6824670  39.9297009  36.8002790  -5.0581383  41.3009980
  38.4781323   1.1071882  39.1439999  38.6898218   1.7503642  38.4674380
  38.4311071   0.2734199  38.6761929  29.7893202   1.8103375  35.3930140
  30.3594559   2.2390643  34.7547625  30.3801314   1.5285960  36.0914326
  39.5927151   3.9843838  37.3162356  40.4144594   3.5824025  37.0345038
  39.5889554   3.8812072  38.2678472  33.3583754   3.5327881  39.4723067
  33.4228187   3.9948288  40.3081239  32.6494678   2.9025246  39.6005377
  47.6833144   0.3282586  33.6647328  46.9296852  -0.2410016  33.5091332
  47.8180685   0.2945251  34.6117962  34.7000248   5.8219555  43.4702389
  34.2564102   5.0355934  43.1523294  35.3617462   6.0098705  42.8046280
  29.4587369   7.3515357  37.9963068  30.0094794   7.2232420  37.2240062
  28.6198845   7.6510246  37.6457961  36.7981486   6.1022355  41.4983790
  36.7799962   6.9231236  41.0064060  37.7201406   5.9776430  41.7233932
  33.2554540   3.6166484  42.3407299  33.7882877   2.8554773  42.1106607
  32.7268621   3.3240136  43.0831453  39.6000099   0.9401497  34.9693157
  38.9423774   1.6300759  35.0573286  40.4040498   1.3297929  35.3127144
  38.4105558  -0.7054130  33.0197099  38.9237440  -0.0724138  33.5218809
  39.0606782  -1.3052934  32.6540459  34.8886389  -3.2304674  35.2655439
  33.9708950  -3.0089727  35.1077128  35.3046532  -3.1558364  34.4067147
  39.1767354   4.2751871  31.1476242  38.7229681   3.4342781  31.2041432
  38.5461321   4.9113270  31.4851022  37.6200293   6.1128368  32.0826060
  37.9123268   6.6733425  31.3638425  38.1298914   6.4056929  32.8379219
  32.5833919   6.8908719  33.1719513  32.5410097   7.1169566  32.2428045
  33.4996617   6.6572094  33.3205314  36.0299552  -2.6407213  40.0700142
  36.3848940  -2.4135740  40.9294608  36.6771684  -2.3088836  39.4477397
  41.7597289   0.4811223  30.7749471  41.6215188   0.6712819  29.8470660
  41.4033508   1.2430606  31.2317522  41.7866669   2.5487750  35.7860743
  42.2203176   2.4563039  36.6343797  42.4998250   2.5245250  35.1480759
  35.5194564   6.1489844  37.3193843  35.5731586   6.7180780  38.0871559
  34.6509345   6.3191729  36.9547880  42.6482218   2.5911450  38.3193628
  42.8418109   3.4957261  38.5652903  42.5482837   2.1318869  39.1532213
  37.7097327   2.7418193  43.8934509  37.5582834   2.5128745  42.9764592
  37.7002007   3.6988795  43.9065854  34.4782664   0.3150106  38.8780775
  35.4074724   0.4661265  38.7049742  34.0573694   0.4034127  38.0229422
  33.2770995   4.3400770  36.6479313  33.1382081   3.9719555  37.5205251
  32.4885592   4.8548410  36.4763271  33.8719147   9.4409867  27.9904849
  34.0470903   8.9697910  28.8050472  33.1851935  10.0675633  28.2186110
  34.8276210   3.7182373  34.0368151  34.4926043   3.6783143  34.9325800
  34.3280156   3.0527089  33.5638561  28.8020454  -0.8749997  39.5620732
  28.6640252  -1.6069758  40.1632271  29.7125378  -0.9641097  39.2804919
  31.4302755  -1.1630038  39.0504411  32.1402374  -1.8036845  39.0091030
  31.3872063  -0.9117143  39.9730592  39.4189534   5.7737316  41.9710991
  39.3602080   5.0896536  41.3041574  39.8209052   6.5156306  41.5191617
  28.4380233  12.5899229  34.7644709  28.6776831  13.2217754  35.4423728
  27.5949429  12.2387270  35.0510069  39.4206941   3.7376900  40.2024970
  38.5333720   3.4002821  40.3251369  39.9905492   3.0059931  40.4393736
  32.9508094   8.3978352  37.1686213  32.8778266   9.2033323  37.6805518
  32.5085488   8.5970318  36.3434235  32.7397874   7.6350122  30.6789035
  31.9565396   8.1771802  30.7727259  33.4390619   8.1524102  31.0783276
  43.9024282  -0.8514883  34.9641532  43.8914158   0.0309832  34.5935465
  43.0341661  -1.2043332  34.7696069  35.4106778   8.2965186  39.3244372
  36.1234750   8.9312651  39.2520274  34.9196807   8.3929052  38.5084374
  30.4618691   6.0459629  40.1449943  31.1628151   6.6796112  40.2979337
  29.9913806   6.3874361  39.3845582  38.2619977  -1.3995763  37.9702493
  37.6091428  -1.1519856  37.3154946  38.6400357  -2.2131625  37.6364971
  35.2227151   8.6363930  32.0730664  35.4049546   7.8185586  32.5358416
  36.0460137   8.8531622  31.6355554  35.5569317   7.5632115  29.3345712
  36.0857083   7.0524570  28.7215874  35.8197536   7.2474645  30.1991245
  34.3107550  -0.6575952  44.4568530  33.6348187  -0.7581823  45.1270906
  35.1335184  -0.8136738  44.9204528  26.0586410   5.5795984  37.0781046
  26.6439846   4.8339672  37.2108950  25.8611248   5.8899941  37.9617709
  28.9125065   8.6147232  32.0943488  28.2435440   9.0993359  31.6107528
  28.7737934   8.8616452  33.0086866  33.0530333  10.6490975  38.6926146
  33.6048641  10.8122597  39.4575232  33.3936527  11.2395413  38.0206171
  37.9041208   5.4752233  44.5474801  38.4481112   6.0882191  44.0529756
  37.3228053   6.0331811  45.0641814  36.1898721   8.5972951  35.6789828
  36.0649860   7.7962691  35.1700774  36.8477812   9.0919144  35.1903798
  38.2533629   6.3981971  37.3069379  37.3063965   6.2787322  37.2347705
  38.6016402   5.5104469  37.3895640  35.2580062   6.1934687  33.5073731
  35.1105025   5.2651395  33.6881301  36.0833556   6.2154778  33.0230806
  38.8614184   7.0163246  34.5938604  39.7860732   6.8106107  34.4563055
  38.6929488   6.7679647  35.5027945  38.6509500   7.5348913  29.9500695
  38.8246378   6.9695336  29.1974547  39.1438392   8.3349808  29.7680185
  44.5048892   0.2985336  31.5690995  44.9480038  -0.4507338  31.1710118
  43.6275402   0.2895473  31.1864727  39.6384673   6.8515678  27.0497593
  40.3335577   7.4722370  27.2684908  39.9807823   6.0011029  27.3249971
  41.5376096   4.3015383  28.5784924  42.0627420   4.6402656  27.8534244
  41.4498449   3.3662399  28.3948059  33.1996145   8.2149457  40.7074801
  33.5083271   7.9698604  41.5797500  33.9971627   8.4196095  40.2193671
  33.2216757  10.3687367  32.9380177  32.7821747   9.8763745  33.6313034
  33.9724874   9.8260334  32.6972252  25.7009096   6.5598907  32.9404805
  26.5267116   6.2602679  32.5603449  25.3503148   5.7906530  33.3894594
  30.6690629   5.9125376  35.0102479  30.0470638   5.2496081  34.7104707
  31.3395496   5.9386508  34.3276127  41.2270002   4.9348287  43.8836122
  40.4365546   4.9172426  43.3440621  40.9903357   5.4736581  44.6385159
  41.3467877   1.7840753  41.1968851  41.3965882   1.6190761  42.1384373
  41.2381800   0.9168012  40.8066731  38.6371639  -2.2328319  42.5128157
  39.5381502  -2.3721854  42.2212155  38.7119614  -2.0673864  43.4526335
  42.8486074   4.2037695  41.4410872  42.5570882   4.5667675  42.2774333
  42.2358205   3.4904703  41.2624204  44.0481756   1.7690575  33.9613442
  44.8828648   2.2080379  34.1251003  44.1840885   1.2929228  33.1421688
  41.0973262  -0.6729691  39.9090930  41.5727384  -0.4802044  39.1009781
  40.1738828  -0.6170505  39.6634314  39.7974931  -3.7963930  38.1419236
  40.7492354  -3.6965833  38.1631460  39.6278382  -4.5885662  38.6517320
  37.8189311  -6.7108347  38.3278637  37.2239243  -6.4303334  37.6325125
  37.5339007  -6.2214446  39.0995378  42.2763009  -0.5757811  37.2561535
  42.2439329  -1.5141810  37.4421219  42.8863633  -0.4973774  36.5227360
  42.4257497  -3.7846767  37.3019819  41.9096546  -4.5688311  37.1149747
  43.3097446  -4.1128051  37.4666338  48.0939559   0.4858196  36.3967572
  48.8242947   0.2243484  36.9575275  47.4846504  -0.2513082  36.4369640
  46.1754856  -1.3733941  36.9942023  45.4488020  -1.5077976  36.3858515
  45.7602143  -1.0657113  37.7998741  33.9985032   2.3455988  44.7589396
  34.9188042   2.5234587  44.9529443  33.9634615   1.4012034  44.6069096
  26.9947105   0.2557023  37.4012178  27.2133115   1.1874131  37.4200211
  27.4072879  -0.1035003  38.1866981  31.7306240  -0.7412632  45.6079988
  31.2473322   0.0587728  45.8143877  31.8167179  -0.7304688  44.6547432
  27.6579578   3.1491902  37.6448422  28.6122831   3.1175845  37.5778353
  27.4592101   2.6882526  38.4598648  28.2478960   1.7193018  40.2119220
  29.0671849   2.2137097  40.2354057  28.5215768   0.8024987  40.1836787
  43.7932651  -5.1522089  34.3475455  44.3877142  -5.3926353  33.6368763
  43.8659235  -5.8714959  34.9748991  26.0129807   8.6911522  34.6618620
  25.8784274   7.9311923  34.0956618  25.5961869   9.4152422  34.1947409
  46.1003724  -1.8455888  33.1218876  45.5403282  -1.7762699  33.8950438
  45.4947227  -2.0214904  32.4018372  29.1698932   9.5880839  34.8737062
  29.0531317  10.5326271  34.7715753  28.3491379   9.2854400  35.2622862
  36.0267266   3.1212000  46.4103557  36.8958426   3.2952652  46.0490192
  35.5474018   3.9406417  46.2879287  30.1953447  10.2409101  38.0892991
  31.0980693  10.2732711  38.4059486  29.9690817   9.3109552  38.1039327
  31.9507049   8.9940087  34.7503069  31.0002680   8.9941949  34.6367442
  32.2539535   8.2472822  34.2339104  47.6859742  14.8300626  35.8148832
  48.3238152  14.7107373  35.1112172  47.5680585  15.7781470  35.8736784
  44.4949448  14.7828054  35.7510357  44.1567960  14.6669118  34.8630891
  45.3639217  14.3819219  35.7311363  40.3536264  16.6363530  31.7407247
  39.7901129  16.5453467  30.9723535  40.2388659  15.8163435  32.2209740
  44.9769231  15.9362906  41.7096562  44.9657872  15.5415704  40.8377066
  45.1389871  15.2028978  42.3030334  37.9000696  18.1314722  34.5791468
  38.6921988  17.7905546  34.1637767  38.1397346  18.2409697  35.4993621
  45.9335823  20.3034498  27.0521712  45.2823803  20.8888578  26.6655726
  46.7280186  20.8340693  27.1116750  39.8591450  17.3923635  27.4508847
  40.6322326  16.8452622  27.3121723  40.2116849  18.2567884  27.6623308
  41.6976492  18.7200017  40.6575746  41.4066358  19.6245648  40.5422412
  42.3333477  18.7616545  41.3719816  42.6232699  16.0976866  37.2477106
  43.2196272  15.8732888  36.5334069  42.6807671  15.3561611  37.8502554
  42.1957728  13.5516301  25.0827297  42.4483248  13.0297822  24.3210760
  41.2582287  13.3882447  25.1853980  47.2401011  12.5552080  32.8902040
  48.0264100  12.1371503  32.5392457  47.5039715  13.4598172  33.0583688
  47.4111088  17.9924930  27.5890697  46.7756921  18.0659556  28.3011601
  47.0808494  18.5818529  26.9109776  52.6409438  12.4927313  33.7935018
  53.3734610  11.9226530  34.0272848  51.8848793  12.1048913  34.2341524
  41.9154016  15.4544407  27.2851672  41.7990275  14.7789310  27.9532756
  42.0256276  14.9676781  26.4683825  44.2585557  14.9154554  30.9898361
  43.8943765  14.3885175  31.7011282  45.1152673  14.5253023  30.8164846
  50.1634858   6.2048887  38.2529627  49.8318183   7.0744298  38.0290842
  49.5680471   5.8885171  38.9323657  43.8991044   9.9444454  25.9859709
  44.0665447  10.8124690  26.3530180  43.7088213  10.1071736  25.0620999
  46.6566378  18.4061433  37.6525540  46.3567101  19.3086472  37.5441347
  46.3117437  18.1393616  38.5046693  40.1078859  14.8575230  33.6862244
  39.1829355  14.7251444  33.8939936  40.3563272  15.6369449  34.1832187
  50.0563521  10.9243973  35.3322977  49.1480399  10.8559381  35.0381738
  50.0051117  11.4015918  36.1604803  43.8780265  12.4002111  26.9706376
  43.7579890  12.8459162  27.8091856  43.1832854  12.7487429  26.4119914
  37.4687670  14.5008503  34.5206033  37.5980051  14.7542982  35.4345445
  36.7885121  15.0936211  34.2010688  41.6387157  25.1705753  30.6196507
  41.5611187  26.1213578  30.6984988  41.0348801  24.8251626  31.2771434
  44.1304387  12.3433619  43.2757874  43.3537721  12.9027539  43.2660739
  44.7694950  12.8290402  43.7972744  51.9225168   9.1260411  37.1100851
  51.2799548   9.4192945  36.4640646  51.4180096   9.0113332  37.9154048
  49.5765331  12.8723585  27.7986710  50.4883188  13.1050971  27.6234408
  49.0674978  13.4560629  27.2361789  42.3850759  15.1519072  42.8375841
  43.1265444  15.6904116  42.5610665  41.6787745  15.7785361  42.9947393
  47.8606099  17.2948212  41.4348003  48.2689455  16.8530623  40.6902635
  47.1383361  16.7200840  41.6882196  44.2137169  12.2320819  38.8081560
  45.0598364  12.6560233  38.9516209  44.1535807  11.5754444  39.5020123
  48.1834914  17.8549403  35.1900292  47.5543776  18.0195117  34.4876360
  47.7960576  18.2691013  35.9611256  52.0624146  18.7903841  32.5444655
  51.3775184  19.1702742  31.9941689  52.1467995  19.3999168  33.2776603
  47.3636614   9.8925188  40.4662733  47.1197546  10.6467248  39.9297009
  47.6396545  10.2710535  41.3009980  49.3175077  16.4363800  39.1439999
  49.5291972  17.0795560  38.4674380  49.2704825  15.6026116  38.6761929
  46.9201306   9.0481621  36.0476571  46.0585785   9.3462874  36.3393309
  46.9463741   9.2652019  35.1157604  43.7362876  17.5923811  32.4550377
  44.2001221  17.8711514  31.6654999  43.4719674  16.6907256  32.2723467
  40.6286957  17.1395293  35.3930140  41.1988314  17.5682561  34.7547625
  41.2195068  16.8577877  36.0914326  42.6731762  13.7146964  29.2639942
  43.3755805  14.1668007  29.7313868  42.3412390  13.0730782  29.8919835
  41.1212123  12.3058720  43.6391151  40.4910784  12.9875001  43.8726548
  41.0148211  12.1941802  42.6944290  36.4157096  11.9730516  34.5657075
  35.6256150  12.2288045  34.0897186  36.9068343  12.7878854  34.6709116
  50.4320905  19.3135755  37.3162356  51.2538349  18.9115943  37.0345038
  50.4283308  19.2103990  38.2678472  38.3671841  12.3375095  31.5240552
  37.5703004  12.4493790  32.0424048  38.1397433  12.6761748  30.6581443
  44.1977509  18.8619799  39.4723067  44.2621941  19.3240206  40.3081239
  43.4888432  18.2317164  39.6005377  34.6994799  12.2261007  36.9972066
  34.9502837  13.1108017  37.2629642  35.2354347  12.0465608  36.2247158
  58.5226898  15.6574504  33.6647328  57.7690607  15.0881902  33.5091332
  58.6574439  15.6237168  34.6117962  43.9125526  20.5287906  29.3402047
  43.7771201  21.3739442  29.7686895  44.4535339  20.7307184  28.5767981
  40.3992866   6.6079486  46.0016402  40.0059811   6.0545685  46.6764047
  41.2159006   6.9190064  46.3922920  37.3654924  18.0463344  29.9129972
  37.8779444  18.8406594  30.0635537  38.0177636  17.3489635  29.8463574
  39.1749808  21.1629100  31.9952725  39.3516437  22.0847065  31.8073709
  39.9706642  20.8487520  32.4247105  43.3160827   8.0237365  43.5936659
  44.0570540   8.6244518  43.5141121  43.5478750   7.2815003  43.0354701
  38.4602165  13.2093732  41.8714889  38.3455680  12.3078990  42.1721988
  37.6046683  13.4557429  41.5199705  45.5394003  21.1511473  43.4702389
  45.0957857  20.3647851  43.1523294  46.2011216  21.3390623  42.8046280
  40.2981124  22.6807274  37.9963068  40.8488549  22.5524338  37.2240062
  39.4592600  22.9802163  37.6457961  47.6375241  21.4314273  41.4983790
  47.6193716  22.2523154  41.0064060  48.5595161  21.3068348  41.7233932
  44.0948295  18.9458402  42.3407299  44.6276632  18.1846690  42.1106607
  43.5662376  18.6532054  43.0831453  47.2617990   4.0518468  37.8700941
  46.9182259   4.9420110  37.7940051  47.6296952   3.8620126  37.0070526
  35.3303840  16.3751998  30.6889543  36.1679062  16.7849007  30.4723250
  35.5082108  15.4351441  30.6589737  47.2268273  14.0427079  26.3773376
  46.7114896  14.8131684  26.6161763  46.9545581  13.3692215  27.0006437
  44.8115384   8.8876780  31.4358614  43.9556980   8.4983630  31.2564253
  45.2242335   8.9668741  30.5758400  46.3414530   6.4223123  35.8350174
  45.8379326   6.3853258  35.0217979  46.6345137   7.3315866  35.8946831
  42.5857416   6.5061853  34.8416356  43.4510413   6.3104662  34.4822245
  42.6534925   6.2772205  35.7685712  52.2002547  16.7959434  28.3126549
  51.4231989  16.4570593  27.8681711  52.8794028  16.8012057  27.6381514
  47.0154576  11.9154171  28.2033157  46.7104711  12.2300320  29.0543300
  47.9685018  11.9935591  28.2460490  45.4601008  18.0744395  29.8526111
  44.9322369  17.3397154  29.5399348  44.9588510  18.8519071  29.6066079
  50.4393854  16.2693415  34.9693157  49.7817528  16.9592676  35.0573286
  51.2434253  16.6589847  35.3127144  40.1919735   8.7364061  32.2132722
  40.7663487   8.5139242  31.4805915  40.7790718   8.8052755  32.9661324
  49.2499312  14.6237788  33.0197099  49.7631194  15.2567780  33.5218809
  49.9000536  14.0238983  32.6540459  40.5189322  10.7668522  26.2328608
  39.6826635  11.1043208  26.5537882  40.3794092  10.6317502  25.2955745
  42.4942403   5.6105310  30.9407792  41.8406815   5.2954327  30.3164407
  42.4522877   4.9881050  31.6667615  43.6053608  15.8924605  22.8561084
  42.6980669  15.6613858  23.0552233  44.1024640  15.0962224  23.0435065
  46.5121687  24.6022112  25.7757770  45.8383385  24.9053809  26.3842728
  46.8987509  25.4051192  25.4263227  45.7280143  12.0987243  35.2655439
  44.8102705  12.3202190  35.1077128  46.1440287  12.1733554  34.4067147
  46.5115191  13.4978659  30.3958120  47.2587010  14.0100056  30.0865242
  46.7806781  13.1762712  31.2562513  44.7841841  15.9937200  27.3785074
  43.8753060  15.7096232  27.4757544  44.8136925  16.4136278  26.5188381
  50.0161109  19.6043789  31.1476242  49.5623436  18.7634699  31.2041432
  49.3855075  20.2405188  31.4851022  48.9594028  10.5335775  32.3776909
  48.2216785  10.0213161  32.7087152  49.2120802  10.0936157  31.5660186
  48.4594048  21.4420286  32.0826060  48.7517022  22.0025343  31.3638425
  48.9692668  21.7348847  32.8379219  49.0605655   3.3112027  32.9718678
  49.3664532   2.4509391  32.6844593  49.7858260   3.9029647  32.7717672
  35.3530012  13.7142714  31.3600276  35.1554411  13.1212074  30.6351343
  34.7976676  13.4094924  32.0776215  43.3326735  13.6065820  33.4794869
  43.3875345  12.6539657  33.4037346  42.5217937  13.7625259  33.9636168
  44.4817929  17.5345943  24.7173153  44.0437359  16.8181802  24.2578790
  45.2228370  17.7622058  24.1558244  41.2719095  12.2242880  31.2385248
  40.4586961  12.5237051  31.6450440  41.7678089  11.8298569  31.9559730
  43.4227673  22.2200637  33.1719513  43.3803852  22.4461483  32.2428045
  44.3390372  21.9864012  33.3205314  46.8693307  12.6884704  40.0700142
  47.2242695  12.9156178  40.9294608  47.5165438  13.0203081  39.4477397
  52.5991044  15.8103140  30.7749471  52.4608942  16.0004736  29.8470660
  52.2427263  16.5722523  31.2317522  40.7633170   9.7961236  36.8546483
  41.4032549   9.6549995  36.1569446  39.9310700   9.5095749  36.4785085
  52.6260423  17.8779667  35.7860743  53.0596930  17.7854956  36.6343797
  53.3392004  17.8537168  35.1480759  41.5393474  19.0963666  32.9681476
  42.3334072  18.6013986  32.7664051  40.8285166  18.5681529  32.6049181
  46.3588318  21.4781761  37.3193843  46.4125341  22.0472698  38.0871559
  45.4903100  21.6483647  36.9547880  37.8476237  13.2406748  29.0441228
  36.9173825  13.1791203  29.2611190  37.9433709  12.7182700  28.2477870
  37.7661786   9.7661561  31.6319470  38.0268604  10.6806894  31.5228630
  38.5878959   9.2986003  31.7816083  39.2386712  11.1799318  38.8018295
  39.9109765  10.9716680  38.1530943  38.4116498  10.9821404  38.3623527
  53.4875973  17.9203368  38.3193628  53.6811863  18.8249179  38.5652903
  53.3876591  17.4610787  39.1532213  45.1412284   7.8061259  40.8183955
  44.4940199   8.5051208  40.7248432  45.9113299   8.2397403  41.1860204
  48.5491082  18.0710111  43.8934509  48.3976588  17.8420662  42.9764592
  48.5395761  19.0280712  43.9065854  45.3176418  15.6442024  38.8780775
  46.2468478  15.7953183  38.7049742  44.8967448  15.7326044  38.0229422
  44.1164750  19.6692688  36.6479313  43.9775836  19.3011472  37.5205251
  43.3279346  20.1840327  36.4763271  44.7112902  24.7701784  27.9904849
  44.8864657  24.2989828  28.8050472  44.0245690  25.3967551  28.2186110
  45.6669965  19.0474291  34.0368151  45.3319798  19.0075061  34.9325800
  45.1673911  18.3819007  33.5638561  39.6414209  14.4541921  39.5620732
  39.5034007  13.7222159  40.1632271  40.5519132  14.3650821  39.2804919
  48.6029157  16.3930325  24.3105210  47.9858327  15.6677153  24.2138263
  48.1345645  17.1539685  23.9672284  42.2696510  14.1661880  39.0504411
  42.9796128  13.5255072  39.0091030  42.2265818  14.4174775  39.9730592
  50.2583288  21.1029233  41.9710991  50.1995834  20.4188453  41.3041574
  50.6602807  21.8448223  41.5191617  40.9825444  11.1527098  40.8700051
  40.4462801  10.7017836  41.5221647  40.3942152  11.2873007  40.1270515
  39.2773987  27.9191147  34.7644709  39.5170585  28.5509671  35.4423728
  38.4343184  27.5679187  35.0510069  50.2600696  19.0668817  40.2024970
  49.3727474  18.7294739  40.3251369  50.8299247  18.3351848  40.4393736
  31.9129843  15.3992909  33.5268022  32.6000882  15.0854639  32.9389037
  31.7577971  16.3034274  33.2535273  36.7164565  10.2883106  37.9553045
  36.6322754   9.6808775  37.2203455  35.8947271  10.7792124  37.9562542
  43.7901849  23.7270270  37.1686213  43.7172020  24.5325241  37.6805518
  43.3479242  23.9262235  36.3434235  43.5791629  22.9642040  30.6789035
  42.7959150  23.5063720  30.7727259  44.2784374  23.4816019  31.0783276
  46.8888279   8.7736669  33.3223240  47.3856978   8.0206631  33.0024311
  46.1175260   8.8100986  32.7566450  54.7418036  14.4777035  34.9641532
  54.7307912  15.3601750  34.5935465  53.8735415  14.1248585  34.7696069
  46.2500532  23.6257104  39.3244372  46.9628505  24.2604568  39.2520274
  45.7590561  23.7220970  38.5084374  47.9718059  17.5308356  30.8961664
  47.0374338  17.6509819  30.7266368  48.1494728  16.6280823  30.6321674
  43.4723247  10.9154052  33.0494925  43.1021035  10.3625092  33.7375831
  43.9682340  10.3112186  32.4969925  51.3590611  13.3725676  31.4311698
  51.8251063  14.2053667  31.3572001  51.8098111  12.9070657  32.1356956
  41.3012446  21.3751547  40.1449943  42.0021905  22.0088030  40.2979337
  40.8307561  21.7166279  39.3845582  49.4266842  19.7169497  28.4297850
  49.7026686  19.6026091  29.3391724  48.5571341  19.3186982  28.3910023
  49.3307273   5.7406263  35.4702599  48.4170353   5.9710489  35.6384806
  49.7600375   5.8244707  36.3216632  49.1013732  13.9296155  37.9702493
  48.4485182  14.1772062  37.3154946  49.4794112  13.1160293  37.6364971
  46.0620906  23.9655848  32.0730664  46.2443300  23.1477504  32.5358416
  46.8853892  24.1823540  31.6355554  46.3963071  22.8924033  29.3345712
  46.9250838  22.3816487  28.7215874  46.6591291  22.5766563  30.1991245
  45.1501305  14.6715966  44.4568530  44.4741942  14.5710095  45.1270906
  45.9728939  14.5155179  44.9204528  36.8980164  20.9087902  37.0781046
  37.4833601  20.1631590  37.2108950  36.7005002  21.2191859  37.9617709
  39.7518819  23.9439150  32.0943488  39.0829195  24.4285277  31.6107528
  39.6131689  24.1908370  33.0086866  31.4897819  13.4793502  35.7985489
  31.5281918  12.9457093  36.5922607  30.9838112  12.9528708  35.1796466
  43.8924088  25.9782893  38.6926146  44.4442396  26.1414515  39.4575232
  44.2330281  26.5687331  38.0206171  38.8688581   8.3258043  39.2948031
  38.9329908   9.1872874  38.8825429  38.8055701   7.7132045  38.5620390
  38.3440854  10.3981175  42.9421065  38.9712892  10.0158253  43.5558590
  37.4868772  10.1795377  43.3076758  48.7434962  20.8044151  44.5474801
  49.2874866  21.4174109  44.0529756  48.1621807  21.3623729  45.0641814
  35.1206396  12.2057605  28.8739420  35.4159837  11.2968283  28.8206474
  34.2194432  12.1845344  28.5520422  47.0292475  23.9264869  35.6789828
  46.9043615  23.1254608  35.1700774  47.6871566  24.4211062  35.1903798
  38.6500643  10.2813601  34.8566969  37.9287229  10.8949569  34.7174442
  39.4393899  10.8171366  34.7783615  49.0927384  21.7273889  37.3069379
  48.1457719  21.6079240  37.2347705  49.4410157  20.8396387  37.3895640
  41.4526957   7.6168028  41.1307620  41.9761359   7.8630324  41.8933930
  41.2339290   8.4488062  40.7110758  36.8494238   9.8871702  28.9978745
  36.5206944   9.0069081  28.8153851  37.2033609   9.8319371  29.8855134
  46.0973817  21.5226605  33.5073731  45.9498779  20.5943312  33.6881301
  46.9227310  21.5446696  33.0230806  39.9636061  10.1744672  29.3654223
  40.3032134  10.7030593  28.6432831  40.4108182  10.5125078  30.1412789
  49.7007939  22.3455164  34.5938604  50.6254486  22.1398025  34.4563055
  49.5323242  22.0971565  35.5027945  42.6579502   8.5581723  38.8157291
  42.3176322   7.7589536  39.2177971  41.9518508   8.8583434  38.2434124
  43.3095974   5.6431035  37.2684614  44.1322043   5.1691513  37.1463504
  43.5534037   6.4221519  37.7683300  41.9504208   8.6719294  27.5647516
  42.6712571   9.0500546  27.0611233  41.3269512   9.3908170  27.6682494
  46.0935331   9.3764443  28.5005848  46.3098946  10.2589080  28.1994676
  45.6129398   8.9850656  27.7711490  40.8334553  12.3350156  35.0776593
  40.6879133  12.6490459  35.9700874  40.3559756  12.9535056  34.5247491
  42.6930935   9.3252704  35.1257482  42.6792504   8.4293797  34.7889780
  43.4103363   9.3323367  35.7595768  44.5457066   9.7590044  37.1710610
  44.2874844  10.6807115  37.1694940  44.0142106   9.3620478  37.8611074
  49.4903255  22.8640831  29.9500695  49.6640132  22.2987254  29.1974547
  49.9832146  23.6641726  29.7680185  35.3080215  14.8755500  38.0164254
  34.7633683  15.6515308  38.1484528  36.1859565  15.2226305  37.8583375
  42.0967831   8.2067084  30.3945052  42.2183743   7.2783730  30.5935940
  41.8069874   8.2205770  29.4823368  44.9659022   5.8921994  33.5311772
  44.9880719   5.9561328  32.5763752  45.3827081   5.0526503  33.7252278
  55.3442646  15.6277254  31.5690995  55.7873792  14.8784579  31.1710118
  54.4669156  15.6187390  31.1864727  50.4778427  22.1807595  27.0497593
  51.1729332  22.8014288  27.2684908  50.8201577  21.3302947  27.3249971
  36.0946237  14.0025396  40.9094411  35.3527973  14.1508032  41.4959041
  35.7738981  14.2633662  40.0461160  52.3769850  19.6307301  28.5784924
  52.9021175  19.9694574  27.8534244  52.2892203  18.6954316  28.3948059
  44.0389899  23.5441375  40.7074801  44.3477026  23.2990521  41.5797500
  44.8365381  23.7488013  40.2193671  44.0610511  25.6979284  32.9380177
  43.6215502  25.2055663  33.6313034  44.8118628  25.1552252  32.6972252
  36.5402850  21.8890825  32.9404805  37.3660870  21.5894597  32.5603449
  36.1896902  21.1198448  33.3894594  41.5084383  21.2417293  35.0102479
  40.8864393  20.5787998  34.7104707  42.1789250  21.2678425  34.3276127
  34.7411455  19.8077152  33.8993739  33.9043364  19.3799326  33.7177740
  34.7135101  20.0009595  34.8364530  41.5808911   9.7199081  44.6034985
  41.6297066  10.5961204  44.2212755  42.1231425   9.1776474  44.0306628
  52.0663757  20.2640205  43.8836122  51.2759300  20.2464343  43.3440621
  51.8297111  20.8028498  44.6385159  52.1861632  17.1132671  41.1968851
  52.2359637  16.9482678  42.1384373  52.0775555  16.2459930  40.8066731
  41.0697890  19.7921217  28.4860939  41.2186011  20.4756681  27.8327612
  41.8764334  19.7726307  29.0010395  49.4765394  13.0963599  42.5128157
  50.3775257  12.9570064  42.2212155  49.5513368  13.2618054  43.4526335
  43.8108199  10.4730454  41.3581344  42.9411509  10.7664020  41.0863932
  44.0467680  11.0570899  42.0788607  53.6879828  19.5329613  41.4410872
  53.3964637  19.8959593  42.2774333  53.0751960  18.8196621  41.2624204
  54.8875511  17.0982492  33.9613442  55.7222402  17.5372296  34.1251003
  55.0234640  16.6221146  33.1421688  51.9367017  14.6562227  39.9090930
  52.4121138  14.8489873  39.1009781  51.0132582  14.7121413  39.6634314
  38.8250523  15.8186394  29.4922008  38.5796565  14.9148724  29.6902218
  38.9946438  15.8203545  28.5501486  46.5147233   6.6910071  38.8746764
  47.0329177   7.4271098  38.5493253  46.1602366   6.9974064  39.7093523
  38.0946171  11.5514752  26.9908170  37.4015416  11.6259107  26.3348206
  37.8497923  10.7875096  27.5129687  46.7659827   3.1110353  34.3947661
  47.0461581   2.4433542  35.0208087  47.5510434   3.3039449  33.8822324
  44.5693296  22.2869347  25.9572687  43.9967263  22.9059534  25.5043159
  45.1426089  22.8368709  26.4912609  50.6368686  11.5327987  38.1419236
  51.5886109  11.6326085  38.1631460  50.4672136  10.7406256  38.6517320
  48.6583065   8.6183570  38.3278637  48.0632997   8.8988583  37.6325125
  48.3732762   9.1077471  39.0995378  47.7890556  22.5706497  27.0881269
  48.7221229  22.5052059  27.2914145  47.7013768  23.4062764  26.6295802
  50.4178572  21.8872368  24.0485217  50.3392204  21.5532231  24.9420975
  51.2388239  22.3794136  24.0476689  53.1156763  14.7534107  37.2561535
  53.0833084  13.8150108  37.4421219  53.7257387  14.8318144  36.5227360
  44.9540094  13.6230160  23.2988739  45.8999199  13.4936368  23.3677157
  44.5754339  12.8844822  23.7758168  53.2651252  11.5445150  37.3019819
  52.7490301  10.7603607  37.1149747  54.1491200  11.2163867  37.4666338
  50.9261979   5.2886166  33.2615631  50.7286800   4.9801254  34.1458963
  51.5361684   6.0147805  33.3913561  58.9333313  15.8150114  36.3967572
  59.6636702  15.5535402  36.9575275  58.3240259  15.0778836  36.4369640
  57.0148610  13.9557976  36.9942023  56.2881774  13.8213941  36.3858515
  56.5995897  14.2634805  37.7998741  44.8378787  17.6747906  44.7589396
  45.7581796  17.8526505  44.9529443  44.8028370  16.7303951  44.6069096
  34.0560952  12.8686500  33.6842671  33.7363736  12.0151808  33.3917045
  33.5094380  13.0835078  34.4400638  37.8340859  15.5848941  37.4012178
  38.0526869  16.5166049  37.4200211  38.2466633  15.2256915  38.1866981
  44.7545077   6.0917026  29.3887866  43.9445806   5.7464111  29.7643112
  45.4429494   5.7824570  29.9775477  46.6835625   5.1695073  31.0112163
  47.2366664   5.5890526  31.6702186  46.9205712   4.2430821  31.0535119
  42.7068725  11.1582146  46.7914926  42.6065452  12.1076503  46.7227018
  42.4890267  10.8300385  45.9190997  33.9249212  16.4889411  35.6535793
  33.2312683  16.0743364  35.1405747  34.6722203  16.5309948  35.0569211
  50.0614433   7.2795598  30.5190827  49.4813102   7.9380402  30.1368879
  49.7950365   6.4572943  30.1078244  48.5117999   6.6800656  32.7212147
  49.0117777   6.7917190  31.9126466  49.1553607   6.3761709  33.3612956
  42.5699995  14.5879285  45.6079988  42.0867076  15.3879645  45.8143877
  42.6560934  14.5987230  44.6547432  35.8385954  16.4207665  33.5301807
  35.8156642  16.5195352  32.5783691  36.1486591  17.2672816  33.8518974
  38.4973332  18.4783820  37.6448422  39.4516586  18.4467762  37.5778353
  38.2985856  18.0174444  38.4598648  39.0872714  17.0484936  40.2119220
  39.9065603  17.5429015  40.2354057  39.3609522  16.1316904  40.1836787
  48.8439311   9.4395688  29.5747175  47.9565166   9.7245339  29.3567370
  49.2593300   9.2789452  28.7274452  52.1953847   9.4642209  33.2901514
  52.9714237   9.9538662  33.5626131  51.4701981   9.8900264  33.7473384
  54.6326405  10.1769829  34.3475455  55.2270896   9.9365565  33.6368763
  54.7052989   9.4576959  34.9748991  36.8523561  24.0203440  34.6618620
  36.7178029  23.2603840  34.0956618  36.4355623  24.7444339  34.1947409
  47.9882524  19.2040363  23.6695195  48.6918374  19.4090366  24.2852851
  47.2645173  19.7717125  23.9344279  48.8180334  14.9550224  29.7897465
  48.7615536  15.4118776  28.9505098  49.3708677  14.1940909  29.6120308
  52.6285140  10.7439956  30.6147585  52.3722074  10.3436592  31.4455792
  52.0038008  11.4583750  30.4897724  56.9397478  13.4836029  33.1218876
  56.3797036  13.5529219  33.8950438  56.3340981  13.3077014  32.4018372
  40.0092687  24.9172757  34.8737062  39.8925071  25.8618189  34.7715753
  39.1885133  24.6146318  35.2622862  49.8969221  19.6422892  25.7193655
  50.7314825  19.2104091  25.5371130  49.7353564  19.4704906  26.6470550
  49.5515114  16.1455006  27.0849994  49.4963917  15.9799277  26.1438438
  48.9261169  16.8531038  27.2412184  34.3407629  11.3823070  40.9111417
  34.9866492  10.8722024  41.3998642  34.1324780  12.1191752  41.4854842
  46.8661021  18.4503917  46.4103557  47.7352180  18.6244570  46.0490192
  46.3867772  19.2698334  46.2879287  42.8611239   5.6463115  26.6635313
  42.8489909   6.5904954  26.8203584  43.7534661   5.4633260  26.3694774
  41.0347201  25.5701018  38.0892991  41.9374448  25.6024629  38.4059486
  40.8084571  24.6401469  38.1039327  42.7900803  24.3232005  34.7503069
  41.8396434  24.3233867  34.6367442  43.0933289  23.5764740  34.2339104
  46.6763359   2.2405891  30.9181250  45.9095754   1.6864378  31.0637932
  47.0874064   2.3127760  31.7795401  38.6805120   8.5290687  45.0086431
  39.5436581   8.1727492  45.2189755  38.1070530   8.1904582  45.6961835
  58.5253497  30.1592543  35.8148832  59.1631906  30.0399291  35.1112172
  58.4074339  31.1073387  35.8736784  55.3343203  30.1119971  35.7510357
  54.9961714  29.9961036  34.8630891  56.2032971  29.7111137  35.7311363
  51.1930019  31.9655448  31.7407247  50.6294884  31.8745385  30.9723535
  51.0782414  31.1455352  32.2209740  55.8162986  31.2654823  41.7096562
  55.8051627  30.8707621  40.8377066  55.9783625  30.5320896  42.3030334
  48.7394450  33.4606639  34.5791468  49.5315742  33.1197464  34.1637767
  48.9791101  33.5701615  35.4993621  56.7729577  35.6326416  27.0521712
  56.1217557  36.2180496  26.6655726  57.5673940  36.1632610  27.1116750
  50.6985204  32.7215553  27.4508847  51.4716080  32.1744540  27.3121723
  51.0510603  33.5859802  27.6623308  52.5370247  34.0491935  40.6575746
  52.2460113  34.9537566  40.5422412  53.1727231  34.0908463  41.3719816
  53.4626454  31.4268784  37.2477106  54.0590026  31.2024806  36.5334069
  53.5201425  30.6853529  37.8502554  53.0351482  28.8808219  25.0827297
  53.2877003  28.3589740  24.3210760  52.0976041  28.7174364  25.1853980
  58.0794765  27.8843997  32.8902040  58.8657854  27.4663420  32.5392457
  58.3433469  28.7890089  33.0583688  58.2504842  33.3216848  27.5890697
  57.6150675  33.3951474  28.3011601  57.9202249  33.9110446  26.9109776
  63.4803192  27.8219230  33.7935018  64.2128364  27.2518447  34.0272848
  62.7242548  27.4340831  34.2341524  52.7547771  30.7836325  27.2851672
  52.6384029  30.1081228  27.9532756  52.8650031  30.2968699  26.4683825
  55.0979312  30.2446472  30.9898361  54.7337519  29.7177093  31.7011282
  55.9546428  29.8544941  30.8164846  61.0028612  21.5340805  38.2529627
  60.6711937  22.4036215  38.0290842  60.4074226  21.2177089  38.9323657
  54.7384799  25.2736372  25.9859709  54.9059201  26.1416608  26.3530180
  54.5481968  25.4363653  25.0620999  57.4960132  33.7353351  37.6525540
  57.1960855  34.6378389  37.5441347  57.1511192  33.4685534  38.5046693
  50.9472614  30.1867147  33.6862244  50.0223110  30.0543361  33.8939936
  51.1957027  30.9661367  34.1832187  60.8957276  26.2535891  35.3322977
  59.9874153  26.1851299  35.0381738  60.8444872  26.7307836  36.1604803
  54.7174020  27.7294029  26.9706376  54.5973645  28.1751080  27.8091856
  54.0226608  28.0779347  26.4119914  48.3081425  29.8300421  34.5206033
  48.4373806  30.0834900  35.4345445  47.6278876  30.4228129  34.2010688
  52.4780912  40.4997671  30.6196507  52.4004942  41.4505496  30.6984988
  51.8742555  40.1543543  31.2771434  54.9698142  27.6725536  43.2757874
  54.1931476  28.2319456  43.2660739  55.6088705  28.1582319  43.7972744
  62.7618922  24.4552329  37.1100851  62.1193302  24.7484862  36.4640646
  62.2573851  24.3405249  37.9154048  60.4159086  28.2015502  27.7986710
  61.3276942  28.4342889  27.6234408  59.9068733  28.7852546  27.2361789
  53.2244514  30.4810990  42.8375841  53.9659198  31.0196034  42.5610665
  52.5181499  31.1077278  42.9947393  58.6999854  32.6240130  41.4348003
  59.1083210  32.1822541  40.6902635  57.9777115  32.0492758  41.6882196
  55.0530924  27.5612737  38.8081560  55.8992119  27.9852150  38.9516209
  54.9929561  26.9046361  39.5020123  59.0228668  33.1841321  35.1900292
  58.3937531  33.3487035  34.4876360  58.6354330  33.5982930  35.9611256
  62.9017900  34.1195759  32.5444655  62.2168938  34.4994660  31.9941689
  62.9861749  34.7291085  33.2776603  58.2030369  25.2217105  40.4662733
  57.9591301  25.9759166  39.9297009  58.4790299  25.6002453  41.3009980
  60.1568832  31.7655718  39.1439999  60.3685727  32.4087477  38.4674380
  60.1098580  30.9318034  38.6761929  57.7595061  24.3773538  36.0476571
  56.8979540  24.6754792  36.3393309  57.7857495  24.5943937  35.1157604
  54.5756630  32.9215729  32.4550377  55.0394976  33.2003432  31.6654999
  54.3113428  32.0199173  32.2723467  51.4680711  32.4687210  35.3930140
  52.0382068  32.8974479  34.7547625  52.0588823  32.1869795  36.0914326
  53.5125516  29.0438881  29.2639942  54.2149559  29.4959925  29.7313868
  53.1806145  28.4022700  29.8919835  51.9605878  27.6350638  43.6391151
  51.3304538  28.3166919  43.8726548  51.8541966  27.5233719  42.6944290
  47.2550850  27.3022434  34.5657075  46.4649904  27.5579962  34.0897186
  47.7462097  28.1170772  34.6709116  61.2714660  34.6427673  37.3162356
  62.0932103  34.2407860  37.0345038  61.2677063  34.5395907  38.2678472
  49.2065595  27.6667013  31.5240552  48.4096759  27.7785707  32.0424048
  48.9791188  28.0053665  30.6581443  55.0371263  34.1911716  39.4723067
  55.1015696  34.6532124  40.3081239  54.3282187  33.5609081  39.6005377
  45.5388553  27.5552924  36.9972066  45.7896591  28.4399934  37.2629642
  46.0748101  27.3757526  36.2247158  69.3620653  30.9866421  33.6647328
  68.6084361  30.4173820  33.5091332  69.4968194  30.9529086  34.6117962
  54.7519281  35.8579824  29.3402047  54.6164956  36.7031360  29.7686895
  55.2929093  36.0599101  28.5767981  51.2386620  21.9371404  46.0016402
  50.8453566  21.3837602  46.6764047  52.0552761  22.2481982  46.3922920
  48.2048678  33.3755262  29.9129972  48.7173199  34.1698512  30.0635537
  48.8571391  32.6781552  29.8463574  50.0143563  36.4921018  31.9952725
  50.1910191  37.4138983  31.8073709  50.8100396  36.1779437  32.4247105
  54.1554581  23.3529283  43.5936659  54.8964295  23.9536436  43.5141121
  54.3872504  22.6106921  43.0354701  49.2995919  28.5385650  41.8714889
  49.1849435  27.6370907  42.1721988  48.4440437  28.7849347  41.5199705
  56.3787757  36.4803390  43.4702389  55.9351611  35.6939769  43.1523294
  57.0404971  36.6682541  42.8046280  51.1374878  38.0099192  37.9963068
  51.6882303  37.8816255  37.2240062  50.2986354  38.3094081  37.6457961
  58.4768995  36.7606190  41.4983790  58.4587471  37.5815071  41.0064060
  59.3988915  36.6360265  41.7233932  54.9342049  34.2750320  42.3407299
  55.4670386  33.5138608  42.1106607  54.4056130  33.9823972  43.0831453
  58.1011744  19.3810386  37.8700941  57.7576014  20.2712027  37.7940051
  58.4690707  19.1912043  37.0070526  46.1697595  31.7043916  30.6889543
  47.0072817  32.1140925  30.4723250  46.3475863  30.7643358  30.6589737
  58.0662027  29.3718997  26.3773376  57.5508650  30.1423601  26.6161763
  57.7939335  28.6984133  27.0006437  55.6509138  24.2168698  31.4358614
  54.7950734  23.8275548  31.2564253  56.0636090  24.2960658  30.5758400
  57.1808285  21.7515041  35.8350174  56.6773080  21.7145176  35.0217979
  57.4738892  22.6607784  35.8946831  53.4251171  21.8353771  34.8416356
  54.2904167  21.6396579  34.4822245  53.4928679  21.6064122  35.7685712
  63.0396301  32.1251351  28.3126549  62.2625744  31.7862511  27.8681711
  63.7187782  32.1303975  27.6381514  57.8548330  27.2446089  28.2033157
  57.5498466  27.5592238  29.0543300  58.8078772  27.3227509  28.2460490
  56.2994762  33.4036312  29.8526111  55.7716124  32.6689072  29.5399348
  55.7982265  34.1810989  29.6066079  61.2787608  31.5985333  34.9693157
  60.6211283  32.2884594  35.0573286  62.0828007  31.9881765  35.3127144
  51.0313490  24.0655978  32.2132722  51.6057242  23.8431160  31.4805915
  51.6184472  24.1344673  32.9661324  60.0893067  29.9529705  33.0197099
  60.6024949  30.5859697  33.5218809  60.7394291  29.3530901  32.6540459
  51.3583077  26.0960440  26.2328608  50.5220389  26.4335126  26.5537882
  51.2187846  25.9609419  25.2955745  53.3336157  20.9397227  30.9407792
  52.6800570  20.6246245  30.3164407  53.2916632  20.3172968  31.6667615
  54.4447362  31.2216522  22.8561084  53.5374424  30.9905776  23.0552233
  54.9418394  30.4254142  23.0435065  57.3515441  39.9314030  25.7757770
  56.6777140  40.2345726  26.3842728  57.7381263  40.7343110  25.4263227
  56.5673898  27.4279161  35.2655439  55.6496459  27.6494108  35.1077128
  56.9834041  27.5025471  34.4067147  57.3508945  28.8270577  30.3958120
  58.0980764  29.3391974  30.0865242  57.6200535  28.5054629  31.2562513
  55.6235596  31.3229117  27.3785074  54.7146815  31.0388150  27.4757544
  55.6530679  31.7428196  26.5188381  60.8554863  34.9335707  31.1476242
  60.4017190  34.0926617  31.2041432  60.2248830  35.5697105  31.4851022
  59.7987783  25.8627693  32.3776909  59.0610539  25.3505079  32.7087152
  60.0514556  25.4228074  31.5660186  59.2987802  36.7712204  32.0826060
  59.5910777  37.3317261  31.3638425  59.8086423  37.0640765  32.8379219
  59.8999410  18.6403945  32.9718678  60.2058287  17.7801308  32.6844593
  60.6252015  19.2321565  32.7717672  46.1923766  29.0434631  31.3600276
  45.9948166  28.4503992  30.6351343  45.6370430  28.7386842  32.0776215
  54.1720490  28.9357738  33.4794869  54.2269099  27.9831574  33.4037346
  53.3611692  29.0917177  33.9636168  55.3211683  32.8637861  24.7173153
  54.8831113  32.1473720  24.2578790  56.0622124  33.0913976  24.1558244
  52.1112850  27.5534798  31.2385248  51.2980715  27.8528968  31.6450440
  52.6071844  27.1590486  31.9559730  54.2621428  37.5492555  33.1719513
  54.2197606  37.7753401  32.2428045  55.1784126  37.3155929  33.3205314
  57.7087061  28.0176622  40.0700142  58.0636449  28.2448095  40.9294608
  58.3559193  28.3494999  39.4477397  63.4384798  31.1395058  30.7749471
  63.3002697  31.3296654  29.8470660  63.0821017  31.9014441  31.2317522
  51.6026924  25.1253153  36.8546483  52.2426304  24.9841912  36.1569446
  50.7704455  24.8387667  36.4785085  63.4654178  33.2071585  35.7860743
  63.8990685  33.1146874  36.6343797  64.1785759  33.1829086  35.1480759
  52.3787228  34.4255584  32.9681476  53.1727827  33.9305904  32.7664051
  51.6678921  33.8973447  32.6049181  57.1982073  36.8073679  37.3193843
  57.2519095  37.3764615  38.0871559  56.3296854  36.9775564  36.9547880
  48.6869992  28.5698665  29.0441228  47.7567580  28.5083121  29.2611190
  48.7827464  28.0474618  28.2477870  48.6055541  25.0953478  31.6319470
  48.8662358  26.0098811  31.5228630  49.4272713  24.6277921  31.7816083
  50.0780466  26.5091235  38.8018295  50.7503520  26.3008597  38.1530943
  49.2510253  26.3113321  38.3623527  64.3269727  33.2495286  38.3193628
  64.5205618  34.1541096  38.5652903  64.2270346  32.7902705  39.1532213
  55.9806038  23.1353176  40.8183955  55.3333953  23.8343126  40.7248432
  56.7507054  23.5689320  41.1860204  59.3884836  33.4002028  43.8934509
  59.2370343  33.1712580  42.9764592  59.3789516  34.3572630  43.9065854
  56.1570173  30.9733941  38.8780775  57.0862233  31.1245101  38.7049742
  55.7361203  31.0617962  38.0229422  54.9558504  34.9984606  36.6479313
  54.8169590  34.6303390  37.5205251  54.1673101  35.5132245  36.4763271
  55.5506656  40.0993702  27.9904849  55.7258412  39.6281745  28.8050472
  54.8639444  40.7259468  28.2186110  56.5063719  34.3766208  34.0368151
  56.1713552  34.3366978  34.9325800  56.0067665  33.7110924  33.5638561
  50.4807963  29.7833838  39.5620732  50.3427761  29.0514077  40.1632271
  51.3912887  29.6942738  39.2804919  59.4422911  31.7222243  24.3105210
  58.8252082  30.9969071  24.2138263  58.9739400  32.4831603  23.9672284
  53.1090264  29.4953798  39.0504411  53.8189883  28.8546990  39.0091030
  53.0659572  29.7466693  39.9730592  61.0977043  36.4321151  41.9710991
  61.0389589  35.7480371  41.3041574  61.4996561  37.1740141  41.5191617
  51.8219198  26.4819016  40.8700051  51.2856555  26.0309754  41.5221647
  51.2335906  26.6164924  40.1270515  50.1167742  43.2483065  34.7644709
  50.3564340  43.8801589  35.4423728  49.2736938  42.8971105  35.0510069
  51.2321457  25.9407667  23.4326514  50.3550923  25.8196468  23.0688761
  51.7079210  25.1493745  23.1805403  61.0994450  34.3960735  40.2024970
  60.2121229  34.0586657  40.3251369  61.6693001  33.6643766  40.4393736
  42.7523597  30.7284827  33.5268022  43.4394637  30.4146557  32.9389037
  42.5971726  31.6326191  33.2535273  47.5558319  25.6175023  37.9553045
  47.4716508  25.0100693  37.2203455  46.7341026  26.1084042  37.9562542
  54.6295603  39.0562187  37.1686213  54.5565775  39.8617159  37.6805518
  54.1872997  39.2554153  36.3434235  54.4185383  38.2933957  30.6789035
  53.6352905  38.8355638  30.7727259  55.1178128  38.8107937  31.0783276
  57.7282033  24.1028587  33.3223240  58.2250733  23.3498549  33.0024311
  56.9569015  24.1392903  32.7566450  65.5811791  29.8068952  34.9641532
  65.5701667  30.6893668  34.5935465  64.7129170  29.4540503  34.7696069
  57.0894287  38.9549021  39.3244372  57.8022259  39.5896486  39.2520274
  56.5984316  39.0512887  38.5084374  58.8111814  32.8600274  30.8961664
  57.8768093  32.9801736  30.7266368  58.9888482  31.9572741  30.6321674
  54.3117002  26.2445970  33.0494925  53.9414789  25.6917010  33.7375831
  54.8076094  25.6404103  32.4969925  62.1984365  28.7017593  31.4311698
  62.6644817  29.5345585  31.3572001  62.6491866  28.2362575  32.1356956
  52.1406200  36.7043465  40.1449943  52.8415660  37.3379948  40.2979337
  51.6701315  37.0458196  39.3845582  60.2660596  35.0461415  28.4297850
  60.5420440  34.9318009  29.3391724  59.3965095  34.6478899  28.3910023
  60.1701028  21.0698180  35.4702599  59.2564108  21.3002407  35.6384806
  60.5994129  21.1536624  36.3216632  59.9407486  29.2588072  37.9702493
  59.2878937  29.5063980  37.3154946  60.3187866  28.4452210  37.6364971
  56.9014660  39.2947765  32.0730664  57.0837055  38.4769421  32.5358416
  57.7247646  39.5115458  31.6355554  57.2356826  38.2215951  29.3345712
  57.7644592  37.7108405  28.7215874  57.4985045  37.9058481  30.1991245
  55.9895059  30.0007883  44.4568530  55.3135696  29.9002013  45.1270906
  56.8122693  29.8447097  44.9204528  47.7373919  36.2379820  37.0781046
  48.3227355  35.4923508  37.2108950  47.5398757  36.5483777  37.9617709
  50.5912574  39.2731067  32.0943488  49.9222949  39.7577195  31.6107528
  50.4525443  39.5200288  33.0086866  42.3291573  28.8085420  35.7985489
  42.3675673  28.2749011  36.5922607  41.8231866  28.2820626  35.1796466
  54.7317842  41.3074811  38.6926146  55.2836150  41.4706432  39.4575232
  55.0724036  41.8979249  38.0206171  49.7082336  23.6549961  39.2948031
  49.7723662  24.5164791  38.8825429  49.6449456  23.0423962  38.5620390
  49.1834608  25.7273093  42.9421065  49.8106647  25.3450170  43.5558590
  48.3262527  25.5087295  43.3076758  59.5828717  36.1336068  44.5474801
  60.1268621  36.7466027  44.0529756  59.0015562  36.6915647  45.0641814
  45.9600151  27.5349522  28.8739420  46.2553592  26.6260201  28.8206474
  45.0588187  27.5137262  28.5520422  57.8686230  39.2556786  35.6789828
  57.7437369  38.4546526  35.1700774  58.5265321  39.7502980  35.1903798
  49.4894398  25.6105519  34.8566969  48.7680984  26.2241486  34.7174442
  50.2787654  26.1463284  34.7783615  59.9321138  37.0565806  37.3069379
  58.9851474  36.9371158  37.2347705  60.2803911  36.1688304  37.3895640
  52.2920711  22.9459945  41.1307620  52.8155113  23.1922242  41.8933930
  52.0733045  23.7779980  40.7110758  47.6887992  25.2163620  28.9978745
  47.3600699  24.3360999  28.8153851  48.0427363  25.1611289  29.8855134
  56.9367571  36.8518523  33.5073731  56.7892534  35.9235230  33.6881301
  57.7621065  36.8738613  33.0230806  50.8029816  25.5036590  29.3654223
  51.1425888  26.0322511  28.6432831  51.2501936  25.8416996  30.1412789
  60.5401693  37.6747081  34.5938604  61.4648241  37.4689943  34.4563055
  60.3716997  37.4263482  35.5027945  53.4973256  23.8873640  38.8157291
  53.1570077  23.0881453  39.2177971  52.7912263  24.1875351  38.2434124
  54.1489728  20.9722953  37.2684614  54.9715798  20.4983431  37.1463504
  54.3927792  21.7513437  37.7683300  52.7897963  24.0011211  27.5647516
  53.5106325  24.3792464  27.0611233  52.1663267  24.7200088  27.6682494
  56.9329086  24.7056360  28.5005848  57.1492700  25.5880998  28.1994676
  56.4523153  24.3142574  27.7711490  51.6728307  27.6642073  35.0776593
  51.5272888  27.9782377  35.9700874  51.1953511  28.2826974  34.5247491
  53.5324690  24.6544621  35.1257482  53.5186259  23.7585715  34.7889780
  54.2497118  24.6615285  35.7595768  55.3850821  25.0881962  37.1710610
  55.1268598  26.0099032  37.1694940  54.8535861  24.6912396  37.8611074
  60.3297009  38.1932749  29.9500695  60.5033887  37.6279171  29.1974547
  60.8225901  38.9933644  29.7680185  46.1473969  30.2047418  38.0164254
  45.6027437  30.9807226  38.1484528  47.0253319  30.5518222  37.8583375
  52.9361586  23.5359002  30.3945052  53.0577497  22.6075648  30.5935940
  52.6463628  23.5497688  29.4823368  55.8052776  21.2213912  33.5311772
  55.8274473  21.2853245  32.5763752  56.2220835  20.3818421  33.7252278
  66.1836401  30.9569172  31.5690995  66.6267547  30.2076497  31.1710118
  65.3062911  30.9479308  31.1864727  61.3172182  37.5099513  27.0497593
  62.0123086  38.1306206  27.2684908  61.6595332  36.6594864  27.3249971
  46.9339991  29.3317314  40.9094411  46.1921727  29.4799949  41.4959041
  46.6132735  29.5925580  40.0461160  63.2163605  34.9599219  28.5784924
  63.7414929  35.2986491  27.8534244  63.1285958  34.0246234  28.3948059
  54.8783654  38.8733292  40.7074801  55.1870780  38.6282439  41.5797500
  55.6759136  39.0779931  40.2193671  54.9004266  41.0271202  32.9380177
  54.4609256  40.5347581  33.6313034  55.6512383  40.4844170  32.6972252
  47.3796605  37.2182743  32.9404805  48.2054625  36.9186515  32.5603449
  47.0290657  36.4490365  33.3894594  52.3478138  36.5709211  35.0102479
  51.7258147  35.9079916  34.7104707  53.0183005  36.5970343  34.3276127
  45.5805210  35.1369069  33.8993739  44.7437118  34.7091244  33.7177740
  45.5528855  35.3301513  34.8364530  52.4202665  25.0490999  44.6034985
  52.4690821  25.9253122  44.2212755  52.9625180  24.5068392  44.0306628
  62.9057511  35.5932122  43.8836122  62.1153055  35.5756261  43.3440621
  62.6690866  36.1320416  44.6385159  63.0255386  32.4424589  41.1968851
  63.0753391  32.2774596  42.1384373  62.9169309  31.5751848  40.8066731
  51.9091645  35.1213134  28.4860939  52.0579765  35.8048599  27.8327612
  52.7158088  35.1018224  29.0010395  60.3159148  28.4255517  42.5128157
  61.2169011  28.2861982  42.2212155  60.3907123  28.5909972  43.4526335
  54.6501954  25.8022371  41.3581344  53.7805263  26.0955938  41.0863932
  54.8861434  26.3862816  42.0788607  64.5273583  34.8621530  41.4410872
  64.2358391  35.2251511  42.2774333  63.9145714  34.1488539  41.2624204
  65.7269265  32.4274410  33.9613442  66.5616157  32.8664214  34.1251003
  65.8628394  31.9513063  33.1421688  62.7760771  29.9854145  39.9090930
  63.2514893  30.1781791  39.1009781  61.8526337  30.0413331  39.6634314
  49.6644278  31.1478312  29.4922008  49.4190320  30.2440642  29.6902218
  49.8340192  31.1495462  28.5501486  57.3540988  22.0201988  38.8746764
  57.8722931  22.7563015  38.5493253  56.9996120  22.3265982  39.7093523
  48.9339925  26.8806670  26.9908170  48.2409170  26.9551025  26.3348206
  48.6891677  26.1167013  27.5129687  57.6053582  18.4402271  34.3947661
  57.8855336  17.7725460  35.0208087  58.3904189  18.6331367  33.8822324
  55.4087050  37.6161265  25.9572687  54.8361017  38.2351452  25.5043159
  55.9819844  38.1660627  26.4912609  61.4762440  26.8619905  38.1419236
  62.4279863  26.9618003  38.1631460  61.3065891  26.0698173  38.6517320
  59.4976820  23.9475488  38.3278637  58.9026752  24.2280501  37.6325125
  59.2126516  24.4369389  39.0995378  58.6284310  37.8998415  27.0881269
  59.5614983  37.8343977  27.2914145  58.5407523  38.7354682  26.6295802
  61.2572327  37.2164285  24.0485217  61.1785958  36.8824149  24.9420975
  62.0781994  37.7086053  24.0476689  63.9550518  30.0826025  37.2561535
  63.9226838  29.1442025  37.4421219  64.5651142  30.1610061  36.5227360
  55.7933849  28.9522078  23.2988739  56.7392954  28.8228286  23.3677157
  55.4148094  28.2136740  23.7758168  64.1045006  26.8737068  37.3019819
  63.5884055  26.0895525  37.1149747  64.9884955  26.5455785  37.4666338
  61.7655733  20.6178084  33.2615631  61.5680554  20.3093172  34.1458963
  62.3755439  21.3439723  33.3913561  69.7727068  31.1442031  36.3967572
  70.5030456  30.8827320  36.9575275  69.1634013  30.4070753  36.4369640
  67.8542365  29.2849894  36.9942023  67.1275528  29.1505859  36.3858515
  67.4389652  29.5926723  37.7998741  55.6772541  33.0039824  44.7589396
  56.5975551  33.1818423  44.9529443  55.6422124  32.0595869  44.6069096
  53.9776766  26.8772054  23.2343625  53.0708221  26.5805167  23.3106338
  54.2552747  26.5801872  22.3677911  44.8954706  28.1978417  33.6842671
  44.5757491  27.3443726  33.3917045  44.3488135  28.4126996  34.4400638
  48.6734614  30.9140858  37.4012178  48.8920624  31.8457966  37.4200211
  49.0860388  30.5548833  38.1866981  55.5938832  21.4208944  29.3887866
  54.7839560  21.0756029  29.7643112  56.2823249  21.1116487  29.9775477
  57.5229380  20.4986991  31.0112163  58.0760419  20.9182444  31.6702186
  57.7599466  19.5722739  31.0535119  53.5462479  26.4874064  46.7914926
  53.4459206  27.4368421  46.7227018  53.3284021  26.1592303  45.9190997
  52.7475551  23.7358989  23.3755604  53.6094715  24.0613888  23.6351421
  52.9325895  22.9490485  22.8628670  44.7642966  31.8181329  35.6535793
  44.0706438  31.4035282  35.1405747  45.5115957  31.8601865  35.0569211
  60.9008187  22.6087516  30.5190827  60.3206856  23.2672320  30.1368879
  60.6344120  21.7864860  30.1078244  59.3511753  22.0092573  32.7212147
  59.8511532  22.1209108  31.9126466  59.9947361  21.7053626  33.3612956
  53.4093749  29.9171203  45.6079988  52.9260831  30.7171563  45.8143877
  53.4954688  29.9279148  44.6547432  46.6779709  31.7499583  33.5301807
  46.6550397  31.8487270  32.5783691  46.9880345  32.5964733  33.8518974
  49.3367087  33.8075738  37.6448422  50.2910340  33.7759680  37.5778353
  49.1379610  33.3466361  38.4598648  49.9266469  32.3776854  40.2119220
  50.7459358  32.8720932  40.2354057  50.2003277  31.4608822  40.1836787
  59.6833065  24.7687606  29.5747175  58.7958920  25.0537257  29.3567370
  60.0987054  24.6081369  28.7274452  63.0347601  24.7934127  33.2901514
  63.8107991  25.2830579  33.5626131  62.3095735  25.2192181  33.7473384
  65.4720160  25.5061746  34.3475455  66.0664651  25.2657482  33.6368763
  65.5446744  24.7868877  34.9748991  47.6917316  39.3495357  34.6618620
  47.5571783  38.5895758  34.0956618  47.2749378  40.0736257  34.1947409
  58.8276279  34.5332281  23.6695195  59.5312129  34.7382283  24.2852851
  58.1038927  35.1009043  23.9344279  59.6574089  30.2842142  29.7897465
  59.6009290  30.7410693  28.9505098  60.2102431  29.5232827  29.6120308
  63.4678895  26.0731874  30.6147585  63.2115829  25.6728510  31.4455792
  62.8431763  26.7875668  30.4897724  67.7791233  28.8127947  33.1218876
  67.2190791  28.8821136  33.8950438  67.1734736  28.6368932  32.4018372
  50.8486441  40.2464674  34.8737062  50.7318826  41.1910107  34.7715753
  50.0278888  39.9438236  35.2622862  60.7362976  34.9714810  25.7193655
  61.5708580  34.5396008  25.5371130  60.5747319  34.7996824  26.6470550
  60.3908868  31.4746923  27.0849994  60.3357672  31.3091195  26.1438438
  59.7654923  32.1822956  27.2412184  45.1801383  26.7114988  40.9111417
  45.8260247  26.2013942  41.3998642  44.9718534  27.4483669  41.4854842
  57.7054775  33.7795835  46.4103557  58.5745935  33.9536487  46.0490192
  57.2261527  34.5990252  46.2879287  53.7004994  20.9755032  26.6635313
  53.6883663  21.9196872  26.8203584  54.5928415  20.7925178  26.3694774
  51.8740956  40.8992936  38.0892991  52.7768202  40.9316546  38.4059486
  51.6478326  39.9693387  38.1039327  53.6294558  39.6523923  34.7503069
  52.6790189  39.6525784  34.6367442  53.9327044  38.9056657  34.2339104
  57.5157113  17.5697809  30.9181250  56.7489509  17.0156296  31.0637932
  57.9267818  17.6419678  31.7795401  49.5198874  23.8582605  45.0086431
  50.3830336  23.5019410  45.2189755  48.9464285  23.5196500  45.6961835
  62.0780375  37.2663321  46.0016402  61.6847320  36.7129520  46.6764047
  62.8946515  37.5773900  46.3922920  60.1389674  43.8677568  41.8714889
  60.0243189  42.9662825  42.1721988  59.2834192  44.1141264  41.5199705
  57.0091349  47.0335834  30.6889543  57.8466571  47.4432842  30.4723250
  57.1869617  46.0935276  30.6589737  64.2644925  37.1645688  34.8416356
  65.1297922  36.9688497  34.4822245  64.3322434  36.9356040  35.7685712
  61.8707244  39.3947896  32.2132722  62.4450996  39.1723078  31.4805915
  62.4578227  39.4636591  32.9661324  64.1729912  36.2689145  30.9407792
  63.5194324  35.9538162  30.3164407  64.1310386  35.6464886  31.6667615
  65.2841117  46.5508440  22.8561084  64.3768178  46.3197694  23.0552233
  65.7812149  45.7546059  23.0435065  70.7393164  33.9695863  32.9718678
  71.0452041  33.1093226  32.6844593  71.4645769  34.5613483  32.7717672
  57.0317521  44.3726549  31.3600276  56.8341920  43.7795910  30.6351343
  56.4764185  44.0678759  32.0776215  59.5263746  43.8990583  29.0441228
  58.5961334  43.8375039  29.2611190  59.6221218  43.3766536  28.2477870
  59.4449295  40.4245396  31.6319470  59.7056113  41.3390729  31.5228630
  60.2666468  39.9569838  31.7816083  62.0715211  41.2699585  23.4326514
  61.1944678  41.1488385  23.0688761  62.5472965  40.4785663  23.1805403
  53.5917352  46.0576744  33.5268022  54.2788391  45.7438474  32.9389037
  53.4365480  46.9618109  33.2535273  53.1685328  44.1377338  35.7985489
  53.2069427  43.6040928  36.5922607  52.6625621  43.6112543  35.1796466
  60.5476090  38.9841878  39.2948031  60.6117417  39.8456709  38.8825429
  60.4843210  38.3715880  38.5620390  60.0228363  41.0565011  42.9421065
  60.6500401  40.6742088  43.5558590  59.1656281  40.8379213  43.3076758
  56.7993905  42.8641440  28.8739420  57.0947346  41.9552118  28.8206474
  55.8981941  42.8429179  28.5520422  63.1314466  38.2751863  41.1307620
  63.6548868  38.5214159  41.8933930  62.9126799  39.1071898  40.7110758
  58.5281747  40.5455538  28.9978745  58.1994453  39.6652916  28.8153851
  58.8821118  40.4903206  29.8855134  66.6446531  36.5505830  33.5311772
  66.6668228  36.6145163  32.5763752  67.0614590  35.7110338  33.7252278
  57.7733746  44.6609232  40.9094411  57.0315482  44.8091867  41.4959041
  57.4526490  44.9217497  40.0461160  59.7733680  42.2098587  26.9908170
  59.0802925  42.2842942  26.3348206  59.5285432  41.4458931  27.5129687
  68.4447336  33.7694189  34.3947661  68.7249090  33.1017378  35.0208087
  69.2297943  33.9623284  33.8822324  66.6327603  44.2813995  23.2988739
  67.5786708  44.1520203  23.3677157  66.2541848  43.5428657  23.7758168
  55.7348461  43.5270335  33.6842671  55.4151245  42.6735643  33.3917045
  55.1881889  43.7418913  34.4400638  66.4332586  36.7500861  29.3887866
  65.6233314  36.4047946  29.7643112  67.1217003  36.4408405  29.9775477
  68.3623134  35.8278908  31.0112163  68.9154173  36.2474362  31.6702186
  68.5993221  34.9014656  31.0535119  63.5869305  39.0650907  23.3755604
  64.4488469  39.3905805  23.6351421  63.7719649  38.2782403  22.8628670
  55.6036721  47.1473247  35.6535793  54.9100192  46.7327199  35.1405747
  56.3509712  47.1893783  35.0569211  57.5173463  47.0791500  33.5301807
  57.4944151  47.1779188  32.5783691  57.8274100  47.9256651  33.8518974
  56.0195138  42.0406905  40.9111417  56.6654001  41.5305859  41.3998642
  55.8112289  42.7775587  41.4854842  64.5398748  36.3046950  26.6635313
  64.5277418  37.2488790  26.8203584  65.4322170  36.1217095  26.3694774
  68.3550868  32.8989727  30.9181250  67.5883263  32.3448213  31.0637932
  68.7661572  32.9711595  31.7795401  60.3592629  39.1874522  45.0086431
  61.2224090  38.8311327  45.2189755  59.7858039  38.8488417  45.6961835
  78.4517086  66.2910251  27.0521712  77.8005066  66.8764331  26.6655726
  79.2461449  66.8216446  27.1116750  79.9292351  63.9800683  27.5890697
  79.2938184  64.0535309  28.3011601  79.5989758  64.5694282  26.9109776
  85.1590701  58.4803066  33.7935018  85.8915873  57.9102283  34.0272848
  84.4030057  58.0924666  34.2341524  74.1568421  71.1581506  30.6196507
  74.0792451  72.1089331  30.6984988  73.5530064  70.8127379  31.2771434
  82.0946595  58.8599338  27.7986710  83.0064451  59.0926724  27.6234408
  81.5856242  59.4436382  27.2361789  91.0408162  61.6450257  33.6647328
  90.2871870  61.0757655  33.5091332  91.1755703  61.6112921  34.6117962
  76.4306790  66.5163659  29.3402047  76.2952465  67.3615195  29.7686895
  76.9716602  66.7182937  28.5767981  79.7449536  60.0302832  26.3773376
  79.2296159  60.8007437  26.6161763  79.4726844  59.3567968  27.0006437
  84.7183810  62.7835187  28.3126549  83.9413253  62.4446346  27.8681711
  85.3975291  62.7887810  27.6381514  76.1234871  61.8800358  22.8561084
  75.2161933  61.6489611  23.0552233  76.6205903  61.0837977  23.0435065
  79.0302950  70.5897865  25.7757770  78.3564649  70.8929562  26.3842728
  79.4168772  71.3926945  25.4263227  76.9999192  63.5221696  24.7173153
  76.5618622  62.8057555  24.2578790  77.7409633  63.7497811  24.1558244
  75.9408937  68.2076390  33.1719513  75.8985115  68.4337236  32.2428045
  76.8571635  67.9739765  33.3205314  85.1172307  61.7978893  30.7749471
  84.9790206  61.9880489  29.8470660  84.7608526  62.5598276  31.2317522
  77.2294165  70.7577537  27.9904849  77.4045921  70.2865581  28.8050472
  76.5426953  71.3843304  28.2186110  81.1210420  62.3806078  24.3105210
  80.5039591  61.6552906  24.2138263  80.6526909  63.1415438  23.9672284
  76.3083112  69.7146023  37.1686213  76.2353284  70.5200994  37.6805518
  75.8660505  69.9137988  36.3434235  76.0972892  68.9517793  30.6789035
  75.3140414  69.4939473  30.7727259  76.7965637  69.4691772  31.0783276
  87.2599300  60.4652788  34.9641532  87.2489176  61.3477503  34.5935465
  86.3916679  60.1124338  34.7696069  83.8771874  59.3601429  31.4311698
  84.3432326  60.1929420  31.3572001  84.3279375  58.8946410  32.1356956
  81.9448105  65.7045250  28.4297850  82.2207949  65.5901845  29.3391724
  81.0752604  65.3062735  28.3910023  76.4105351  71.9658646  38.6926146
  76.9623659  72.1290268  39.4575232  76.7511545  72.5563084  38.0206171
  81.2616226  66.7919904  44.5474801  81.8056130  67.4049862  44.0529756
  80.6803070  67.3499482  45.0641814  87.8623910  61.6153007  31.5690995
  88.3055056  60.8660332  31.1710118  86.9850420  61.6063143  31.1864727
  82.9959691  68.1683349  27.0497593  83.6910595  68.7890041  27.2684908
  83.3382841  67.3178700  27.3249971  84.8951114  65.6183054  28.5784924
  85.4202438  65.9570327  27.8534244  84.8073466  64.6830069  28.3948059
  76.5791775  71.6855037  32.9380177  76.1396765  71.1931416  33.6313034
  77.3299892  71.1428005  32.6972252  84.5845020  66.2515958  43.8836122
  83.7940564  66.2340097  43.3440621  84.3478375  66.7904251  44.6385159
  86.2061092  65.5205366  41.4410872  85.9145900  65.8835346  42.2774333
  85.5933223  64.8072374  41.2624204  87.4056774  63.0858245  33.9613442
  88.2403666  63.5248049  34.1251003  87.5415903  62.6096899  33.1421688
  77.0874559  68.2745100  25.9572687  76.5148526  68.8935287  25.5043159
  77.6607353  68.8244462  26.4912609  80.3071819  68.5582250  27.0881269
  81.2402492  68.4927812  27.2914145  80.2195032  69.3938517  26.6295802
  82.9359836  67.8748121  24.0485217  82.8573467  67.5407984  24.9420975
  83.7569503  68.3669889  24.0476689  77.4721358  59.6105913  23.2988739
  78.4180462  59.4812121  23.3677157  77.0935603  58.8720575  23.7758168
  91.4514577  61.8025867  36.3967572  92.1817965  61.5411155  36.9575275
  90.8421522  61.0654589  36.4369640  89.5329874  59.9433729  36.9942023
  88.8063037  59.8089694  36.3858515  89.1177161  60.2510558  37.7998741
  87.1507669  56.1645582  34.3475455  87.7452160  55.9241318  33.6368763
  87.2234253  55.4452712  34.9748991  80.5063788  65.1916116  23.6695195
  81.2099638  65.3966119  24.2852851  79.7826436  65.7592878  23.9344279
  81.3361598  60.9425977  29.7897465  81.2796799  61.3994529  28.9505098
  81.8889940  60.1816662  29.6120308  85.1466404  56.7315709  30.6147585
  84.8903338  56.3312345  31.4455792  84.5219272  57.4459503  30.4897724
  89.4578742  59.4711782  33.1218876  88.8978300  59.5404972  33.8950438
  88.8522245  59.2952767  32.4018372  82.4150485  65.6298645  25.7193655
  83.2496089  65.1979844  25.5371130  82.2534828  65.4580659  26.6470550
  82.0696377  62.1330759  27.0849994  82.0145181  61.9675030  26.1438438
  81.4442432  62.8406791  27.2412184  79.3842284  64.4379670  46.4103557
  80.2533444  64.6120323  46.0490192  78.9049036  65.2574087  46.2879287
  91.0434760  76.1468296  35.8148832  91.6813170  76.0275044  35.1112172
  90.9255603  77.0949140  35.8736784  87.8524466  76.0995724  35.7510357
  87.5142978  75.9836789  34.8630891  88.7214234  75.6986890  35.7311363
  83.7111282  77.9531201  31.7407247  83.1476147  77.8621138  30.9723535
  83.5963677  77.1331105  32.2209740  88.3344249  77.2530576  41.7096562
  88.3232890  76.8583374  40.8377066  88.4964889  76.5196649  42.3030334
  81.2575714  79.4482392  34.5791468  82.0497006  79.1073217  34.1637767
  81.4972364  79.5577368  35.4993621  89.2910841  81.6202169  27.0521712
  88.6398820  82.2056249  26.6655726  90.0855204  82.1508364  27.1116750
  83.2166468  78.7091306  27.4508847  83.9897344  78.1620293  27.3121723
  83.5691867  79.5735555  27.6623308  85.0551510  80.0367688  40.6575746
  84.7641376  80.9413319  40.5422412  85.6908495  80.0784216  41.3719816
  85.9807717  77.4144537  37.2477106  86.5771290  77.1900559  36.5334069
  86.0382689  76.6729282  37.8502554  85.5532746  74.8683972  25.0827297
  85.8058266  74.3465493  24.3210760  84.6157305  74.7050117  25.1853980
  90.5976028  73.8719750  32.8902040  91.3839118  73.4539173  32.5392457
  90.8614733  74.7765842  33.0583688  90.7686106  79.3092601  27.5890697
  90.1331939  79.3827227  28.3011601  90.4383512  79.8986199  26.9109776
  95.9984456  73.8094983  33.7935018  96.7309628  73.2394200  34.0272848
  95.2423811  73.4216584  34.2341524  85.2729034  76.7712078  27.2851672
  85.1565293  76.0956981  27.9532756  85.3831294  76.2844452  26.4683825
  87.6160575  76.2322225  30.9898361  87.2518783  75.7052846  31.7011282
  88.4727691  75.8420694  30.8164846  93.5209876  67.5216558  38.2529627
  93.1893201  68.3911968  38.0290842  92.9255489  67.2052842  38.9323657
  87.2566062  71.2612125  25.9859709  87.4240465  72.1292361  26.3530180
  87.0663231  71.4239406  25.0620999  90.0141396  79.7229104  37.6525540
  89.7142119  80.6254142  37.5441347  89.6692455  79.4561287  38.5046693
  83.4653877  76.1742900  33.6862244  82.5404373  76.0419114  33.8939936
  83.7138290  76.9537120  34.1832187  93.4138539  72.2411644  35.3322977
  92.5055417  72.1727052  35.0381738  93.3626135  72.7183589  36.1604803
  87.2355283  73.7169782  26.9706376  87.1154908  74.1626833  27.8091856
  86.5407872  74.0655100  26.4119914  80.8262688  75.8176174  34.5206033
  80.9555069  76.0710653  35.4345445  80.1460139  76.4103882  34.2010688
  84.9962175  86.4873424  30.6196507  84.9186205  87.4381249  30.6984988
  84.3923819  86.1419296  31.2771434  87.4879405  73.6601289  43.2757874
  86.7112739  74.2195209  43.2660739  88.1269968  74.1458072  43.7972744
  95.2800186  70.4428082  37.1100851  94.6374566  70.7360615  36.4640646
  94.7755114  70.3281002  37.9154048  92.9340349  74.1891255  27.7986710
  93.8458205  74.4218642  27.6234408  92.4249996  74.7728300  27.2361789
  85.7425777  76.4686743  42.8375841  86.4840462  77.0071787  42.5610665
  85.0362763  77.0953031  42.9947393  91.2181117  78.6115883  41.4348003
  91.6264473  78.1698294  40.6902635  90.4958379  78.0368511  41.6882196
  87.5712187  73.5488490  38.8081560  88.4173382  73.9727903  38.9516209
  87.5110825  72.8922114  39.5020123  91.5409932  79.1717074  35.1900292
  90.9118794  79.3362788  34.4876360  91.1535594  79.5858683  35.9611256
  95.4199164  80.1071512  32.5444655  94.7350202  80.4870413  31.9941689
  95.5043013  80.7166838  33.2776603  90.7211632  71.2092858  40.4662733
  90.4772564  71.9634919  39.9297009  90.9971563  71.5878206  41.3009980
  92.6750095  77.7531471  39.1439999  92.8866990  78.3963231  38.4674380
  92.6279843  76.9193787  38.6761929  90.2776324  70.3649291  36.0476571
  89.4160803  70.6630545  36.3393309  90.3038759  70.5819690  35.1157604
  87.0937894  78.9091482  32.4550377  87.5576239  79.1879185  31.6654999
  86.8294692  78.0074926  32.2723467  83.9861975  78.4562963  35.3930140
  84.5563332  78.8850232  34.7547625  84.5770086  78.1745548  36.0914326
  86.0306780  75.0314634  29.2639942  86.7330823  75.4835678  29.7313868
  85.6987408  74.3898453  29.8919835  84.4787141  73.6226391  43.6391151
  83.8485802  74.3042672  43.8726548  84.3723229  73.5109472  42.6944290
  79.7732114  73.2898187  34.5657075  78.9831168  73.5455715  34.0897186
  80.2643361  74.1046525  34.6709116  93.7895923  80.6303426  37.3162356
  94.6113367  80.2283613  37.0345038  93.7858326  80.5271660  38.2678472
  81.7246859  73.6542766  31.5240552  80.9278022  73.7661460  32.0424048
  81.4972451  73.9929418  30.6581443  87.5552527  80.1787469  39.4723067
  87.6196959  80.6407877  40.3081239  86.8463450  79.5484834  39.6005377
  78.0569817  73.5428677  36.9972066  78.3077855  74.4275687  37.2629642
  78.5929365  73.3633279  36.2247158 101.8801916  76.9742175  33.6647328
 101.1265625  76.4049573  33.5091332 102.0149457  76.9404839  34.6117962
  87.2700544  81.8455577  29.3402047  87.1346219  82.6907113  29.7686895
  87.8110357  82.0474854  28.5767981  83.7567884  67.9247157  46.0016402
  83.3634829  67.3713355  46.6764047  84.5734024  68.2357735  46.3922920
  80.7229942  79.3631015  29.9129972  81.2354462  80.1574265  30.0635537
  81.3752654  78.6657305  29.8463574  82.5324826  82.4796771  31.9952725
  82.7091455  83.4014736  31.8073709  83.3281660  82.1655190  32.4247105
  86.6735845  69.3405036  43.5936659  87.4145558  69.9412189  43.5141121
  86.9053768  68.5982674  43.0354701  81.8177183  74.5261403  41.8714889
  81.7030698  73.6246660  42.1721988  80.9621701  74.7725100  41.5199705
  88.8969021  82.4679143  43.4702389  88.4532875  81.6815522  43.1523294
  89.5586234  82.6558294  42.8046280  83.6556142  83.9974945  37.9963068
  84.2063567  83.8692008  37.2240062  82.8167618  84.2969834  37.6457961
  90.9950259  82.7481943  41.4983790  90.9768734  83.5690824  41.0064060
  91.9170179  82.6236018  41.7233932  87.4523313  80.2626073  42.3407299
  87.9851650  79.5014361  42.1106607  86.9237394  79.9699725  43.0831453
  90.6193008  65.3686139  37.8700941  90.2757277  66.2587780  37.7940051
  90.9871970  65.1787796  37.0070526  78.6878858  77.6919669  30.6889543
  79.5254080  78.1016678  30.4723250  78.8657126  76.7519111  30.6589737
  90.5843291  75.3594750  26.3773376  90.0689914  76.1299354  26.6161763
  90.3120599  74.6859886  27.0006437  88.1690402  70.2044451  31.4358614
  87.3131998  69.8151301  31.2564253  88.5817353  70.2836411  30.5758400
  89.6989548  67.7390794  35.8350174  89.1954344  67.7020929  35.0217979
  89.9920155  68.6483537  35.8946831  85.9432434  67.8229524  34.8416356
  86.8085431  67.6272332  34.4822245  86.0109943  67.5939875  35.7685712
  95.5577565  78.1127104  28.3126549  94.7807007  77.7738264  27.8681711
  96.2369046  78.1179728  27.6381514  90.3729594  73.2321842  28.2033157
  90.0679729  73.5467991  29.0543300  91.3260036  73.3103262  28.2460490
  88.8176026  79.3912065  29.8526111  88.2897387  78.6564825  29.5399348
  88.3163528  80.1686742  29.6066079  93.7968872  77.5861086  34.9693157
  93.1392546  78.2760347  35.0573286  94.6009271  77.9757518  35.3127144
  83.5494753  70.0531732  32.2132722  84.1238505  69.8306913  31.4805915
  84.1365736  70.1220426  32.9661324  92.6074330  75.9405458  33.0197099
  93.1206212  76.5735450  33.5218809  93.2575554  75.3406654  32.6540459
  83.8764340  72.0836193  26.2328608  83.0401653  72.4210879  26.5537882
  83.7369110  71.9485172  25.2955745  85.8517421  66.9272980  30.9407792
  85.1981833  66.6121998  30.3164407  85.8097895  66.3048721  31.6667615
  86.9628626  77.2092275  22.8561084  86.0555687  76.9781529  23.0552233
  87.4599658  76.4129895  23.0435065  89.8696705  85.9189783  25.7757770
  89.1958403  86.2221479  26.3842728  90.2562527  86.7218863  25.4263227
  89.0855161  73.4154914  35.2655439  88.1677723  73.6369861  35.1077128
  89.5015305  73.4901224  34.4067147  89.8690209  74.8146330  30.3958120
  90.6162028  75.3267727  30.0865242  90.1381799  74.4930382  31.2562513
  88.1416859  77.3104870  27.3785074  87.2328078  77.0263903  27.4757544
  88.1711943  77.7303949  26.5188381  93.3736127  80.9211460  31.1476242
  92.9198454  80.0802370  31.2041432  92.7430093  81.5572858  31.4851022
  92.3169046  71.8503446  32.3776909  91.5791803  71.3380832  32.7087152
  92.5695820  71.4103828  31.5660186  91.8169066  82.7587957  32.0826060
  92.1092040  83.3193014  31.3638425  92.3267686  83.0516518  32.8379219
  92.4180673  64.6279698  32.9718678  92.7239550  63.7677061  32.6844593
  93.1433278  65.2197318  32.7717672  78.7105030  75.0310384  31.3600276
  78.5129429  74.4379745  30.6351343  78.1551694  74.7262595  32.0776215
  86.6901753  74.9233491  33.4794869  86.7450363  73.9707327  33.4037346
  85.8792955  75.0792930  33.9636168  87.8392947  78.8513614  24.7173153
  87.4012377  78.1349473  24.2578790  88.5803388  79.0789729  24.1558244
  84.6294113  73.5410551  31.2385248  83.8161979  73.8404721  31.6450440
  85.1253107  73.1466239  31.9559730  86.7802691  83.5368308  33.1719513
  86.7378870  83.7629154  32.2428045  87.6965390  83.3031682  33.3205314
  90.2268325  74.0052375  40.0700142  90.5817713  74.2323848  40.9294608
  90.8740456  74.3370752  39.4477397  95.9566062  77.1270811  30.7749471
  95.8183960  77.3172407  29.8470660  95.6002281  77.8890194  31.2317522
  84.1208188  71.1128906  36.8546483  84.7607567  70.9717665  36.1569446
  83.2885718  70.8263420  36.4785085  95.9835441  79.1947338  35.7860743
  96.4171948  79.1022627  36.6343797  96.6967022  79.1704839  35.1480759
  84.8968492  80.4131337  32.9681476  85.6909090  79.9181657  32.7664051
  84.1860184  79.8849200  32.6049181  89.7163336  82.7949432  37.3193843
  89.7700359  83.3640369  38.0871559  88.8478118  82.9651317  36.9547880
  81.2051255  74.5574418  29.0441228  80.2748843  74.4958874  29.2611190
  81.3008727  74.0350371  28.2477870  82.5961730  72.4966988  38.8018295
  83.2684783  72.2884351  38.1530943  81.7691516  72.2989074  38.3623527
  96.8450991  79.2371039  38.3193628  97.0386881  80.1416849  38.5652903
  96.7451609  78.7778458  39.1532213  88.4987302  69.1228929  40.8183955
  87.8515217  69.8218879  40.7248432  89.2688317  69.5565073  41.1860204
  91.9066100  79.3877781  43.8934509  91.7551606  79.1588333  42.9764592
  91.8970779  80.3448383  43.9065854  88.6751436  76.9609694  38.8780775
  89.6043496  77.1120854  38.7049742  88.2542466  77.0493715  38.0229422
  87.4739768  80.9860359  36.6479313  87.3350853  80.6179143  37.5205251
  86.6854364  81.5007998  36.4763271  88.0687920  86.0869455  27.9904849
  88.2439675  85.6157498  28.8050472  87.3820708  86.7135221  28.2186110
  89.0244983  80.3641961  34.0368151  88.6894816  80.3242731  34.9325800
  88.5248929  79.6986677  33.5638561  82.9989227  75.7709591  39.5620732
  82.8609025  75.0389830  40.1632271  83.9094150  75.6818491  39.2804919
  91.9604175  77.7097996  24.3105210  91.3433345  76.9844824  24.2138263
  91.4920663  78.4707356  23.9672284  85.6271528  75.4829551  39.0504411
  86.3371146  74.8422743  39.0091030  85.5840836  75.7342446  39.9730592
  93.6158306  82.4196904  41.9710991  93.5570852  81.7356124  41.3041574
  94.0177825  83.1615894  41.5191617  84.3400462  72.4694769  40.8700051
  83.8037819  72.0185507  41.5221647  83.7517170  72.6040677  40.1270515
  82.6349005  89.2358818  34.7644709  82.8745603  89.8677342  35.4423728
  81.7918201  88.8846858  35.0510069  83.7502720  71.9283420  23.4326514
  82.8732187  71.8072221  23.0688761  84.2260474  71.1369498  23.1805403
  93.6175713  80.3836488  40.2024970  92.7302492  80.0462410  40.3251369
  94.1874265  79.6519519  40.4393736  87.1476867  85.0437940  37.1686213
  87.0747038  85.8492912  37.6805518  86.7054260  85.2429906  36.3434235
  86.9366647  84.2809710  30.6789035  86.1534168  84.8231391  30.7727259
  87.6359392  84.7983690  31.0783276  90.2463297  70.0904340  33.3223240
  90.7431996  69.3374302  33.0024311  89.4750278  70.1268656  32.7566450
  98.0993054  75.7944705  34.9641532  98.0882930  76.6769421  34.5935465
  97.2310433  75.4416256  34.7696069  89.6075550  84.9424774  39.3244372
  90.3203523  85.5772239  39.2520274  89.1165579  85.0388640  38.5084374
  91.3293077  78.8476027  30.8961664  90.3949356  78.9677489  30.7266368
  91.5069746  77.9448494  30.6321674  86.8298265  72.2321723  33.0494925
  86.4596053  71.6792763  33.7375831  87.3257358  71.6279856  32.4969925
  94.7165629  74.6893346  31.4311698  95.1826081  75.5221338  31.3572001
  95.1673129  74.2238328  32.1356956  84.6587464  82.6919218  40.1449943
  85.3596923  83.3255701  40.2979337  84.1882579  83.0333949  39.3845582
  92.7841860  81.0337168  28.4297850  93.0601704  80.9193762  29.3391724
  91.9146359  80.6354652  28.3910023  92.6882291  67.0573933  35.4702599
  91.7745371  67.2878160  35.6384806  93.1175393  67.1412377  36.3216632
  92.4588750  75.2463825  37.9702493  91.8060200  75.4939733  37.3154946
  92.8369130  74.4327963  37.6364971  89.4195924  85.2823518  32.0730664
  89.6018318  84.4645174  32.5358416  90.2428910  85.4991211  31.6355554
  89.7538089  84.2091704  29.3345712  90.2825856  83.6984158  28.7215874
  90.0166309  83.8934234  30.1991245  88.5076323  75.9883636  44.4568530
  87.8316960  75.8877766  45.1270906  89.3303957  75.8322850  44.9204528
  80.2555182  82.2255573  37.0781046  80.8408619  81.4799261  37.2108950
  80.0580020  82.5359530  37.9617709  83.1093837  85.2606820  32.0943488
  82.4404212  85.7452948  31.6107528  82.9706707  85.5076041  33.0086866
  87.2499106  87.2950564  38.6926146  87.8017414  87.4582185  39.4575232
  87.5905299  87.8855002  38.0206171  81.7015872  71.7148846  42.9421065
  82.3287910  71.3325923  43.5558590  80.8443790  71.4963048  43.3076758
  92.1009980  82.1211821  44.5474801  92.6449884  82.7341780  44.0529756
  91.5196825  82.6791400  45.0641814  78.4781414  73.5225275  28.8739420
  78.7734855  72.6135954  28.8206474  77.5769450  73.5013015  28.5520422
  90.3867493  85.2432539  35.6789828  90.2618633  84.4422279  35.1700774
  91.0446584  85.7378733  35.1903798  82.0075661  71.5981272  34.8566969
  81.2862247  72.2117240  34.7174442  82.7968917  72.1339037  34.7783615
  92.4502401  83.0441559  37.3069379  91.5032737  82.9246911  37.2347705
  92.7985175  82.1564057  37.3895640  84.8101975  68.9335698  41.1307620
  85.3336377  69.1797995  41.8933930  84.5914308  69.7655733  40.7110758
  80.2069256  71.2039373  28.9978745  79.8781962  70.3236752  28.8153851
  80.5608627  71.1487042  29.8855134  89.4548835  82.8394276  33.5073731
  89.3073797  81.9110983  33.6881301  90.2802328  82.8614366  33.0230806
  83.3211079  71.4912343  29.3654223  83.6607152  72.0198264  28.6432831
  83.7683200  71.8292749  30.1412789  93.0582957  83.6622834  34.5938604
  93.9829504  83.4565696  34.4563055  92.8898260  83.4139235  35.5027945
  86.0154520  69.8749393  38.8157291  85.6751340  69.0757206  39.2177971
  85.3093526  70.1751104  38.2434124  86.6670992  66.9598706  37.2684614
  87.4897061  66.4859184  37.1463504  86.9109055  67.7389190  37.7683300
  85.3079226  69.9886964  27.5647516  86.0287589  70.3668217  27.0611233
  84.6844530  70.7075841  27.6682494  89.4510349  70.6932113  28.5005848
  89.6673963  71.5756751  28.1994676  88.9704416  70.3018327  27.7711490
  84.1909570  73.6517826  35.0776593  84.0454151  73.9658130  35.9700874
  83.7134774  74.2702727  34.5247491  86.0505953  70.6420374  35.1257482
  86.0367522  69.7461468  34.7889780  86.7678381  70.6491038  35.7595768
  87.9032084  71.0757715  37.1710610  87.6449862  71.9974785  37.1694940
  87.3717124  70.6788149  37.8611074  92.8478273  84.1808502  29.9500695
  93.0215150  83.6154924  29.1974547  93.3407164  84.9809397  29.7680185
  78.6655233  76.1923171  38.0164254  78.1208701  76.9682979  38.1484528
  79.5434582  76.5393975  37.8583375  85.4542849  69.5234755  30.3945052
  85.5758760  68.5951401  30.5935940  85.1644892  69.5373441  29.4823368
  88.3234040  67.2089665  33.5311772  88.3455736  67.2728998  32.5763752
  88.7402099  66.3694174  33.7252278  98.7017664  76.9444925  31.5690995
  99.1448810  76.1952250  31.1710118  97.8244174  76.9355061  31.1864727
  93.8353445  83.4975266  27.0497593  94.5304350  84.1181959  27.2684908
  94.1776595  82.6470617  27.3249971  79.4521254  75.3193067  40.9094411
  78.7102991  75.4675702  41.4959041  79.1313999  75.5801333  40.0461160
  95.7344868  80.9474972  28.5784924  96.2596193  81.2862244  27.8534244
  95.6467221  80.0121987  28.3948059  87.3964917  84.8609045  40.7074801
  87.7052044  84.6158192  41.5797500  88.1940399  85.0655684  40.2193671
  87.4185529  87.0146955  32.9380177  86.9790519  86.5223334  33.6313034
  88.1693646  86.4719923  32.6972252  79.8977868  83.2058496  32.9404805
  80.7235888  82.9062268  32.5603449  79.5471920  82.4366118  33.3894594
  84.8659401  82.5584964  35.0102479  84.2439411  81.8955669  34.7104707
  85.5364268  82.5846096  34.3276127  78.0986473  81.1244822  33.8993739
  77.2618382  80.6966997  33.7177740  78.0710119  81.3177266  34.8364530
  84.9383929  71.0366752  44.6034985  84.9872084  71.9128875  44.2212755
  85.4806443  70.4944145  44.0306628  95.4238774  81.5807875  43.8836122
  94.6334318  81.5632014  43.3440621  95.1872129  82.1196169  44.6385159
  95.5436650  78.4300342  41.1968851  95.5934654  78.2650349  42.1384373
  95.4350573  77.5627601  40.8066731  84.4272908  81.1088887  28.4860939
  84.5761029  81.7924352  27.8327612  85.2339352  81.0893977  29.0010395
  92.8340412  74.4131270  42.5128157  93.7350275  74.2737735  42.2212155
  92.9088386  74.5785725  43.4526335  87.1683217  71.7898125  41.3581344
  86.2986527  72.0831691  41.0863932  87.4042698  72.3738570  42.0788607
  97.0454846  80.8497283  41.4410872  96.7539655  81.2127264  42.2774333
  96.4326978  80.1364292  41.2624204  98.2450529  78.4150163  33.9613442
  99.0797420  78.8539967  34.1251003  98.3809657  77.9388816  33.1421688
  95.2942035  75.9729898  39.9090930  95.7696156  76.1657544  39.1009781
  94.3707600  76.0289084  39.6634314  82.1825541  77.1354065  29.4922008
  81.9371583  76.2316395  29.6902218  82.3521456  77.1371216  28.5501486
  89.8722251  68.0077741  38.8746764  90.3904195  68.7438768  38.5493253
  89.5177384  68.3141735  39.7093523  81.4521189  72.8682423  26.9908170
  80.7590434  72.9426778  26.3348206  81.2072941  72.1042766  27.5129687
  90.1234845  64.4278024  34.3947661  90.4036599  63.7601213  35.0208087
  90.9085452  64.6207120  33.8822324  87.9268314  83.6037018  25.9572687
  87.3542281  84.2227205  25.5043159  88.5001107  84.1536380  26.4912609
  93.9943704  72.8495658  38.1419236  94.9461127  72.9493756  38.1631460
  93.8247154  72.0573927  38.6517320  92.0158083  69.9351241  38.3278637
  91.4208015  70.2156254  37.6325125  91.7307780  70.4245142  39.0995378
  91.1465574  83.8874168  27.0881269  92.0796247  83.8219730  27.2914145
  91.0588786  84.7230435  26.6295802  93.7753590  83.2040038  24.0485217
  93.6967222  82.8699902  24.9420975  94.5963257  83.6961806  24.0476689
  96.4731781  76.0701778  37.2561535  96.4408102  75.1317778  37.4421219
  97.0832405  76.1485814  36.5227360  88.3115112  74.9397831  23.2988739
  89.2574217  74.8104039  23.3677157  87.9329357  74.2012493  23.7758168
  96.6226270  72.8612821  37.3019819  96.1065319  72.0771278  37.1149747
  97.5066218  72.5331538  37.4666338  94.2836997  66.6053837  33.2615631
  94.0861818  66.2968925  34.1458963  94.8936702  67.3315476  33.3913561
 102.2908331  77.1317784  36.3967572 103.0211720  76.8703073  36.9575275
 101.6815277  76.3946506  36.4369640 100.3723628  75.2725647  36.9942023
  99.6456792  75.1381612  36.3858515  99.9570915  75.5802476  37.7998741
  88.1953805  78.9915577  44.7589396  89.1156814  79.1694176  44.9529443
  88.1603388  78.0471622  44.6069096  86.4958029  72.8647807  23.2343625
  85.5889485  72.5680920  23.3106338  86.7734010  72.5677625  22.3677911
  81.1915877  76.9016611  37.4012178  81.4101887  77.8333719  37.4200211
  81.6041651  76.5424586  38.1866981  88.1120095  67.4084697  29.3887866
  87.3020823  67.0631782  29.7643112  88.8004512  67.0992240  29.9775477
  90.0410643  66.4862744  31.0112163  90.5941682  66.9058197  31.6702186
  90.2780730  65.5598492  31.0535119  86.0643743  72.4749817  46.7914926
  85.9640470  73.4244174  46.7227018  85.8465285  72.1468056  45.9190997
  85.2656814  69.7234742  23.3755604  86.1275978  70.0489641  23.6351421
  85.4507158  68.9366238  22.8628670  93.4189451  68.5963269  30.5190827
  92.8388120  69.2548073  30.1368879  93.1525383  67.7740613  30.1078244
  91.8693017  67.9968326  32.7212147  92.3692795  68.1084861  31.9126466
  92.5128625  67.6929379  33.3612956  85.9275013  75.9046956  45.6079988
  85.4442094  76.7047316  45.8143877  86.0135952  75.9154901  44.6547432
  79.1960972  77.7375336  33.5301807  79.1731660  77.8363023  32.5783691
  79.5061609  78.5840486  33.8518974  81.8548350  79.7951491  37.6448422
  82.8091604  79.7635433  37.5778353  81.6560874  79.3342114  38.4598648
  82.4447732  78.3652607  40.2119220  83.2640621  78.8596685  40.2354057
  82.7184540  77.4484575  40.1836787  92.2014329  70.7563359  29.5747175
  91.3140184  71.0413010  29.3567370  92.6168318  70.5957122  28.7274452
  95.5528865  70.7809880  33.2901514  96.3289255  71.2706332  33.5626131
  94.8276999  71.2067934  33.7473384  97.9901423  71.4937499  34.3475455
  98.5845914  71.2533235  33.6368763  98.0628007  70.7744630  34.9748991
  80.2098579  85.3371110  34.6618620  80.0753047  84.5771511  34.0956618
  79.7930641  86.0612010  34.1947409  91.3457542  80.5208034  23.6695195
  92.0493392  80.7258036  24.2852851  90.6220191  81.0884796  23.9344279
  92.1755352  76.2717895  29.7897465  92.1190554  76.7286446  28.9505098
  92.7283695  75.5108580  29.6120308  95.9860158  72.0607627  30.6147585
  95.7297092  71.6604263  31.4455792  95.3613026  72.7751421  30.4897724
 100.2972496  74.8003700  33.1218876  99.7372054  74.8696889  33.8950438
  99.6915999  74.6244685  32.4018372  83.3667705  86.2340427  34.8737062
  83.2500089  87.1785860  34.7715753  82.5460151  85.9313989  35.2622862
  93.2544239  80.9590563  25.7193655  94.0889843  80.5271761  25.5371130
  93.0928582  80.7872577  26.6470550  92.9090132  77.4622676  27.0849994
  92.8538935  77.2966948  26.1438438  92.2836187  78.1698709  27.2412184
  77.6982647  72.6990741  40.9111417  78.3441510  72.1889695  41.3998642
  77.4899798  73.4359422  41.4854842  90.2236039  79.7671588  46.4103557
  91.0927198  79.9412240  46.0490192  89.7442790  80.5866005  46.2879287
  86.2186257  66.9630785  26.6635313  86.2064927  67.9072625  26.8203584
  87.1109679  66.7800931  26.3694774  84.3922219  86.8868689  38.0892991
  85.2949466  86.9192299  38.4059486  84.1659589  85.9569140  38.1039327
  86.1475821  85.6399676  34.7503069  85.1971452  85.6401537  34.6367442
  86.4508307  84.8932410  34.2339104  90.0338377  63.5573562  30.9181250
  89.2670772  63.0032049  31.0637932  90.4449081  63.6295431  31.7795401
  82.0380138  69.8458358  45.0086431  82.9011599  69.4895163  45.2189755
  81.4645548  69.5072253  45.6961835 101.8828514  91.4760214  35.8148832
 102.5206924  91.3566961  35.1112172 101.7649357  92.4241058  35.8736784
  98.6918221  91.4287642  35.7510357  98.3536732  91.3128707  34.8630891
  99.5607989  91.0278807  35.7311363  94.5505036  93.2823119  31.7407247
  93.9869902  93.1913056  30.9723535  94.4357432  92.4623023  32.2209740
  99.1738004  92.5822494  41.7096562  99.1626645  92.1875292  40.8377066
  99.3358643  91.8488567  42.3030334  92.0969468  94.7774310  34.5791468
  92.8890760  94.4365135  34.1637767  92.3366119  94.8869285  35.4993621
 100.1304595  96.9494086  27.0521712  99.4792575  97.5348167  26.6655726
 100.9248958  97.4800281  27.1116750  94.0560222  94.0383223  27.4508847
  94.8291098  93.4912211  27.3121723  94.4085621  94.9027473  27.6623308
  95.8945265  95.3659606  40.6575746  95.6035131  96.2705237  40.5422412
  96.5302249  95.4076133  41.3719816  96.8201472  92.7436454  37.2477106
  97.4165044  92.5192477  36.5334069  96.8776443  92.0021200  37.8502554
  96.3926500  90.1975890  25.0827297  96.6452021  89.6757411  24.3210760
  95.4551059  90.0342035  25.1853980 101.4369783  89.2011668  32.8902040
 102.2232872  88.7831091  32.5392457 101.7008487  90.1057760  33.0583688
 101.6079860  94.6384518  27.5890697 100.9725693  94.7119145  28.3011601
 101.2777267  95.2278117  26.9109776 106.8378210  89.1386901  33.7935018
 107.5703382  88.5686118  34.0272848 106.0817566  88.7508502  34.2341524
  96.1122789  92.1003996  27.2851672  95.9959047  91.4248899  27.9532756
  96.2225049  91.6136369  26.4683825  98.4554330  91.5614143  30.9898361
  98.0912537  91.0344764  31.7011282  99.3121446  91.1712612  30.8164846
 104.3603630  82.8508475  38.2529627 104.0286955  83.7203886  38.0290842
 103.7649244  82.5344759  38.9323657  98.0959817  86.5904042  25.9859709
  98.2634219  87.4584279  26.3530180  97.9056986  86.7531324  25.0620999
 100.8535150  95.0521021  37.6525540 100.5535873  95.9546060  37.5441347
 100.5086210  94.7853204  38.5046693  94.3047631  91.5034818  33.6862244
  93.3798128  91.3711032  33.8939936  94.5532045  92.2829037  34.1832187
 104.2532294  87.5703561  35.3322977 103.3449171  87.5018970  35.0381738
 104.2019890  88.0475506  36.1604803  98.0749038  89.0461700  26.9706376
  97.9548663  89.4918751  27.8091856  97.3801626  89.3947017  26.4119914
  91.6656443  91.1468092  34.5206033  91.7948824  91.4002571  35.4345445
  90.9853894  91.7395800  34.2010688  95.8355930 101.8165342  30.6196507
  95.7579959 102.7673167  30.6984988  95.2317573 101.4711214  31.2771434
  98.3273160  88.9893207  43.2757874  97.5506494  89.5487127  43.2660739
  98.9663723  89.4749990  43.7972744 106.1193940  85.7720000  37.1100851
 105.4768320  86.0652533  36.4640646 105.6148869  85.6572920  37.9154048
 103.7734104  89.5183173  27.7986710 104.6851960  89.7510560  27.6234408
 103.2643751  90.1020217  27.2361789  96.5819532  91.7978660  42.8375841
  97.3234216  92.3363704  42.5610665  95.8756517  92.4244949  42.9947393
 102.0574872  93.9407801  41.4348003 102.4658228  93.4990211  40.6902635
 101.3352133  93.3660428  41.6882196  98.4105942  88.8780408  38.8081560
  99.2567137  89.3019821  38.9516209  98.3504579  88.2214032  39.5020123
 102.3803686  94.5008991  35.1900292 101.7512549  94.6654706  34.4876360
 101.9929348  94.9150601  35.9611256 106.2592918  95.4363429  32.5444655
 105.5743956  95.8162331  31.9941689 106.3436767  96.0458756  33.2776603
 101.5605387  86.5384776  40.4662733 101.3166319  87.2926836  39.9297009
 101.8365317  86.9170124  41.3009980 103.5143850  93.0823388  39.1439999
 103.7260745  93.7255148  38.4674380 103.4673598  92.2485705  38.6761929
 101.1170079  85.6941209  36.0476571 100.2554558  85.9922463  36.3393309
 101.1432513  85.9111608  35.1157604  97.9331648  94.2383400  32.4550377
  98.3969994  94.5171103  31.6654999  97.6688446  93.3366844  32.2723467
  94.8255729  93.7854881  35.3930140  95.3957086  94.2142149  34.7547625
  95.4163841  93.5037466  36.0914326  96.8700534  90.3606552  29.2639942
  97.5724577  90.8127596  29.7313868  96.5381163  89.7190371  29.8919835
  95.3180896  88.9518309  43.6391151  94.6879556  89.6334589  43.8726548
  95.2116984  88.8401390  42.6944290  90.6125868  88.6190105  34.5657075
  89.8224922  88.8747633  34.0897186  91.1037115  89.4338442  34.6709116
 104.6289678  95.9595344  37.3162356 105.4507121  95.5575531  37.0345038
 104.6252080  95.8563578  38.2678472  92.5640613  88.9834684  31.5240552
  91.7671777  89.0953378  32.0424048  92.3366206  89.3221336  30.6581443
  98.3946281  95.5079387  39.4723067  98.4590714  95.9699794  40.3081239
  97.6857205  94.8776752  39.6005377  88.8963571  88.8720595  36.9972066
  89.1471609  89.7567605  37.2629642  89.4323119  88.6925197  36.2247158
 112.7195671  92.3034092  33.6647328 111.9659379  91.7341490  33.5091332
 112.8543212  92.2696757  34.6117962  98.1094299  97.1747495  29.3402047
  97.9739973  98.0199030  29.7686895  98.6504111  97.3766772  28.5767981
  94.5961638  83.2539074  46.0016402  94.2028584  82.7005273  46.6764047
  95.4127779  83.5649653  46.3922920  91.5623696  94.6922933  29.9129972
  92.0748217  95.4866183  30.0635537  92.2146409  93.9949223  29.8463574
  93.3718581  97.8088689  31.9952725  93.5485209  98.7306654  31.8073709
  94.1675414  97.4947108  32.4247105  97.5129599  84.6696953  43.5936659
  98.2539313  85.2704107  43.5141121  97.7447522  83.9274591  43.0354701
  92.6570937  89.8553321  41.8714889  92.5424452  88.9538578  42.1721988
  91.8015455  90.1017017  41.5199705  99.7362775  97.7971061  43.4702389
  99.2926629  97.0107440  43.1523294 100.3979989  97.9850212  42.8046280
  94.4949896  99.3266863  37.9963068  95.0457321  99.1983926  37.2240062
  93.6561372  99.6261752  37.6457961 101.8344013  98.0773861  41.4983790
 101.8162489  98.8982742  41.0064060 102.7563933  97.9527936  41.7233932
  98.2917067  95.5917990  42.3407299  98.8245404  94.8306279  42.1106607
  97.7631148  95.2991642  43.0831453 101.4586762  80.6978056  37.8700941
 101.1151032  81.5879698  37.7940051 101.8265725  80.5079714  37.0070526
  89.5272613  93.0211587  30.6889543  90.3647835  93.4308595  30.4723250
  89.7050881  92.0811029  30.6589737 101.4237045  90.6886667  26.3773376
 100.9083668  91.4591272  26.6161763 101.1514353  90.0151804  27.0006437
  99.0084156  85.5336368  31.4358614  98.1525752  85.1443219  31.2564253
  99.4211108  85.6128329  30.5758400 100.5383303  83.0682712  35.8350174
 100.0348098  83.0312847  35.0217979 100.8313910  83.9775454  35.8946831
  96.7826189  83.1521441  34.8416356  97.6479185  82.9564250  34.4822245
  96.8503697  82.9231793  35.7685712 106.3971319  93.4419022  28.3126549
 105.6200762  93.1030182  27.8681711 107.0762800  93.4471645  27.6381514
 101.2123348  88.5613760  28.2033157 100.9073484  88.8759909  29.0543300
 102.1653790  88.6395179  28.2460490  99.6569780  94.7203983  29.8526111
  99.1291142  93.9856742  29.5399348  99.1557283  95.4978659  29.6066079
 104.6362626  92.9153003  34.9693157 103.9786300  93.6052265  35.0573286
 105.4403025  93.3049435  35.3127144  94.3888508  85.3823649  32.2132722
  94.9632260  85.1598831  31.4805915  94.9759490  85.4512344  32.9661324
 103.4468085  91.2697376  33.0197099 103.9599967  91.9027368  33.5218809
 104.0969309  90.6698572  32.6540459  94.7158095  87.4128110  26.2328608
  93.8795407  87.7502797  26.5537882  94.5762864  87.2777090  25.2955745
  96.6911175  82.2564898  30.9407792  96.0375588  81.9413915  30.3164407
  96.6491649  81.6340639  31.6667615  97.8022380  92.5384193  22.8561084
  96.8949442  92.3073447  23.0552233  98.2993412  91.7421812  23.0435065
  99.9248916  88.7446832  35.2655439  99.0071477  88.9661779  35.1077128
 100.3409059  88.8193142  34.4067147 100.7083963  90.1438247  30.3958120
 101.4555782  90.6559645  30.0865242 100.9775553  89.8222300  31.2562513
  98.9810614  92.6396788  27.3785074  98.0721833  92.3555821  27.4757544
  99.0105697  93.0595867  26.5188381 104.2129881  96.2503378  31.1476242
 103.7592208  95.4094287  31.2041432 103.5823848  96.8864776  31.4851022
 103.1562801  87.1795364  32.3776909 102.4185557  86.6672750  32.7087152
 103.4089574  86.7395745  31.5660186 102.6562820  98.0879874  32.0826060
 102.9485795  98.6484931  31.3638425 103.1661441  98.3808435  32.8379219
 103.2574428  79.9571616  32.9718678 103.5633305  79.0968979  32.6844593
 103.9827033  80.5489236  32.7717672  89.5498784  90.3602302  31.3600276
  89.3523184  89.7671663  30.6351343  88.9945448  90.0554512  32.0776215
  97.5295508  90.2525409  33.4794869  97.5844117  89.2999245  33.4037346
  96.7186710  90.4084848  33.9636168  98.6786701  94.1805532  24.7173153
  98.2406131  93.4641391  24.2578790  99.4197142  94.4081647  24.1558244
  95.4687868  88.8702468  31.2385248  94.6555733  89.1696639  31.6450440
  95.9646862  88.4758157  31.9559730  97.6196445  98.8660225  33.1719513
  97.5772624  99.0921072  32.2428045  98.5359144  98.6323600  33.3205314
 101.0662079  89.3344293  40.0700142 101.4211467  89.5615766  40.9294608
 101.7134211  89.6662670  39.4477397 106.7959816  92.4562729  30.7749471
 106.6577715  92.6464325  29.8470660 106.4396035  93.2182112  31.2317522
  94.9601942  86.4420824  36.8546483  95.6001322  86.3009583  36.1569446
  94.1279473  86.1555337  36.4785085 106.8229196  94.5239256  35.7860743
 107.2565702  94.4314545  36.6343797 107.5360777  94.4996756  35.1480759
  95.7362246  95.7423254  32.9681476  96.5302845  95.2473574  32.7664051
  95.0253939  95.2141117  32.6049181 100.5557091  98.1241350  37.3193843
 100.6094113  98.6932286  38.0871559  99.6871872  98.2943235  36.9547880
  92.0445010  89.8866336  29.0441228  91.1142598  89.8250792  29.2611190
  92.1402482  89.3642289  28.2477870  91.9630559  86.4121149  31.6319470
  92.2237376  87.3266482  31.5228630  92.7847731  85.9445591  31.7816083
  93.4355484  87.8258906  38.8018295  94.1078538  87.6176268  38.1530943
  92.6085271  87.6280992  38.3623527 107.6844745  94.5662956  38.3193628
 107.8780635  95.4708767  38.5652903 107.5845364  94.1070375  39.1532213
  99.3381056  84.4520847  40.8183955  98.6908971  85.1510797  40.7248432
 100.1082072  84.8856991  41.1860204 102.7459854  94.7169699  43.8934509
 102.5945360  94.4880251  42.9764592 102.7364534  95.6740301  43.9065854
  99.5145190  92.2901612  38.8780775 100.4437250  92.4412772  38.7049742
  99.0936220  92.3785633  38.0229422  98.3133522  96.3152276  36.6479313
  98.1744608  95.9471061  37.5205251  97.5248118  96.8299916  36.4763271
  98.9081674 101.4161373  27.9904849  99.0833430 100.9449416  28.8050472
  98.2214462 102.0427139  28.2186110  99.8638737  95.6933879  34.0368151
  99.5288570  95.6534649  34.9325800  99.3642683  95.0278595  33.5638561
  93.8382981  91.1001509  39.5620732  93.7002779  90.3681748  40.1632271
  94.7487905  91.0110409  39.2804919 102.7997929  93.0389913  24.3105210
 102.1827100  92.3136742  24.2138263 102.3314418  93.7999274  23.9672284
  96.4665282  90.8121468  39.0504411  97.1764901  90.1714661  39.0091030
  96.4234590  91.0634363  39.9730592 104.4552061  97.7488822  41.9710991
 104.3964607  97.0648042  41.3041574 104.8571579  98.4907812  41.5191617
  95.1794216  87.7986686  40.8700051  94.6431573  87.3477425  41.5221647
  94.5910924  87.9332595  40.1270515  93.4742760 104.5650736  34.7644709
  93.7139358 105.1969260  35.4423728  92.6311956 104.2138776  35.0510069
  94.5896475  87.2575338  23.4326514  93.7125941  87.1364138  23.0688761
  95.0654228  86.4661416  23.1805403 104.4569468  95.7128406  40.2024970
 103.5696247  95.3754327  40.3251369 105.0268019  94.9811437  40.4393736
  86.1098615  92.0452497  33.5268022  86.7969655  91.7314227  32.9389037
  85.9546744  92.9493862  33.2535273  90.9133337  86.9342694  37.9553045
  90.8291526  86.3268364  37.2203455  90.0916044  87.4251712  37.9562542
  97.9870621 100.3729858  37.1686213  97.9140793 101.1784829  37.6805518
  97.5448014 100.5721824  36.3434235  97.7760401  99.6101628  30.6789035
  96.9927923 100.1523308  30.7727259  98.4753146 100.1275608  31.0783276
 101.0857051  85.4196257  33.3223240 101.5825751  84.6666220  33.0024311
 100.3144033  85.4560574  32.7566450 108.9386809  91.1236623  34.9641532
 108.9276685  92.0061338  34.5935465 108.0704188  90.7708174  34.7696069
 100.4469305 100.2716692  39.3244372 101.1597277 100.9064157  39.2520274
  99.9559334 100.3680558  38.5084374 102.1686832  94.1767945  30.8961664
 101.2343111  94.2969407  30.7266368 102.3463500  93.2740411  30.6321674
  97.6692020  87.5613640  33.0494925  97.2989807  87.0084681  33.7375831
  98.1651112  86.9571774  32.4969925 105.5559383  90.0185264  31.4311698
 106.0219835  90.8513256  31.3572001 106.0066884  89.5530246  32.1356956
  95.4981218  98.0211135  40.1449943  96.1990678  98.6547618  40.2979337
  95.0276333  98.3625867  39.3845582 103.6235614  96.3629085  28.4297850
 103.8995458  96.2485680  29.3391724 102.7540113  95.9646570  28.3910023
 103.5276046  82.3865851  35.4702599 102.6139126  82.6170078  35.6384806
 103.9569147  82.4704295  36.3216632 103.2982504  90.5755743  37.9702493
 102.6453955  90.8231650  37.3154946 103.6762884  89.7619881  37.6364971
 100.2589678 100.6115436  32.0730664 100.4412073  99.7937092  32.5358416
 101.0822664 100.8283128  31.6355554 100.5931844  99.5383621  29.3345712
 101.1219610  99.0276076  28.7215874 100.8560063  99.2226151  30.1991245
  99.3470077  91.3175554  44.4568530  98.6710714  91.2169683  45.1270906
 100.1697711  91.1614768  44.9204528  91.0948936  97.5547491  37.0781046
  91.6802373  96.8091178  37.2108950  90.8973775  97.8651447  37.9617709
  93.9487592 100.5898738  32.0943488  93.2797967 101.0744866  31.6107528
  93.8100461 100.8367958  33.0086866  85.6866591  90.1253091  35.7985489
  85.7250691  89.5916681  36.5922607  85.1806884  89.5988296  35.1796466
  98.0892860 102.6242481  38.6926146  98.6411168 102.7874103  39.4575232
  98.4299054 103.2146919  38.0206171  93.0657354  84.9717631  39.2948031
  93.1298680  85.8332462  38.8825429  93.0024474  84.3591633  38.5620390
  92.5409626  87.0440764  42.9421065  93.1681665  86.6617841  43.5558590
  91.6837545  86.8254966  43.3076758 102.9403735  97.4503739  44.5474801
 103.4843639  98.0633697  44.0529756 102.3590579  98.0083317  45.0641814
  89.3175169  88.8517193  28.8739420  89.6128610  87.9427871  28.8206474
  88.4163205  88.8304932  28.5520422 101.2261248 100.5724457  35.6789828
 101.1012387  99.7714197  35.1700774 101.8840339 101.0670650  35.1903798
  92.8469416  86.9273189  34.8566969  92.1256002  87.5409157  34.7174442
  93.6362672  87.4630954  34.7783615 103.2896156  98.3733477  37.3069379
 102.3426491  98.2538828  37.2347705 103.6378929  97.4855975  37.3895640
  95.6495729  84.2627616  41.1307620  96.1730131  84.5089913  41.8933930
  95.4308063  85.0947651  40.7110758  91.0463010  86.5331291  28.9978745
  90.7175717  85.6528669  28.8153851  91.4002381  86.4778959  29.8855134
 100.2942589  98.1686193  33.5073731 100.1467552  97.2402901  33.6881301
 101.1196083  98.1906284  33.0230806  94.1604834  86.8204260  29.3654223
  94.5000906  87.3490182  28.6432831  94.6076954  87.1584666  30.1412789
 103.8976711  98.9914752  34.5938604 104.8223259  98.7857613  34.4563055
 103.7292014  98.7431153  35.5027945  96.8548274  85.2041311  38.8157291
  96.5145095  84.4049124  39.2177971  96.1487281  85.5043022  38.2434124
  97.5064746  82.2890623  37.2684614  98.3290816  81.8151102  37.1463504
  97.7502810  83.0681107  37.7683300  96.1472981  85.3178882  27.5647516
  96.8681343  85.6960135  27.0611233  95.5238285  86.0367759  27.6682494
 100.2904104  86.0224031  28.5005848 100.5067718  86.9048669  28.1994676
  99.8098171  85.6310244  27.7711490  95.0303325  88.9809744  35.0776593
  94.8847906  89.2950047  35.9700874  94.5528529  89.5994644  34.5247491
  96.8899708  85.9712292  35.1257482  96.8761277  85.0753385  34.7889780
  97.6072136  85.9782956  35.7595768  98.7425839  86.4049632  37.1710610
  98.4843616  87.3266703  37.1694940  98.2110879  86.0080067  37.8611074
 103.6872027  99.5100419  29.9500695 103.8608905  98.9446842  29.1974547
 104.1800919 100.3101314  29.7680185  89.5048987  91.5215089  38.0164254
  88.9602455  92.2974897  38.1484528  90.3828337  91.8685893  37.8583375
  96.2936604  84.8526672  30.3945052  96.4152515  83.9243319  30.5935940
  96.0038646  84.8665358  29.4823368  99.1627794  82.5381583  33.5311772
  99.1849491  82.6020916  32.5763752  99.5795853  81.6986091  33.7252278
 109.5411418  92.2736842  31.5690995 109.9842565  91.5244168  31.1710118
 108.6637929  92.2646979  31.1864727 104.6747200  98.8267184  27.0497593
 105.3698104  99.4473877  27.2684908 105.0170350  97.9762535  27.3249971
  90.2915009  90.6484985  40.9094411  89.5496745  90.7967620  41.4959041
  89.9707753  90.9093250  40.0461160 106.5738623  96.2766889  28.5784924
 107.0989947  96.6154162  27.8534244 106.4860975  95.3413905  28.3948059
  98.2358672 100.1900963  40.7074801  98.5445798  99.9450110  41.5797500
  99.0334154 100.3947602  40.2193671  98.2579284 102.3438873  32.9380177
  97.8184274 101.8515251  33.6313034  99.0087401 101.8011840  32.6972252
  90.7371623  98.5350414  32.9404805  91.5629643  98.2354185  32.5603449
  90.3865675  97.7658036  33.3894594  95.7053156  97.8876882  35.0102479
  95.0833165  97.2247587  34.7104707  96.3758023  97.9138014  34.3276127
  88.9380228  96.4536740  33.8993739  88.1012136  96.0258914  33.7177740
  88.9103873  96.6469183  34.8364530  95.7777683  86.3658670  44.6034985
  95.8265839  87.2420793  44.2212755  96.3200198  85.8236063  44.0306628
 106.2632529  96.9099793  43.8836122 105.4728073  96.8923932  43.3440621
 106.0265884  97.4488087  44.6385159 106.3830404  93.7592259  41.1968851
 106.4328409  93.5942267  42.1384373 106.2744327  92.8919518  40.8066731
  95.2666663  96.4380805  28.4860939  95.4154783  97.1216269  27.8327612
  96.0733106  96.4185895  29.0010395 103.6734166  89.7423187  42.5128157
 104.5744029  89.6029652  42.2212155 103.7482141  89.9077642  43.4526335
  98.0076972  87.1190042  41.3581344  97.1380281  87.4123608  41.0863932
  98.2436452  87.7030487  42.0788607 107.8848601  96.1789201  41.4410872
 107.5933409  96.5419181  42.2774333 107.2720732  95.4656209  41.2624204
 109.0844283  93.7442081  33.9613442 109.9191175  94.1831885  34.1251003
 109.2203412  93.2680734  33.1421688 106.1335789  91.3021816  39.9090930
 106.6089911  91.4949462  39.1009781 105.2101354  91.3581001  39.6634314
  93.0219296  92.4645983  29.4922008  92.7765338  91.5608313  29.6902218
  93.1915210  92.4663133  28.5501486 100.7116006  83.3369659  38.8746764
 101.2297949  84.0730686  38.5493253 100.3571138  83.6433652  39.7093523
  92.2914943  88.1974340  26.9908170  91.5984188  88.2718695  26.3348206
  92.0466695  87.4334684  27.5129687 100.9628600  79.7569942  34.3947661
 101.2430354  79.0893131  35.0208087 101.7479207  79.9499037  33.8822324
  98.7662068  98.9328936  25.9572687  98.1936035  99.5519123  25.5043159
  99.3394862  99.4828297  26.4912609 104.8337458  88.1787576  38.1419236
 105.7854881  88.2785673  38.1631460 104.6640909  87.3865844  38.6517320
 102.8551838  85.2643159  38.3278637 102.2601770  85.5448172  37.6325125
 102.5701534  85.7537060  39.0995378 101.9859328  99.2166086  27.0881269
 102.9190001  99.1511647  27.2914145 101.8982541 100.0522353  26.6295802
 107.3125536  91.3993695  37.2561535 107.2801856  90.4609696  37.4421219
 107.9226160  91.4777732  36.5227360  99.1508867  90.2689748  23.2988739
 100.0967971  90.1395956  23.3677157  98.7723112  89.5304410  23.7758168
 107.4620024  88.1904739  37.3019819 106.9459073  87.4063195  37.1149747
 108.3459973  87.8623455  37.4666338 105.1230751  81.9345754  33.2615631
 104.9255572  81.6260843  34.1458963 105.7330457  82.6607393  33.3913561
 113.1302086  92.4609702  36.3967572 113.8605474  92.1994990  36.9575275
 112.5209031  91.7238424  36.4369640 111.2117383  90.6017565  36.9942023
 110.4850546  90.4673530  36.3858515 110.7964670  90.9094393  37.7998741
  99.0347559  94.3207494  44.7589396  99.9550569  94.4986093  44.9529443
  98.9997142  93.3763540  44.6069096  97.3351784  88.1939725  23.2343625
  96.4283239  87.8972837  23.3106338  97.6127765  87.8969543  22.3677911
  88.2529724  89.5146088  33.6842671  87.9332509  88.6611396  33.3917045
  87.7063152  89.7294666  34.4400638  92.0309632  92.2308529  37.4012178
  92.2495642  93.1625637  37.4200211  92.4435406  91.8716503  38.1866981
  98.9513850  82.7376614  29.3887866  98.1414578  82.3923699  29.7643112
  99.6398267  82.4284158  29.9775477 100.8804398  81.8154661  31.0112163
 101.4335437  82.2350115  31.6702186 101.1174484  80.8890409  31.0535119
  96.9037497  87.8041735  46.7914926  96.8034224  88.7536092  46.7227018
  96.6859039  87.4759974  45.9190997  96.1050569  85.0526660  23.3755604
  96.9669733  85.3781558  23.6351421  96.2900913  84.2658156  22.8628670
  88.1217984  93.1349000  35.6535793  87.4281456  92.7202952  35.1405747
  88.8690975  93.1769536  35.0569211 104.2583205  83.9255186  30.5190827
 103.6781874  84.5839990  30.1368879 103.9919138  83.1032531  30.1078244
 102.7086771  83.3260244  32.7212147 103.2086550  83.4376779  31.9126466
 103.3522379  83.0221297  33.3612956  96.7668767  91.2338874  45.6079988
  96.2835849  92.0339234  45.8143877  96.8529706  91.2446819  44.6547432
  90.0354727  93.0667253  33.5301807  90.0125415  93.1654941  32.5783691
  90.3455363  93.9132404  33.8518974  92.6942105  95.1243408  37.6448422
  93.6485358  95.0927351  37.5778353  92.4954628  94.6634032  38.4598648
  93.2841487  93.6944524  40.2119220  94.1034376  94.1888603  40.2354057
  93.5578295  92.7776493  40.1836787 103.0408083  86.0855277  29.5747175
 102.1533938  86.3704927  29.3567370 103.4562072  85.9249040  28.7274452
 106.3922619  86.1101798  33.2901514 107.1683009  86.5998250  33.5626131
 105.6670753  86.5359852  33.7473384 108.8295178  86.8229417  34.3475455
 109.4239669  86.5825153  33.6368763 108.9021761  86.1036548  34.9748991
  91.0492333 100.6663028  34.6618620  90.9146801  99.9063429  34.0956618
  90.6324396 101.3903928  34.1947409 103.0149107  91.6009813  29.7897465
 102.9584308  92.0578364  28.9505098 103.5677449  90.8400497  29.6120308
 106.8253913  87.3899545  30.6147585 106.5690847  86.9896180  31.4455792
 106.2006781  88.1043338  30.4897724 111.1366251  90.1295618  33.1218876
 110.5765809  90.1988807  33.8950438 110.5309754  89.9536602  32.4018372
  94.2061459 101.5632345  34.8737062  94.0893844 102.5077777  34.7715753
  93.3853906 101.2605906  35.2622862 104.0937994  96.2882481  25.7193655
 104.9283598  95.8563679  25.5371130 103.9322337  96.1164494  26.6470550
 103.7483886  92.7914594  27.0849994 103.6932690  92.6258865  26.1438438
 103.1229941  93.4990627  27.2412184  88.5376401  88.0282658  40.9111417
  89.1835265  87.5181612  41.3998642  88.3293552  88.7651340  41.4854842
 101.0629793  95.0963506  46.4103557 101.9320953  95.2704158  46.0490192
 100.5836545  95.9157923  46.2879287  97.0580012  82.2922703  26.6635313
  97.0458681  83.2364543  26.8203584  97.9503433  82.1092848  26.3694774
  95.2315973 102.2160607  38.0892991  96.1343220 102.2484217  38.4059486
  95.0053344 101.2861058  38.1039327  96.9869576 100.9691593  34.7503069
  96.0365207 100.9693455  34.6367442  97.2902062 100.2224328  34.2339104
 100.8732131  78.8865480  30.9181250 100.1064527  78.3323966  31.0637932
 101.2842836  78.9587348  31.7795401  92.8773892  85.1750275  45.0086431
  93.7405354  84.8187080  45.2189755  92.3039303  84.8364170  45.6961835
 112.7222269 106.8052132  35.8148832 113.3600679 106.6858879  35.1112172
 112.6043112 107.7532976  35.8736784 109.5311975 106.7579560  35.7510357
 109.1930487 106.6420625  34.8630891 110.4001743 106.3570725  35.7311363
 110.0131758 107.9114412  41.7096562 110.0020399 107.5167210  40.8377066
 110.1752398 107.1780484  42.3030334 102.9363223 110.1066228  34.5791468
 103.7284515 109.7657052  34.1637767 103.1759873 110.2161203  35.4993621
 106.7339019 110.6951523  40.6575746 106.4428885 111.5997154  40.5422412
 107.3696004 110.7368051  41.3719816 107.6595226 108.0728372  37.2477106
 108.2558799 107.8484394  36.5334069 107.7170198 107.3313117  37.8502554
 115.1997385  98.1800393  38.2529627 114.8680710  99.0495804  38.0290842
 114.6042998  97.8636677  38.9323657 105.1441386 106.8326736  33.6862244
 104.2191882 106.7002950  33.8939936 105.3925799 107.6120955  34.1832187
 115.0926048 102.8995479  35.3322977 114.1842926 102.8310887  35.0381738
 115.0413644 103.3767424  36.1604803 102.5050197 106.4760009  34.5206033
 102.6342578 106.7294488  35.4345445 101.8247648 107.0687717  34.2010688
 109.1666914 104.3185125  43.2757874 108.3900248 104.8779045  43.2660739
 109.8057477 104.8041908  43.7972744 116.9587695 101.1011917  37.1100851
 116.3162075 101.3944451  36.4640646 116.4542623 100.9864838  37.9154048
 107.4213286 107.1270578  42.8375841 108.1627971 107.6655622  42.5610665
 106.7150272 107.7536867  42.9947393 112.8968626 109.2699718  41.4348003
 113.3051982 108.8282129  40.6902635 112.1745888 108.6952346  41.6882196
 109.2499696 104.2072325  38.8081560 110.0960891 104.6311739  38.9516209
 109.1898334 103.5505950  39.5020123 112.3999141 101.8676694  40.4662733
 112.1560073 102.6218754  39.9297009 112.6759072 102.2462041  41.3009980
 111.9563833 101.0233127  36.0476571 111.0948312 101.3214380  36.3393309
 111.9826268 101.2403526  35.1157604 105.6649484 109.1146799  35.3930140
 106.2350841 109.5434067  34.7547625 106.2557595 108.8329383  36.0914326
 106.1574650 104.2810226  43.6391151 105.5273311 104.9626507  43.8726548
 106.0510738 104.1693308  42.6944290 101.4519623 103.9482022  34.5657075
 100.6618677 104.2039551  34.0897186 101.9430870 104.7630360  34.6709116
 103.4034368 104.3126601  31.5240552 102.6065531 104.4245296  32.0424048
 103.1759960 104.6513254  30.6581443 109.2340036 110.8371305  39.4723067
 109.2984468 111.2991712  40.3081239 108.5250959 110.2068670  39.6005377
  99.7357326 104.2012513  36.9972066  99.9865364 105.0859523  37.2629642
 100.2716874 104.0217114  36.2247158 105.4355393  98.5830992  46.0016402
 105.0422338  98.0297191  46.6764047 106.2521533  98.8941571  46.3922920
 108.3523354  99.9988871  43.5936659 109.0933067 100.5996024  43.5141121
 108.5841277  99.2566509  43.0354701 103.4964692 105.1845238  41.8714889
 103.3818207 104.2830496  42.1721988 102.6409210 105.4308935  41.5199705
 105.3343651 114.6558780  37.9963068 105.8851076 114.5275844  37.2240062
 104.4955127 114.9553669  37.6457961 109.1310822 110.9209908  42.3407299
 109.6639159 110.1598196  42.1106607 108.6024903 110.6283560  43.0831453
 112.2980517  96.0269974  37.8700941 111.9544786  96.9171616  37.7940051
 112.6659479  95.8371632  37.0070526 109.8477911 100.8628286  31.4358614
 108.9919507 100.4735136  31.2564253 110.2604862 100.9420247  30.5758400
 111.3777057  98.3974629  35.8350174 110.8741853  98.3604764  35.0217979
 111.6707664  99.3067372  35.8946831 107.6219943  98.4813359  34.8416356
 108.4872940  98.2856168  34.4822245 107.6897452  98.2523711  35.7685712
 105.2282262 100.7115567  32.2132722 105.8026014 100.4890748  31.4805915
 105.8153245 100.7804261  32.9661324 107.5304930  97.5856816  30.9407792
 106.8769342  97.2705833  30.3164407 107.4885404  96.9632556  31.6667615
 110.7642670 104.0738749  35.2655439 109.8465232 104.2953696  35.1077128
 111.1802814 104.1485060  34.4067147 114.0968182  95.2863533  32.9718678
 114.4027059  94.4260897  32.6844593 114.8220787  95.8781153  32.7717672
 100.3892539 105.6894220  31.3600276 100.1916938 105.0963581  30.6351343
  99.8339203 105.3846430  32.0776215 108.3689262 105.5817326  33.4794869
 108.4237872 104.6291163  33.4037346 107.5580464 105.7376765  33.9636168
 106.3081622 104.1994386  31.2385248 105.4949488 104.4988557  31.6450440
 106.8040616 103.8050075  31.9559730 111.9055834 104.6636211  40.0700142
 112.2605221 104.8907684  40.9294608 112.5527965 104.9954587  39.4477397
 105.7995697 101.7712742  36.8546483 106.4395076 101.6301501  36.1569446
 104.9673227 101.4847255  36.4785085 102.8024313 101.7413067  31.6319470
 103.0631131 102.6558400  31.5228630 103.6241486 101.2737509  31.7816083
 104.2749239 103.1550824  38.8018295 104.9472292 102.9468186  38.1530943
 103.4479025 102.9572910  38.3623527 110.1774811  99.7812765  40.8183955
 109.5302726 100.4802714  40.7248432 110.9475826 100.2148909  41.1860204
 110.3538945 107.6193530  38.8780775 111.2831005 107.7704689  38.7049742
 109.9329975 107.7077550  38.0229422 109.1527277 111.6444194  36.6479313
 109.0138362 111.2762978  37.5205251 108.3641873 112.1591833  36.4763271
 104.6776736 106.4293427  39.5620732 104.5396534 105.6973666  40.1632271
 105.5881659 106.3402327  39.2804919 107.3059037 106.1413386  39.0504411
 108.0158655 105.5006578  39.0091030 107.2628345 106.3926281  39.9730592
 106.0187970 103.1278604  40.8700051 105.4825328 102.6769342  41.5221647
 105.4304679 103.2624513  40.1270515  96.9492370 107.3744415  33.5268022
  97.6363409 107.0606145  32.9389037  96.7940498 108.2785780  33.2535273
 101.7527092 102.2634612  37.9553045 101.6685280 101.6560281  37.2203455
 100.9309798 102.7543630  37.9562542 111.9250806 100.7488175  33.3223240
 112.4219505  99.9958137  33.0024311 111.1537787 100.7852492  32.7566450
 108.5085774 102.8905558  33.0494925 108.1383562 102.3376599  33.7375831
 109.0044867 102.2863692  32.4969925 106.3374973 113.3503053  40.1449943
 107.0384432 113.9839536  40.2979337 105.8670088 113.6917785  39.3845582
 114.3669800  97.7157769  35.4702599 113.4532880  97.9461995  35.6384806
 114.7962902  97.7996213  36.3216632 114.1376259 105.9047661  37.9702493
 113.4847709 106.1523568  37.3154946 114.5156639 105.0911799  37.6364971
 110.1863832 106.6467472  44.4568530 109.5104469 106.5461601  45.1270906
 111.0091466 106.4906685  44.9204528 101.9342691 112.8839408  37.0781046
 102.5196128 112.1383096  37.2108950 101.7367529 113.1943365  37.9617709
  96.5260346 105.4545008  35.7985489  96.5644445 104.9208599  36.5922607
  96.0200639 104.9280214  35.1796466 103.9051108 100.3009549  39.2948031
 103.9692435 101.1624380  38.8825429 103.8418228  99.6883551  38.5620390
 103.3803381 102.3732681  42.9421065 104.0075419 101.9909759  43.5558590
 102.5231299 102.1546883  43.3076758 100.1568923 104.1809111  28.8739420
 100.4522364 103.2719789  28.8206474  99.2556959 104.1596850  28.5520422
 103.6863170 102.2565107  34.8566969 102.9649756 102.8701075  34.7174442
 104.4756426 102.7922872  34.7783615 106.4889484  99.5919534  41.1307620
 107.0123886  99.8381830  41.8933930 106.2701817 100.4239568  40.7110758
 101.8856765 101.8623208  28.9978745 101.5569471 100.9820587  28.8153851
 102.2396136 101.8070877  29.8855134 107.6942029 100.5333229  38.8157291
 107.3538849  99.7341042  39.2177971 106.9881035 100.8334940  38.2434124
 108.3458501  97.6182541  37.2684614 109.1684570  97.1443019  37.1463504
 108.5896564  98.3973025  37.7683300 105.8697079 104.3101662  35.0776593
 105.7241660 104.6241965  35.9700874 105.3922283 104.9286562  34.5247491
 107.7293462 101.3004210  35.1257482 107.7155031 100.4045303  34.7889780
 108.4465890 101.3074874  35.7595768 109.5819593 101.7341550  37.1710610
 109.3237371 102.6558621  37.1694940 109.0504633 101.3371985  37.8611074
 100.3442742 106.8507006  38.0164254  99.7996210 107.6266814  38.1484528
 101.2222091 107.1977811  37.8583375 107.1330358 100.1818590  30.3945052
 107.2546269  99.2535236  30.5935940 106.8432401 100.1957276  29.4823368
 110.0021549  97.8673501  33.5311772 110.0243245  97.9312834  32.5763752
 110.4189608  97.0278009  33.7252278 101.1308763 105.9776902  40.9094411
 100.3890500 106.1259538  41.4959041 100.8101508 106.2385168  40.0461160
  99.7773982 111.7828658  33.8993739  98.9405890 111.3550832  33.7177740
  99.7497628 111.9761101  34.8364530 106.6171438 101.6950587  44.6034985
 106.6659593 102.5712710  44.2212755 107.1593952 101.1527981  44.0306628
 114.5127921 105.0715105  42.5128157 115.4137784 104.9321570  42.2212155
 114.5875895 105.2369560  43.4526335 108.8470726 102.4481960  41.3581344
 107.9774036 102.7415526  41.0863932 109.0830207 103.0322405  42.0788607
 111.5509760  98.6661577  38.8746764 112.0691704  99.4022604  38.5493253
 111.1964893  98.9725570  39.7093523 111.8022354  95.0861859  34.3947661
 112.0824108  94.4185048  35.0208087 112.5872961  95.2790955  33.8822324
 115.6731213 103.5079493  38.1419236 116.6248635 103.6077591  38.1631460
 115.5034663 102.7157762  38.6517320 113.6945592 100.5935077  38.3278637
 113.0995524 100.8740089  37.6325125 113.4095289 101.0828977  39.0995378
 118.3013779 103.5196656  37.3019819 117.7852828 102.7355113  37.1149747
 119.1853727 103.1915373  37.4666338 115.9624506  97.2637672  33.2615631
 115.7649327  96.9552760  34.1458963 116.5724211  97.9899311  33.3913561
 109.8741314 109.6499412  44.7589396 110.7944323 109.8278011  44.9529443
 109.8390897 108.7055457  44.6069096  99.0923479 104.8438006  33.6842671
  98.7726263 103.9903314  33.3917045  98.5456907 105.0586584  34.4400638
 102.8703386 107.5600447  37.4012178 103.0889396 108.4917555  37.4200211
 103.2829160 107.2008421  38.1866981 109.7907604  98.0668532  29.3887866
 108.9808332  97.7215617  29.7643112 110.4792021  97.7576076  29.9775477
 111.7198152  97.1446579  31.0112163 112.2729191  97.5642032  31.6702186
 111.9568239  96.2182327  31.0535119 107.7431252 103.1333653  46.7914926
 107.6427979 104.0828009  46.7227018 107.5252794 102.8051891  45.9190997
  98.9611739 108.4640917  35.6535793  98.2675210 108.0494870  35.1405747
  99.7084730 108.5061454  35.0569211 113.5480526  98.6552162  32.7212147
 114.0480304  98.7668696  31.9126466 114.1916134  98.3513215  33.3612956
 107.6062522 106.5630791  45.6079988 107.1229603 107.3631151  45.8143877
 107.6923461 106.5738736  44.6547432 100.8748481 108.3959171  33.5301807
 100.8519169 108.4946858  32.5783691 101.1849118 109.2424322  33.8518974
 103.5335859 110.4535326  37.6448422 104.4879113 110.4219268  37.5778353
 103.3348383 109.9925950  38.4598648 104.1235241 109.0236442  40.2119220
 104.9428130 109.5180521  40.2354057 104.3972049 108.1068410  40.1836787
  99.3770156 103.3574576  40.9111417 100.0229019 102.8473530  41.3998642
  99.1687307 104.0943258  41.4854842 111.7125885  94.2157397  30.9181250
 110.9458281  93.6615884  31.0637932 112.1236590  94.2879266  31.7795401
 103.7167647 100.5042193  45.0086431 104.5799108 100.1478998  45.2189755
 103.1433057 100.1656088  45.6961835  50.2583290  -1.8908644  28.6956297
  50.1995836  -2.5749424  28.0286880  50.6602808  -1.1489654  28.2436923
  48.7434963  -2.1893727  31.2720107  49.2874867  -1.5763769  30.7775062
  48.1621808  -1.6314148  31.7887120  52.0663758  -2.7297673  30.6081429
  51.2759301  -2.7473534  30.0685928  51.8297112  -2.1909379  31.3630465
  53.6879830  -3.4608265  28.1656179  53.3964638  -3.0978284  29.0019640
  53.0751961  -4.1741257  27.9869511  46.8661022  -4.5433960  33.1348864
  47.7352182  -4.3693308  32.7735499  46.3867774  -3.7239543  33.0124593
  58.5253498   7.1654666  22.5394138  59.1631908   7.0461413  21.8357479
  58.4074341   8.1135510  22.5982091  55.3343204   7.1182094  22.4755663
  54.9961716   7.0023159  21.5876198  56.2032972   6.7173259  22.4556669
  55.8162987   8.2716946  28.4341869  55.8051628   7.8769744  27.5622372
  55.9783627   7.5383018  29.0275640  48.7394452  10.4668762  21.3036775
  49.5315744  10.1259587  20.8883074  48.9791102  10.5763737  22.2238928
  52.5370248  11.0554058  27.3821053  52.2460114  11.9599688  27.2667719
  53.1727233  11.0970585  28.0965122  53.4626455   8.4330906  23.9722412
  54.0590027   8.2086929  23.2579375  53.5201427   7.6915652  24.5747860
  63.4803193   4.8281353  20.5180325  64.2128365   4.2580570  20.7518155
  62.7242549   4.4402953  20.9586831  61.0028614  -1.4597073  24.9774934
  60.6711939  -0.5901662  24.7536149  60.4074227  -1.7760789  25.6568964
  57.4960133  10.7415473  24.3770846  57.1960856  11.6440512  24.2686654
  57.1511193  10.4747656  25.2291999  60.8957277   3.2598013  22.0568284
  59.9874154   3.1913422  21.7627045  60.8444873   3.7369958  22.8850109
  52.4780913  17.5059793  17.3441814  52.4004943  18.4567619  17.4230295
  51.8742557  17.1605666  18.0016740  54.9698143   4.6787659  30.0003181
  54.1931477   5.2381579  29.9906046  55.6088706   5.1644442  30.5218051
  62.7618923   1.4614452  23.8346158  62.1193304   1.7546985  23.1885952
  62.2573852   1.3467372  24.6399354  53.2244515   7.4873112  29.5621148
  53.9659200   8.0258156  29.2855972  52.5181501   8.1139401  29.7192700
  58.6999855   9.6302253  28.1593309  59.1083211   9.1884663  27.4147942
  57.9777116   9.0554880  28.4127502  55.0530925   4.5674859  25.5326866
  55.8992120   4.9914273  25.6761515  54.9929563   3.9108484  26.2265429
  59.0228669  10.1903443  21.9145598  58.3937532  10.3549157  21.2121666
  58.6354332  10.6045053  22.6856562  62.9017901  11.1257881  19.2689962
  62.2168940  11.5056783  18.7186995  62.9861751  11.7353208  20.0021910
  58.2030370   2.2279228  27.1908040  57.9591302   2.9821288  26.6542316
  58.4790301   2.6064575  28.0255287  60.1568833   8.7717840  25.8685306
  60.3685728   9.4149600  25.1919687  60.1098581   7.9380157  25.4007236
  51.4680712   9.4749333  22.1175447  52.0382069   9.9036601  21.4792931
  52.0588824   9.1931918  22.8159632  51.9605879   4.6412760  30.3636458
  51.3304539   5.3229041  30.5971855  51.8541967   4.5295842  29.4189596
  61.2714661  11.6489796  24.0407663  62.0932105  11.2469983  23.7590345
  61.2677064  11.5458030  24.9923779  55.0371264  11.1973839  26.1968373
  55.1015697  11.6594246  27.0326545  54.3282188  10.5671204  26.3250683
  69.3620654   7.9928544  20.3892634  68.6084362   7.4235942  20.2336639
  69.4968195   7.9591209  21.3363269  51.2386622  -1.0566474  32.7261709
  50.8453567  -1.6100275  33.4009353  52.0552762  -0.7455895  33.1168227
  54.1554583   0.3591405  30.3181966  54.8964296   0.9598558  30.2386428
  54.3872505  -0.3830957  29.7600008  49.2995921   5.5447773  28.5960195
  49.1849436   4.6433030  28.8967294  48.4440438   5.7911469  28.2445012
  56.3787758  13.4865513  30.1947696  55.9351613  12.7001891  29.8768600
  57.0404972  13.6744663  29.5291587  51.1374880  15.0161314  24.7208374
  51.6882305  14.8878378  23.9485368  50.2986355  15.3156204  24.3703267
  58.4768996  13.7668313  28.2229097  58.4587472  14.5877194  27.7309366
  59.3988917  13.6422388  28.4479238  54.9342051  11.2812442  29.0652605
  55.4670387  10.5200731  28.8351913  54.4056132  10.9886094  29.8076760
  61.2787609   8.6047455  21.6938464  60.6211284   9.2946717  21.7818592
  62.0828009   8.9943887  22.0372450  60.0893068   6.9591828  19.7442406
  60.6024950   7.5921820  20.2464115  60.7394292   6.3593023  19.3785766
  56.5673899   4.4341284  21.9900746  55.6496460   4.6556231  21.8322434
  56.9834043   4.5087594  21.1312453  60.8554864  11.9397829  17.8721548
  60.4017191  11.0988739  17.9286739  60.2248831  12.5759228  18.2096328
  59.2987804  13.7774326  18.8071366  59.5910778  14.3379383  18.0883732
  59.8086424  14.0702887  19.5624525  54.2621429  14.5554677  19.8964820
  54.2197608  14.7815524  18.9673352  55.1784128  14.3218052  20.0450621
  57.7087063   5.0238745  26.7945449  58.0636450   5.2510218  27.6539914
  58.3559194   5.3557122  26.1722704  63.4384800   8.1457181  17.4994778
  63.3002698   8.3358777  16.5715967  63.0821018   8.9076563  17.9562829
  63.4654179  10.2133708  22.5106049  63.8990686  10.1208997  23.3589103
  64.1785760  10.1891208  21.8726065  57.1982074  13.8135802  24.0439150
  57.2519096  14.3826738  24.8116866  56.3296855  13.9837687  23.6793187
  50.0780467   3.5153358  25.5263601  50.7503521   3.3070720  24.8776250
  49.2510254   3.3175444  25.0868833  64.3269729  10.2557408  25.0438935
  64.5205619  11.1603219  25.2898210  64.2270347   9.7964827  25.8777520
  55.9806039   0.1415299  27.5429262  55.3333954   0.8405249  27.4493738
  56.7507055   0.5751443  27.9105510  59.3884837  10.4064151  30.6179815
  59.2370344  10.1774703  29.7009899  59.3789517  11.3634752  30.6311160
  56.1570174   7.9796064  25.6026082  57.0862234   8.1307223  25.4295049
  55.7361204   8.0680085  24.7474728  54.9558506  12.0046728  23.3724619
  54.8169591  11.6365513  24.2450557  54.1673102  12.5194368  23.2008577
  55.5506658  17.1055825  14.7150156  55.7258413  16.6343868  15.5295779
  54.8639446  17.7321591  14.9431417  56.5063721  11.3828331  20.7613457
  56.1713553  11.3429101  21.6571107  56.0067666  10.7173047  20.2883867
  50.4807965   6.7895961  26.2866038  50.3427763   6.0576200  26.8877577
  51.3912888   6.7004861  26.0050226  53.1090265   6.5015920  25.7749718
  53.8189884   5.8609112  25.7336336  53.0659573   6.7528815  26.6975899
  61.0977044  13.4383274  28.6956297  61.0389590  12.7542494  28.0286880
  61.4996562  14.1802264  28.2436923  51.8219199   3.4881138  27.5945357
  51.2856556   3.0371877  28.2466954  51.2335908   3.6227047  26.8515822
  50.1167743  20.2545187  21.4890016  50.3564341  20.8863712  22.1669035
  49.2736939  19.9033227  21.7755375  61.0994451  11.4022858  26.9270277
  60.2121230  11.0648779  27.0496676  61.6693002  10.6705889  27.1639042
  54.6295605  16.0624310  23.8931520  54.5565776  16.8679281  24.4050825
  54.1872998  16.2616276  23.0679541  54.4185384  15.2996080  17.4034342
  53.6352906  15.8417760  17.4972566  55.1178129  15.8170060  17.8028583
  65.5811792   6.8131075  21.6886838  65.5701668   7.6955790  21.3180772
  64.7129171   6.4602626  21.4941376  57.0894288  15.9611144  26.0489679
  57.8022260  16.5958609  25.9765580  56.5984317  16.0575010  25.2329681
  52.1406202  13.7105587  26.8695250  52.8415661  14.3442070  27.0224644
  51.6701317  14.0520319  26.1090889  59.9407488   6.2650195  24.6947800
  59.2878938   6.5126102  24.0400253  60.3187868   5.4514333  24.3610277
  56.9014662  16.3009888  18.7975970  57.0837056  15.4831544  19.2603722
  57.7247648  16.5177580  18.3600860  57.2356827  15.2278073  16.0591019
  57.7644593  14.7170528  15.4461181  57.4985047  14.9120603  16.9236552
  55.9895061   7.0070006  31.1813837  55.3135698   6.9064135  31.8516212
  56.8122695   6.8509220  31.6449834  47.7373920  13.2441942  23.8026352
  48.3227357  12.4985630  23.9354256  47.5398758  13.5545899  24.6863016
  50.5912575  16.2793190  18.8188795  49.9222950  16.7639317  18.3352835
  50.4525445  16.5262410  19.7332173  54.7317844  18.3136933  25.4171453
  55.2836152  18.4768555  26.1820538  55.0724037  18.9041371  24.7451478
  49.1834609   2.7335216  29.6666372  49.8106648   2.3512293  30.2803896
  48.3262528   2.5149418  30.0322064  59.5828718  13.1398191  31.2720107
  60.1268622  13.7528149  30.7775062  59.0015563  13.6977769  31.7887120
  57.8686231  16.2618909  22.4035135  57.7437370  15.4608649  21.8946081
  58.5265322  16.7565102  21.9149105  59.9321139  14.0627929  24.0314685
  58.9851475  13.9433280  23.9593012  60.2803912  13.1750427  24.1140947
  52.2920713  -0.0477932  27.8552927  52.8155114   0.1984364  28.6179236
  52.0733046   0.7842103  27.4356064  56.9367573  13.8580645  20.2319037
  56.7892535  12.9297353  20.4126607  57.7621066  13.8800736  19.7476113
  60.5401694  14.6809204  21.3183910  61.4648242  14.4752065  21.1808361
  60.3716998  14.4325605  22.2273252  53.4973258   0.8935763  25.5402598
  53.1570078   0.0943576  25.9423278  52.7912264   1.1937474  24.9679431
  55.3850822   2.0944084  23.8955916  55.1268600   3.0161155  23.8940247
  54.8535862   1.6974519  24.5856380  60.3297011  15.1994871  16.6746002
  60.5033888  14.6341294  15.9219854  60.8225902  15.9995766  16.4925492
  46.1473970   7.2109540  24.7409560  45.6027438   7.9869348  24.8729835
  47.0253320   7.5580345  24.5828682  66.1836402   7.9631294  18.2936301
  66.6267548   7.2138619  17.8955425  65.3062912   7.9541431  17.9110033
  61.3172183  14.5161636  13.7742900  62.0123088  15.1368328  13.9930215
  61.6595333  13.6656987  14.0495278  46.9339992   6.3379437  27.6339717
  46.1921728   6.4862072  28.2204348  46.6132737   6.5987702  26.7706467
  63.2163606  11.9661341  15.3030231  63.7414930  12.3048614  14.5779551
  63.1285959  11.0308357  15.1193365  54.8783655  15.8795415  27.4320107
  55.1870781  15.6344562  28.3042807  55.6759137  16.0842053  26.9438978
  54.9004267  18.0333325  19.6625484  54.4609257  17.5409703  20.3558341
  55.6512384  17.4906292  19.4217559  47.3796606  14.2244865  19.6650112
  48.2054626  13.9248637  19.2848755  47.0290658  13.4552488  20.1139901
  52.3478139  13.5771334  21.7347786  51.7258148  12.9142039  21.4350013
  53.0183006  13.6032466  21.0521433  52.4202667   2.0553122  31.3280292
  52.4690822   2.9315244  30.9458061  52.9625181   1.5130515  30.7551935
  62.9057512  12.5994245  30.6081429  62.1153056  12.5818384  30.0685928
  62.6690867  13.1382539  31.3630465  63.0255387   9.4486711  27.9214157
  63.0753392   9.2836719  28.8629680  62.9169311   8.5813970  27.5312038
  60.3159150   5.4317639  29.2373464  61.2169012   5.2924104  28.9457462
  60.3907124   5.5972094  30.1771641  54.6501955   2.8084494  28.0826650
  53.7805264   3.1018060  27.8109239  54.8861435   3.3924939  28.8033914
  64.5273584  11.8683653  28.1656179  64.2358392  12.2313633  29.0019640
  63.9145715  11.1550661  27.9869511  65.7269266   9.4336533  20.6858749
  66.5616158   9.8726337  20.8496309  65.8628395   8.9575186  19.8666995
  62.7760772   6.9916267  26.6336237  63.2514894   7.1843914  25.8255088
  61.8526338   7.0475453  26.3879620  57.3540989  -0.9735889  25.5992071
  57.8722933  -0.2374862  25.2738559  56.9996122  -0.6671896  26.4338830
  61.4762441   3.8682028  24.8664542  62.4279864   3.9680125  24.8876766
  61.3065892   3.0760296  25.3762627  59.4976821   0.9537611  25.0523943
  58.9026753   1.2342623  24.3570432  59.2126518   1.4431512  25.8240684
  63.9550519   7.0888147  23.9806842  63.9226839   6.1504148  24.1666526
  64.5651143   7.1672184  23.2472667  64.1045008   3.8799191  24.0265125
  63.5884056   3.0957647  23.8395054  64.9884956   3.5517907  24.1911645
  69.7727069   8.1504154  23.1212879  70.5030458   7.8889442  23.6820582
  69.1634015   7.4132876  23.1614947  67.8542366   6.2912017  23.7187330
  67.1275530   6.1567982  23.1103822  67.4389653   6.5988845  24.5244048
  55.6772543  10.0101946  31.4834703  56.5975552  10.1880545  31.6774749
  55.6422126   9.0657992  31.3314402  48.6734615   7.9202981  24.1257484
  48.8920625   8.8520089  24.1445518  49.0860389   7.5610955  24.9112288
  53.5462480   3.4936187  33.5160233  53.4459207   4.4430544  33.4472324
  53.3284022   3.1654426  32.6436303  53.4093751   6.9233326  32.3325295
  52.9260832   7.7233686  32.5389184  53.4954690   6.9341270  31.3792739
  49.3367088  10.8137860  24.3693729  50.2910342  10.7821803  24.3023660
  49.1379612  10.3528484  25.1843954  49.9266470   9.3838976  26.9364526
  50.7459359   9.8783055  26.9599363  50.2003278   8.4670944  26.9082094
  65.4720161   2.5123869  21.0720762  66.0664652   2.2719605  20.3614070
  65.5446745   1.7930999  21.6994298  47.6917317  16.3557480  21.3863926
  47.5571785  15.5957881  20.8201924  47.2749379  17.0798380  20.9192715
  67.7791234   5.8190070  19.8464183  67.2190792   5.8883259  20.6195745
  67.1734737   5.6431054  19.1263679  50.8486443  17.2526797  21.5982369
  50.7318827  18.1972229  21.4961059  50.0278889  16.9500358  21.9868168
  45.1801384   3.7177110  27.6356723  45.8260248   3.2076064  28.1243948
  44.9718535   4.4545792  28.2100148  57.7054777  10.7857958  33.1348864
  58.5745936  10.9598610  32.7735499  57.2261528  11.6052375  33.0124593
  51.8740957  17.9055059  24.8138297  52.7768203  17.9378669  25.1304792
  51.6478327  16.9755510  24.8284633  53.6294559  16.6586045  21.4748376
  52.6790190  16.6587907  21.3612748  53.9327045  15.9118780  20.9584411
  49.5198875   0.8644727  31.7331737  50.3830337   0.5081532  31.9435062
  48.9464286   0.5258622  32.4207142  69.3647252  22.4946584  22.5394138
  70.0025662  22.3753331  21.8357479  69.2468095  23.4427428  22.5982091
  66.1736959  22.4474012  22.4755663  65.8355470  22.3315076  21.5876198
  67.0426727  22.0465177  22.4556669  62.0323774  24.3009488  18.4652554
  61.4688639  24.2099425  17.6968842  61.9176169  23.4809393  18.9455047
  66.6556742  23.6008863  28.4341869  66.6445382  23.2061662  27.5622372
  66.8177381  22.8674936  29.0275640  59.5788206  25.7960680  21.3036775
  60.3709498  25.4551504  20.8883074  59.8184856  25.9055655  22.2238928
  67.6123333  27.9680456  13.7767019  66.9611313  28.5534536  13.3901033
  68.4067696  28.4986651  13.8362056  61.5378960  25.0569593  14.1754153
  62.3109836  24.5098580  14.0367029  61.8904359  25.9213842  14.3868615
  63.3764003  26.3845975  27.3821053  63.0853869  27.2891606  27.2667719
  64.0120987  26.4262503  28.0965122  64.3020210  23.7622824  23.9722412
  64.8983782  23.5378846  23.2579375  64.3595181  23.0207569  24.5747860
  63.8745238  21.2162259  11.8072603  64.1270759  20.6943780  11.0456066
  62.9369797  21.0528405  11.9099287  68.9188521  20.2198037  19.6147347
  69.7051610  19.8017461  19.2637764  69.1827225  21.1244130  19.7828995
  69.0898598  25.6570888  14.3136003  68.4544431  25.7305514  15.0256908
  68.7596005  26.2464487  13.6355083  74.3196948  20.1573271  20.5180325
  75.0522120  19.5872487  20.7518155  73.5636304  19.7694871  20.9586831
  63.5941527  23.1190365  14.0096978  63.4777785  22.4435268  14.6778063
  63.7043787  22.6322739  13.1929131  65.9373068  22.5800512  17.7143667
  65.5731275  22.0531133  18.4256589  66.7940184  22.1898981  17.5410153
  71.8422368  13.8694845  24.9774934  71.5105693  14.7390256  24.7536149
  71.2467982  13.5531129  25.6568964  65.5778555  17.6090412  12.7105016
  65.7452957  18.4770648  13.0775487  65.3875724  17.7717694  11.7866305
  68.3353888  26.0707391  24.3770846  68.0354611  26.9732430  24.2686654
  67.9904947  25.8039574  25.2291999  61.7866369  22.5221188  20.4107551
  60.8616866  22.3897402  20.6185243  62.0350782  23.3015407  20.9077493
  71.7351032  18.5889931  22.0568284  70.8267909  18.5205339  21.7627045
  71.6838627  19.0661876  22.8850109  65.5567775  20.0648069  13.6951683
  65.4367401  20.5105120  14.5337163  64.8620364  20.4133387  13.1365221
  59.1475180  22.1654461  21.2451340  59.2767561  22.4188940  22.1590752
  58.4672632  22.7582169  20.9255995  63.3174668  32.8351711  17.3441814
  63.2398697  33.7859536  17.4230295  62.7136311  32.4897584  18.0016740
  65.8091897  20.0079577  30.0003181  65.0325231  20.5673497  29.9906046
  66.4482460  20.4936360  30.5218051  73.6012678  16.7906369  23.8346158
  72.9587058  17.0838903  23.1885952  73.0967606  16.6759290  24.6399354
  71.2552842  20.5369543  14.5232017  72.1670698  20.7696929  14.3479714
  70.7462489  21.1206587  13.9607095  64.0638270  22.8165030  29.5621148
  64.8052954  23.3550074  29.2855972  63.3575255  23.4431319  29.7192700
  69.5393609  24.9594170  28.1593309  69.9476965  24.5176581  27.4147942
  68.8170871  24.3846798  28.4127502  65.8924679  19.8966777  25.5326866
  66.7385875  20.3206191  25.6761515  65.8323317  19.2400401  26.2265429
  69.8622424  25.5195361  21.9145598  69.2331286  25.6841075  21.2121666
  69.4748086  25.9336971  22.6856562  73.7411656  26.4549799  19.2689962
  73.0562694  26.8348700  18.7186995  73.8255505  27.0645126  20.0021910
  69.0424125  17.5571145  27.1908040  68.7985057  18.3113206  26.6542316
  69.3184055  17.9356493  28.0255287  70.9962587  24.1009758  25.8685306
  71.2079483  24.7441518  25.1919687  70.9492336  23.2672074  25.4007236
  68.5988816  16.7127579  22.7721878  67.7373295  17.0108832  23.0638615
  68.6251251  16.9297977  21.8402910  65.4150386  25.2569769  19.1795683
  65.8788731  25.5357472  18.3900306  65.1507184  24.3553214  18.9968774
  62.3074467  24.8041251  22.1175447  62.8775824  25.2328519  21.4792931
  62.8982579  24.5223835  22.8159632  64.3519272  21.3792921  15.9885249
  65.0543315  21.8313965  16.4559175  64.0199900  20.7376740  16.6165142
  62.7999633  19.9704678  30.3636458  62.1698294  20.6520959  30.5971855
  62.6935721  19.8587760  29.4189596  58.0944606  19.6376474  21.2902382
  57.3043660  19.8934003  20.8142493  58.5855853  20.4524812  21.3954423
  72.1108415  26.9781713  24.0407663  72.9325859  26.5761901  23.7590345
  72.1070818  26.8749947  24.9923779  60.0459351  20.0021053  18.2485859
  59.2490514  20.1139748  18.7669354  59.8184943  20.3407706  17.3826749
  65.8765019  26.5265757  26.1968373  65.9409451  26.9886164  27.0326545
  65.1675943  25.8963122  26.3250683  56.3782309  19.8906965  23.7217373
  56.6290347  20.7753974  23.9874949  56.9141857  19.7111566  22.9492465
  80.2014408  23.3220462  20.3892634  79.4478117  22.7527860  20.2336639
  80.3361950  23.2883126  21.3363269  65.5913036  28.1933864  16.0647354
  65.4558711  29.0385400  16.4932202  66.1322849  28.3953142  15.3013288
  62.0780376  14.2725444  32.7261709  61.6847322  13.7191642  33.4009353
  62.8946516  14.5836022  33.1168227  59.0442434  25.7109302  16.6375279
  59.5566954  26.5052552  16.7880844  59.6965147  25.0135593  16.5708880
  60.8537319  28.8275058  18.7198032  61.0303947  29.7493023  18.5319016
  61.6494152  28.5133478  19.1492412  64.9948337  15.6883323  30.3181966
  65.7358050  16.2890476  30.2386428  65.2266260  14.9460961  29.7600008
  60.1389675  20.8739690  28.5960195  60.0243190  19.9724948  28.8967294
  59.2834193  21.1203387  28.2445012  67.2181513  28.8157431  30.1947696
  66.7745367  28.0293809  29.8768600  67.8798726  29.0036581  29.5291587
  61.9768634  30.3453232  24.7208374  62.5276059  30.2170296  23.9485368
  61.1380110  30.6448121  24.3703267  69.3162751  29.0960231  28.2229097
  69.2981226  29.9169112  27.7309366  70.2382671  28.9714306  28.4479238
  65.7735805  26.6104360  29.0652605  66.3064142  25.8492648  28.8351913
  65.2449886  26.3178012  29.8076760  68.9405500  11.7164426  24.5946247
  68.5969769  12.6066068  24.5185358  69.3084463  11.5266084  23.7315832
  57.0091351  24.0397956  17.4134849  57.8466573  24.4494965  17.1968557
  57.1869618  23.0997399  17.3835043  68.9055783  21.7073037  13.1018682
  68.3902406  22.4777642  13.3407070  68.6333091  21.0338173  13.7251744
  66.4902894  16.5522738  18.1603921  65.6344490  16.1629588  17.9809559
  66.9029846  16.6314699  17.3003706  68.0202040  14.0869081  22.5595480
  67.5166836  14.0499216  21.7463286  68.3132647  14.9961824  22.6192137
  64.2644926  14.1707811  21.5661662  65.1297923  13.9750620  21.2067552
  64.3322435  13.9418163  22.4931019  73.8790057  24.4605392  15.0371856
  73.1019500  24.1216551  14.5927018  74.5581538  24.4658015  14.3626821
  68.6942086  19.5800129  14.9278464  68.3892222  19.8946278  15.7788607
  69.6472528  19.6581549  14.9705797  67.1388518  25.7390352  16.5771418
  66.6109879  25.0043112  16.2644655  66.6376021  26.5165029  16.3311386
  72.1181364  23.9339373  21.6938464  71.4605038  24.6238634  21.7818592
  72.9221763  24.3235805  22.0372450  61.8707245  16.4010019  18.9378029
  62.4450997  16.1785200  18.2051222  62.4578228  16.4698713  19.6906630
  70.9286823  22.2883746  19.7442406  71.4418704  22.9213737  20.2464115
  71.5788047  21.6884941  19.3785766  62.1976833  18.4314480  12.9573914
  61.3614145  18.7689166  13.2783189  62.0581602  18.2963460  12.0201051
  64.1729913  13.2751268  17.6653098  63.5194325  12.9600285  17.0409713
  64.1310387  12.6527008  18.3912921  65.2841118  23.5570563   9.5806391
  64.3768180  23.3259816   9.7797540  65.7812150  22.7608182   9.7680372
  68.1909197  32.2668070  12.5003077  67.5170896  32.5699767  13.1088035
  68.5775019  33.0697150  12.1508534  67.4067653  19.7633201  21.9900746
  66.4890215  19.9848148  21.8322434  67.8227797  19.8379512  21.1312453
  68.1902701  21.1624617  17.1203426  68.9374520  21.6746014  16.8110548
  68.4594291  20.8408670  17.9807820  66.4629351  23.6583158  14.1030381
  65.5540571  23.3742190  14.2002850  66.4924435  24.0782236  13.2433687
  71.6948619  27.2689747  17.8721548  71.2410946  26.4280657  17.9286739
  71.0642586  27.9051145  18.2096328  70.6381538  18.1981733  19.1022216
  69.9004295  17.6859119  19.4332458  70.8908312  17.7582115  18.2905493
  70.1381558  29.1066244  18.8071366  70.4304532  29.6671301  18.0883732
  70.6480179  29.3994805  19.5624525  70.7393166  10.9757985  19.6963985
  71.0452043  10.1155349  19.4089900  71.4645771  11.5675605  19.4962979
  57.0317522  21.3788672  18.0845583  56.8341922  20.7858032  17.3596649
  56.4764186  21.0740882  18.8021522  65.0114245  21.2711778  20.2040176
  65.0662855  20.3185615  20.1282653  64.2005447  21.4271217  20.6881474
  66.1605439  25.1991901  11.4418459  65.7224869  24.4827760  10.9824097
  66.9015880  25.4268016  10.8803551  62.9506605  19.8888838  17.9630555
  62.1374471  20.1883009  18.3695747  63.4465600  19.4944527  18.6805037
  65.1015183  29.8846595  19.8964820  65.0591362  30.1107441  18.9673352
  66.0177882  29.6509969  20.0450621  68.5480817  20.3530662  26.7945449
  68.9030205  20.5802136  27.6539914  69.1952948  20.6849039  26.1722704
  74.2778554  23.4749098  17.4994778  74.1396453  23.6650694  16.5715967
  73.9214773  24.2368481  17.9562829  62.4420680  17.4607193  23.5791790
  63.0820059  17.3195953  22.8814753  61.6098211  17.1741707  23.2030392
  74.3047934  25.5425625  22.5106049  74.7384440  25.4500914  23.3589103
  75.0179514  25.5183126  21.8726065  63.2180984  26.7609624  19.6926782
  64.0121583  26.2659944  19.4909357  62.5072676  26.2327487  19.3294488
  68.0375829  29.1427719  24.0439150  68.0912851  29.7118656  24.8116866
  67.1690610  29.3129604  23.6793187  59.5263748  20.9052706  15.7686535
  58.5961336  20.8437161  15.9856497  59.6221220  20.3828658  14.9723176
  59.4449297  17.4307518  18.3564777  59.7056114  18.3452852  18.2473937
  60.2666469  16.9631961  18.5061389  60.9174222  18.8445276  25.5263601
  61.5897275  18.6362638  24.8776250  60.0904008  18.6467362  25.0868833
  75.1663483  25.5849326  25.0438935  75.3599373  26.4895136  25.2898210
  75.0664101  25.1256745  25.8777520  66.8199794  15.4707217  27.5429262
  66.1727709  16.1697166  27.4493738  67.5900809  15.9043360  27.9105510
  70.2278592  25.7356069  30.6179815  70.0764098  25.5066620  29.7009899
  70.2183271  26.6926670  30.6311160  66.9963928  23.3087981  25.6026082
  67.9255988  23.4599141  25.4295049  66.5754958  23.3972002  24.7474728
  65.7952260  27.3338646  23.3724619  65.6563346  26.9657430  24.2450557
  65.0066856  27.8486285  23.2008577  66.3900412  32.4347742  14.7150156
  66.5652168  31.9635786  15.5295779  65.7033200  33.0613509  14.9431417
  67.3457475  26.7120249  20.7613457  67.0107308  26.6721019  21.6571107
  66.8461421  26.0464964  20.2883867  61.3201719  22.1187879  26.2866038
  61.1821517  21.3868117  26.8877577  62.2306643  22.0296779  26.0050226
  70.2816667  24.0576283  11.0350517  69.6645837  23.3323111  10.9383569
  69.8133155  24.8185643  10.6917591  63.9484020  21.8307838  25.7749718
  64.6583638  21.1901030  25.7336336  63.9053328  22.0820733  26.6975899
  71.9370798  28.7675191  28.6956297  71.8783345  28.0834411  28.0286880
  72.3390317  29.5094181  28.2436923  62.6612954  18.8173056  27.5945357
  62.1250311  18.3663794  28.2466954  62.0729662  18.9518965  26.8515822
  60.9561497  35.5837105  21.4890016  61.1958096  36.2155629  22.1669035
  60.1130694  35.2325145  21.7755375  71.9388206  26.7314775  26.9270277
  71.0514985  26.3940697  27.0496676  72.5086757  25.9997806  27.1639042
  53.5917353  23.0638867  20.2513328  54.2788393  22.7500597  19.6634344
  53.4365482  23.9680232  19.9780580  58.3952075  17.9529064  24.6798352
  58.3110264  17.3454733  23.9448762  57.5734781  18.4438082  24.6807848
  65.4689359  31.3916228  23.8931520  65.3959531  32.1971199  24.4050825
  65.0266752  31.5908193  23.0679541  65.2579139  30.6287998  17.4034342
  64.4746661  31.1709678  17.4972566  65.9571884  31.1461977  17.8028583
  68.5675789  16.4382627  20.0468547  69.0644488  15.6852589  19.7269617
  67.7962770  16.4746944  19.4811756  76.4205546  22.1422993  21.6886838
  76.4095423  23.0247708  21.3180772  75.5522926  21.7894543  21.4941376
  67.9288043  31.2903062  26.0489679  68.6416015  31.9250526  25.9765580
  67.4378071  31.3866928  25.2329681  69.6505570  25.1954314  17.6206970
  68.7161848  25.3155777  17.4511675  69.8282238  24.2926781  17.3566980
  65.1510758  18.5800010  19.7740232  64.7808545  18.0271050  20.4621137
  65.6469850  17.9758144  19.2215232  73.0378121  21.0371634  18.1557005
  73.5038573  21.8699625  18.0817307  73.4885621  20.5716615  18.8602263
  62.9799956  29.0397505  26.8695250  63.6809416  29.6733988  27.0224644
  62.5095071  29.3812237  26.1090889  71.1054352  27.3815455  15.1543157
  71.3814196  27.2672049  16.0637031  70.2358851  26.9832940  15.1155330
  71.0094784  13.4052221  22.1947906  70.0957863  13.6356447  22.3630113
  71.4387885  13.4890665  23.0461938  70.7801242  21.5942113  24.6947800
  70.1272692  21.8418020  24.0400253  71.1581622  20.7806251  24.3610277
  67.7408416  31.6301806  18.7975970  67.9230811  30.8123462  19.2603722
  68.5641402  31.8469498  18.3600860  68.0750582  30.5569991  16.0591019
  68.6038348  30.0462445  15.4461181  68.3378801  30.2412521  16.9236552
  66.8288815  22.3361924  31.1813837  66.1529452  22.2356053  31.8516212
  67.6516449  22.1801137  31.6449834  58.5767674  28.5733860  23.8026352
  59.1621111  27.8277548  23.9354256  58.3792513  28.8837817  24.6863016
  61.4306329  31.6085107  18.8188795  60.7616705  32.0931235  18.3352835
  61.2919199  31.8554328  19.7332173  53.1685329  21.1439460  22.5230795
  53.2069429  20.6103051  23.3167913  52.6625622  20.6174666  21.9041773
  65.5711598  33.6428851  25.4171453  66.1229906  33.8060473  26.1820538
  65.9117792  34.2333289  24.7451478  60.5476091  15.9904001  26.0193338
  60.6117418  16.8518832  25.6070735  60.4843212  15.3778002  25.2865696
  60.0228364  18.0627133  29.6666372  60.6500403  17.6804211  30.2803896
  59.1656283  17.8441335  30.0322064  70.4222472  28.4690109  31.2720107
  70.9662376  29.0820067  30.7775062  69.8409317  29.0269687  31.7887120
  56.7993907  19.8703562  15.5984727  57.0947348  18.9614241  15.5451780
  55.8981942  19.8491302  15.2765729  68.7079985  31.5910827  22.4035135
  68.5831125  30.7900566  21.8946081  69.3659076  32.0857020  21.9149105
  60.3288154  17.9459559  21.5812275  59.6074739  18.5595527  21.4419749
  61.1181409  18.4817324  21.5028921  70.7714894  29.3919847  24.0314685
  69.8245229  29.2725198  23.9593012  71.1197667  28.5042345  24.1140947
  63.1314467  15.2813986  27.8552927  63.6548869  15.5276282  28.6179236
  62.9126800  16.1134020  27.4356064  58.5281748  17.5517660  15.7224052
  58.1994454  16.6715039  15.5399158  58.8821119  17.4965329  16.6100441
  67.7761327  29.1872563  20.2319037  67.6286289  28.2589270  20.4126607
  68.6014821  29.2092654  19.7476113  61.6423571  17.8390630  16.0899530
  61.9819644  18.3676551  15.3678138  62.0895692  18.1771036  16.8658096
  71.3795449  30.0101122  21.3183910  72.3041996  29.8043983  21.1808361
  71.2110752  29.7617523  22.2273252  64.3367012  16.2227681  25.5402598
  63.9963833  15.4235494  25.9423278  63.6306018  16.5229391  24.9679431
  64.9883484  13.3076993  23.9929921  65.8109553  12.8337471  23.8708811
  65.2321548  14.0867477  24.4928607  63.6291718  16.3365252  14.2892822
  64.3500081  16.7146504  13.7856539  63.0057023  17.0554128  14.3927800
  67.7722841  17.0410400  15.2251155  67.9886456  17.9235038  14.9239983
  67.2916909  16.6496614  14.4956797  62.5122063  19.9996114  21.8021899
  62.3666643  20.3136417  22.6946181  62.0347266  20.6181014  21.2492798
  64.3718446  16.9898662  21.8502789  64.3580014  16.0939755  21.5135087
  65.0890874  16.9969325  22.4841075  66.2244576  17.4236002  23.8955916
  65.9662354  18.3453073  23.8940247  65.6929617  17.0266436  24.5856380
  71.1690765  30.5286789  16.6746002  71.3427643  29.9633212  15.9219854
  71.6619656  31.3287684  16.4925492  56.9867725  22.5401458  24.7409560
  56.4421193  23.3161266  24.8729835  57.8647075  22.8872263  24.5828682
  63.7755342  15.8713042  17.1190359  63.8971253  14.9429688  17.3181246
  63.4857384  15.8851728  16.2068674  66.6446532  13.5567952  20.2557079
  66.6668229  13.6207286  19.3009058  67.0614591  12.7172461  20.4497585
  77.0230156  23.2923212  18.2936301  77.4661302  22.5430537  17.8955425
  76.1456667  23.2833348  17.9110033  72.1565938  29.8453553  13.7742900
  72.8516842  30.4660246  13.9930215  72.4989088  28.9948905  14.0495278
  57.7733747  21.6671354  27.6339717  57.0315483  21.8153990  28.2204348
  57.4526491  21.9279620  26.7706467  74.0557361  27.2953259  15.3030231
  74.5808685  27.6340532  14.5779551  73.9679713  26.3600274  15.1193365
  65.7177409  31.2087333  27.4320107  66.0264536  30.9636479  28.3042807
  66.5152891  31.4133971  26.9438978  65.7398021  33.3625242  19.6625484
  65.3003012  32.8701621  20.3558341  66.4906138  32.8198210  19.4217559
  58.2190360  29.5536783  19.6650112  59.0448380  29.2540555  19.2848755
  57.8684412  28.7844406  20.1139901  63.1871894  28.9063251  21.7347786
  62.5651903  28.2433956  21.4350013  63.8576761  28.9324383  21.0521433
  56.4198965  27.4723110  20.6239046  55.5830874  27.0445284  20.4423047
  56.3922611  27.6655553  21.5609837  63.2596421  17.3845039  31.3280292
  63.3084577  18.2607162  30.9458061  63.8018935  16.8422432  30.7551935
  73.7451267  27.9286163  30.6081429  72.9546810  27.9110301  30.0685928
  73.5084621  28.4674456  31.3630465  73.8649142  24.7778629  27.9214157
  73.9147147  24.6128636  28.8629680  73.7563065  23.9105888  27.5312038
  62.7485401  27.4567175  15.2106246  62.8973521  28.1402639  14.5572919
  63.5551844  27.4372265  15.7255702  71.1552904  20.7609557  29.2373464
  72.0562767  20.6216022  28.9457462  71.2300879  20.9264012  30.1771641
  65.4895710  18.1376412  28.0826650  64.6199019  18.4309978  27.8109239
  65.7255190  18.7216857  28.8033914  75.3667339  27.1975570  28.1656179
  75.0752147  27.5605551  29.0019640  74.7539470  26.4842579  27.9869511
  76.5663021  24.7628450  20.6858749  77.4009912  25.2018254  20.8496309
  76.7022150  24.2867103  19.8666995  73.6154527  22.3208185  26.6336237
  74.0908648  22.5135831  25.8255088  72.6920092  22.3767371  26.3879620
  60.5038033  23.4832352  16.2167315  60.2584075  22.5794682  16.4147525
  60.6733948  23.4849503  15.2746793  68.1934743  14.3556029  25.5992071
  68.7116687  15.0917056  25.2738559  67.8389876  14.6620022  26.4338830
  59.7733681  19.2160710  13.7153476  59.0802926  19.2905065  13.0593512
  59.5285433  18.4521054  14.2374993  68.4447338  10.7756311  21.1192967
  68.7249091  10.1079500  21.7453394  69.2297944  10.9685407  20.6067631
  66.2480806  29.9515305  12.6817994  65.6754773  30.5705492  12.2288465
  66.8213600  30.5014667  13.2157915  72.3156196  19.1973945  24.8664542
  73.2673619  19.2972043  24.8876766  72.1459646  18.4052214  25.3762627
  70.3370575  16.2829528  25.0523943  69.7420507  16.5634541  24.3570432
  70.0520272  16.7723429  25.8240684  69.4678066  30.2352455  13.8126576
  70.4008739  30.1698017  14.0159451  69.3801279  31.0708722  13.3541108
  72.0966082  29.5518326  10.7730523  72.0179714  29.2178189  11.6666281
  72.9175749  30.0440093  10.7721996  74.7944274  22.4180065  23.9806842
  74.7620594  21.4796066  24.1666526  75.4044897  22.4964102  23.2472667
  66.6327605  21.2876118  10.0234046  67.5786709  21.1582326  10.0922464
  66.2541849  20.5490780  10.5003474  74.9438762  19.2091108  24.0265125
  74.4277811  18.4249565  23.8395054  75.8278711  18.8809825  24.1911645
  72.6049489  12.9532124  19.9860938  72.4074310  12.6447212  20.8704270
  73.2149195  13.6793763  20.1158868  80.6120824  23.4796072  23.1212879
  81.3424212  23.2181360  23.6820582  80.0027769  22.7424794  23.1614947
  78.6936121  21.6203934  23.7187330  77.9669284  21.4859899  23.1103822
  78.2783408  21.9280763  24.5244048  66.5166297  25.3393864  31.4834703
  67.4369307  25.5172463  31.6774749  66.4815880  24.3949909  31.3314402
  55.7348462  20.5332458  20.4087978  55.4151246  19.6797766  20.1162352
  55.1881890  20.7481036  21.1645945  59.5128370  23.2494899  24.1257484
  59.7314379  24.1812006  24.1445518  59.9254143  22.8902873  24.9112288
  66.4332587  13.7562984  16.1133173  65.6233316  13.4110069  16.4888419
  67.1217004  13.4470528  16.7020784  68.3623136  12.8341031  17.7357469
  68.9154174  13.2536484  18.3947492  68.5993222  11.9076779  17.7780425
  64.3856235  18.8228104  33.5160233  64.2852962  19.7722461  33.4472324
  64.1677777  18.4946343  32.6436303  55.6036722  24.1535369  22.3781099
  54.9100194  23.7389322  21.8651054  56.3509713  24.1955906  21.7814518
  71.7401943  14.9441556  17.2436133  71.1600612  15.6026360  16.8614186
  71.4737875  14.1218901  16.8323551  70.1905509  14.3446614  19.4457454
  70.6905288  14.4563148  18.6371773  70.8341117  14.0407666  20.0858262
  64.2487505  22.2525243  32.3325295  63.7654587  23.0525603  32.5389184
  64.3348444  22.2633188  31.3792739  57.5173465  24.0853623  20.2547114
  57.4944153  24.1841310  19.3028997  57.8274101  24.9318774  20.5764280
  60.1760842  26.1429778  24.3693729  61.1304096  26.1113720  24.3023660
  59.9773366  25.6820402  25.1843954  60.7660225  24.7130894  26.9364526
  61.5853114  25.2074973  26.9599363  61.0397032  23.7962862  26.9082094
  70.5226821  17.1041646  16.2992482  69.6352676  17.3891297  16.0812676
  70.9380810  16.9435410  15.4519759  73.8741357  17.1288167  20.0146821
  74.6501747  17.6184620  20.2871438  73.1489491  17.5546221  20.4718690
  76.3113916  17.8415787  21.0720762  76.9058406  17.6011522  20.3614070
  76.3840499  17.1222917  21.6994298  58.5311071  31.6849397  21.3863926
  58.3965539  30.9249798  20.8201924  58.1143134  32.4090297  20.9192715
  69.6670034  26.8686321  10.3940502  70.3705884  27.0736323  11.0098157
  68.9432683  27.4363083  10.6589585  70.4967845  22.6196182  16.5142772
  70.4403046  23.0764734  15.6750404  71.0496187  21.8586867  16.3365615
  74.3072650  18.4085914  17.3392891  74.0509585  18.0082550  18.1701099
  73.6825519  19.1229708  17.2143030  78.6184988  21.1481987  19.8464183
  78.0584546  21.2175177  20.6195745  78.0128492  20.9722972  19.1263679
  61.6880197  32.5818714  21.5982369  61.5712581  33.5264147  21.4961059
  60.8672643  32.2792276  21.9868168  71.5756732  27.3068850  12.4438962
  72.4102336  26.8750049  12.2616437  71.4141075  27.1350864  13.3715856
  71.2302624  23.8100963  13.8095301  71.1751428  23.6445235  12.8683745
  70.6048679  24.5176996  13.9657491  56.0195139  19.0469028  27.6356723
  56.6654002  18.5367982  28.1243948  55.8112290  19.7837710  28.2100148
  68.5448531  26.1149875  33.1348864  69.4139691  26.2890528  32.7735499
  68.0655283  26.9344292  33.0124593  64.5398749  13.3109073  13.3880619
  64.5277419  14.2550912  13.5448890  65.4322171  13.1279218  13.0940081
  62.7134711  33.2346976  24.8138297  63.6161958  33.2670587  25.1304792
  62.4872081  32.3047427  24.8284633  64.4688313  31.9877963  21.4748376
  63.5183944  31.9879825  21.3612748  64.7720799  31.2410697  20.9584411
  68.3550869   9.9051849  17.6426556  67.5883265   9.3510336  17.7883239
  68.7661574   9.9773718  18.5040708  60.3592630  16.1936645  31.7331737
  61.2224091  15.8373450  31.9435062  59.7858041  15.8550540  32.4207142
  80.2041007  37.8238501  22.5394138  80.8419417  37.7045249  21.8357479
  80.0861850  38.7719345  22.5982091  77.0130713  37.7765929  22.4755663
  76.6749225  37.6606994  21.5876198  77.8820481  37.3757094  22.4556669
  72.8717529  39.6301406  18.4652554  72.3082394  39.5391343  17.6968842
  72.7569924  38.8101310  18.9455047  70.4181961  41.1252597  21.3036775
  71.2103253  40.7843422  20.8883074  70.6578611  41.2347572  22.2238928
  78.4517087  43.2972374  13.7767019  77.8005067  43.8826454  13.3901033
  79.2461450  43.8278568  13.8362056  72.3772715  40.3861511  14.1754153
  73.1503591  39.8390498  14.0367029  72.7298113  41.2505760  14.3868615
  75.1413964  39.0914741  23.9722412  75.7377536  38.8670764  23.2579375
  75.1988936  38.3499487  24.5747860  74.7138992  36.5454177  11.8072603
  74.9664513  36.0235698  11.0456066  73.7763552  36.3820322  11.9099287
  79.7582275  35.5489955  19.6147347  80.5445364  35.1309378  19.2637764
  80.0220980  36.4536047  19.7828995  79.9292353  40.9862805  14.3136003
  79.2938186  41.0597432  15.0256908  79.5989759  41.5756404  13.6355083
  85.1590702  35.4865188  20.5180325  85.8915874  34.9164405  20.7518155
  84.4030058  35.0986789  20.9586831  74.4335281  38.4482283  14.0096978
  74.3171539  37.7727186  14.6778063  74.5437541  37.9614657  13.1929131
  76.7766822  37.9092430  17.7143667  76.4125029  37.3823051  18.4256589
  77.6333938  37.5190899  17.5410153  82.6816123  29.1986762  24.9774934
  82.3499448  30.0682173  24.7536149  82.0861736  28.8823046  25.6568964
  76.4172309  32.9382330  12.7105016  76.5846711  33.8062566  13.0775487
  76.2269478  33.1009611  11.7866305  79.1747642  41.3999308  24.3770846
  78.8748365  42.3024347  24.2686654  78.8298702  41.1331492  25.2291999
  72.6260124  37.8513105  20.4107551  71.7010620  37.7189319  20.6185243
  72.8744537  38.6307325  20.9077493  82.5744786  33.9181849  22.0568284
  81.6661663  33.8497257  21.7627045  82.5232382  34.3953794  22.8850109
  76.3961530  35.3939987  13.6951683  76.2761155  35.8397038  14.5337163
  75.7014118  35.7425305  13.1365221  69.9868935  37.4946379  21.2451340
  70.1161316  37.7480858  22.1590752  69.3066386  38.0874087  20.9255995
  74.1568422  48.1643629  17.3441814  74.0792452  49.1151454  17.4230295
  73.5530066  47.8189501  18.0016740  84.4406432  32.1198287  23.8346158
  83.7980813  32.4130820  23.1885952  83.9361361  32.0051207  24.6399354
  82.0946596  35.8661460  14.5232017  83.0064452  36.0988847  14.3479714
  81.5856243  36.4498504  13.9607095  74.9032024  38.1456948  29.5621148
  75.6446709  38.6841992  29.2855972  74.1969010  38.7723236  29.7192700
  76.7318434  35.2258695  25.5326866  77.5779629  35.6498108  25.6761515
  76.6717072  34.5692319  26.2265429  80.7016178  40.8487279  21.9145598
  80.0725041  41.0132993  21.2121666  80.3141841  41.2628888  22.6856562
  84.5805410  41.7841717  19.2689962  83.8956448  42.1640618  18.7186995
  84.6649260  42.3937043  20.0021910  79.8817879  32.8863063  27.1908040
  79.6378811  33.6405124  26.6542316  80.1577810  33.2648411  28.0255287
  81.8356342  39.4301676  25.8685306  82.0473237  40.0733435  25.1919687
  81.7886090  38.5963992  25.4007236  79.4382571  32.0419496  22.7721878
  78.5767050  32.3400750  23.0638615  79.4645006  32.2589895  21.8402910
  76.2544140  40.5861687  19.1795683  76.7182486  40.8649390  18.3900306
  75.9900938  39.6845131  18.9968774  73.1468221  40.1333168  22.1175447
  73.7169578  40.5620437  21.4792931  73.7376333  39.8515753  22.8159632
  75.1913026  36.7084839  15.9885249  75.8937070  37.1605883  16.4559175
  74.8593655  36.0668658  16.6165142  73.6393388  35.2996596  30.3636458
  73.0092048  35.9812877  30.5971855  73.5329476  35.1879677  29.4189596
  68.9338360  34.9668392  21.2902382  68.1437414  35.2225920  20.8142493
  69.4249608  35.7816730  21.3954423  82.9502170  42.3073631  24.0407663
  83.7719614  41.9053818  23.7590345  82.9464573  42.2041865  24.9923779
  70.8853106  35.3312971  18.2485859  70.0884269  35.4431665  18.7669354
  70.6578698  35.6699623  17.3826749  67.2176063  35.2198882  23.7217373
  67.4684102  36.1045892  23.9874949  67.7535612  35.0403484  22.9492465
  91.0408163  38.6512379  20.3892634  90.2871871  38.0819778  20.2336639
  91.1755704  38.6175044  21.3363269  76.4306791  43.5225782  16.0647354
  76.2952466  44.3677317  16.4932202  76.9716603  43.7245059  15.3013288
  72.9174131  29.6017362  32.7261709  72.5241076  29.0483560  33.4009353
  73.7340271  29.9127940  33.1168227  69.8836188  41.0401220  16.6375279
  70.3960709  41.8344470  16.7880844  70.5358901  40.3427510  16.5708880
  71.6931073  44.1566976  18.7198032  71.8697701  45.0784941  18.5319016
  72.4887907  43.8425395  19.1492412  70.9783430  36.2031608  28.5960195
  70.8636945  35.3016865  28.8967294  70.1227947  36.4495305  28.2445012
  79.7799255  27.0456344  24.5946247  79.4363524  27.9357985  24.5185358
  80.1478217  26.8558001  23.7315832  67.8485105  39.3689874  17.4134849
  68.6860327  39.7786882  17.1968557  68.0263373  38.4289316  17.3835043
  79.7449537  37.0364955  13.1018682  79.2296161  37.8069559  13.3407070
  79.4726846  36.3630091  13.7251744  77.3296648  31.8814656  18.1603921
  76.4738245  31.4921506  17.9809559  77.7423600  31.9606616  17.3003706
  78.8595795  29.4160999  22.5595480  78.3560591  29.3791134  21.7463286
  79.1526402  30.3253742  22.6192137  75.1038681  29.4999729  21.5661662
  75.9691678  29.3042537  21.2067552  75.1716190  29.2710080  22.4931019
  84.7183811  39.7897309  15.0371856  83.9413254  39.4508469  14.5927018
  85.3975292  39.7949933  14.3626821  79.5335840  34.9092047  14.9278464
  79.2285976  35.2238196  15.7788607  80.4866283  34.9873467  14.9705797
  77.9782272  41.0682270  16.5771418  77.4503634  40.3335030  16.2644655
  77.4769775  41.8456946  16.3311386  82.9575118  39.2631291  21.6938464
  82.2998793  39.9530552  21.7818592  83.7615518  39.6527723  22.0372450
  72.7101000  31.7301936  18.9378029  73.2844752  31.5077118  18.2051222
  73.2971982  31.7990631  19.6906630  81.7680577  37.6175663  19.7442406
  82.2812459  38.2505655  20.2464115  82.4181801  37.0176859  19.3785766
  73.0370587  33.7606397  12.9573914  72.2007899  34.0981084  13.2783189
  72.8975357  33.6255377  12.0201051  75.0123668  28.6043185  17.6653098
  74.3588080  28.2892203  17.0409713  74.9704142  27.9818926  18.3912921
  76.1234872  38.8862480   9.5806391  75.2161934  38.6551734   9.7797540
  76.6205904  38.0900100   9.7680372  79.0302951  47.5959988  12.5003077
  78.3564650  47.8991684  13.1088035  79.4168773  48.3989068  12.1508534
  78.2461408  35.0925119  21.9900746  77.3283969  35.3140066  21.8322434
  78.6621552  35.1671429  21.1312453  79.0296456  36.4916535  17.1203426
  79.7768275  37.0037932  16.8110548  79.2988045  36.1700587  17.9807820
  77.3023106  38.9875075  14.1030381  76.3934325  38.7034108  14.2002850
  77.3318190  39.4074154  13.2433687  82.5342373  42.5981665  17.8721548
  82.0804700  41.7572575  17.9286739  81.9036340  43.2343063  18.2096328
  81.4775293  33.5273651  19.1022216  80.7398050  33.0151037  19.4332458
  81.7302066  33.0874032  18.2905493  80.9775313  44.4358161  18.8071366
  81.2698287  44.9963219  18.0883732  81.4873933  44.7286722  19.5624525
  81.5786920  26.3049903  19.6963985  81.8845797  25.4447266  19.4089900
  82.3039525  26.8967523  19.4962979  67.8711276  36.7080589  18.0845583
  67.6735676  36.1149950  17.3596649  67.3157940  36.4032800  18.8021522
  75.8508000  36.6003696  20.2040176  75.9056610  35.6477532  20.1282653
  75.0399202  36.7563135  20.6881474  76.9999194  40.5283819  11.4418459
  76.5618624  39.8119678  10.9824097  77.7409635  40.7559934  10.8803551
  73.7900360  35.2180756  17.9630555  72.9768225  35.5174926  18.3695747
  74.2859354  34.8236444  18.6805037  75.9408938  45.2138513  19.8964820
  75.8985117  45.4399359  18.9673352  76.8571637  44.9801887  20.0450621
  79.3874572  35.6822580  26.7945449  79.7423959  35.9094053  27.6539914
  80.0346703  36.0140957  26.1722704  85.1172308  38.8041016  17.4994778
  84.9790207  38.9942612  16.5715967  84.7608527  39.5660399  17.9562829
  73.2814435  32.7899111  23.5791790  73.9213814  32.6487870  22.8814753
  72.4491965  32.5033625  23.2030392  85.1441688  40.8717543  22.5106049
  85.5778195  40.7792832  23.3589103  85.8573269  40.8475043  21.8726065
  74.0574739  42.0901542  19.6926782  74.8515337  41.5951862  19.4909357
  73.3466431  41.5619405  19.3294488  70.3657502  36.2344623  15.7686535
  69.4355090  36.1729079  15.9856497  70.4614974  35.7120576  14.9723176
  70.2843051  32.7599436  18.3564777  70.5449868  33.6744769  18.2473937
  71.1060223  32.2923879  18.5061389  71.7567976  34.1737193  25.5263601
  72.4291030  33.9654555  24.8776250  70.9297763  33.9759279  25.0868833
  86.0057238  40.9141244  25.0438935  86.1993128  41.8187054  25.2898210
  85.9057856  40.4548663  25.8777520  77.8357683  38.6379899  25.6026082
  78.7649743  38.7891059  25.4295049  77.4148713  38.7263920  24.7474728
  76.6346015  42.6630564  23.3724619  76.4957100  42.2949348  24.2450557
  75.8460611  43.1778203  23.2008577  77.2294167  47.7639660  14.7150156
  77.4045922  47.2927703  15.5295779  76.5426955  48.3905426  14.9431417
  78.1851230  42.0412166  20.7613457  77.8501062  42.0012936  21.6571107
  77.6855175  41.3756882  20.2883867  72.1595474  37.4479796  26.2866038
  72.0215272  36.7160035  26.8877577  73.0700397  37.3588696  26.0050226
  81.1210421  39.3868201  11.0350517  80.5039592  38.6615029  10.9383569
  80.6526910  40.1477561  10.6917591  74.7877774  37.1599756  25.7749718
  75.4977393  36.5192948  25.7336336  74.7447082  37.4112650  26.6975899
  82.7764553  44.0967109  28.6956297  82.7177099  43.4126329  28.0286880
  83.1784071  44.8386099  28.2436923  73.5006708  34.1464973  27.5945357
  72.9644065  33.6955712  28.2466954  72.9123417  34.2810882  26.8515822
  72.9108967  33.6053625  10.1571821  72.0338434  33.4842426   9.7934068
  73.3866720  32.8139703   9.9050710  82.7781960  42.0606693  26.9270277
  81.8908739  41.7232615  27.0496676  83.3480511  41.3289724  27.1639042
  64.4311107  38.3930785  20.2513328  65.1182147  38.0792515  19.6634344
  64.2759236  39.2972149  19.9780580  69.2345830  33.2820981  24.6798352
  69.1504018  32.6746651  23.9448762  68.4128536  33.7730000  24.6807848
  76.0972893  45.9579915  17.4034342  75.3140415  46.5001595  17.4972566
  76.7965638  46.4753895  17.8028583  79.4069543  31.7674545  20.0468547
  79.9038243  31.0144507  19.7269617  78.6356525  31.8038861  19.4811756
  87.2599301  37.4714910  21.6886838  87.2489177  38.3539626  21.3180772
  86.3916680  37.1186461  21.4941376  80.4899324  40.5246232  17.6206970
  79.5555603  40.6447694  17.4511675  80.6675993  39.6218699  17.3566980
  75.9904512  33.9091928  19.7740232  75.6202300  33.3562968  20.4621137
  76.4863605  33.3050061  19.2215232  83.8771875  36.3663551  18.1557005
  84.3432328  37.1991543  18.0817307  84.3279376  35.9008533  18.8602263
  81.9448107  42.7107373  15.1543157  82.2207950  42.5963967  16.0637031
  81.0752605  42.3124857  15.1155330  81.8488538  28.7344138  22.1947906
  80.9351618  28.9648365  22.3630113  82.2781640  28.8182582  23.0461938
  81.6194997  36.9234030  24.6947800  80.9666447  37.1709938  24.0400253
  81.9975377  36.1098168  24.3610277  78.5802171  46.9593723  18.7975970
  78.7624565  46.1415379  19.2603722  79.4035157  47.1761416  18.3600860
  78.9144336  45.8861908  16.0591019  79.4432102  45.3754363  15.4461181
  79.1772556  45.5704439  16.9236552  69.4161429  43.9025778  23.8026352
  70.0014866  43.1569466  23.9354256  69.2186267  44.2129734  24.6863016
  72.2700084  46.9377025  18.8188795  71.6010459  47.4223153  18.3352835
  72.1312954  47.1846246  19.7332173  64.0079084  36.4731378  22.5230795
  64.0463183  35.9394969  23.3167913  63.5019376  35.9466584  21.9041773
  71.3869846  31.3195918  26.0193338  71.4511172  32.1810749  25.6070735
  71.3236966  30.7069920  25.2865696  70.8622118  33.3919051  29.6666372
  71.4894157  33.0096128  30.2803896  70.0050037  33.1733253  30.0322064
  67.6387661  35.1995480  15.5984727  67.9341102  34.2906159  15.5451780
  66.7375697  35.1783220  15.2765729  79.5473740  46.9202744  22.4035135
  79.4224879  46.1192484  21.8946081  80.2052831  47.4148938  21.9149105
  71.1681908  33.2751477  21.5812275  70.4468494  33.8887444  21.4419749
  71.9575164  33.8109242  21.5028921  81.6108648  44.7211764  24.0314685
  80.6638984  44.6017115  23.9593012  81.9591421  43.8334262  24.1140947
  73.9708222  30.6105903  27.8552927  74.4942623  30.8568200  28.6179236
  73.7520555  31.4425938  27.4356064  69.3675503  32.8809578  15.7224052
  69.0388209  32.0006957  15.5399158  69.7214873  32.8257246  16.6100441
  78.6155082  44.5164481  20.2319037  78.4680044  43.5881188  20.4126607
  79.4408575  44.5384571  19.7476113  72.4817326  33.1682548  16.0899530
  72.8213398  33.6968469  15.3678138  72.9289446  33.5062954  16.8658096
  82.2189203  45.3393039  21.3183910  83.1435751  45.1335901  21.1808361
  82.0504507  45.0909440  22.2273252  75.1760767  31.5519598  25.5402598
  74.8357587  30.7527411  25.9423278  74.4699773  31.8521309  24.9679431
  75.8277238  28.6368911  23.9929921  76.6503308  28.1629389  23.8708811
  76.0715302  29.4159395  24.4928607  74.4685473  31.6657169  14.2892822
  75.1893835  32.0438422  13.7856539  73.8450777  32.3846046  14.3927800
  78.6116596  32.3702318  15.2251155  78.8280210  33.2526956  14.9239983
  78.1310663  31.9788532  14.4956797  73.3515817  35.3288031  21.8021899
  73.2060398  35.6428334  22.6946181  72.8741021  35.9472932  21.2492798
  75.2112200  32.3190579  21.8502789  75.1973769  31.4231673  21.5135087
  75.9284628  32.3261243  22.4841075  77.0638331  32.7527920  23.8955916
  76.8056109  33.6744990  23.8940247  76.5323371  32.3558354  24.5856380
  82.0084520  45.8578707  16.6746002  82.1821397  45.2925129  15.9219854
  82.5013411  46.6579602  16.4925492  67.8261479  37.8693376  24.7409560
  67.2814947  38.6453184  24.8729835  68.7040829  38.2164180  24.5828682
  74.6149096  31.2004960  17.1190359  74.7365007  30.2721606  17.3181246
  74.3251138  31.2143646  16.2068674  77.4840286  28.8859870  20.2557079
  77.5061983  28.9499203  19.3009058  77.9008345  28.0464379  20.4497585
  87.8623911  38.6215130  18.2936301  88.3055057  37.8722455  17.8955425
  86.9850421  38.6125266  17.9110033  82.9959692  45.1745471  13.7742900
  83.6910597  45.7952164  13.9930215  83.3382842  44.3240822  14.0495278
  68.6127501  36.9963272  27.6339717  67.8709237  37.1445907  28.2204348
  68.2920246  37.2571538  26.7706467  84.8951115  42.6245177  15.3030231
  85.4202439  42.9632449  14.5779551  84.8073468  41.6892192  15.1193365
  76.5791776  48.6917160  19.6625484  76.1396766  48.1993539  20.3558341
  77.3299893  48.1490128  19.4217559  69.0584115  44.8828701  19.6650112
  69.8842135  44.5832473  19.2848755  68.7078167  44.1136323  20.1139901
  74.0265648  44.2355169  21.7347786  73.4045657  43.5725874  21.4350013
  74.6970515  44.2616301  21.0521433  67.2592720  42.8015027  20.6239046
  66.4224628  42.3737202  20.4423047  67.2316365  42.9947471  21.5609837
  84.7042896  40.1070547  27.9214157  84.7540901  39.9420554  28.8629680
  84.5956820  39.2397806  27.5312038  73.5879155  42.7859092  15.2106246
  73.7367275  43.4694557  14.5572919  74.3945598  42.7664182  15.7255702
  87.4056775  40.0920368  20.6858749  88.2403667  40.5310172  20.8496309
  87.5415904  39.6159021  19.8666995  84.4548281  37.6500103  26.6336237
  84.9302403  37.8427749  25.8255088  83.5313847  37.7059289  26.3879620
  71.3431788  38.8124270  16.2167315  71.0977830  37.9086600  16.4147525
  71.5127703  38.8141420  15.2746793  79.0328498  29.6847946  25.5992071
  79.5510442  30.4208973  25.2738559  78.6783631  29.9911940  26.4338830
  70.6127436  34.5452628  13.7153476  69.9196680  34.6196983  13.0593512
  70.3679187  33.7812971  14.2374993  79.2841092  26.1048229  21.1192967
  79.5642846  25.4371418  21.7453394  80.0691699  26.2977325  20.6067631
  77.0874561  45.2807223  12.6817994  76.5148528  45.8997410  12.2288465
  77.6607354  45.8306584  13.2157915  83.1549950  34.5265863  24.8664542
  84.1067373  34.6263961  24.8876766  82.9853401  33.7344131  25.3762627
  81.1764330  31.6121446  25.0523943  80.5814262  31.8926459  24.3570432
  80.8914027  32.1015347  25.8240684  80.3071820  45.5644373  13.8126576
  81.2402493  45.4989935  14.0159451  80.2195033  46.4000640  13.3541108
  82.9359837  44.8810243  10.7730523  82.8573469  44.5470107  11.6666281
  83.7569504  45.3732011  10.7721996  85.6338028  37.7471983  23.9806842
  85.6014348  36.8087983  24.1666526  86.2438652  37.8256019  23.2472667
  77.4721359  36.6168036  10.0234046  78.4180464  36.4874244  10.0922464
  77.0935604  35.8782697  10.5003474  85.7832517  34.5383026  24.0265125
  85.2671565  33.7541483  23.8395054  86.6672465  34.2101743  24.1911645
  83.4443244  28.2824042  19.9860938  83.2468065  27.9739130  20.8704270
  84.0542949  29.0085680  20.1158868  91.4514578  38.8087989  23.1212879
  92.1817966  38.5473278  23.6820582  90.8421523  38.0716711  23.1614947
  89.5329875  36.9495852  23.7187330  88.8063039  36.8151817  23.1103822
  89.1177162  37.2572681  24.5244048  75.6564276  34.5418012   9.9588931
  74.7495732  34.2451125  10.0351645  75.9340257  34.2447830   9.0923217
  66.5742217  35.8624375  20.4087978  66.2545001  35.0089684  20.1162352
  66.0275645  36.0772953  21.1645945  70.3522124  38.5786816  24.1257484
  70.5708134  39.5103924  24.1445518  70.7647898  38.2194791  24.9112288
  77.2726342  29.0854902  16.1133173  76.4627070  28.7401987  16.4888419
  77.9610759  28.7762445  16.7020784  79.2016890  28.1632948  17.7357469
  79.7547929  28.5828402  18.3947492  79.4386977  27.2368697  17.7780425
  74.4263061  31.4004947  10.1000910  75.2882225  31.7259845  10.3596728
  74.6113405  30.6136443   9.5873976  66.4430477  39.4827287  22.3781099
  65.7493948  39.0681240  21.8651054  67.1903468  39.5247823  21.7814518
  82.5795697  30.2733474  17.2436133  81.9994366  30.9318278  16.8614186
  82.3131630  29.4510818  16.8323551  81.0299264  29.6738531  19.4457454
  81.5299042  29.7855066  18.6371773  81.6734872  29.3699584  20.0858262
  68.3567219  39.4145541  20.2547114  68.3337907  39.5133228  19.3028997
  68.6667856  40.2610691  20.5764280  81.3620575  32.4333564  16.2992482
  80.4746430  32.7183215  16.0812676  81.7774564  32.2727327  15.4519759
  84.7135111  32.4580085  20.0146821  85.4895502  32.9476537  20.2871438
  83.9883246  32.8838139  20.4718690  87.1507670  33.1707704  21.0720762
  87.7452161  32.9303440  20.3614070  87.2234254  32.4514835  21.6994298
  69.3704826  47.0141315  21.3863926  69.2359294  46.2541716  20.8201924
  68.9536888  47.7382215  20.9192715  80.5063789  42.1978239  10.3940502
  81.2099639  42.4028241  11.0098157  79.7826438  42.7655001  10.6589585
  81.3361599  37.9488100  16.5142772  81.2796800  38.4056651  15.6750404
  81.8889942  37.1878785  16.3365615  85.1466405  33.7377832  17.3392891
  84.8903339  33.3374467  18.1701099  84.5219273  34.4521626  17.2143030
  89.4578743  36.4773905  19.8464183  88.8978301  36.5467094  20.6195745
  88.8522246  36.3014890  19.1263679  82.4150486  42.6360768  12.4438962
  83.2496090  42.2041966  12.2616437  82.2534829  42.4642782  13.3715856
  82.0696378  39.1392881  13.8095301  82.0145182  38.9737153  12.8683745
  81.4442434  39.8468914  13.9657491  66.8588893  34.3760946  27.6356723
  67.5047757  33.8659900  28.1243948  66.6506044  35.1129627  28.2100148
  75.3792504  28.6400990  13.3880619  75.3671174  29.5842830  13.5448890
  76.2715926  28.4571136  13.0940081  75.3082068  47.3169881  21.4748376
  74.3577699  47.3171742  21.3612748  75.6114554  46.5702615  20.9584411
  79.1944623  25.2343767  17.6426556  78.4277019  24.6802254  17.7883239
  79.6055328  25.3065636  18.5040708  71.1986384  31.5228563  31.7331737
  72.0617846  31.1665367  31.9435062  70.6251795  31.1842457  32.4207142
  91.0434761  53.1530419  22.5394138  91.6813171  53.0337166  21.8357479
  90.9255604  54.1011263  22.5982091  87.8524468  53.1057847  22.4755663
  87.5142979  52.9898912  21.5876198  88.7214236  52.7049012  22.4556669
  83.7111283  54.9593323  18.4652554  83.1476148  54.8683260  17.6968842
  83.5963678  54.1393228  18.9455047  88.3344251  54.2592699  28.4341869
  88.3232891  53.8645497  27.5622372  88.4964890  53.5258771  29.0275640
  81.2575715  56.4544515  21.3036775  82.0497007  56.1135340  20.8883074
  81.4972365  56.5639490  22.2238928  89.2910842  58.6264291  13.7767019
  88.6398822  59.2118372  13.3901033  90.0855205  59.1570486  13.8362056
  83.2166469  55.7153428  14.1754153  83.9897345  55.1682415  14.0367029
  83.5691868  56.5797678  14.3868615  85.0551512  57.0429811  27.3821053
  84.7641378  57.9475441  27.2667719  85.6908496  57.0846338  28.0965122
  85.9807719  54.4206659  23.9722412  86.5771291  54.1962682  23.2579375
  86.0382690  53.6791405  24.5747860  85.5532747  51.8746094  11.8072603
  85.8058268  51.3527616  11.0456066  84.6157306  51.7112240  11.9099287
  90.5976030  50.8781873  19.6147347  91.3839119  50.4601296  19.2637764
  90.8614734  51.7827965  19.7828995  90.7686107  56.3154723  14.3136003
  90.1331940  56.3889350  15.0256908  90.4383514  56.9048322  13.6355083
  95.9984457  50.8157106  20.5180325  96.7309629  50.2456323  20.7518155
  95.2423813  50.4278706  20.9586831  85.2729036  53.7774200  14.0096978
  85.1565294  53.1019104  14.6778063  85.3831296  53.2906574  13.1929131
  87.6160577  53.2384348  17.7143667  87.2518784  52.7114968  18.4256589
  88.4727693  52.8482817  17.5410153  93.5209877  44.5278680  24.9774934
  93.1893202  45.3974091  24.7536149  92.9255491  44.2114964  25.6568964
  87.2566064  48.2674247  12.7105016  87.4240466  49.1354484  13.0775487
  87.0663233  48.4301529  11.7866305  90.0141397  56.7291226  24.3770846
  89.7142120  57.6316265  24.2686654  89.6692456  56.4623409  25.2291999
  83.4653878  53.1805023  20.4107551  82.5404375  53.0481237  20.6185243
  83.7138291  53.9599242  20.9077493  93.4138541  49.2473766  22.0568284
  92.5055418  49.1789175  21.7627045  93.3626136  49.7245711  22.8850109
  87.2355284  50.7231905  13.6951683  87.1154910  51.1688955  14.5337163
  86.5407873  51.0717222  13.1365221  80.8262689  52.8238297  21.2451340
  80.9555070  53.0772775  22.1590752  80.1460141  53.4166005  20.9255995
  84.9962177  63.4935546  17.3441814  84.9186206  64.4443372  17.4230295
  84.3923820  63.1481419  18.0016740  87.4879406  50.6663412  30.0003181
  86.7112740  51.2257332  29.9906046  88.1269969  51.1520195  30.5218051
  95.2800187  47.4490205  23.8346158  94.6374567  47.7422738  23.1885952
  94.7755115  47.3343125  24.6399354  92.9340351  51.1953378  14.5232017
  93.8458207  51.4280765  14.3479714  92.4249998  51.7790422  13.9607095
  85.7425779  53.4748865  29.5621148  86.4840463  54.0133909  29.2855972
  85.0362764  54.1015154  29.7192700  91.2181118  55.6178006  28.1593309
  91.6264474  55.1760416  27.4147942  90.4958380  55.0430633  28.4127502
  87.5712188  50.5550612  25.5326866  88.4173384  50.9790026  25.6761515
  87.5110826  49.8984237  26.2265429  91.5409933  56.1779196  21.9145598
  90.9118795  56.3424910  21.2121666  91.1535595  56.5920806  22.6856562
  95.4199165  57.1133634  19.2689962  94.7350203  57.4932536  18.7186995
  95.5043014  57.7228961  20.0021910  90.7211634  48.2154981  27.1908040
  90.4772566  48.9697041  26.6542316  90.9971564  48.5940328  28.0255287
  92.6750096  54.7593593  25.8685306  92.8866992  55.4025353  25.1919687
  92.6279845  53.9255910  25.4007236  90.2776325  47.3711414  22.7721878
  89.4160804  47.6692667  23.0638615  90.3038760  47.5881813  21.8402910
  87.0937895  55.9153604  19.1795683  87.5576240  56.1941307  18.3900306
  86.8294693  55.0137049  18.9968774  83.9861976  55.4625086  22.1175447
  84.5563333  55.8912354  21.4792931  84.5770088  55.1807671  22.8159632
  86.0306781  52.0376757  15.9885249  86.7330824  52.4897800  16.4559175
  85.6987409  51.3960576  16.6165142  84.4787142  50.6288513  30.3636458
  83.8485803  51.3104794  30.5971855  84.3723230  50.5171595  29.4189596
  79.7732115  50.2960309  21.2902382  78.9831169  50.5517838  20.8142493
  80.2643362  51.1108647  21.3954423  93.7895924  57.6365549  24.0407663
  94.6113368  57.2345736  23.7590345  93.7858327  57.5333783  24.9923779
  81.7246860  50.6604889  18.2485859  80.9278023  50.7723583  18.7669354
  81.4972452  50.9991541  17.3826749  87.5552528  57.1849592  26.1968373
  87.6196960  57.6469999  27.0326545  86.8463452  56.5546957  26.3250683
 101.8801917  53.9804297  20.3892634 101.1265626  53.4111695  20.2336639
 102.0149459  53.9466962  21.3363269  87.2700545  58.8517699  16.0647354
  87.1346220  59.6969235  16.4932202  87.8110358  59.0536977  15.3013288
  83.7567885  44.9309279  32.7261709  83.3634831  44.3775478  33.4009353
  84.5734025  45.2419858  33.1168227  80.7229943  56.3693137  16.6375279
  81.2354463  57.1636388  16.7880844  81.3752656  55.6719428  16.5708880
  82.5324828  59.4858894  18.7198032  82.7091456  60.4076858  18.5319016
  83.3281661  59.1717313  19.1492412  88.8969022  59.4741266  30.1947696
  88.4532876  58.6877644  29.8768600  89.5586235  59.6620416  29.5291587
  83.6556143  61.0037068  24.7208374  84.2063568  60.8754131  23.9485368
  82.8167619  61.3031957  24.3703267  90.9950260  59.7544066  28.2229097
  90.9768735  60.5752947  27.7309366  91.9170180  59.6298141  28.4479238
  87.4523314  57.2688195  29.0652605  87.9851651  56.5076484  28.8351913
  86.9237395  56.9761847  29.8076760  90.6193009  42.3748261  24.5946247
  90.2757278  43.2649903  24.5185358  90.9871972  42.1849919  23.7315832
  78.6878860  54.6981792  17.4134849  79.5254082  55.1078800  17.1968557
  78.8657127  53.7581234  17.3835043  90.5843292  52.3656872  13.1018682
  90.0689915  53.1361477  13.3407070  90.3120600  51.6922009  13.7251744
  88.1690403  47.2106573  18.1603921  87.3131999  46.8213424  17.9809559
  88.5817355  47.2898534  17.3003706  89.6989549  44.7452916  22.5595480
  89.1954345  44.7083052  21.7463286  89.9920156  45.6545659  22.6192137
  85.9432435  44.8291646  21.5661662  86.8085432  44.6334455  21.2067552
  86.0109944  44.6001998  22.4931019  95.5577566  55.1189227  15.0371856
  94.7807009  54.7800387  14.5927018  96.2369047  55.1241850  14.3626821
  90.3729595  50.2383965  14.9278464  90.0679731  50.5530114  15.7788607
  91.3260037  50.3165384  14.9705797  88.8176027  56.3974188  16.5771418
  88.2897388  55.6626947  16.2644655  88.3163530  57.1748864  16.3311386
  93.7968873  54.5923208  21.6938464  93.1392547  55.2822470  21.7818592
  94.6009272  54.9819640  22.0372450  83.5494754  47.0593854  18.9378029
  84.1238506  46.8369036  18.2051222  84.1365737  47.1282549  19.6906630
  92.6074332  52.9467581  19.7442406  93.1206213  53.5797573  20.2464115
  93.2575555  52.3468777  19.3785766  83.8764342  49.0898315  12.9573914
  83.0401654  49.4273002  13.2783189  83.7369111  48.9547295  12.0201051
  85.8517422  43.9335103  17.6653098  85.1981834  43.6184120  17.0409713
  85.8097896  43.3110843  18.3912921  86.9628627  54.2154398   9.5806391
  86.0555689  53.9843652   9.7797540  87.4599659  53.4192017   9.7680372
  89.8696706  62.9251905  12.5003077  89.1958405  63.2283602  13.1088035
  90.2562528  63.7280986  12.1508534  89.0855162  50.4217037  21.9900746
  88.1677724  50.6431984  21.8322434  89.5015306  50.4963347  21.1312453
  89.8690210  51.8208452  17.1203426  90.6162029  52.3329849  16.8110548
  90.1381800  51.4992505  17.9807820  88.1416860  54.3166993  14.1030381
  87.2328080  54.0326026  14.2002850  88.1711944  54.7366072  13.2433687
  93.3736128  57.9273582  17.8721548  92.9198455  57.0864492  17.9286739
  92.7430095  58.5634981  18.2096328  92.3169047  48.8565568  19.1022216
  91.5791804  48.3442955  19.4332458  92.5695821  48.4165950  18.2905493
  91.8169067  59.7650079  18.8071366  92.1092041  60.3255136  18.0883732
  92.3267688  60.0578640  19.5624525  92.4180675  41.6341820  19.6963985
  92.7239552  40.7739184  19.4089900  93.1433280  42.2259441  19.4962979
  78.7105031  52.0372507  18.0845583  78.5129431  51.4441868  17.3596649
  78.1551695  51.7324717  18.8021522  86.6901754  51.9295614  20.2040176
  86.7450364  50.9769450  20.1282653  85.8792956  52.0855053  20.6881474
  87.8392948  55.8575737  11.4418459  87.4012378  55.1411596  10.9824097
  88.5803389  56.0851851  10.8803551  84.6294114  50.5472673  17.9630555
  83.8161980  50.8466844  18.3695747  85.1253109  50.1528362  18.6805037
  86.7802692  60.5430430  19.8964820  86.7378871  60.7691277  18.9673352
  87.6965391  60.3093805  20.0450621  90.2268326  51.0114498  26.7945449
  90.5817714  51.2385971  27.6539914  90.8740457  51.3432875  26.1722704
  95.9566063  54.1332934  17.4994778  95.8183962  54.3234530  16.5715967
  95.6002282  54.8952316  17.9562829  84.1208189  48.1191029  23.5791790
  84.7607568  47.9779788  22.8814753  83.2885720  47.8325542  23.2030392
  95.9835443  56.2009461  22.5106049  96.4171949  56.1084750  23.3589103
  96.6967023  56.1766961  21.8726065  84.8968493  57.4193459  19.6926782
  85.6909092  56.9243779  19.4909357  84.1860185  56.8911322  19.3294488
  89.7163338  59.8011555  24.0439150  89.7700360  60.3702491  24.8116866
  88.8478119  59.9713440  23.6793187  81.2051256  51.5636541  15.7686535
  80.2748845  51.5020996  15.9856497  81.3008728  51.0412494  14.9723176
  81.1236806  48.0891354  18.3564777  81.3843623  49.0036687  18.2473937
  81.9453978  47.6215796  18.5061389  82.5961731  49.5029111  25.5263601
  83.2684784  49.2946473  24.8776250  81.7691517  49.3051197  25.0868833
  96.8450992  56.2433161  25.0438935  97.0386882  57.1478972  25.2898210
  96.7451610  55.7840580  25.8777520  88.4987303  46.1291052  27.5429262
  87.8515218  46.8281002  27.4493738  89.2688318  46.5627196  27.9105510
  91.9066101  56.3939904  30.6179815  91.7551607  56.1650456  29.7009899
  91.8970780  57.3510505  30.6311160  88.6751437  53.9671817  25.6026082
  89.6043497  54.1182976  25.4295049  88.2542467  54.0555838  24.7474728
  87.4739769  57.9922481  23.3724619  87.3350855  57.6241266  24.2450557
  86.6854365  58.5070121  23.2008577  88.0687921  63.0931578  14.7150156
  88.2439677  62.6219621  15.5295779  87.3820709  63.7197344  14.9431417
  89.0244984  57.3704084  20.7613457  88.6894817  57.3304854  21.6571107
  88.5248930  56.7048800  20.2883867  82.9989228  52.7771714  26.2866038
  82.8609026  52.0451953  26.8877577  83.9094152  52.6880614  26.0050226
  91.9604176  54.7160118  11.0350517  91.3433346  53.9906946  10.9383569
  91.4920664  55.4769479  10.6917591  85.6271529  52.4891673  25.7749718
  86.3371147  51.8484865  25.7336336  85.5840837  52.7404568  26.6975899
  93.6158307  59.4259027  28.6956297  93.5570854  58.7418247  28.0286880
  94.0177826  60.1678017  28.2436923  84.3400463  49.4756891  27.5945357
  83.8037820  49.0247630  28.2466954  83.7517171  49.6102800  26.8515822
  82.6349006  66.2420940  21.4890016  82.8745605  66.8739465  22.1669035
  81.7918203  65.8908980  21.7755375  83.7502722  48.9345543  10.1571821
  82.8732188  48.8134343   9.7934068  84.2260475  48.1431621   9.9050710
  93.6175715  57.3898611  26.9270277  92.7302494  57.0524532  27.0496676
  94.1874266  56.6581642  27.1639042  75.2704862  53.7222702  20.2513328
  75.9575902  53.4084432  19.6634344  75.1152991  54.6264067  19.9780580
  87.1476868  62.0500063  23.8931520  87.0747040  62.8555034  24.4050825
  86.7054261  62.2492029  23.0679541  86.9366648  61.2871833  17.4034342
  86.1534170  61.8293513  17.4972566  87.6359393  61.8045813  17.8028583
  90.2463298  47.0966462  20.0468547  90.7431997  46.3436425  19.7269617
  89.4750279  47.1330779  19.4811756  98.0993055  52.8006828  21.6886838
  98.0882932  53.6831543  21.3180772  97.2310435  52.4478379  21.4941376
  89.6075552  61.9486897  26.0489679  90.3203524  62.5834362  25.9765580
  89.1165580  62.0450763  25.2329681  91.3293079  55.8538150  17.6206970
  90.3949357  55.9739612  17.4511675  91.5069747  54.9510616  17.3566980
  86.8298267  49.2383845  19.7740232  86.4596054  48.6854886  20.4621137
  87.3257359  48.6341979  19.2215232  94.7165630  51.6955469  18.1557005
  95.1826082  52.5283460  18.0817307  95.1673130  51.2300450  18.8602263
  84.6587465  59.6981340  26.8695250  85.3596925  60.3317823  27.0224644
  84.1882580  60.0396072  26.1090889  92.7841861  58.0399290  15.1543157
  93.0601705  57.9255885  16.0637031  91.9146360  57.6416775  15.1155330
  92.6882293  44.0636056  22.1947906  91.7745372  44.2940283  22.3630113
  93.1175394  44.1474500  23.0461938  92.4588751  52.2525948  24.6947800
  91.8060201  52.5001855  24.0400253  92.8369131  51.4390086  24.3610277
  89.4195925  62.2885641  18.7975970  89.6018320  61.4707297  19.2603722
  90.2428911  62.5053333  18.3600860  89.7538091  61.2153826  16.0591019
  90.2825857  60.7046281  15.4461181  90.0166310  60.8996356  16.9236552
  88.5076324  52.9945759  31.1813837  87.8316961  52.8939888  31.8516212
  89.3303958  52.8384973  31.6449834  80.2555183  59.2317695  23.8026352
  80.8408620  58.4861383  23.9354256  80.0580022  59.5421652  24.6863016
  83.1093838  62.2668943  18.8188795  82.4404214  62.7515070  18.3352835
  82.9706708  62.5138163  19.7332173  74.8472838  51.8023296  22.5230795
  74.8856938  51.2686886  23.3167913  74.3413131  51.2758501  21.9041773
  87.2499107  64.3012686  25.4171453  87.8017415  64.4644308  26.1820538
  87.5905301  64.8917124  24.7451478  82.2263600  46.6487836  26.0193338
  82.2904927  47.5102667  25.6070735  82.1630721  46.0361838  25.2865696
  92.1009981  59.1273944  31.2720107  92.6449885  59.7403902  30.7775062
  91.5196826  59.6853522  31.7887120  78.4781416  50.5287398  15.5984727
  78.7734857  49.6198076  15.5451780  77.5769451  50.5075137  15.2765729
  90.3867494  62.2494662  22.4035135  90.2618634  61.4484402  21.8946081
  91.0446585  62.7440855  21.9149105  82.0075663  48.6043394  21.5812275
  81.2862248  49.2179362  21.4419749  82.7968918  49.1401159  21.5028921
  92.4502403  60.0503682  24.0314685  91.5032738  59.9309033  23.9593012
  92.7985176  59.1626180  24.1140947  84.8101976  45.9397821  27.8552927
  85.3336378  46.1860117  28.6179236  84.5914309  46.7717856  27.4356064
  80.2069257  48.2101495  15.7224052  79.8781963  47.3298874  15.5399158
  80.5608628  48.1549164  16.6100441  89.4548836  59.8456398  20.2319037
  89.3073798  58.9173106  20.4126607  90.2802330  59.8676489  19.7476113
  83.3211080  48.4974465  16.0899530  83.6607153  49.0260387  15.3678138
  83.7683201  48.8354871  16.8658096  93.0582958  60.6684957  21.3183910
  93.9829505  60.4627818  21.1808361  92.8898261  60.4201358  22.2273252
  86.0154521  46.8811516  25.5402598  85.6751341  46.0819329  25.9423278
  85.3093527  47.1813227  24.9679431  86.6670993  43.9660828  23.9929921
  87.4897062  43.4921307  23.8708811  86.9109056  44.7451312  24.4928607
  85.3079227  46.9949087  14.2892822  86.0287590  47.3730340  13.7856539
  84.6844532  47.7137964  14.3927800  89.4510350  47.6994236  15.2251155
  89.6673965  48.5818874  14.9239983  88.9704417  47.3080449  14.4956797
  84.1909572  50.6579949  21.8021899  84.0454152  50.9720252  22.6946181
  83.7134775  51.2764849  21.2492798  86.0505955  47.6482497  21.8502789
  86.0367523  46.7523590  21.5135087  86.7678383  47.6553161  22.4841075
  87.9032085  48.0819837  23.8955916  87.6449863  49.0036908  23.8940247
  87.3717126  47.6850272  24.5856380  92.8478274  61.1870624  16.6746002
  93.0215152  60.6217047  15.9219854  93.3407165  61.9871519  16.4925492
  85.4542851  46.5296877  17.1190359  85.5758762  45.6013524  17.3181246
  85.1644893  46.5435563  16.2068674  88.3234041  44.2151788  20.2557079
  88.3455738  44.2791121  19.3009058  88.7402100  43.3756296  20.4497585
  98.7017665  53.9507047  18.2936301  99.1448811  53.2014373  17.8955425
  97.8244176  53.9417184  17.9110033  93.8353447  60.5037389  13.7742900
  94.5304351  61.1244081  13.9930215  94.1776597  59.6532740  14.0495278
  95.7344870  57.9537094  15.3030231  96.2596194  58.2924367  14.5779551
  95.6467222  57.0184110  15.1193365  87.3964918  61.8671168  27.4320107
  87.7052045  61.6220315  28.3042807  88.1940400  62.0717806  26.9438978
  87.4185530  64.0209078  19.6625484  86.9790521  63.5285456  20.3558341
  88.1693647  63.4782045  19.4217559  79.8977869  60.2120618  19.6650112
  80.7235889  59.9124390  19.2848755  79.5471921  59.4428241  20.1139901
  84.8659403  59.5647087  21.7347786  84.2439412  58.9017792  21.4350013
  85.5364269  59.5908219  21.0521433  78.0986474  58.1306945  20.6239046
  77.2618383  57.7029119  20.4423047  78.0710120  58.3239388  21.5609837
  84.9383930  48.0428875  31.3280292  84.9872086  48.9190998  30.9458061
  85.4806444  47.5006268  30.7551935  95.4238776  58.5869998  30.6081429
  94.6334319  58.5694137  30.0685928  95.1872130  59.1258292  31.3630465
  95.5436651  55.4362464  27.9214157  95.5934656  55.2712472  28.8629680
  95.4350574  54.5689723  27.5312038  84.4272909  58.1151010  15.2106246
  84.5761030  58.7986474  14.5572919  85.2339353  58.0956100  15.7255702
  92.8340413  51.4193392  29.2373464  93.7350276  51.2799857  28.9457462
  92.9088388  51.5847847  30.1771641  87.1683219  48.7960247  28.0826650
  86.2986528  49.0893813  27.8109239  87.4042699  49.3800692  28.8033914
  97.0454848  57.8559406  28.1656179  96.7539656  58.2189386  29.0019640
  96.4326979  57.1426414  27.9869511  98.2450530  55.4212286  20.6858749
  99.0797421  55.8602090  20.8496309  98.3809659  54.9450939  19.8666995
  95.2942036  52.9792020  26.6336237  95.7696157  53.1719667  25.8255088
  94.3707601  53.0351206  26.3879620  82.1825542  54.1416188  16.2167315
  81.9371584  53.2378518  16.4147525  82.3521457  54.1433338  15.2746793
  89.8722252  45.0139864  25.5992071  90.3904196  45.7500891  25.2738559
  89.5177385  45.3203857  26.4338830  81.4521190  49.8744545  13.7153476
  80.7590435  49.9488900  13.0593512  81.2072942  49.1104889  14.2374993
  90.1234847  41.4340147  21.1192967  90.4036600  40.7663336  21.7453394
  90.9085453  41.6269242  20.6067631  87.9268315  60.6099140  12.6817994
  87.3542282  61.2289328  12.2288465  88.5001109  61.1598502  13.2157915
  93.9943705  49.8557781  24.8664542  94.9461128  49.9555878  24.8876766
  93.8247155  49.0636049  25.3762627  92.0158084  46.9413364  25.0523943
  91.4208016  47.2218376  24.3570432  91.7307781  47.4307265  25.8240684
  91.1465575  60.8936291  13.8126576  92.0796248  60.8281852  14.0159451
  91.0588788  61.7292557  13.3541108  93.7753591  60.2102161  10.7730523
  93.6967223  59.8762025  11.6666281  94.5963258  60.7023929  10.7721996
  96.4731783  53.0763900  23.9806842  96.4408103  52.1379901  24.1666526
  97.0832406  53.1547937  23.2472667  88.3115114  51.9459953  10.0234046
  89.2574218  51.8166161  10.0922464  87.9329358  51.2074615  10.5003474
  96.6226271  49.8674944  24.0265125  96.1065320  49.0833400  23.8395054
  97.5066220  49.5393660  24.1911645  94.2836998  43.6115959  19.9860938
  94.0861819  43.3031047  20.8704270  94.8936704  44.3377598  20.1158868
 102.2908333  54.1379907  23.1212879 103.0211721  53.8765195  23.6820582
 101.6815278  53.4008629  23.1614947 100.3723630  52.2787770  23.7187330
  99.6456793  52.1443735  23.1103822  99.9570917  52.5864598  24.5244048
  88.1953806  55.9977699  31.4834703  89.1156816  56.1756298  31.6774749
  88.1603389  55.0533745  31.3314402  86.4958031  49.8709930   9.9588931
  85.5889486  49.5743042  10.0351645  86.7734012  49.5739748   9.0923217
  77.4135971  51.1916293  20.4087978  77.0938755  50.3381601  20.1162352
  76.8669399  51.4064871  21.1645945  88.1120096  44.4146819  16.1133173
  87.3020825  44.0693904  16.4888419  88.8004513  44.1054363  16.7020784
  90.0410645  43.4924866  17.7357469  90.5941683  43.9120320  18.3947492
  90.2780731  42.5660614  17.7780425  86.0643744  49.4811940  33.5160233
  85.9640471  50.4306297  33.4472324  85.8465286  49.1530179  32.6436303
  85.2656815  46.7296865  10.1000910  86.1275979  47.0551763  10.3596728
  85.4507159  45.9428361   9.5873976  77.2824231  54.8119204  22.3781099
  76.5887702  54.3973157  21.8651054  78.0297222  54.8539741  21.7814518
  93.4189452  45.6025391  17.2436133  92.8388121  46.2610195  16.8614186
  93.1525384  44.7802736  16.8323551  91.8693018  45.0030449  19.4457454
  92.3692797  45.1146984  18.6371773  92.5128626  44.6991502  20.0858262
  79.1960974  54.7437458  20.2547114  79.1731662  54.8425146  19.3028997
  79.5061610  55.5902609  20.5764280  81.8548351  56.8013613  24.3693729
  82.8091605  56.7697556  24.3023660  81.6560875  56.3404237  25.1843954
  92.2014330  47.7625482  16.2992482  91.3140185  48.0475132  16.0812676
  92.6168319  47.6019245  15.4519759  95.5528866  47.7872003  20.0146821
  96.3289256  48.2768455  20.2871438  94.8277000  48.2130057  20.4718690
  97.9901425  48.4999622  21.0720762  98.5845915  48.2595358  20.3614070
  98.0628008  47.7806752  21.6994298  80.2098580  62.3433233  21.3863926
  80.0753048  61.5833634  20.8201924  79.7930643  63.0674133  20.9192715
  91.3457543  57.5270156  10.3940502  92.0493393  57.7320159  11.0098157
  90.6220192  58.0946918  10.6589585  92.1755354  53.2780018  16.5142772
  92.1190555  53.7348569  15.6750404  92.7283696  52.5170702  16.3365615
  95.9860159  49.0669749  17.3392891  95.7297094  48.6666385  18.1701099
  95.3613027  49.7813543  17.2143030 100.2972497  51.8065823  19.8464183
  99.7372055  51.8759012  20.6195745  99.6916001  51.6306807  19.1263679
  83.3667706  63.2402550  21.5982369  83.2500090  64.1847982  21.4961059
  82.5460152  62.9376111  21.9868168  93.2544241  57.9652686  12.4438962
  94.0889845  57.5333884  12.2616437  93.0928584  57.7934699  13.3715856
  92.9090133  54.4684799  13.8095301  92.8538937  54.3029070  12.8683745
  92.2836188  55.1760832  13.9657491  90.2236040  56.7733711  33.1348864
  91.0927200  56.9474363  32.7735499  89.7442792  57.5928128  33.0124593
  86.2186258  43.9692908  13.3880619  86.2064928  44.9134748  13.5448890
  87.1109680  43.7863053  13.0940081  84.3922220  63.8930812  24.8138297
  85.2949467  63.9254422  25.1304792  84.1659590  62.9631263  24.8284633
  86.1475822  62.6461798  21.4748376  85.1971453  62.6463660  21.3612748
  86.4508308  61.8994533  20.9584411  90.0338378  40.5635684  17.6426556
  89.2670774  40.0094171  17.7883239  90.4449083  40.6357553  18.5040708
 101.8828516  68.4822337  22.5394138 102.5206926  68.3629084  21.8357479
 101.7649359  69.4303181  22.5982091  98.6918222  68.4349765  22.4755663
  98.3536734  68.3190829  21.5876198  99.5607990  68.0340930  22.4556669
  94.5505038  70.2885241  18.4652554  93.9869903  70.1975178  17.6968842
  94.4357433  69.4685146  18.9455047  99.1738005  69.5884616  28.4341869
  99.1626646  69.1937415  27.5622372  99.3358645  68.8550689  29.0275640
  92.0969470  71.7836433  21.3036775  92.8890762  71.4427257  20.8883074
  92.3366120  71.8931408  22.2238928 100.1304596  73.9556209  13.7767019
  99.4792576  74.5410289  13.3901033 100.9248959  74.4862404  13.8362056
  94.0560224  71.0445346  14.1754153  94.8291100  70.4974333  14.0367029
  94.4085622  71.9089595  14.3868615  95.8945266  72.3721728  27.3821053
  95.6035132  73.2767359  27.2667719  96.5302251  72.4138256  28.0965122
  96.8201473  69.7498577  23.9722412  97.4165045  69.5254599  23.2579375
  96.8776445  69.0083322  24.5747860  96.3926501  67.2038012  11.8072603
  96.6452022  66.6819533  11.0456066  95.4551061  67.0404158  11.9099287
 101.4369784  66.2073790  19.6147347 102.2232873  65.7893214  19.2637764
 101.7008489  67.1119883  19.7828995 101.6079862  71.6446641  14.3136003
 100.9725695  71.7181267  15.0256908 101.2777268  72.2340240  13.6355083
 106.8378211  66.1449024  20.5180325 107.5703383  65.5748241  20.7518155
 106.0817567  65.7570624  20.9586831  96.1122790  69.1066118  14.0096978
  95.9959048  68.4311021  14.6778063  96.2225050  68.6198492  13.1929131
  98.4554331  68.5676265  17.7143667  98.0912538  68.0406886  18.4256589
  99.3121447  68.1774734  17.5410153 104.3603632  59.8570598  24.9774934
 104.0286957  60.7266009  24.7536149 103.7649245  59.5406882  25.6568964
  98.0959818  63.5966165  12.7105016  98.2634220  64.4646401  13.0775487
  97.9056987  63.7593447  11.7866305 100.8535151  72.0583144  24.3770846
 100.5535874  72.9608183  24.2686654 100.5086211  71.7915327  25.2291999
  94.3047633  68.5096941  20.4107551  93.3798129  68.3773155  20.6185243
  94.5532046  69.2891160  20.9077493 104.2532295  64.5765684  22.0568284
 103.3449172  64.5081092  21.7627045 104.2019891  65.0537629  22.8850109
  98.0749039  66.0523822  13.6951683  97.9548664  66.4980873  14.5337163
  97.3801627  66.4009140  13.1365221  91.6656444  68.1530214  21.2451340
  91.7948825  68.4064693  22.1590752  90.9853895  68.7457922  20.9255995
  95.8355931  78.8227464  17.3441814  95.7579961  79.7735289  17.4230295
  95.2317575  78.4773337  18.0016740  98.3273161  65.9955330  30.0003181
  97.5506495  66.5549250  29.9906046  98.9663724  66.4812113  30.5218051
 106.1193941  62.7782122  23.8346158 105.4768322  63.0714656  23.1885952
 105.6148870  62.6635043  24.6399354 103.7734105  66.5245296  14.5232017
 104.6851961  66.7572682  14.3479714 103.2643752  67.1082340  13.9607095
  96.5819533  68.8040783  29.5621148  97.3234218  69.3425827  29.2855972
  95.8756519  69.4307072  29.7192700 102.0574873  70.9469923  28.1593309
 102.4658229  70.5052334  27.4147942 101.3352134  70.3722551  28.4127502
  98.4105943  65.8842530  25.5326866  99.2567138  66.3081944  25.6761515
  98.3504580  65.2276154  26.2265429 102.3803687  71.5071114  21.9145598
 101.7512550  71.6716828  21.2121666 101.9929349  71.9212724  22.6856562
 106.2592919  72.4425552  19.2689962 105.5743957  72.8224453  18.7186995
 106.3436769  73.0520879  20.0021910 101.5605388  63.5446899  27.1908040
 101.3166320  64.2988959  26.6542316 101.8365319  63.9232246  28.0255287
 103.5143851  70.0885511  25.8685306 103.7260746  70.7317271  25.1919687
 103.4673599  69.2547827  25.4007236 101.1170080  62.7003332  22.7721878
 100.2554559  62.9984585  23.0638615 101.1432515  62.9173730  21.8402910
  97.9331649  71.2445522  19.1795683  98.3969995  71.5233225  18.3900306
  97.6688447  70.3428967  18.9968774  94.8255730  70.7917004  22.1175447
  95.3957087  71.2204272  21.4792931  95.4163842  70.5099588  22.8159632
  96.8700535  67.3668674  15.9885249  97.5724579  67.8189718  16.4559175
  96.5381164  66.7252493  16.6165142  95.3180897  65.9580431  30.3636458
  94.6879557  66.6396712  30.5971855  95.2116985  65.8463513  29.4189596
  90.6125869  65.6252227  21.2902382  89.8224923  65.8809756  20.8142493
  91.1037117  66.4400565  21.3954423 104.6289679  72.9657466  24.0407663
 105.4507123  72.5637654  23.7590345 104.6252082  72.8625700  24.9923779
  92.5640615  65.9896806  18.2485859  91.7671778  66.1015501  18.7669354
  92.3366207  66.3283459  17.3826749  98.3946282  72.5141510  26.1968373
  98.4590715  72.9761917  27.0326545  97.6857206  71.8838875  26.3250683
  88.8963572  65.8782718  23.7217373  89.1471611  66.7629728  23.9874949
  89.4323121  65.6987319  22.9492465 112.7195672  69.3096215  20.3892634
 111.9659380  68.7403613  20.2336639 112.8543213  69.2758879  21.3363269
  98.1094300  74.1809617  16.0647354  97.9739975  75.0261153  16.4932202
  98.6504112  74.3828895  15.3013288  94.5961640  60.2601197  32.7261709
  94.2028585  59.7067396  33.4009353  95.4127780  60.5711775  33.1168227
  91.5623697  71.6985055  16.6375279  92.0748218  72.4928305  16.7880844
  92.2146410  71.0011346  16.5708880  93.3718582  74.8150811  18.7198032
  93.5485210  75.7368776  18.5319016  94.1675416  74.5009231  19.1492412
  97.5129601  61.6759076  30.3181966  98.2539314  62.2766229  30.2386428
  97.7447523  60.9336714  29.7600008  92.6570939  66.8615443  28.5960195
  92.5424454  65.9600701  28.8967294  91.8015456  67.1079140  28.2445012
  99.7362776  74.8033184  30.1947696  99.2926631  74.0169562  29.8768600
 100.3979990  74.9912334  29.5291587  94.4949898  76.3328985  24.7208374
  95.0457323  76.2046049  23.9485368  93.6561373  76.6323874  24.3703267
 101.8344014  75.0835984  28.2229097 101.8162490  75.9044865  27.7309366
 102.7563934  74.9590059  28.4479238  98.2917069  72.5980113  29.0652605
  98.8245405  71.8368401  28.8351913  97.7631150  72.3053765  29.8076760
 101.4586764  57.7040179  24.5946247 101.1151033  58.5941821  24.5185358
 101.8265726  57.5141837  23.7315832  89.5272614  70.0273709  17.4134849
  90.3647836  70.4370718  17.1968557  89.7050882  69.0873152  17.3835043
 101.4237046  67.6948790  13.1018682 100.9083670  68.4653395  13.3407070
 101.1514355  67.0213926  13.7251744  99.0084157  62.5398491  18.1603921
  98.1525754  62.1505341  17.9809559  99.4211109  62.6190452  17.3003706
 100.5383304  60.0744834  22.5595480 100.0348100  60.0374969  21.7463286
 100.8313911  60.9837577  22.6192137  96.7826190  60.1583564  21.5661662
  97.6479187  59.9626373  21.2067552  96.8503699  59.9293916  22.4931019
 106.3971320  70.4481145  15.0371856 105.6200763  70.1092304  14.5927018
 107.0762801  70.4533768  14.3626821 101.2123349  65.5675882  14.9278464
 100.9073485  65.8822031  15.7788607 102.1653792  65.6457302  14.9705797
  99.6569781  71.7266106  16.5771418  99.1291143  70.9918865  16.2644655
  99.1557284  72.5040782  16.3311386 104.6362627  69.9215126  21.6938464
 103.9786302  70.6114387  21.7818592 105.4403027  70.3111558  22.0372450
  94.3888509  62.3885772  18.9378029  94.9632261  62.1660953  18.2051222
  94.9759491  62.4574466  19.6906630 103.4468086  68.2759499  19.7442406
 103.9599968  68.9089491  20.2464115 104.0969310  67.6760694  19.3785766
  94.7158096  64.4190233  12.9573914  93.8795408  64.7564919  13.2783189
  94.5762866  64.2839213  12.0201051  96.6911177  59.2627021  17.6653098
  96.0375589  58.9476038  17.0409713  96.6491651  58.6402761  18.3912921
  97.8022381  69.5446316   9.5806391  96.8949443  69.3135569   9.7797540
  98.2993413  68.7483935   9.7680372  99.9248917  65.7508954  21.9900746
  99.0071478  65.9723901  21.8322434 100.3409061  65.8255265  21.1312453
 100.7083965  67.1500370  17.1203426 101.4555784  67.6621767  16.8110548
 100.9775554  66.8284423  17.9807820  98.9810615  69.6458911  14.1030381
  98.0721834  69.3617943  14.2002850  99.0105699  70.0657989  13.2433687
 104.2129882  73.2565500  17.8721548 103.7592209  72.4156410  17.9286739
 103.5823849  73.8926899  18.2096328 103.1562802  64.1857486  19.1022216
 102.4185559  63.6734872  19.4332458 103.4089575  63.7457868  18.2905493
 102.6562822  75.0941997  18.8071366 102.9485796  75.6547054  18.0883732
 103.1661442  75.3870558  19.5624525 103.2574429  56.9633738  19.6963985
 103.5633306  56.1031102  19.4089900 103.9827034  57.5551358  19.4962979
  89.5498785  67.3664425  18.0845583  89.3523185  66.7733785  17.3596649
  88.9945449  67.0616635  18.8021522  97.5295509  67.2587531  20.2040176
  97.5844119  66.3061368  20.1282653  96.7186711  67.4146970  20.6881474
  98.6786703  71.1867654  11.4418459  98.2406133  70.4703513  10.9824097
  99.4197144  71.4143769  10.8803551  95.4687869  65.8764591  17.9630555
  94.6555734  66.1758762  18.3695747  95.9646863  65.4820280  18.6805037
  97.6196447  75.8722348  19.8964820  97.5772626  76.0983194  18.9673352
  98.5359146  75.6385723  20.0450621 101.0662081  66.3406415  26.7945449
 101.4211468  66.5677889  27.6539914 101.7134212  66.6724792  26.1722704
 106.7959817  69.4624851  17.4994778 106.6577716  69.6526447  16.5715967
 106.4396036  70.2244234  17.9562829  94.9601944  63.4482947  23.5791790
  95.6001323  63.3071706  22.8814753  94.1279474  63.1617460  23.2030392
 106.8229197  71.5301378  22.5106049 107.2565704  71.4376667  23.3589103
 107.5360778  71.5058879  21.8726065  95.7362248  72.7485377  19.6926782
  96.5302846  72.2535697  19.4909357  95.0253940  72.2203240  19.3294488
 100.5557092  75.1303472  24.0439150 100.6094114  75.6994409  24.8116866
  99.6871873  75.3005357  23.6793187  92.0445011  66.8928459  15.7686535
  91.1142599  66.8312914  15.9856497  92.1402483  66.3704411  14.9723176
  91.9630560  63.4183271  18.3564777  92.2237377  64.3328605  18.2473937
  92.7847732  62.9507714  18.5061389  93.4355485  64.8321029  25.5263601
  94.1078539  64.6238391  24.8776250  92.6085272  64.6343115  25.0868833
 107.6844747  71.5725079  25.0438935 107.8780637  72.4770890  25.2898210
 107.5845365  71.1132498  25.8777520  99.3381057  61.4582970  27.5429262
  98.6908972  62.1572919  27.4493738 100.1082073  61.8919114  27.9105510
 102.7459855  71.7231822  30.6179815 102.5945362  71.4942373  29.7009899
 102.7364535  72.6802423  30.6311160  99.5145192  69.2963734  25.6026082
 100.4437252  69.4474894  25.4295049  99.0936222  69.3847755  24.7474728
  98.3133524  73.3214399  23.3724619  98.1744609  72.9533183  24.2450557
  97.5248120  73.8362038  23.2008577  98.9081675  78.4223495  14.7150156
  99.0833431  77.9511539  15.5295779  98.2214464  79.0489262  14.9431417
  99.8638739  72.6996002  20.7613457  99.5288571  72.6596772  21.6571107
  99.3642684  72.0340718  20.2883867  93.8382983  68.1063632  26.2866038
  93.7002781  67.3743870  26.8877577  94.7487906  68.0172532  26.0050226
 102.7997930  70.0452036  11.0350517 102.1827101  69.3198864  10.9383569
 102.3314419  70.8061396  10.6917591  96.4665283  67.8183591  25.7749718
  97.1764902  67.1776783  25.7336336  96.4234591  68.0696486  26.6975899
 104.4552062  74.7550944  28.6956297 104.3964608  74.0710164  28.0286880
 104.8571580  75.4969934  28.2436923  95.1794217  64.8048809  27.5945357
  94.6431574  64.3539547  28.2466954  94.5910926  64.9394718  26.8515822
  93.4742761  81.5712858  21.4890016  93.7139359  82.2031382  22.1669035
  92.6311957  81.2200898  21.7755375  94.5896476  64.2637460  10.1571821
  93.7125943  64.1426261   9.7934068  95.0654229  63.4723539   9.9050710
 104.4569469  72.7190528  26.9270277 103.5696248  72.3816450  27.0496676
 105.0268020  71.9873559  27.1639042  86.1098616  69.0514620  20.2513328
  86.7969656  68.7376350  19.6634344  85.9546745  69.9555985  19.9780580
  90.9133338  63.9404817  24.6798352  90.8291527  63.3330486  23.9448762
  90.0916045  64.4313835  24.6807848  97.9870623  77.3791981  23.8931520
  97.9140794  78.1846952  24.4050825  97.5448016  77.5783946  23.0679541
  97.7760402  76.6163751  17.4034342  96.9927924  77.1585431  17.4972566
  98.4753147  77.1337730  17.8028583 101.0857052  62.4258380  20.0468547
 101.5825752  61.6728342  19.7269617 100.3144034  62.4622697  19.4811756
 108.9386810  68.1298746  21.6886838 108.9276686  69.0123461  21.3180772
 108.0704189  67.7770296  21.4941376 100.4469306  77.2778815  26.0489679
 101.1597278  77.9126279  25.9765580  99.9559335  77.3742681  25.2329681
 102.1686833  71.1830067  17.6206970 101.2343112  71.3031530  17.4511675
 102.3463502  70.2802534  17.3566980  97.6692021  64.5675763  19.7740232
  97.2989809  64.0146803  20.4621137  98.1651114  63.9633897  19.2215232
 105.5559384  67.0247387  18.1557005 106.0219837  67.8575378  18.0817307
 106.0066885  66.5592368  18.8602263  95.4981220  75.0273258  26.8695250
  96.1990679  75.6609741  27.0224644  95.0276335  75.3687990  26.1090889
 103.6235616  73.3691208  15.1543157 103.8995459  73.2547802  16.0637031
 102.7540114  72.9708693  15.1155330 103.5276047  59.3927974  22.1947906
 102.6139127  59.6232200  22.3630113 103.9569149  59.4766418  23.0461938
 103.2982506  67.5817866  24.6947800 102.6453956  67.8293773  24.0400253
 103.6762886  66.7682004  24.3610277 100.2589680  77.6177559  18.7975970
 100.4412074  76.7999215  19.2603722 101.0822666  77.8345251  18.3600860
 100.5931845  76.5445744  16.0591019 101.1219611  76.0338198  15.4461181
 100.8560065  76.2288274  16.9236552  99.3470079  68.3237677  31.1813837
  98.6710716  68.2231806  31.8516212 100.1697713  68.1676890  31.6449834
  91.0948938  74.5609613  23.8026352  91.6802375  73.8153301  23.9354256
  90.8973776  74.8713570  24.6863016  93.9487593  77.5960861  18.8188795
  93.2797968  78.0806988  18.3352835  93.8100463  77.8430081  19.7332173
  85.6866592  67.1315213  22.5230795  85.7250692  66.5978804  23.3167913
  85.1806885  66.6050419  21.9041773  98.0892862  79.6304604  25.4171453
  98.6411170  79.7936226  26.1820538  98.4299055  80.2209042  24.7451478
  93.0657355  61.9779754  26.0193338  93.1298681  62.8394585  25.6070735
  93.0024475  61.3653755  25.2865696  92.5409627  64.0502886  29.6666372
  93.1681666  63.6679964  30.2803896  91.6837546  63.8317088  30.0322064
 102.9403736  74.4565862  31.2720107 103.4843640  75.0695820  30.7775062
 102.3590581  75.0145440  31.7887120  89.3175170  65.8579315  15.5984727
  89.6128611  64.9489994  15.5451780  88.4163206  65.8367055  15.2765729
 101.2261249  77.5786580  22.4035135 101.1012388  76.7776319  21.8946081
 101.8840340  78.0732773  21.9149105  92.8469417  63.9335312  21.5812275
  92.1256003  64.5471280  21.4419749  93.6362673  64.4693077  21.5028921
 103.2896157  75.3795600  24.0314685 102.3426493  75.2600951  23.9593012
 103.6378930  74.4918098  24.1140947  95.6495731  61.2689739  27.8552927
  96.1730132  61.5152035  28.6179236  95.4308064  62.1009773  27.4356064
  91.0463012  63.5393413  15.7224052  90.7175718  62.6590792  15.5399158
  91.4002382  63.4841082  16.6100441 100.2942591  75.1748316  20.2319037
 100.1467553  74.2465023  20.4126607 101.1196084  75.1968407  19.7476113
  94.1604835  63.8266383  16.0899530  94.5000907  64.3552304  15.3678138
  94.6076955  64.1646789  16.8658096 103.8976712  75.9976875  21.3183910
 104.8223260  75.7919736  21.1808361 103.7292016  75.7493276  22.2273252
  96.8548276  62.2103434  25.5402598  96.5145096  61.4111247  25.9423278
  96.1487282  62.5105145  24.9679431  97.5064747  59.2952746  23.9929921
  98.3290817  58.8213224  23.8708811  97.7502811  60.0743230  24.4928607
  96.1472982  62.3241005  14.2892822  96.8681344  62.7022257  13.7856539
  95.5238286  63.0429881  14.3927800 100.2904105  63.0286154  15.2251155
 100.5067719  63.9110791  14.9239983  99.8098172  62.6372367  14.4956797
  95.0303326  65.9871867  21.8021899  94.8847907  66.3012170  22.6946181
  94.5528530  66.6056767  21.2492798  96.8899709  62.9774415  21.8502789
  96.8761278  62.0815508  21.5135087  97.6072137  62.9845078  22.4841075
  98.7425840  63.4111755  23.8955916  98.4843618  64.3328826  23.8940247
  98.2110880  63.0142189  24.5856380 103.6872029  76.5162542  16.6746002
 103.8608906  75.9508965  15.9219854 104.1800920  77.3163437  16.4925492
  89.5048988  68.5277211  24.7409560  88.9602456  69.3037019  24.8729835
  90.3828338  68.8748016  24.5828682  96.2936605  61.8588795  17.1190359
  96.4152516  60.9305441  17.3181246  96.0038647  61.8727481  16.2068674
  99.1627795  59.5443705  20.2557079  99.1849492  59.6083039  19.3009058
  99.5795854  58.7048214  20.4497585 109.5411420  69.2798965  18.2936301
 109.9842566  68.5306290  17.8955425 108.6637930  69.2709101  17.9110033
 104.6747201  75.8329306  13.7742900 105.3698106  76.4535999  13.9930215
 105.0170351  74.9824658  14.0495278  90.2915010  67.6547107  27.6339717
  89.5496746  67.8029743  28.2204348  89.9707755  67.9155373  26.7706467
 106.5738624  73.2829012  15.3030231 107.0989948  73.6216285  14.5779551
 106.4860977  72.3476027  15.1193365  98.2358673  77.1963086  27.4320107
  98.5445799  76.9512232  28.3042807  99.0334155  77.4009724  26.9438978
  98.2579285  79.3500995  19.6625484  97.8184275  78.8577374  20.3558341
  99.0087402  78.8073963  19.4217559  90.7371624  75.5412536  19.6650112
  91.5629644  75.2416308  19.2848755  90.3865676  74.7720159  20.1139901
  95.7053157  74.8939004  21.7347786  95.0833166  74.2309709  21.4350013
  96.3758024  74.9200136  21.0521433  88.9380229  73.4598863  20.6239046
  88.1012137  73.0321037  20.4423047  88.9103874  73.6531306  21.5609837
  95.7777685  63.3720792  31.3280292  95.8265840  64.2482915  30.9458061
  96.3200199  62.8298185  30.7551935 106.2632530  73.9161916  30.6081429
 105.4728074  73.8986054  30.0685928 106.0265885  74.4550209  31.3630465
 106.3830405  70.7654382  27.9214157 106.4328410  70.6004389  28.8629680
 106.2744329  69.8981641  27.5312038  95.2666664  73.4442928  15.2106246
  95.4154784  74.1278392  14.5572919  96.0733107  73.4248018  15.7255702
 103.6734168  66.7485310  29.2373464 104.5744030  66.6091775  28.9457462
 103.7482142  66.9139765  30.1771641  98.0076973  64.1252165  28.0826650
  97.1380282  64.4185731  27.8109239  98.2436453  64.7092610  28.8033914
 107.8848602  73.1851324  28.1656179 107.5933410  73.5481304  29.0019640
 107.2720733  72.4718332  27.9869511 109.0844284  70.7504203  20.6858749
 109.9191176  71.1894007  20.8496309 109.2203413  70.2742857  19.8666995
 106.1335790  68.3083938  26.6336237 106.6089912  68.5011584  25.8255088
 105.2101356  68.3643124  26.3879620  93.0219297  69.4708105  16.2167315
  92.7765339  68.5670435  16.4147525  93.1915212  69.4725256  15.2746793
 100.7116007  60.3431782  25.5992071 101.2297951  61.0792809  25.2738559
 100.3571140  60.6495775  26.4338830  92.2914944  65.2036463  13.7153476
  91.5984189  65.2780818  13.0593512  92.0466696  64.4396807  14.2374993
 100.9628601  56.7632064  21.1192967 101.2430355  56.0955253  21.7453394
 101.7479208  56.9561160  20.6067631  98.7662070  75.9391058  12.6817994
  98.1936037  76.5581245  12.2288465  99.3394863  76.4890420  13.2157915
 104.8337459  65.1849698  24.8664542 105.7854882  65.2847796  24.8876766
 104.6640910  64.3927967  25.3762627 102.8551839  62.2705281  25.0523943
 102.2601771  62.5510294  24.3570432 102.5701536  62.7599182  25.8240684
 101.9859329  76.2228208  13.8126576 102.9190002  76.1573770  14.0159451
 101.8982542  77.0584475  13.3541108 107.3125537  68.4055818  23.9806842
 107.2801857  67.4671819  24.1666526 107.9226161  68.4839855  23.2472667
  99.1508868  67.2751871  10.0234046 100.0967973  67.1458079  10.0922464
  98.7723113  66.5366533  10.5003474 107.4620026  65.1966861  24.0265125
 106.9459074  64.4125318  23.8395054 108.3459974  64.8685578  24.1911645
 105.1230753  58.9407877  19.9860938 104.9255574  58.6322965  20.8704270
 105.7330458  59.6669516  20.1158868 113.1302087  69.4671825  23.1212879
 113.8605475  69.2057113  23.6820582 112.5209032  68.7300547  23.1614947
 111.2117384  67.6079687  23.7187330 110.4850548  67.4735652  23.1103822
 110.7964671  67.9156516  24.5244048  99.0347561  71.3269617  31.4834703
  99.9550570  71.5048216  31.6774749  98.9997144  70.3825662  31.3314402
  97.3351785  65.2001847   9.9588931  96.4283241  64.9034960  10.0351645
  97.6127766  64.9031665   9.0923217  88.2529726  66.5208211  20.4087978
  87.9332510  65.6673519  20.1162352  87.7063154  66.7356789  21.1645945
  92.0309633  69.2370652  24.1257484  92.2495643  70.1687759  24.1445518
  92.4435407  68.8778626  24.9112288  98.9513851  59.7438737  16.1133173
  98.1414579  59.3985822  16.4888419  99.6398268  59.4346281  16.7020784
 100.8804399  58.8216784  17.7357469 101.4335438  59.2412237  18.3947492
 101.1174486  57.8952532  17.7780425  96.9037498  64.8103857  33.5160233
  96.8034225  65.7598214  33.4472324  96.6859040  64.4822096  32.6436303
  96.1050570  62.0588783  10.1000910  96.9669734  62.3843681  10.3596728
  96.2900914  61.2720278   9.5873976  88.1217986  70.1411122  22.3781099
  87.4281457  69.7265075  21.8651054  88.8690977  70.1831659  21.7814518
 104.2583206  60.9317309  17.2436133 103.6781875  61.5902113  16.8614186
 103.9919139  60.1094654  16.8323551 102.7086773  60.3322367  19.4457454
 103.2086551  60.4438901  18.6371773 103.3522381  60.0283420  20.0858262
  96.7668768  68.2400996  32.3325295  96.2835850  69.0401356  32.5389184
  96.8529708  68.2508941  31.3792739  90.0354728  70.0729376  20.2547114
  90.0125416  70.1717063  19.3028997  90.3455365  70.9194527  20.5764280
  92.6942106  72.1305531  24.3693729  93.6485359  72.0989473  24.3023660
  92.4954630  71.6696155  25.1843954  93.2841488  70.7006647  26.9364526
  94.1034377  71.1950726  26.9599363  93.5578296  69.7838615  26.9082094
 103.0408084  63.0917399  16.2992482 102.1533939  63.3767050  16.0812676
 103.4562073  62.9311163  15.4519759 106.3922620  63.1163920  20.0146821
 107.1683011  63.6060373  20.2871438 105.6670755  63.5421975  20.4718690
 108.8295179  63.8291540  21.0720762 109.4239670  63.5887276  20.3614070
 108.9021763  63.1098670  21.6994298  91.0492335  77.6725150  21.3863926
  90.9146803  76.9125551  20.8201924  90.6324397  78.3966050  20.9192715
 103.0149108  68.6071935  16.5142772 102.9584309  69.0640487  15.6750404
 103.5677450  67.8462620  16.3365615 106.8253914  64.3961667  17.3392891
 106.5690848  63.9958303  18.1701099 106.2006782  65.1105461  17.2143030
 111.1366252  67.1357740  19.8464183 110.5765810  67.2050930  20.6195745
 110.5309755  66.9598725  19.1263679  94.2061461  78.5694468  21.5982369
  94.0893845  79.5139900  21.4961059  93.3853907  78.2668029  21.9868168
 104.0937995  73.2944603  12.4438962 104.9283599  72.8625802  12.2616437
 103.9322338  73.1226617  13.3715856 103.7483887  69.7976717  13.8095301
 103.6932691  69.6320988  12.8683745 103.1229943  70.5052749  13.9657491
  88.5376402  65.0344781  27.6356723  89.1835266  64.5243735  28.1243948
  88.3293553  65.7713463  28.2100148 101.0629795  72.1025628  33.1348864
 101.9320954  72.2766281  32.7735499 100.5836546  72.9220045  33.0124593
  97.0580013  59.2984826  13.3880619  97.0458683  60.2426665  13.5448890
  97.9503435  59.1154971  13.0940081  95.2315975  79.2222729  24.8138297
  96.1343221  79.2546340  25.1304792  95.0053345  78.2923180  24.8284633
  96.9869577  77.9753716  21.4748376  96.0365208  77.9755578  21.3612748
  97.2902063  77.2286451  20.9584411 100.8732132  55.8927602  17.6426556
 100.1064528  55.3386089  17.7883239 101.2842837  55.9649471  18.5040708
  92.8773893  62.1812398  31.7331737  93.7405355  61.8249203  31.9435062
  92.3039304  61.8426293  32.4207142 112.7222270  83.8114254  22.5394138
 113.3600680  83.6921002  21.8357479 112.6043113  84.7595098  22.5982091
 109.5311977  83.7641682  22.4755663 109.1930488  83.6482747  21.5876198
 110.4001745  83.3632848  22.4556669 110.0131760  84.9176534  28.4341869
 110.0020400  84.5229332  27.5622372 110.1752399  84.1842607  29.0275640
 102.9363224  87.1128350  21.3036775 103.7284516  86.7719175  20.8883074
 103.1759874  87.2223325  22.2238928 106.7339021  87.7013646  27.3821053
 106.4428887  88.6059277  27.2667719 107.3696005  87.7430174  28.0965122
 107.6595228  85.0790494  23.9722412 108.2558800  84.8546517  23.2579375
 107.7170199  84.3375240  24.5747860 115.1997386  75.1862515  24.9774934
 114.8680711  76.0557926  24.7536149 114.6043000  74.8698799  25.6568964
 111.6928906  87.3875061  24.3770846 111.3929629  88.2900100  24.2686654
 111.3479965  87.1207245  25.2291999 105.1441387  83.8388858  20.4107551
 104.2191884  83.7065072  20.6185243 105.3925800  84.6183078  20.9077493
 115.0926050  79.9057602  22.0568284 114.1842927  79.8373010  21.7627045
 115.0413645  80.3829547  22.8850109 102.5050198  83.4822132  21.2451340
 102.6342579  83.7356611  22.1590752 101.8247650  84.0749840  20.9255995
 109.1666915  81.3247247  30.0003181 108.3900249  81.8841167  29.9906046
 109.8057478  81.8104030  30.5218051 116.9587696  78.1074040  23.8346158
 116.3162076  78.4006573  23.1885952 116.4542624  77.9926960  24.6399354
 107.4213288  84.1332701  29.5621148 108.1627972  84.6717745  29.2855972
 106.7150273  84.7598989  29.7192700 112.8968627  86.2761841  28.1593309
 113.3051983  85.8344252  27.4147942 112.1745889  85.7014469  28.4127502
 109.2499697  81.2134448  25.5326866 110.0960893  81.6373861  25.6761515
 109.1898335  80.5568072  26.2265429 112.3999143  78.8738816  27.1908040
 112.1560075  79.6280877  26.6542316 112.6759073  79.2524164  28.0255287
 114.3537605  85.4177429  25.8685306 114.5654501  86.0609188  25.1919687
 114.3067354  84.5839745  25.4007236 111.9563834  78.0295249  22.7721878
 111.0948313  78.3276503  23.0638615 111.9826269  78.2465648  21.8402910
 105.6649485  86.1208921  22.1175447 106.2350842  86.5496190  21.4792931
 106.2557597  85.8391506  22.8159632 106.1574651  81.2872349  30.3636458
 105.5273312  81.9688630  30.5971855 106.0510739  81.1755430  29.4189596
 101.4519624  80.9544145  21.2902382 100.6618678  81.2101673  20.8142493
 101.9430871  81.7692483  21.3954423 103.4034369  81.3188724  18.2485859
 102.6065532  81.4307418  18.7669354 103.1759961  81.6575376  17.3826749
 109.2340037  87.8433427  26.1968373 109.2984469  88.3053835  27.0326545
 108.5250961  87.2130792  26.3250683  99.7357327  81.2074635  23.7217373
  99.9865365  82.0921645  23.9874949 100.2716875  81.0279237  22.9492465
 105.4355394  75.5893115  32.7261709 105.0422340  75.0359313  33.4009353
 106.2521534  75.9003693  33.1168227 108.3523355  77.0050994  30.3181966
 109.0933068  77.6058147  30.2386428 108.5841278  76.2628632  29.7600008
 103.4964693  82.1907361  28.5960195 103.3818208  81.2892618  28.8967294
 102.6409211  82.4371058  28.2445012 110.5756531  90.1325101  30.1947696
 110.1320385  89.3461480  29.8768600 111.2373744  90.3204252  29.5291587
 105.3343652  91.6620903  24.7208374 105.8851077  91.5337966  23.9485368
 104.4955128  91.9615792  24.3703267 112.6737769  90.4127901  28.2229097
 112.6556244  91.2336782  27.7309366 113.5957689  90.2881976  28.4479238
 109.1310823  87.9272031  29.0652605 109.6639160  87.1660319  28.8351913
 108.6024904  87.6345683  29.8076760 112.2980518  73.0332097  24.5946247
 111.9544787  73.9233738  24.5185358 112.6659481  72.8433754  23.7315832
 109.8477912  77.8690409  18.1603921 108.9919508  77.4797259  17.9809559
 110.2604864  77.9482369  17.3003706 111.3777058  75.4036752  22.5595480
 110.8741854  75.3666887  21.7463286 111.6707665  76.3129495  22.6192137
 107.6219944  75.4875482  21.5661662 108.4872941  75.2918290  21.2067552
 107.6897453  75.2585833  22.4931019 105.2282263  77.7177689  18.9378029
 105.8026015  77.4952871  18.2051222 105.8153246  77.7866384  19.6906630
 107.5304931  74.5918938  17.6653098 106.8769343  74.2767956  17.0409713
 107.4885405  73.9694679  18.3912921 110.7642671  81.0800872  21.9900746
 109.8465233  81.3015819  21.8322434 111.1802815  81.1547182  21.1312453
 114.0968184  72.2925656  19.6963985 114.4027060  71.4323019  19.4089900
 114.8220788  72.8843276  19.4962979 100.3892540  82.6956342  18.0845583
 100.1916940  82.1025703  17.3596649  99.8339204  82.3908553  18.8021522
 108.3689263  82.5879449  20.2040176 108.4237873  81.6353285  20.1282653
 107.5580465  82.7438888  20.6881474 106.3081623  81.2056509  17.9630555
 105.4949489  81.5050679  18.3695747 106.8040618  80.8112197  18.6805037
 111.9055835  81.6698333  26.7945449 112.2605223  81.8969806  27.6539914
 112.5527966  82.0016710  26.1722704 105.7995698  78.7774864  23.5791790
 106.4395077  78.6363623  22.8814753 104.9673229  78.4909378  23.2030392
 102.8024315  78.7475189  18.3564777 103.0631132  79.6620522  18.2473937
 103.6241487  78.2799632  18.5061389 104.2749240  80.1612946  25.5263601
 104.9472293  79.9530308  24.8776250 103.4479026  79.9635032  25.0868833
 110.1774812  76.7874887  27.5429262 109.5302727  77.4864837  27.4493738
 110.9475827  77.2211031  27.9105510 113.5853610  87.0523739  30.6179815
 113.4339116  86.8234291  29.7009899 113.5758289  88.0094341  30.6311160
 110.3538946  84.6255652  25.6026082 111.2831006  84.7766812  25.4295049
 109.9329976  84.7139673  24.7474728 109.1527278  88.6506317  23.3724619
 109.0138364  88.2825101  24.2450557 108.3641874  89.1653956  23.2008577
 104.6776737  83.4355549  26.2866038 104.5396535  82.7035788  26.8877577
 105.5881661  83.3464449  26.0050226 107.3059038  83.1475509  25.7749718
 108.0158656  82.5068701  25.7336336 107.2628346  83.3988403  26.6975899
 115.2945816  90.0842862  28.6956297 115.2358363  89.4002082  28.0286880
 115.6965335  90.8261852  28.2436923 106.0187972  80.1340727  27.5945357
 105.4825329  79.6831465  28.2466954 105.4304680  80.2686635  26.8515822
 115.2963224  88.0482446  26.9270277 114.4090002  87.7108368  27.0496676
 115.8661775  87.3165477  27.1639042  96.9492371  84.3806538  20.2513328
  97.6363411  84.0668268  19.6634344  96.7940500  85.2847902  19.9780580
 101.7527093  79.2696734  24.6798352 101.6685282  78.6622404  23.9448762
 100.9309799  79.7605753  24.6807848 111.9250807  77.7550298  20.0468547
 112.4219506  77.0020260  19.7269617 111.1537788  77.7914614  19.4811756
 108.5085776  79.8967681  19.7740232 108.1383563  79.3438721  20.4621137
 109.0044868  79.2925814  19.2215232 106.3374974  90.3565176  26.8695250
 107.0384434  90.9901659  27.0224644 105.8670089  90.6979907  26.1090889
 114.3669802  74.7219891  22.1947906 113.4532881  74.9524118  22.3630113
 114.7962903  74.8058335  23.0461938 114.1376260  82.9109783  24.6947800
 113.4847710  83.1585691  24.0400253 114.5156640  82.0973921  24.3610277
 110.1863833  83.6529594  31.1813837 109.5104470  83.5523724  31.8516212
 111.0091467  83.4968808  31.6449834 101.9342692  89.8901531  23.8026352
 102.5196129  89.1445219  23.9354256 101.7367531  90.2005488  24.6863016
  96.5260347  82.4607131  22.5230795  96.5644446  81.9270722  23.3167913
  96.0200640  81.9342337  21.9041773 103.9051109  77.3071672  26.0193338
 103.9692436  78.1686502  25.6070735 103.8418230  76.6945673  25.2865696
 103.3803382  79.3794804  29.6666372 104.0075421  78.9971881  30.2803896
 102.5231301  79.1609006  30.0322064 113.7797490  89.7857779  31.2720107
 114.3237394  90.3987738  30.7775062 113.1984335  90.3437358  31.7887120
 100.1568925  81.1871233  15.5984727 100.4522366  80.2781912  15.5451780
  99.2556960  81.1658973  15.2765729 103.6863172  79.2627230  21.5812275
 102.9649757  79.8763197  21.4419749 104.4756427  79.7984995  21.5028921
 106.4889485  76.5981656  27.8552927 107.0123887  76.8443953  28.6179236
 106.2701818  77.4301691  27.4356064 101.8856766  78.8685331  15.7224052
 101.5569472  77.9882710  15.5399158 102.2396137  78.8133000  16.6100441
 107.6942030  77.5395351  25.5402598 107.3538850  76.7403164  25.9423278
 106.9881036  77.8397062  24.9679431 108.3458502  74.6244664  23.9929921
 109.1684571  74.1505142  23.8708811 108.5896565  75.4035148  24.4928607
 105.8697081  81.3163784  21.8021899 105.7241661  81.6304087  22.6946181
 105.3922284  81.9348685  21.2492798 107.7293464  78.3066332  21.8502789
 107.7155032  77.4107426  21.5135087 108.4465892  78.3136996  22.4841075
 109.5819594  78.7403673  23.8955916 109.3237372  79.6620743  23.8940247
 109.0504635  78.3434107  24.5856380 100.3442743  83.8569129  24.7409560
  99.7996211  84.6328937  24.8729835 101.2222093  84.2039933  24.5828682
 107.1330360  77.1880713  17.1190359 107.2546271  76.2597359  17.3181246
 106.8432402  77.2019399  16.2068674 110.0021550  74.8735623  20.2557079
 110.0243247  74.9374956  19.3009058 110.4189609  74.0340132  20.4497585
 101.1308765  82.9839025  27.6339717 100.3890501  83.1321660  28.2204348
 100.8101509  83.2447291  26.7706467 109.0752427  92.5255003  27.4320107
 109.3839554  92.2804150  28.3042807 109.8727909  92.7301642  26.9438978
  99.7773983  88.7890780  20.6239046  98.9405892  88.3612955  20.4423047
  99.7497629  88.9823224  21.5609837 106.6171439  78.7012710  31.3280292
 106.6659595  79.5774833  30.9458061 107.1593953  78.1590103  30.7551935
 117.1026285  89.2453833  30.6081429 116.3121828  89.2277972  30.0685928
 116.8659639  89.7842127  31.3630465 117.2224160  86.0946300  27.9214157
 117.2722165  85.9296307  28.8629680 117.1138083  85.2273559  27.5312038
 114.5127922  82.0777228  29.2373464 115.4137785  81.9383693  28.9457462
 114.5875897  82.2431683  30.1771641 108.8470727  79.4544082  28.0826650
 107.9774037  79.7477649  27.8109239 109.0830208  80.0384527  28.8033914
 118.7242357  88.5143241  28.1656179 118.4327165  88.8773222  29.0019640
 118.1114488  87.8010249  27.9869511 116.9729545  83.6375856  26.6336237
 117.4483666  83.8303502  25.8255088 116.0495110  83.6935042  26.3879620
 111.5509761  75.6723699  25.5992071 112.0691705  76.4084726  25.2738559
 111.1964894  75.9787693  26.4338830 111.8022355  72.0923982  21.1192967
 112.0824109  71.4247171  21.7453394 112.5872962  72.2853078  20.6067631
 115.6731214  80.5141616  24.8664542 116.6248637  80.6139714  24.8876766
 115.5034664  79.7219884  25.3762627 113.6945593  77.5997199  25.0523943
 113.0995525  77.8802212  24.3570432 113.4095290  78.0891100  25.8240684
 118.3013780  80.5258779  24.0265125 117.7852829  79.7417236  23.8395054
 119.1853729  80.1977496  24.1911645 115.9624507  74.2699795  19.9860938
 115.7649328  73.9614883  20.8704270 116.5724213  74.9961434  20.1158868
 109.8741315  86.6561535  31.4834703 110.7944324  86.8340134  31.6774749
 109.8390898  85.7117580  31.3314402  99.0923480  81.8500128  20.4087978
  98.7726264  80.9965437  20.1162352  98.5456908  82.0648707  21.1645945
 102.8703388  84.5662569  24.1257484 103.0889397  85.4979677  24.1445518
 103.2829161  84.2070544  24.9112288 109.7907605  75.0730655  16.1133173
 108.9808334  74.7277740  16.4888419 110.4792022  74.7638198  16.7020784
 111.7198154  74.1508701  17.7357469 112.2729192  74.5704155  18.3947492
 111.9568240  73.2244450  17.7780425 107.7431253  80.1395775  33.5160233
 107.6427980  81.0890132  33.4472324 107.5252795  79.8114014  32.6436303
  98.9611740  85.4703040  22.3781099  98.2675211  85.0556993  21.8651054
  99.7084731  85.5123576  21.7814518 113.5480527  75.6614284  19.4457454
 114.0480305  75.7730819  18.6371773 114.1916135  75.3575337  20.0858262
 107.6062523  83.5692914  32.3325295 107.1229605  84.3693274  32.5389184
 107.6923462  83.5800859  31.3792739 100.8748483  85.4021294  20.2547114
 100.8519171  85.5008981  19.3028997 101.1849119  86.2486444  20.5764280
 103.5335860  87.4597449  24.3693729 104.4879114  87.4281391  24.3023660
 103.3348384  86.9988072  25.1843954 104.1235243  86.0298565  26.9364526
 104.9428132  86.5242643  26.9599363 104.3972050  85.1130533  26.9082094
  99.3770157  80.3636699  27.6356723 100.0229020  79.8535653  28.1243948
  99.1687308  81.1005380  28.2100148 111.9023549  87.4317546  33.1348864
 112.7714709  87.6058198  32.7735499 111.4230300  88.2511963  33.0124593
 106.0709729  94.5514647  24.8138297 106.9736976  94.5838257  25.1304792
 105.8447099  93.6215098  24.8284633 111.7125887  71.2219520  17.6426556
 110.9458283  70.6678007  17.7883239 112.1236592  71.2941389  18.5040708
 103.7167648  77.5104316  31.7331737 104.5799109  77.1541121  31.9435062
 103.1433058  77.1718210  32.4207142 116.2749149  90.9185032  32.7261709
 115.8816094  90.3651231  33.4009353 117.0915289  91.2295611  33.1168227
 119.1917110  92.3342911  30.3181966 119.9326823  92.9350065  30.2386428
 119.4235032  91.5920549  29.7600008 114.2197136  94.7086722  29.6666372
 114.8469175  94.3263799  30.2803896 113.3625055  94.4900924  30.0322064
 117.4565194  94.0304628  31.3280292 117.5053349  94.9066751  30.9458061
 117.9987708  93.4882021  30.7551935 118.5825007  95.4687693  33.5160233
 118.4821734  96.4182050  33.4472324 118.3646549  95.1405932  32.6436303
 110.2163911  95.6928616  27.6356723 110.8622775  95.1827570  28.1243948
 110.0081062  96.4297298  28.2100148 114.5561402  92.8396233  31.7331737
 115.4192864  92.4833038  31.9435062 113.9826813  92.5010128  32.4207142
  71.9370800   5.7737314  15.4201604  71.8783346   5.0896534  14.7532187
  72.3390318   6.5156304  14.9682230  70.4222474   5.4752231  17.9965414
  70.9662378   6.0882189  17.5020369  69.8409319   6.0331810  18.5132427
  73.7451268   4.9348285  17.3326735  72.9546812   4.9172424  16.7931235
  73.5084623   5.4736579  18.0875772  75.3667340   4.2037693  14.8901485
  75.0752148   4.5667674  15.7264946  74.7539471   3.4904701  14.7114817
  68.5448532   3.1211998  19.8594170  69.4139692   3.2952650  19.4980805
  68.0655284   3.9406415  19.7369900  80.2041008  14.8300624   9.2639445
  80.8419418  14.7107371   8.5602785  80.0861851  15.7781468   9.3227397
  77.0130714  14.7828052   9.2000970  76.6749226  14.6669117   8.3121505
  77.8820483  14.3819217   9.1801976  77.4950497  15.9362904  15.1587175
  77.4839138  15.5415702  14.2867679  77.6571137  15.2028976  15.7520947
  70.4181962  18.1314720   8.0282081  71.2103254  17.7905545   7.6128381
  70.6578612  18.2409695   8.9484235  74.2157758  18.7200016  14.1066359
  73.9247624  19.6245646  13.9913026  74.8514743  18.7616543  14.8210429
  75.1413965  16.0976864  10.6967719  75.7377538  15.8732886   9.9824682
  75.1988937  15.3561610  11.2993167  82.6816124   6.2048885  11.7020240
  82.3499449   7.0744296  11.4781455  82.0861737   5.8885169  12.3814271
  79.1747644  18.4061431  11.1016153  78.8748367  19.3086470  10.9931960
  78.8298703  18.1393614  11.9537306  82.5744787  10.9243971   8.7813590
  81.6661665  10.8559380   8.4872351  82.5232383  11.4015916   9.6095416
  74.1568423  25.1705751   4.0687121  74.0792453  26.1213576   4.1475601
  73.5530067  24.8251624   4.7262047  76.6485653  12.3433617  16.7248488
  75.8718987  12.9027537  16.7151352  77.2876216  12.8290400  17.2463358
  74.9032025  15.1519070  16.2866455  75.6446710  15.6904114  16.0101278
  74.1969011  15.7785359  16.4438006  80.3787365  17.2948211  14.8838616
  80.7870721  16.8530621  14.1393248  79.6564627  16.7200838  15.1372809
  76.7318435  12.2320817  12.2572173  77.5779630  12.6560231  12.4006822
  76.6717073  11.5754442  12.9510736  80.7016180  17.8549401   8.6390905
  80.0725042  18.0195115   7.9366973  80.3141842  18.2691011   9.4101869
  84.5805412  18.7903839   5.9935269  83.8956450  19.1702740   5.4432302
  84.6649261  19.3999166   6.7267216  79.8817880   9.8925186  13.9153347
  79.6378812  10.6467246  13.3787622  80.1577811  10.2710533  14.7500594
  81.8356343  16.4363798  12.5930612  82.0473238  17.0795558  11.9164993
  81.7886091  15.6026115  12.1252542  73.1468223  17.1395291   8.8420753
  73.7169580  17.5682559   8.2038238  73.7376334  16.8577876   9.5404939
  73.6393389  12.3058718  17.0881765  73.0092050  12.9874999  17.3217161
  73.5329477  12.1941800  16.1434903  82.9502171  19.3135754  10.7652970
  83.7719615  18.9115941  10.4835651  82.9464574  19.2103988  11.7169085
  76.7158775  18.8619797  12.9213680  76.7803207  19.3240204  13.7571852
  76.0069698  18.2317162  13.0495990  72.9174132   6.6079484  19.4507016
  72.5241077   6.0545683  20.1254660  73.7340272   6.9190063  19.8413533
  75.8342093   8.0237363  17.0427272  76.5751806   8.6244516  16.9631735
  76.0660016   7.2815001  16.4845315  70.9783431  13.2093731  15.3205502
  70.8636946  12.3078988  15.6212601  70.1227949  13.4557427  14.9690318
  78.0575269  21.1511471  16.9193002  77.6139123  20.3647849  16.6013907
  78.7192482  21.3390621  16.2536893  72.8162390  22.6807272  11.4453681
  73.3669815  22.5524336  10.6730675  71.9773866  22.9802161  11.0948574
  80.1556507  21.4314271  14.9474404  80.1374982  22.2523152  14.4554673
  81.0776427  21.3068346  15.1724545  76.6129561  18.9458400  15.7897912
  77.1457898  18.1846688  15.5597220  76.0843642  18.6532052  16.5322067
  82.9575120  16.2693413   8.4183770  82.2998794  16.9592675   8.5063899
  83.7615519  16.6589845   8.7617757  78.2461409  12.0987241   8.7146053
  77.3283971  12.3202188   8.5567741  78.6621553  12.1733552   7.8557760
  82.5342375  19.6043787   4.5966855  82.0804702  18.7634697   4.6532045
  81.9036341  20.2405186   4.9341635  80.9775314  21.4420284   5.5316673
  81.2698288  22.0025341   4.8129039  81.4873934  21.7348845   6.2869832
  75.9408939  22.2200635   6.6210126  75.8985118  22.4461481   5.6918658
  76.8571638  21.9864010   6.7695927  79.3874573  12.6884703  13.5190755
  79.7423961  12.9156176  14.3785221  80.0346704  13.0203079  12.8968011
  85.1441689  17.8779666   9.2351356  85.5778196  17.7854955  10.0834410
  85.8573270  17.8537166   8.5971372  78.8769584  21.4781760  10.7684457
  78.9306607  22.0472696  11.5362172  78.0084366  21.6483645  10.4038494
  71.7567978  11.1799316  12.2508908  72.4291031  10.9716678  11.6021557
  70.9297764  10.9821402  11.8114140  86.0057239  17.9203366  11.7684241
  86.1993129  18.8249177  12.0143516  85.9057857  17.4610785  12.6022826
  77.6593550   7.8061257  14.2674569  77.0121465   8.5051206  14.1739045
  78.4294565   8.2397401  14.6350817  81.0672348  18.0710109  17.3425122
  80.9157854  17.8420661  16.4255206  81.0577027  19.0280710  17.3556467
  77.8357684  15.6442022  12.3271388  78.7649744  15.7953181  12.1540356
  77.4148714  15.7326043  11.4720035  76.6346016  19.6692686  10.0969926
  76.4957101  19.3011471  10.9695864  75.8460612  20.1840326   9.9253884
  77.2294168  24.7701783   1.4395463  77.4045923  24.2989826   2.2541085
  76.5426956  25.3967549   1.6676723  78.1851231  19.0474289   7.4858764
  77.8501064  19.0075059   8.3816414  77.6855177  18.3819005   7.0129174
  72.1595475  14.4541919  13.0111345  72.0215273  13.7222158  13.6122884
  73.0700398  14.3650819  12.7295533  74.7877776  14.1661878  12.4995025
  75.4977394  13.5255070  12.4581643  74.7447084  14.4174773  13.4221205
  82.7764554  21.1029232  15.4201604  82.7177100  20.4188452  14.7532187
  83.1784073  21.8448222  14.9682230  73.5006710  11.1527096  14.3190664
  72.9644067  10.7017835  14.9712260  72.9123418  11.2873005  13.5761128
  71.7955253  27.9191145   8.2135323  72.0351851  28.5509670   8.8914341
  70.9524450  27.5679185   8.5000682  82.7781962  19.0668815  13.6515583
  81.8908740  18.7294737  13.7741982  83.3480513  18.3351847  13.8884349
  76.3083115  23.7270268  10.6176827  76.2353286  24.5325239  11.1296131
  75.8660508  23.9262234   9.7924848  76.0972895  22.9642038   4.1279648
  75.3140416  23.5063718   4.2217873  76.7965640  23.4816018   4.5273889
  78.7681798  23.6257102  12.7734985  79.4809771  24.2604567  12.7010887
  78.2771827  23.7220968  11.9574987  73.8193712  21.3751545  13.5940556
  74.5203171  22.0088028  13.7469950  73.3488827  21.7166277  12.8336195
  81.6194998  13.9296153  11.4193107  80.9666448  14.1772060  10.7645559
  81.9975378  13.1160291  11.0855584  78.5802172  23.9655846   5.5221277
  78.7624566  23.1477502   5.9849029  79.4035158  24.1823538   5.0846167
  78.9144337  22.8924031   2.7836325  79.4432104  22.3816486   2.1706487
  79.1772557  22.5766561   3.6481858  77.6682571  14.6715964  17.9059144
  76.9923208  14.5710093  18.5761519  78.4910205  14.5155178  18.3695141
  69.4161430  20.9087900  10.5271659  70.0014867  20.1631588  10.6599563
  69.2186268  21.2191857  11.4108323  72.2700085  23.9439148   5.5434101
  71.6010461  24.4285275   5.0598141  72.1312955  24.1908368   6.4577480
  76.4105354  25.9782891  12.1416760  76.9623662  26.1414513  12.9065845
  76.7511547  26.5687329  11.4696784  70.8622120  10.3981174  16.3911679
  71.4894158  10.0158251  17.0049203  70.0050038  10.1795376  16.7567371
  81.2616228  20.8044149  17.9965414  81.8056132  21.4174107  17.5020369
  80.6803073  21.3623727  18.5132427  79.5473741  23.9264867   9.1280442
  79.4224881  23.1254607   8.6191387  80.2052832  24.4211060   8.6394412
  81.6108649  21.7273887  10.7559992  80.6638985  21.6079238  10.6838319
  81.9591423  20.8396385  10.8386253  73.9708223   7.6168026  14.5798234
  74.4942625   7.8630322  15.3424543  73.7520556   8.4488061  14.1601371
  78.6155083  21.5226603   6.9564344  78.4680045  20.5943311   7.1371914
  79.4408576  21.5446694   6.4721419  82.2189205  22.3455162   8.0429217
  83.1435752  22.1398023   7.9053668  82.0504508  22.0971563   8.9518558
  75.1760768   8.5581721  12.2647904  74.8357588   7.7589534  12.6668584
  74.4699774   8.8583432  11.6924737  77.0638332   9.7590042  10.6201223
  76.8056110  10.6807113  10.6185553  76.5323372   9.3620477  11.3101687
  82.0084521  22.8640829   3.3991308  82.1821398  22.2987252   2.6465161
  82.5013412  23.6641724   3.2170798  67.8261481  14.8755498  11.4654867
  67.2814949  15.6515306  11.5975141  68.7040831  15.2226303  11.3073989
  68.6127503  14.0025395  14.3585024  67.8709239  14.1508030  14.9449654
  68.2920247  14.2633660  13.4951773  76.5571165  23.5441373  14.1565414
  76.8658292  23.2990520  15.0288114  77.3546647  23.7488011  13.6684284
  76.5791777  25.6979283   6.3870790  76.1396767  25.2055661   7.0803647
  77.3299894  25.1552250   6.1462866  69.0584116  21.8890823   6.3895419
  69.8842136  21.5894595   6.0094062  68.7078168  21.1198446   6.8385207
  74.0265649  21.2417292   8.4593092  73.4045659  20.5787997   8.1595320
  74.6970516  21.2678423   7.7766740  74.0990177   9.7199080  18.0525598
  74.1478332  10.5961202  17.6703368  74.6412691   9.1776473  17.4797241
  84.5845023  20.2640203  17.3326735  83.7940566  20.2464342  16.7931235
  84.3478377  20.8028497  18.0875772  84.7042898  17.1132669  14.6459464
  84.7540903  16.9482677  15.5874987  84.5956821  16.2459928  14.2557345
  81.9946660  13.0963597  15.9618771  82.8956523  12.9570062  15.6702768
  82.0694634  13.2618052  16.9016948  76.3289465  10.4730452  14.8071957
  75.4592775  10.7664018  14.5354545  76.5648946  11.0570897  15.5279220
  86.2061094  19.5329611  14.8901485  85.9145903  19.8959591  15.7264946
  85.5933226  18.8196619  14.7114817  84.4548283  14.6562225  13.3581543
  84.9302404  14.8489872  12.5500395  83.5313848  14.7121411  13.1124927
  79.0328499   6.6910069  12.3237377  79.5510443   7.4271096  11.9983866
  78.6783632   6.9974062  13.1584136  83.1549952  11.5327985  11.5909849
  84.1067375  11.6326083  11.6122073  82.9853402  10.7406254  12.1007933
  81.1764331   8.6183569  11.7769250  80.5814263   8.8988581  11.0815738
  80.8914028   9.1077470  12.5485991  85.6338029  14.7534105  10.7052149
  85.6014350  13.8150106  10.8911832  86.2438653  14.8318142   9.9717973
  77.3560053  17.6747904  18.2080010  78.2763062  17.8526503  18.4020056
  77.3209636  16.7303950  18.0559709  70.3522125  15.5848939  10.8502791
  70.5708135  16.5166047  10.8690825  70.7647899  15.2256913  11.6357595
  75.2249991  11.1582145  20.2405540  75.1246718  12.1076502  20.1717631
  75.0071533  10.8300384  19.3681610  75.0881261  14.5879284  19.0570601
  74.6048342  15.3879644  19.2634490  75.1742200  14.5987228  18.1038045
  71.0154598  18.4783818  11.0939035  71.9697852  18.4467761  11.0268967
  70.8167122  18.0174442  11.9089261  71.6053980  17.0484934  13.6609833
  72.4246869  17.5429013  13.6844670  71.8790788  16.1316902  13.6327400
  69.3704827  24.0203438   8.1109233  69.2359295  23.2603839   7.5447231
  68.9536889  24.7444338   7.6438022  72.5273953  24.9172755   8.3227676
  72.4106337  25.8618187   8.2206366  71.7066399  24.6146316   8.7113475
  66.8588895  11.3823068  14.3602030  67.5047758  10.8722022  14.8489255
  66.6506046  12.1191750  14.9345455  79.3842287  18.4503916  19.8594170
  80.2533446  18.6244568  19.4980805  78.9049038  19.2698332  19.7369900
  73.5528467  25.5701017  11.5383604  74.4555714  25.6024627  11.8550099
  73.3265837  24.6401468  11.5529940  75.3082069  24.3232003   8.1993683
  74.3577700  24.3233865   8.0858055  75.6114555  23.5764738   7.6829717
  71.1986386   8.5290685  18.4577044  72.0617847   8.1727490  18.6680369
  70.6251796   8.1904580  19.1452448  91.0434763  30.1592542   9.2639445
  91.6813172  30.0399289   8.5602785  90.9255605  31.1073386   9.3227397
  87.8524469  30.1119970   9.2000970  87.5142980  29.9961034   8.3121505
  88.7214237  29.7111135   9.1801976  83.7111284  31.9655446   5.1897861
  83.1476150  31.8745383   4.4214148  83.5963680  31.1455351   5.6700353
  88.3344252  31.2654821  15.1587175  88.3232893  30.8707620  14.2867679
  88.4964891  30.5320894  15.7520947  81.2575716  33.4606638   8.0282081
  82.0497008  33.1197462   7.6128381  81.4972367  33.5701613   8.9484235
  89.2910843  35.6326414   0.5012326  88.6398823  36.2180494   0.1146339
  90.0855206  36.1632609   0.5607363  83.2166470  32.7215551   0.8999460
  83.9897346  32.1744538   0.7612336  83.5691869  33.5859800   1.1113921
  85.0551513  34.0491933  14.1066359  84.7641379  34.9537564  13.9913026
  85.6908497  34.0908461  14.8210429  85.9807720  31.4268782  10.6967719
  86.5771292  31.2024804   9.9824682  86.0382691  30.6853527  11.2993167
  85.2729037  30.7836323   0.7342285  85.1565295  30.1081226   1.4023369
  85.3831297  30.2968697  -0.0825562  87.6160578  30.2446470   4.4388974
  87.2518785  29.7177091   5.1501896  88.4727694  29.8544939   4.2655460
  93.5209878  21.5340803  11.7020240  93.1893203  22.4036214  11.4781455
  92.9255492  21.2177087  12.3814271  90.0141398  33.7353349  11.1016153
  89.7142121  34.6378388  10.9931960  89.6692458  33.4685532  11.9537306
  83.4653879  30.1867146   7.1352857  82.5404376  30.0543360   7.3430549
  83.7138293  30.9661365   7.6322800  93.4138542  26.2535889   8.7813590
  92.5055419  26.1851297   8.4872351  93.3626138  26.7307834   9.6095416
  80.8262691  29.8300419   7.9696646  80.9555072  30.0834898   8.8836058
  80.1460142  30.4228127   7.6501302  84.9962178  40.4997669   4.0687121
  84.9186208  41.4505494   4.1475601  84.3923821  40.1543542   4.7262047
  87.4879408  27.6725534  16.7248488  86.7112742  28.2319455  16.7151352
  88.1269971  28.1582317  17.2463358  85.7425780  30.4810988  16.2866455
  86.4840464  31.0196032  16.0101278  85.0362765  31.1077277  16.4438006
  91.2181120  32.6240128  14.8838616  91.6264476  32.1822539  14.1393248
  90.4958381  32.0492756  15.1372809  87.5712190  27.5612735  12.2572173
  88.4173385  27.9852149  12.4006822  87.5110827  26.9046359  12.9510736
  91.5409934  33.1841319   8.6390905  90.9118797  33.3487033   7.9366973
  91.1535596  33.5982928   9.4101869  95.4199166  34.1195757   5.9935269
  94.7350204  34.4994658   5.4432302  95.5043015  34.7291083   6.7267216
  90.7211635  25.2217103  13.9153347  90.4772567  25.9759164  13.3787622
  90.9971565  25.6002451  14.7500594  92.6750098  31.7655716  12.5930612
  92.8866993  32.4087476  11.9164993  92.6279846  30.9318032  12.1252542
  90.2776327  24.3773536   9.4967184  89.4160806  24.6754790   9.7883922
  90.3038761  24.5943935   8.5648217  87.0937896  32.9215727   5.9040990
  87.5576242  33.2003430   5.1145613  86.8294694  32.0199172   5.7214081
  83.9861977  32.4687209   8.8420753  84.5563334  32.8974477   8.2038238
  84.5770089  32.1869793   9.5404939  86.0306782  29.0438879   2.7130555
  86.7330825  29.4959923   3.1804482  85.6987411  28.4022698   3.3410448
  84.4787144  27.6350636  17.0881765  83.8485804  28.3166917  17.3217161
  84.3723232  27.5233718  16.1434903  79.7732116  27.3022432   8.0147689
  78.9831170  27.5579961   7.5387799  80.2643363  28.1170770   8.1199729
  93.7895926  34.6427671  10.7652970  94.6113369  34.2407859  10.4835651
  93.7858328  34.5395905  11.7169085  81.7246861  27.6667011   4.9731165
  80.9278025  27.7785706   5.4914661  81.4972454  28.0053664   4.1072056
  87.5552529  34.1911715  12.9213680  87.6196962  34.6532122  13.7571852
  86.8463453  33.5609079  13.0495990  78.0569819  27.5552923  10.4462680
  78.3077857  28.4399932  10.7120255  78.5929367  27.3757524   9.6737771
  87.2700547  35.8579822   2.7892660  87.1346222  36.7031358   3.2177508
  87.8110359  36.0599100   2.0258594  83.7567886  21.9371402  19.4507016
  83.3634832  21.3837600  20.1254660  84.5734027  22.2481980  19.8413533
  80.7229944  33.3755260   3.3620585  81.2354465  34.1698510   3.5126150
  81.3752657  32.6781551   3.2954187  82.5324829  36.4921016   5.4443339
  82.7091457  37.4138981   5.2564323  83.3281662  36.1779436   5.8737718
  86.6735847  23.3529281  17.0427272  87.4145561  23.9536434  16.9631735
  86.9053770  22.6106919  16.4845315  81.8177185  28.5385648  15.3205502
  81.7030701  27.6370905  15.6212601  80.9621703  28.7849345  14.9690318
  88.8969023  36.4803389  16.9193002  88.4532877  35.6939767  16.6013907
  89.5586237  36.6682539  16.2536893  83.6556144  38.0099190  11.4453681
  84.2063569  37.8816253  10.6730675  82.8167620  38.3094079  11.0948574
  90.9950261  36.7606188  14.9474404  90.9768737  37.5815070  14.4554673
  91.9170181  36.6360264  15.1724545  87.4523315  34.2750318  15.7897912
  87.9851652  33.5138606  15.5597220  86.9237396  33.9823970  16.5322067
  78.6878861  31.7043914   4.1380156  79.5254083  32.1140923   3.9213864
  78.8657129  30.7643357   4.1080350  89.6989551  21.7515039   9.2840787
  89.1954346  21.7145174   8.4708592  89.9920158  22.6607782   9.3437444
  85.9432437  21.8353769   8.2906969  86.8085433  21.6396577   7.9312858
  86.0109945  21.6064121   9.2176326  88.8176028  33.4036310   3.3016724
  88.2897390  32.6689070   2.9889962  88.3163531  34.1810987   3.0556692
  93.7968874  31.5985331   8.4183770  93.1392548  32.2884592   8.5063899
  94.6009273  31.9881763   8.7617757  83.5494756  24.0655977   5.6623336
  84.1238508  23.8431158   4.9296529  84.1365738  24.1344671   6.4151937
  89.8696707  39.9314028  -0.7751617  89.1958406  40.2345725  -0.1666659
  90.2562529  40.7343108  -1.1246160  89.0855164  27.4279159   8.7146053
  88.1677725  27.6494106   8.5567741  89.5015307  27.5025470   7.8557760
  93.3736129  34.9335705   4.5966855  92.9198456  34.0926615   4.6532045
  92.7430096  35.5697103   4.9341635  91.8169068  36.7712202   5.5316673
  92.1092043  37.3317259   4.8129039  92.3267689  37.0640763   6.2869832
  78.7105032  29.0434630   4.8090889  78.5129432  28.4503990   4.0841956
  78.1551696  28.7386840   5.5266828  86.6901756  28.9357736   6.9285483
  86.7450365  27.9831573   6.8527959  85.8792958  29.0917175   7.4126781
  84.6294116  27.5534796   4.6875861  83.8161981  27.8528966   5.0941054
  85.1253110  27.1590485   5.4050344  86.7802694  37.5492553   6.6210126
  86.7378872  37.7753399   5.6918658  87.6965392  37.3155927   6.7695927
  90.2268327  28.0176620  13.5190755  90.5817715  28.2448094  14.3785221
  90.8740459  28.3494997  12.8968011  84.1208190  25.1253151  10.3037096
  84.7607570  24.9841911   9.6060060  83.2885721  24.8387665   9.9275698
  95.9835444  33.2071583   9.2351356  96.4171951  33.1146872  10.0834410
  96.6967025  33.1829084   8.5971372  84.8968494  34.4255582   6.4172089
  85.6909093  33.9305902   6.2154664  84.1860187  33.8973445   6.0539794
  89.7163339  36.8073677  10.7684457  89.7700361  37.3764614  11.5362172
  88.8478120  36.9775562  10.4038494  81.2051258  28.5698664   2.4931842
  80.2748846  28.5083119   2.7101804  81.3008730  28.0474616   1.6968483
  81.1236807  25.0953476   5.0810083  81.3843624  26.0098810   4.9719244
  81.9453979  24.6277919   5.2306696  82.5961732  26.5091234  12.2508908
  83.2684786  26.3008596  11.6021557  81.7691519  26.3113320  11.8114140
  96.8450993  33.2495284  11.7684241  97.0386883  34.1541094  12.0143516
  96.7451612  32.7902703  12.6022826  88.4987304  23.1353175  14.2674569
  87.8515219  23.8343124  14.1739045  89.2688320  23.5689318  14.6350817
  91.9066102  33.4002027  17.3425122  91.7551609  33.1712578  16.4255206
  91.8970782  34.3572628  17.3556467  88.6751438  30.9733939  12.3271388
  89.6043498  31.1245099  12.1540356  88.2542469  31.0617960  11.4720035
  87.4739770  34.9984604  10.0969926  87.3350856  34.6303388  10.9695864
  86.6854367  35.5132243   9.9253884  88.0687922  40.0993700   1.4395463
  88.2439678  39.6281743   2.2541085  87.3820710  40.7259466   1.6676723
  89.0244985  34.3766207   7.4858764  88.6894818  34.3366976   8.3816414
  88.5248931  33.7110922   7.0129174  82.9989229  29.7833837  13.0111345
  82.8609027  29.0514075  13.6122884  83.9094153  29.6942737  12.7295533
  85.6271530  29.4953796  12.4995025  86.3371149  28.8546988  12.4581643
  85.5840838  29.7466691  13.4221205  93.6158309  36.4321149  15.4201604
  93.5570855  35.7480369  14.7532187  94.0177827  37.1740139  14.9682230
  84.3400464  26.4819014  14.3190664  83.8037821  26.0309752  14.9712260
  83.7517172  26.6164923  13.5761128  82.6349008  43.2483063   8.2135323
  82.8745606  43.8801587   8.8914341  81.7918204  42.8971103   8.5000682
  93.6175716  34.3960733  13.6515583  92.7302495  34.0586655  13.7741982
  94.1874267  33.6643764  13.8884349  75.2704863  30.7284825   6.9758635
  75.9575903  30.4146555   6.3879650  75.1152992  31.6326190   6.7025886
  80.0739585  25.6175021  11.4043659  79.9897774  25.0100691  10.6694068
  79.2522292  26.1084040  11.4053155  87.1476869  39.0562186  10.6176827
  87.0747041  39.8617157  11.1296131  86.7054263  39.2554151   9.7924848
  86.9366649  38.2933956   4.1279648  86.1534171  38.8355636   4.2217873
  87.6359394  38.8107935   4.5273889  89.6075553  38.9549020  12.7734985
  90.3203525  39.5896484  12.7010887  89.1165582  39.0512886  11.9574987
  91.3293080  32.8600272   4.3452277  90.3949359  32.9801735   4.1756981
  91.5069748  31.9572739   4.0812287  86.8298268  26.2445968   6.4985538
  86.4596055  25.6917008   7.1866444  87.3257360  25.6404101   5.9460538
  84.6587466  36.7043463  13.5940556  85.3596926  37.3379946  13.7469950
  84.1882581  37.0458195  12.8336195  92.4588752  29.2588070  11.4193107
  91.8060203  29.5063978  10.7645559  92.8369132  28.4452209  11.0855584
  89.4195926  39.2947764   5.5221277  89.6018321  38.4769420   5.9849029
  90.2428912  39.5115456   5.0846167  89.7538092  38.2215949   2.7836325
  90.2825858  37.7108403   2.1706487  90.0166311  37.9058479   3.6481858
  88.5076325  30.0007882  17.9059144  87.8316962  29.9002011  18.5761519
  89.3303959  29.8447095  18.3695141  80.2555185  36.2379818  10.5271659
  80.8408621  35.4923506  10.6599563  80.0580023  36.5483775  11.4108323
  83.1093840  39.2731065   5.5434101  82.4404215  39.7577193   5.0598141
  82.9706709  39.5200286   6.4577480  74.8472839  28.8085418   9.2476102
  74.8856939  28.2749009  10.0413220  74.3413132  28.2820624   8.6287079
  87.2499108  41.3074809  12.1416760  87.8017416  41.4706430  12.9065845
  87.5905302  41.8979247  11.4696784  82.2263602  23.6549959  12.7438644
  82.2904928  24.5164790  12.3316042  82.1630722  23.0423960  12.0111003
  81.7015874  25.7273091  16.3911679  82.3287913  25.3450169  17.0049203
  80.8443793  25.5087293  16.7567371  92.1009983  36.1336066  17.9965414
  92.6449887  36.7466025  17.5020369  91.5196827  36.6915645  18.5132427
  78.4781417  27.5349520   2.3230033  78.7734858  26.6260199   2.2697087
  77.5769453  27.5137260   2.0011036  90.3867496  39.2556784   9.1280442
  90.2618635  38.4546524   8.6191387  91.0446587  39.7502978   8.6394412
  82.0075664  25.6105517   8.3057582  81.2862250  26.2241485   8.1665055
  82.7968920  26.1463282   8.2274228  92.4502404  37.0565805  10.7559992
  91.5032740  36.9371156  10.6838319  92.7985177  36.1688303  10.8386253
  84.8101977  22.9459943  14.5798234  85.3336379  23.1922240  15.3424543
  84.5914311  23.7779978  14.1601371  80.2069258  25.2163618   2.4469359
  79.8781965  24.3360997   2.2644464  80.5608629  25.1611287   3.3345748
  89.4548837  36.8518521   6.9564344  89.3073800  35.9235228   7.1371914
  90.2802331  36.8738611   6.4721419  83.3211082  25.5036588   2.8144836
  83.6607154  26.0322509   2.0923445  83.7683202  25.8416994   3.5903403
  93.0582959  37.6747080   8.0429217  93.9829507  37.4689941   7.9053668
  92.8898263  37.4263481   8.9518558  86.0154522  23.8873639  12.2647904
  85.6751343  23.0881452  12.6668584  85.3093529  24.1875349  11.6924737
  86.6670994  20.9722951  10.7175227  87.4897064  20.4983429  10.5954118
  86.9109058  21.7513435  11.2173914  84.1909573  27.6642072   8.5267206
  84.0454154  27.9782375   9.4191487  83.7134777  28.2826972   7.9738105
  86.0505956  24.6544620   8.5748095  86.0367525  23.7585713   8.2380393
  86.7678384  24.6615283   9.2086381  87.9032087  25.0881960  10.6201223
  87.6449864  26.0099030  10.6185553  87.3717127  24.6912394  11.3101687
  92.8478275  38.1932747   3.3991308  93.0215153  37.6279169   2.6465161
  93.3407167  38.9933642   3.2170798  78.6655235  30.2047416  11.4654867
  78.1208703  30.9807224  11.5975141  79.5434585  30.5518221  11.3073989
  79.4521257  29.3317312  14.3585024  78.7102993  29.4799948  14.9449654
  79.1314001  29.5925578  13.4951773  87.3964920  38.8733291  14.1565414
  87.7052046  38.6282437  15.0288114  88.1940402  39.0779929  13.6684284
  87.4185532  41.0271200   6.3870790  86.9790522  40.5347579   7.0803647
  88.1693649  40.4844168   6.1462866  79.8977871  37.2182741   6.3895419
  80.7235891  36.9186513   6.0094062  79.5471923  36.4490363   6.8385207
  84.8659404  36.5709209   8.4593092  84.2439413  35.9079914   8.1595320
  85.5364271  36.5970341   7.7766740  78.0986476  35.1369068   7.3484352
  77.2618384  34.7091242   7.1668353  78.0710121  35.3301511   8.2855143
  84.9383931  25.0490997  18.0525598  84.9872087  25.9253120  17.6703368
  85.4806446  24.5068390  17.4797241  95.4238777  35.5932121  17.3326735
  94.6334321  35.5756259  16.7931235  95.1872132  36.1320414  18.0875772
  95.5436652  32.4424587  14.6459464  95.5934657  32.2774594  15.5874987
  95.4350575  31.5751846  14.2557345  84.4272911  35.1213133   1.9351553
  84.5761031  35.8048597   1.2818225  85.2339354  35.1018223   2.4501008
  92.8340414  28.4255515  15.9618771  93.7350277  28.2861980  15.6702768
  92.9088389  28.5909970  16.9016948  87.1683220  25.8022370  14.8071957
  86.2986529  26.0955936  14.5354545  87.4042700  26.3862815  15.5279220
  97.0454849  34.8621528  14.8901485  96.7539657  35.2251509  15.7264946
  96.4326980  34.1488537  14.7114817  95.2942037  29.9854143  13.3581543
  95.7696159  30.1781789  12.5500395  94.3707603  30.0413329  13.1124927
  82.1825544  31.1478310   2.9412622  81.9371586  30.2440640   3.1392832
  82.3521458  31.1495461   1.9992100  89.8722254  22.0201987  12.3237377
  90.3904197  22.7563014  11.9983866  89.5177386  22.3265980  13.1584136
  81.4521191  26.8806668   0.4398783  80.7590436  26.9551023  -0.2161181
  81.2072943  26.1167011   0.9620300  87.9268316  37.6161263  -0.5936700
  87.3542283  38.2351450  -1.0466228  88.5001110  38.1660625  -0.0596778
  93.9943706  26.8619903  11.5909849  94.9461129  26.9618001  11.6122073
  93.8247157  26.0698172  12.1007933  92.0158086  23.9475486  11.7769250
  91.4208018  24.2280499  11.0815738  91.7307782  24.4369387  12.5485991
  96.4731784  30.0826023  10.7052149  96.4408104  29.1442024  10.8911832
  97.0832408  30.1610060   9.9717973  88.1953807  33.0039822  18.2080010
  89.1156817  33.1818421  18.4020056  88.1603390  32.0595867  18.0559709
  77.4135972  28.1978416   7.1333284  77.0938757  27.3443724   6.8407658
  76.8669400  28.4126994   7.8891252  81.1915880  30.9140857  10.8502791
  81.4101890  31.8457964  10.8690825  81.6041654  30.5548831  11.6357595
  86.0643745  26.4874062  20.2405540  85.9640472  27.4368419  20.1717631
  85.8465287  26.1592301  19.3681610  77.2824232  31.8181327   9.1026406
  76.5887704  31.4035280   8.5896360  78.0297223  31.8601864   8.5059825
  85.9275015  29.9171201  19.0570601  85.4442097  30.7171561  19.2634490
  86.0135954  29.9279146  18.1038045  79.1960975  31.7499581   6.9792421
  79.1731663  31.8487268   6.0274304  79.5061611  32.5964732   7.3009587
  81.8548353  33.8075736  11.0939035  82.8091606  33.7759678  11.0268967
  81.6560876  33.3466360  11.9089261  82.4447735  32.3776852  13.6609833
  83.2640624  32.8720931  13.6844670  82.7184543  31.4608820  13.6327400
  80.2098582  39.3495355   8.1109233  80.0753049  38.5895756   7.5447231
  79.7930644  40.0736255   7.6438022  83.3667707  40.2464672   8.3227676
  83.2500092  41.1910105   8.2206366  82.5460154  39.9438234   8.7113475
  77.6982649  26.7114986  14.3602030  78.3441513  26.2013940  14.8489255
  77.4899800  27.4483667  14.9345455  90.2236041  33.7795833  19.8594170
  91.0927201  33.9536486  19.4980805  89.7442793  34.5990250  19.7369900
  84.3922222  40.8992934  11.5383604  85.2949468  40.9316545  11.8550099
  84.1659592  39.9693385  11.5529940  86.1475824  39.6523921   8.1993683
  85.1971455  39.6525782   8.0858055  86.4508310  38.9056655   7.6829717
  82.0380140  23.8582603  18.4577044  82.9011602  23.5019408  18.6680369
  81.4645551  23.5196498  19.1452448 101.8828517  45.4884459   9.2639445
 102.5206927  45.3691207   8.5602785 101.7649360  46.4365303   9.3227397
  98.6918223  45.4411887   9.2000970  98.3536735  45.3252952   8.3121505
  99.5607991  45.0403052   9.1801976  94.5505039  47.2947364   5.1897861
  93.9869904  47.2037301   4.4214148  94.4357434  46.4747268   5.6700353
  99.1738006  46.5946739  15.1587175  99.1626647  46.1999537  14.2867679
  99.3358646  45.8612812  15.7520947  92.0969471  48.7898555   8.0282081
  92.8890763  48.4489380   7.6128381  92.3366121  48.8993530   8.9484235
 100.1304598  50.9618331   0.5012326  99.4792577  51.5472412   0.1146339
 100.9248961  51.4924526   0.5607363  94.0560225  48.0507469   0.8999460
  94.8291101  47.5036456   0.7612336  94.4085624  48.9151718   1.1113921
  95.8945267  49.3783851  14.1066359  95.6035133  50.2829482  13.9913026
  96.5302252  49.4200378  14.8210429  96.8201474  46.7560699  10.6967719
  97.4165047  46.5316722   9.9824682  96.8776446  46.0145445  11.2993167
  96.1122791  46.1128241   0.7342285  95.9959050  45.4373144   1.4023369
  96.2225051  45.6260615  -0.0825562  98.4554332  45.5738388   4.4388974
  98.0912540  45.0469009   5.1501896  99.3121448  45.1836857   4.2655460
 104.3603633  36.8632720  11.7020240 104.0286958  37.7328131  11.4781455
 103.7649246  36.5469004  12.3814271 100.8535153  49.0645266  11.1016153
 100.5535876  49.9670305  10.9931960 100.5086212  48.7977450  11.9537306
  94.3047634  45.5159063   7.1352857  93.3798130  45.3835277   7.3430549
  94.5532047  46.2953282   7.6322800 104.2532296  41.5827807   8.7813590
 103.3449174  41.5143215   8.4872351 104.2019892  42.0599752   9.6095416
  91.6656445  45.1592337   7.9696646  91.7948826  45.4126816   8.8836058
  90.9853896  45.7520045   7.6501302  95.8355932  55.8289587   4.0687121
  95.7579962  56.7797412   4.1475601  95.2317576  55.4835459   4.7262047
  98.3273162  43.0017452  16.7248488  97.5506496  43.5611372  16.7151352
  98.9663725  43.4874235  17.2463358  96.5819534  45.8102906  16.2866455
  97.3234219  46.3487949  16.0101278  95.8756520  46.4369194  16.4438006
 102.0574874  47.9532046  14.8838616 102.4658230  47.5114457  14.1393248
 101.3352136  47.3784674  15.1372809  98.4105944  42.8904653  12.2572173
  99.2567139  43.3144066  12.4006822  98.3504582  42.2338277  12.9510736
 102.3803689  48.5133237   8.6390905 101.7512551  48.6778951   7.9366973
 101.9929351  48.9274846   9.4101869 106.2592921  49.4487674   5.9935269
 105.5743959  49.8286576   5.4432302 106.3436770  50.0583001   6.7267216
 101.5605389  40.5509021  13.9153347 101.3166321  41.3051082  13.3787622
 101.8365320  40.9294369  14.7500594 103.5143852  47.0947633  12.5930612
 103.7260747  47.7379393  11.9164993 103.4673600  46.2609950  12.1252542
 101.1170081  39.7065454   9.4967184 100.2554560  40.0046708   9.7883922
 101.1432516  39.9235853   8.5648217  97.9331651  48.2507645   5.9040990
  98.3969996  48.5295348   5.1145613  97.6688449  47.3491089   5.7214081
  94.8255732  47.7979126   8.8420753  95.3957089  48.2266395   8.2038238
  95.4163843  47.5161711   9.5404939  96.8700537  44.3730797   2.7130555
  97.5724580  44.8251841   3.1804482  96.5381165  43.7314616   3.3410448
  95.3180898  42.9642554  17.0881765  94.6879559  43.6458835  17.3217161
  95.2116986  42.8525635  16.1434903  90.6125871  42.6314350   8.0147689
  89.8224925  42.8871878   7.5387799  91.1037118  43.4462688   8.1199729
 104.6289680  49.9719589  10.7652970 105.4507124  49.5699776  10.4835651
 104.6252083  49.8687823  11.7169085  92.5640616  42.9958929   4.9731165
  91.7671779  43.1077623   5.4914661  92.3366208  43.3345581   4.1072056
  98.3946284  49.5203632  12.9213680  98.4590716  49.9824039  13.7571852
  97.6857207  48.8900997  13.0495990  88.8963574  42.8844840  10.4462680
  89.1471612  43.7691850  10.7120255  89.4323122  42.7049442   9.6737771
  98.1094301  51.1871740   2.7892660  97.9739976  52.0323275   3.2177508
  98.6504114  51.3891017   2.0258594  94.5961641  37.2663320  19.4507016
  94.2028586  36.7129518  20.1254660  95.4127781  37.5773898  19.8413533
  91.5623699  48.7047178   3.3620585  92.0748219  49.4990428   3.5126150
  92.2146411  48.0073468   3.2954187  93.3718583  51.8212934   5.4443339
  93.5485212  52.7430899   5.2564323  94.1675417  51.5071353   5.8737718
  97.5129602  38.6821199  17.0427272  98.2539315  39.2828352  16.9631735
  97.7447525  37.9398836  16.4845315  92.6570940  43.8677566  15.3205502
  92.5424455  42.9662823  15.6212601  91.8015458  44.1141263  14.9690318
  99.7362778  51.8095306  16.9193002  99.2926632  51.0231685  16.6013907
 100.3979991  51.9974457  16.2536893  94.4949899  53.3391108  11.4453681
  95.0457324  53.2108171  10.6730675  93.6561375  53.6385997  11.0948574
 101.8344016  52.0898106  14.9474404 101.8162491  52.9106987  14.4554673
 102.7563936  51.9652181  15.1724545  98.2917070  49.6042236  15.7897912
  98.8245407  48.8430524  15.5597220  97.7631151  49.3115887  16.5322067
  89.5272615  47.0335832   4.1380156  90.3647837  47.4432840   3.9213864
  89.7050883  46.0935274   4.1080350 100.5383305  37.0806957   9.2840787
 100.0348101  37.0437092   8.4708592 100.8313912  37.9899699   9.3437444
  96.7826191  37.1645686   8.2906969  97.6479188  36.9688495   7.9312858
  96.8503700  36.9356038   9.2176326  99.6569783  48.7328228   3.3016724
  99.1291144  47.9980988   2.9889962  99.1557285  49.5102904   3.0556692
 104.6362629  46.9277249   8.4183770 103.9786303  47.6176510   8.5063899
 105.4403028  47.3173681   8.7617757  94.3888510  39.3947894   5.6623336
  94.9632262  39.1723076   4.9296529  94.9759493  39.4636589   6.4151937
  99.9248918  42.7571077   8.7146053  99.0071480  42.9786024   8.5567741
 100.3409062  42.8317387   7.8557760 104.2129884  50.2627623   4.5966855
 103.7592211  49.4218533   4.6532045 103.5823850  50.8989021   4.9341635
 102.6562823  52.1004119   5.5316673 102.9485797  52.6609177   4.8129039
 103.1661443  52.3932680   6.2869832  89.5498787  44.3726547   4.8090889
  89.3523186  43.7795908   4.0841956  88.9945451  44.0678758   5.5266828
  97.5295510  44.2649654   6.9285483  97.5844120  43.3123490   6.8527959
  96.7186712  44.4209093   7.4126781  95.4687870  42.8826714   4.6875861
  94.6555736  43.1820884   5.0941054  95.9646864  42.4882402   5.4050344
  97.6196448  52.8784471   6.6210126  97.5772627  53.1045317   5.6918658
  98.5359147  52.6447845   6.7695927 101.0662082  43.3468538  13.5190755
 101.4211470  43.5740011  14.3785221 101.7134213  43.6786915  12.8968011
  94.9601945  40.4545069  10.3037096  95.6001324  40.3133828   9.6060060
  94.1279475  40.1679582   9.9275698 106.8229198  48.5363501   9.2351356
 107.2565705  48.4438790  10.0834410 107.5360779  48.5121001   8.5971372
  95.7362249  49.7547500   6.4172089  96.5302847  49.2597820   6.2154664
  95.0253941  49.2265363   6.0539794 100.5557093  52.1365595  10.7684457
 100.6094116  52.7056531  11.5362172  99.6871875  52.3067480  10.4038494
  92.0445012  43.8990581   2.4931842  91.1142600  43.8375037   2.7101804
  92.1402484  43.3766534   1.6968483  91.9630561  40.4245394   5.0810083
  92.2237379  41.3390727   4.9719244  92.7847734  39.9569837   5.2306696
  93.4355487  41.8383151  12.2508908  94.1078540  41.6300513  11.6021557
  92.6085273  41.6405237  11.8114140 107.6844748  48.5787202  11.7684241
 107.8780638  49.4833012  12.0143516 107.5845366  48.1194621  12.6022826
  99.3381059  38.4645092  14.2674569  98.6908974  39.1635042  14.1739045
 100.1082074  38.8981236  14.6350817 102.7459857  48.7293944  17.3425122
 102.5945363  48.5004496  16.4255206 102.7364536  49.6864546  17.3556467
  99.5145193  46.3025857  12.3271388 100.4437253  46.4537017  12.1540356
  99.0936223  46.3909878  11.4720035  98.3133525  50.3276522  10.0969926
  98.1744610  49.9595306  10.9695864  97.5248121  50.8424161   9.9253884
  98.9081677  55.4285618   1.4395463  99.0833432  54.9573661   2.2541085
  98.2214465  56.0551384   1.6676723  99.8638740  49.7058124   7.4858764
  99.5288573  49.6658894   8.3816414  99.3642686  49.0402840   7.0129174
  93.8382984  45.1125754  13.0111345  93.7002782  44.3805993  13.6122884
  94.7487907  45.0234654  12.7295533  96.4665285  44.8245714  12.4995025
  97.1764903  44.1838906  12.4581643  96.4234593  45.0758608  13.4221205
 104.4552063  51.7613067  15.4201604 104.3964609  51.0772287  14.7532187
 104.8571582  52.5032057  14.9682230  95.1794219  41.8110931  14.3190664
  94.6431576  41.3601670  14.9712260  94.5910927  41.9456840  13.5761128
  93.4742762  58.5774981   8.2135323  93.7139360  59.2093505   8.8914341
  92.6311959  58.2263021   8.5000682 104.4569471  49.7252651  13.6515583
 103.5696249  49.3878573  13.7741982 105.0268022  48.9935682  13.8884349
  86.1098618  46.0576743   6.9758635  86.7969657  45.7438473   6.3879650
  85.9546746  46.9618107   6.7025886  90.9133340  40.9466939  11.4043659
  90.8291528  40.3392609  10.6694068  90.0916046  41.4375957  11.4053155
  97.9870624  54.3854103  10.6176827  97.9140795  55.1909075  11.1296131
  97.5448017  54.5846069   9.7924848  97.7760404  53.6225873   4.1279648
  96.9927925  54.1647553   4.2217873  98.4753149  54.1399853   4.5273889
 100.4469307  54.2840937  12.7734985 101.1597280  54.9188402  12.7010887
  99.9559336  54.3804803  11.9574987 102.1686834  48.1892190   4.3452277
 101.2343113  48.3093652   4.1756981 102.3463503  47.2864657   4.0812287
  97.6692022  41.5737886   6.4985538  97.2989810  41.0208926   7.1866444
  98.1651115  40.9696019   5.9460538  95.4981221  52.0335381  13.5940556
  96.1990680  52.6671864  13.7469950  95.0276336  52.3750112  12.8336195
 103.2982507  44.5879988  11.4193107 102.6453957  44.8355896  10.7645559
 103.6762887  43.7744126  11.0855584 100.2589681  54.6239681   5.5221277
 100.4412075  53.8061337   5.9849029 101.0822667  54.8407374   5.0846167
 100.5931846  53.5507866   2.7836325 101.1219613  53.0400321   2.1706487
 100.8560066  53.2350397   3.6481858  99.3470080  45.3299799  17.9059144
  98.6710717  45.2293929  18.5761519 100.1697714  45.1739013  18.3695141
  91.0948939  51.5671736  10.5271659  91.6802376  50.8215424  10.6599563
  90.8973777  51.8775692  11.4108323  93.9487594  54.6022983   5.5434101
  93.2797969  55.0869111   5.0598141  93.8100464  54.8492204   6.4577480
  85.6866594  44.1377336   9.2476102  85.7250693  43.6040927  10.0413220
  85.1806887  43.6112541   8.6287079  98.0892863  56.6366727  12.1416760
  98.6411171  56.7998348  12.9065845  98.4299056  57.2271164  11.4696784
  93.0657356  38.9841876  12.7438644  93.1298683  39.8456707  12.3316042
  93.0024476  38.3715878  12.0111003  92.5409629  41.0565009  16.3911679
  93.1681667  40.6742086  17.0049203  91.6837547  40.8379211  16.7567371
 102.9403737  51.4627984  17.9965414 103.4843641  52.0757942  17.5020369
 102.3590582  52.0207563  18.5132427  89.3175171  42.8641438   2.3230033
  89.6128612  41.9552117   2.2697087  88.4163207  42.8429178   2.0011036
 101.2261250  54.5848702   9.1280442 101.1012390  53.7838442   8.6191387
 101.8840341  55.0794896   8.6394412  92.8469418  40.9397435   8.3057582
  92.1256004  41.5533402   8.1665055  93.6362674  41.4755199   8.2274228
 103.2896158  52.3857722  10.7559992 102.3426494  52.2663073  10.6838319
 103.6378932  51.4980220  10.8386253  95.6495732  38.2751861  14.5798234
  96.1730134  38.5214158  15.3424543  95.4308065  39.1071896  14.1601371
  91.0463013  40.5455536   2.4469359  90.7175719  39.6652915   2.2644464
  91.4002384  40.4903204   3.3345748 100.2942592  52.1810438   6.9564344
 100.1467554  51.2527146   7.1371914 101.1196085  52.2030529   6.4721419
  94.1604836  40.8328506   2.8144836  94.5000909  41.3614427   2.0923445
  94.6076957  41.1708912   3.5903403 103.8976714  53.0038997   8.0429217
 104.8223261  52.7981859   7.9053668 103.7292017  52.7555398   8.9518558
  96.8548277  39.2165556  12.2647904  96.5145097  38.4173369  12.6668584
  96.1487283  39.5167267  11.6924737  97.5064749  36.3014869  10.7175227
  98.3290818  35.8275347  10.5954118  97.7502812  37.0805352  11.2173914
  95.0303327  42.9933989   8.5267206  94.8847908  43.3074292   9.4191487
  94.5528531  43.6118890   7.9738105  96.8899710  39.9836537   8.5748095
  96.8761279  39.0877631   8.2380393  97.6072138  39.9907201   9.2086381
  98.7425841  40.4173878  10.6201223  98.4843619  41.3390948  10.6185553
  98.2110881  40.0204312  11.3101687 103.6872030  53.5224665   3.3991308
 103.8608907  52.9571087   2.6465161 104.1800921  54.3225560   3.2170798
  89.5048990  45.5339334  11.4654867  88.9602458  46.3099142  11.5975141
  90.3828339  45.8810138  11.3073989  90.2915011  44.6609230  14.3585024
  89.5496748  44.8091865  14.9449654  89.9707756  44.9217496  13.4951773
  98.2358674  54.2025208  14.1565414  98.5445801  53.9574355  15.0288114
  99.0334156  54.4071847  13.6684284  98.2579286  56.3563118   6.3870790
  97.8184276  55.8639497   7.0803647  99.0087403  55.8136086   6.1462866
  90.7371625  52.5474659   6.3895419  91.5629645  52.2478431   6.0094062
  90.3865677  51.7782281   6.8385207  95.7053158  51.9001127   8.4593092
  95.0833168  51.2371832   8.1595320  96.3758025  51.9262259   7.7766740
  88.9380230  50.4660985   7.3484352  88.1012139  50.0383160   7.1668353
  88.9103876  50.6593429   8.2855143  95.7777686  40.3782915  18.0525598
  95.8265841  41.2545038  17.6703368  96.3200200  39.8360308  17.4797241
 106.2632532  50.9224038  17.3326735 105.4728075  50.9048177  16.7931235
 106.0265886  51.4612332  18.0875772 106.3830407  47.7716505  14.6459464
 106.4328411  47.6066512  15.5874987 106.2744330  46.9043764  14.2557345
  95.2666665  50.4505050   1.9351553  95.4154786  51.1340515   1.2818225
  96.0733109  50.4310140   2.4501008 103.6734169  43.7547433  15.9618771
 104.5744032  43.6153897  15.6702768 103.7482143  43.9201887  16.9016948
  98.0076974  41.1314287  14.8071957  97.1380284  41.4247853  14.5354545
  98.2436455  41.7154732  15.5279220 107.8848603  50.1913446  14.8901485
 107.5933412  50.5543427  15.7264946 107.2720735  49.4780454  14.7114817
 106.1335792  45.3146061  13.3581543 106.6089913  45.5073707  12.5500395
 105.2101357  45.3705247  13.1124927  93.0219298  46.4770228   2.9412622
  92.7765340  45.5732558   3.1392832  93.1915213  46.4787378   1.9992100
 100.7116008  37.3493904  12.3237377 101.2297952  38.0854931  11.9983866
 100.3571141  37.6557898  13.1584136  92.2914946  42.2098586   0.4398783
  91.5984191  42.2842940  -0.2161181  92.0466698  41.4458929   0.9620300
  98.7662071  52.9453181  -0.5936700  98.1936038  53.5643368  -1.0466228
  99.3394864  53.4952542  -0.0596778 104.8337461  42.1911821  11.5909849
 105.7854884  42.2909918  11.6122073 104.6640911  41.3990089  12.1007933
 102.8551840  39.2767404  11.7769250 102.2601772  39.5572417  11.0815738
 102.5701537  39.7661305  12.5485991 107.3125538  45.4117941  10.7052149
 107.2801859  44.4733941  10.8911832 107.9226162  45.4901977   9.9717973
  99.0347562  48.3331740  18.2080010  99.9550571  48.5110339  18.4020056
  98.9997145  47.3887785  18.0559709  88.2529727  43.5270333   7.1333284
  87.9332511  42.6735641   6.8407658  87.7063155  43.7418911   7.8891252
  92.0309634  46.2432774  10.8502791  92.2495644  47.1749882  10.8690825
  92.4435408  45.8840749  11.6357595  96.9037500  41.8165980  20.2405540
  96.8034227  42.7660337  20.1717631  96.6859042  41.4884219  19.3681610
  88.1217987  47.1473245   9.1026406  87.4281458  46.7327198   8.5896360
  88.8690978  47.1893781   8.5059825  96.7668770  45.2463119  19.0570601
  96.2835851  46.0463479  19.2634490  96.8529709  45.2571064  18.1038045
  90.0354729  47.0791499   6.9792421  90.0125417  47.1779186   6.0274304
  90.3455366  47.9256649   7.3009587  92.6942107  49.1367654  11.0939035
  93.6485361  49.1051596  11.0268967  92.4954631  48.6758277  11.9089261
  93.2841489  47.7068770  13.6609833  94.1034378  48.2012848  13.6844670
  93.5578297  46.7900738  13.6327400  91.0492336  54.6787273   8.1109233
  90.9146804  53.9187674   7.5447231  90.6324398  55.4028173   7.6438022
  94.2061462  55.5756590   8.3227676  94.0893846  56.5202023   8.2206366
  93.3853908  55.2730152   8.7113475  88.5376404  42.0406904  14.3602030
  89.1835267  41.5305857  14.8489255  88.3293555  42.7775585  14.9345455
 101.0629796  49.1087751  19.8594170 101.9320955  49.2828403  19.4980805
 100.5836547  49.9282168  19.7369900  95.2315976  56.2284852  11.5383604
  96.1343223  56.2608462  11.8550099  95.0053346  55.2985303  11.5529940
  96.9869578  54.9815839   8.1993683  96.0365209  54.9817700   8.0858055
  97.2902064  54.2348573   7.6829717  92.8773895  39.1874521  18.4577044
  93.7405356  38.8311325  18.6680369  92.3039305  38.8488415  19.1452448
 112.7222272  60.8176377   9.2639445 113.3600681  60.6983124   8.5602785
 112.6043114  61.7657221   9.3227397 109.5311978  60.7703805   9.2000970
 109.1930489  60.6544870   8.3121505 110.4001746  60.3694970   9.1801976
 110.0131761  61.9238657  15.1587175 110.0020402  61.5291455  14.2867679
 110.1752400  61.1904729  15.7520947 102.9363225  64.1190473   8.0282081
 103.7284517  63.7781298   7.6128381 103.1759876  64.2285448   8.9484235
 106.7339022  64.7075769  14.1066359 106.4428888  65.6121399  13.9913026
 107.3696006  64.7492296  14.8210429 107.6595229  62.0852617  10.6967719
 108.2558801  61.8608639   9.9824682 107.7170200  61.3437363  11.2993167
 115.1997387  52.1924638  11.7020240 114.8680712  53.0620049  11.4781455
 114.6043001  51.8760922  12.3814271 111.6928907  64.3937184  11.1016153
 111.3929630  65.2962223  10.9931960 111.3479967  64.1269367  11.9537306
 105.1441388  60.8450981   7.1352857 104.2191885  60.7127195   7.3430549
 105.3925802  61.6245200   7.6322800 115.0926051  56.9119724   8.7813590
 114.1842928  56.8435133   8.4872351 115.0413647  57.3891669   9.6095416
 102.5050200  60.4884254   7.9696646 102.6342581  60.7418733   8.8836058
 101.8247651  61.0811962   7.6501302 109.1666917  58.3309370  16.7248488
 108.3900251  58.8903290  16.7151352 109.8057480  58.8166153  17.2463358
 107.4213289  61.1394823  16.2866455 108.1627973  61.6779867  16.0101278
 106.7150274  61.7661112  16.4438006 112.8968629  63.2823964  14.8838616
 113.3051985  62.8406374  14.1393248 112.1745890  62.7076591  15.1372809
 109.2499699  58.2196570  12.2572173 110.0960894  58.6435984  12.4006822
 109.1898336  57.5630195  12.9510736 112.3999144  55.8800939  13.9153347
 112.1560076  56.6342999  13.3787622 112.6759074  56.2586286  14.7500594
 114.3537607  62.4239551  12.5930612 114.5654502  63.0671311  11.9164993
 114.3067355  61.5901868  12.1252542 111.9563836  55.0357372   9.4967184
 111.0948315  55.3338625   9.7883922 111.9826270  55.2527771   8.5648217
 105.6649486  63.1271044   8.8420753 106.2350843  63.5558312   8.2038238
 106.2557598  62.8453629   9.5404939 106.1574653  58.2934471  17.0881765
 105.5273313  58.9750752  17.3217161 106.0510741  58.1817553  16.1434903
 101.4519625  57.9606267   8.0147689 100.6618679  58.2163796   7.5387799
 101.9430872  58.7754605   8.1199729 103.4034370  58.3250847   4.9731165
 102.6065534  58.4369541   5.4914661 103.1759963  58.6637499   4.1072056
 109.2340038  64.8495550  12.9213680 109.2984471  65.3115957  13.7571852
 108.5250962  64.2192915  13.0495990  99.7357328  58.2136758  10.4462680
  99.9865366  59.0983768  10.7120255 100.2716876  58.0341359   9.6737771
 105.4355395  52.5955237  19.4507016 105.0422341  52.0421436  20.1254660
 106.2521536  52.9065816  19.8413533 108.3523356  54.0113116  17.0427272
 109.0933070  54.6120269  16.9631735 108.5841279  53.2690754  16.4845315
 103.4964694  59.1969484  15.3205502 103.3818209  58.2954741  15.6212601
 102.6409212  59.4433180  14.9690318 110.5756532  67.1387224  16.9193002
 110.1320386  66.3523602  16.6013907 111.2373746  67.3266374  16.2536893
 105.3343653  68.6683025  11.4453681 105.8851078  68.5400089  10.6730675
 104.4955129  68.9677914  11.0948574 112.6737770  67.4190024  14.9474404
 112.6556246  68.2398905  14.4554673 113.5957690  67.2944099  15.1724545
 109.1310824  64.9334153  15.7897912 109.6639161  64.1722441  15.5597220
 108.6024905  64.6407805  16.5322067 111.3777060  52.4098874   9.2840787
 110.8741855  52.3729010   8.4708592 111.6707667  53.3191617   9.3437444
 107.6219946  52.4937604   8.2906969 108.4872942  52.2980413   7.9312858
 107.6897454  52.2647956   9.2176326 105.2282265  54.7239812   5.6623336
 105.8026017  54.5014994   4.9296529 105.8153247  54.7928507   6.4151937
 110.7642673  58.0862995   8.7146053 109.8465234  58.3077942   8.5567741
 111.1802816  58.1609305   7.8557760 100.3892541  59.7018465   4.8090889
 100.1916941  59.1087826   4.0841956  99.8339205  59.3970675   5.5266828
 108.3689265  59.5941572   6.9285483 108.4237874  58.6415408   6.8527959
 107.5580467  59.7501011   7.4126781 106.3081625  58.2118631   4.6875861
 105.4949490  58.5112802   5.0941054 106.8040619  57.8174320   5.4050344
 111.9055836  58.6760456  13.5190755 112.2605224  58.9031929  14.3785221
 112.5527968  59.0078833  12.8968011 105.7995699  55.7836987  10.3037096
 106.4395079  55.6425746   9.6060060 104.9673230  55.4971500   9.9275698
 102.8024316  55.7537312   5.0810083 103.0631133  56.6682645   4.9719244
 103.6241488  55.2861754   5.2306696 104.2749241  57.1675069  12.2508908
 104.9472295  56.9592431  11.6021557 103.4479028  56.9697155  11.8114140
 110.1774813  53.7937010  14.2674569 109.5302728  54.4926960  14.1739045
 110.9475829  54.2273154  14.6350817 113.5853611  64.0585862  17.3425122
 113.4339117  63.8296414  16.4255206 113.5758291  65.0156463  17.3556467
 110.3538947  61.6317775  12.3271388 111.2831007  61.7828934  12.1540356
 109.9329977  61.7201796  11.4720035 109.1527279  65.6568439  10.0969926
 109.0138365  65.2887224  10.9695864 108.3641875  66.1716079   9.9253884
 104.6776738  60.4417672  13.0111345 104.5396536  59.7097911  13.6122884
 105.5881662  60.3526572  12.7295533 107.3059039  60.1537631  12.4995025
 108.0158658  59.5130823  12.4581643 107.2628347  60.4050526  13.4221205
 115.2945818  67.0904985  15.4201604 115.2358364  66.4064205  14.7532187
 115.6965336  67.8323975  14.9682230 106.0187973  57.1402849  14.3190664
 105.4825330  56.6893588  14.9712260 105.4304681  57.2748758  13.5761128
 115.2963225  65.0544569  13.6515583 114.4090004  64.7170490  13.7741982
 115.8661776  64.3227600  13.8884349  96.9492372  61.3868660   6.9758635
  97.6363412  61.0730390   6.3879650  96.7940501  62.2910025   6.7025886
 101.7527094  56.2758857  11.4043659 101.6685283  55.6684526  10.6694068
 100.9309801  56.7667875  11.4053155 108.5085777  56.9029803   6.4985538
 108.1383564  56.3500844   7.1866444 109.0044869  56.2987937   5.9460538
 106.3374975  67.3627298  13.5940556 107.0384435  67.9963781  13.7469950
 105.8670090  67.7042030  12.8336195 114.1376261  59.9171906  11.4193107
 113.4847712  60.1647813  10.7645559 114.5156641  59.1036044  11.0855584
 110.1863834  60.6591717  17.9059144 109.5104471  60.5585846  18.5761519
 111.0091468  60.5030931  18.3695141 101.9342693  66.8963653  10.5271659
 102.5196130  66.1507341  10.6599563 101.7367532  67.2067610  11.4108323
  96.5260348  59.4669254   9.2476102  96.5644448  58.9332844  10.0413220
  96.0200641  58.9404459   8.6287079 103.9051111  54.3133794  12.7438644
 103.9692437  55.1748625  12.3316042 103.8418231  53.7007796  12.0111003
 103.3803383  56.3856927  16.3911679 104.0075422  56.0034004  17.0049203
 102.5231302  56.1671129  16.7567371 113.7797492  66.7919902  17.9965414
 114.3237396  67.4049860  17.5020369 113.1984336  67.3499480  18.5132427
 100.1568926  58.1933356   2.3230033 100.4522367  57.2844034   2.2697087
  99.2556962  58.1721095   2.0011036 103.6863173  56.2689352   8.3057582
 102.9649759  56.8825320   8.1665055 104.4756429  56.8047117   8.2274228
 106.4889486  53.6043779  14.5798234 107.0123888  53.8506075  15.3424543
 106.2701820  54.4363814  14.1601371 101.8856767  55.8747453   2.4469359
 101.5569474  54.9944832   2.2644464 102.2396138  55.8195122   3.3345748
 107.6942031  54.5457474  12.2647904 107.3538852  53.7465287  12.6668584
 106.9881038  54.8459185  11.6924737 108.3458503  51.6306786  10.7175227
 109.1684573  51.1567265  10.5954118 108.5896567  52.4097270  11.2173914
 105.8697082  58.3225907   8.5267206 105.7241663  58.6366210   9.4191487
 105.3922286  58.9410807   7.9738105 107.7293465  55.3128455   8.5748095
 107.7155034  54.4169548   8.2380393 108.4465893  55.3199119   9.2086381
 109.5819596  55.7465795  10.6201223 109.3237373  56.6682866  10.6185553
 109.0504636  55.3496230  11.3101687 100.3442744  60.8631251  11.4654867
  99.7996212  61.6391059  11.5975141 101.2222094  61.2102056  11.3073989
 101.1308766  59.9901148  14.3585024 100.3890502  60.1383783  14.9449654
 100.8101510  60.2509413  13.4951773 109.0752429  69.5317126  14.1565414
 109.3839555  69.2866273  15.0288114 109.8727911  69.7363764  13.6684284
  99.7773985  65.7952903   7.3484352  98.9405893  65.3675077   7.1668353
  99.7497630  65.9885346   8.2855143 106.6171440  55.7074833  18.0525598
 106.6659596  56.5836955  17.6703368 107.1593955  55.1652226  17.4797241
 117.1026286  66.2515956  17.3326735 116.3121830  66.2340095  16.7931235
 116.8659641  66.7904250  18.0875772 117.2224161  63.1008422  14.6459464
 117.2722166  62.9358430  15.5874987 117.1138084  62.2335681  14.2557345
 114.5127923  59.0839350  15.9618771 115.4137786  58.9445815  15.6702768
 114.5875898  59.2493805  16.9016948 108.8470729  56.4606205  14.8071957
 107.9774038  56.7539771  14.5354545 109.0830209  57.0446650  15.5279220
 118.7242358  65.5205364  14.8901485 118.4327166  65.8835344  15.7264946
 118.1114489  64.8072372  14.7114817 116.9729546  60.6437978  13.3581543
 117.4483668  60.8365625  12.5500395 116.0495111  60.6997164  13.1124927
 111.5509763  52.6785822  12.3237377 112.0691706  53.4146849  11.9983866
 111.1964895  52.9849815  13.1584136 115.6731215  57.5203739  11.5909849
 116.6248638  57.6201836  11.6122073 115.5034666  56.7282007  12.1007933
 113.6945595  54.6059322  11.7769250 113.0995527  54.8864334  11.0815738
 113.4095291  55.0953223  12.5485991 109.8741316  63.6623657  18.2080010
 110.7944326  63.8402256  18.4020056 109.8390899  62.7179703  18.0559709
  99.0923481  58.8562251   7.1333284  98.7726266  58.0027559   6.8407658
  98.5456909  59.0710829   7.8891252 102.8703389  61.5724692  10.8502791
 103.0889399  62.5041800  10.8690825 103.2829163  61.2132666  11.6357595
 107.7431254  57.1457898  20.2405540 107.6427981  58.0952255  20.1717631
 107.5252796  56.8176137  19.3681610  98.9611741  62.4765162   9.1026406
  98.2675213  62.0619115   8.5896360  99.7084732  62.5185699   8.5059825
 107.6062524  60.5755037  19.0570601 107.1229606  61.3755397  19.2634490
 107.6923463  60.5862981  18.1038045 100.8748484  62.4083416   6.9792421
 100.8519172  62.5071104   6.0274304 101.1849120  63.2548567   7.3009587
 103.5335862  64.4659571  11.0939035 104.4879115  64.4343514  11.0268967
 103.3348385  64.0050195  11.9089261 104.1235244  63.0360687  13.6609833
 104.9428133  63.5304766  13.6844670 104.3972052  62.1192655  13.6327400
  99.3770158  57.3698821  14.3602030 100.0229022  56.8597775  14.8489255
  99.1687309  58.1067503  14.9345455 111.9023550  64.4379669  19.8594170
 112.7714710  64.6120321  19.4980805 111.4230302  65.2574085  19.7369900
 106.0709730  71.5576770  11.5383604 106.9736977  71.5900380  11.8550099
 105.8447101  70.6277221  11.5529940 103.7167649  54.5166438  18.4577044
 104.5799111  54.1603243  18.6680369 103.1433060  54.1780333  19.1452448
 116.2749150  67.9247155  19.4507016 115.8816095  67.3713353  20.1254660
 117.0915290  68.2357733  19.8413533 119.1917111  69.3405034  17.0427272
 119.9326824  69.9412187  16.9631735 119.4235034  68.5982672  16.4845315
 114.2197138  71.7148844  16.3911679 114.8469176  71.3325922  17.0049203
 113.3625056  71.4963046  16.7567371 117.4565195  71.0366750  18.0525598
 117.5053350  71.9128873  17.6703368 117.9987709  70.4944143  17.4797241
 118.5825009  72.4749815  20.2405540 118.4821736  73.4244172  20.1717631
 118.3646551  72.1468054  19.3681610 110.2163913  72.6990739  14.3602030
 110.8622776  72.1889693  14.8489255 110.0081064  73.4359420  14.9345455
 114.5561404  69.8458356  18.4577044 115.4192865  69.4895161  18.6680369
 113.9826814  69.5072251  19.1452448   4.3258121  76.9742178  86.7666098
   3.5721829  76.4049576  86.6110103   4.4605662  76.9404843  87.7136733
   0.6906733  78.4150167  87.0632213   1.5253625  78.8539971  87.2269773
   0.8265862  77.9388820  86.2440458   4.7364536  77.1317788  89.4986342
   5.4667924  76.8703076  90.0594046   4.1271481  76.3946510  89.5388410
   2.8179833  75.2725651  90.0960794   2.0912997  75.1381616  89.4877285
   2.4027120  75.5802479  90.9017512   2.7428701  74.8003704  86.2237646
   2.1828259  74.8696893  86.9969209   2.1372204  74.6244688  85.5037143
   4.3284719  91.4760218  88.9167602   4.9663129  91.3566965  88.2130942
   4.2105562  92.4241062  88.9755554   1.1374425  91.4287646  88.8529127
   0.7992937  91.3128710  87.9649662   2.0064194  91.0278811  88.8330133
   2.5760800  96.9494090  80.1540483   1.9248780  97.5348170  79.7674497
   3.3705163  97.4800285  80.2135520   3.8825988  89.2011671  85.9920810
   4.6689077  88.7831095  85.6411227   4.1464692  90.1057764  86.1602459
   4.0536065  94.6384522  80.6909467   3.4181898  94.7119148  81.4030372
   3.7233471  95.2278121  80.0128546   9.2834415  89.1386905  86.8953789
  10.0159587  88.5686121  87.1291618   8.5273770  88.7508505  87.3360294
   0.9010534  91.5614146  84.0917131   0.5368742  91.0344767  84.8030053
   1.7577650  91.1712615  83.9183617   6.8059835  82.8508479  91.3548397
   6.4743160  83.7203890  91.1309612   6.2105448  82.5344763  92.0342428
   3.2991355  95.0521025  90.7544310   2.9992078  95.9546064  90.6460117
   2.9542414  94.7853208  91.6065463   6.6988498  87.5703565  88.4341747
   5.7905376  87.5018973  88.1400508   6.6476094  88.0475510  89.2623573
   8.5650145  85.7720003  90.2119621   7.9224525  86.0652537  89.5659416
   8.0605073  85.6572924  91.0172818   6.2190308  89.5183177  80.9005481
   7.1308165  89.7510563  80.7253178   5.7099955  90.1020221  80.3380559
   0.8562146  88.8780411  91.9100330   1.7023341  89.3019825  92.0534979
   0.7960784  88.2214035  92.6038893   4.8259891  94.5008995  88.2919062
   4.1968753  94.6654709  87.5895130   4.4385553  94.9150605  89.0630026
   8.7049123  95.4363433  85.6463426   8.0200161  95.8162334  85.0960459
   8.7892972  96.0458759  86.3795374   4.0061591  86.5384779  93.5681504
   3.7622523  87.2926840  93.0315779   4.2821522  86.9170127  94.4028751
   5.9600054  93.0823392  92.2458769   6.1716949  93.7255152  91.5693150
   5.9129802  92.2485708  91.7780699   3.5626283  85.6941213  89.1495341
   2.7010762  85.9922466  89.4412079   3.5888718  85.9111611  88.2176374
   7.0745882  95.9595347  90.4181127   7.8963326  95.5575535  90.1363808
   7.0708285  95.8563581  91.3697242  15.1651875  92.3034096  86.7666098
  14.4115584  91.7341494  86.6110103  15.2999416  92.2696760  87.7136733
   3.9042967  80.6978060  90.9719711   3.5607236  81.5879702  90.8958822
   4.2721929  80.5079718  90.1089296   3.8693250  90.6886671  79.4792146
   3.3539873  91.4591276  79.7180533   3.5970558  90.0151807  80.1025208
   1.4540361  85.5336372  84.5377384   0.5981957  85.1443222  84.3583023
   1.8667312  85.6128333  83.6777170   2.9839507  83.0682715  88.9368944
   2.4804303  83.0312850  88.1236749   3.2770114  83.9775458  88.9965601
   8.8427524  93.4419026  81.4145320   8.0656966  93.1030185  80.9700482
   9.5219005  93.4471649  80.7400285   3.6579553  88.5613763  81.3051927
   3.3529688  88.8759912  82.1562070   4.6109995  88.6395183  81.3479260
   2.1025985  94.7203986  82.9544881   1.5747346  93.9856746  82.6418119
   1.6013487  95.4978663  82.7084850   7.0818831  92.9153007  88.0711928
   6.4242505  93.6052268  88.1592056   7.8859230  93.3049439  88.4145914
   5.8924289  91.2697380  86.1215869   6.4056171  91.9027371  86.6237579
   6.5425513  90.6698575  85.7559229   3.1546664 101.2481704  78.8776540
   2.4808362 101.5513401  79.4861498   3.5412486 102.0510784  78.5281997
   2.3705120  88.7446835  88.3674210   1.4527682  88.9661782  88.2095898
   2.7865264  88.8193146  87.5085917   3.1540168  90.1438251  83.4976890
   3.9011987  90.6559648  83.1884012   3.4231758  89.8222304  84.3581284
   1.4266818  92.6396792  80.4803844   0.5178037  92.3555824  80.5776314
   1.4561902  93.0595870  79.6207151   6.6586086  96.2503381  84.2495012
   6.2048413  95.4094291  84.3060202   6.0280052  96.8864779  84.5869792
   5.6019005  87.1795367  85.4795679   4.8641762  86.6672753  85.8105922
   5.8545779  86.7395749  84.6678956   5.1019025  98.0879878  85.1844830
   5.3941999  98.6484935  84.4657196   5.6117645  98.3808439  85.9397989
   5.7030632  79.9571619  86.0737449   6.0089509  79.0968983  85.7863364
   6.4283237  80.5489239  85.8736443   1.1242906  94.1805535  77.8191923
   0.6862336  93.4641394  77.3597560   1.8653347  94.4081650  77.2577014
   3.5118284  89.3344296  93.1718912   3.8667672  89.5615770  94.0313378
   4.1590415  89.6662673  92.5496168   9.2416021  92.4562732  83.8768241
   9.1033919  92.6464328  82.9489431   8.8852240  93.2182115  84.3336293
   9.2685400  94.5239259  88.8879513   9.7021907  94.4314548  89.7362567
   9.9816981  94.4996760  88.2499529  10.1300950  94.5662960  91.4212398
  10.3236840  95.4708770  91.6671673  10.0301568  94.1070379  92.2550983
   1.7837261  84.4520851  93.9202726   1.1365176  85.1510800  93.8267202
   2.5538276  84.8856994  94.2878974   1.9601395  92.2901615  91.9799545
   2.8893455  92.4412775  91.8068513   1.5392425  92.3785636  91.1248192
   1.3537879 101.4161376  81.0923620   1.5289634 100.9449420  81.9069242
   0.6670667 102.0427143  81.3204880   2.3094942  95.6933883  87.1386921
   1.9744775  95.6534653  88.0344571   1.8098888  95.0278598  86.6657331
   5.2454134  93.0389917  77.4123981   4.6283304  92.3136745  77.3157033
   4.7770622  93.7999277  77.0691055   6.9025673  95.7128409  93.3043741
   6.0152451  95.3754331  93.4270139   7.4724224  94.9811440  93.5412506
   3.5313256  85.4196261  86.4242011   4.0281955  84.6666223  86.1043081
   2.7600237  85.4560578  85.8585220  11.3843013  91.1236627  88.0660302
  11.3732889  92.0061342  87.6954235  10.5160393  90.7708177  87.8714839
   4.6143036  94.1767948  83.9980434   3.6799315  94.2969411  83.8285138
   4.7919705  93.2740415  83.7340444   8.0015588  90.0185268  84.5330468
   8.4676040  90.8513259  84.4590771   8.4523088  89.5530249  85.2375727
   6.0691819  96.3629089  81.5316620   6.3451663  96.2485683  82.4410494
   5.1996318  95.9646574  81.4928793   5.9732250  82.3865855  88.5721370
   5.0595330  82.6170081  88.7403577   6.4025352  82.4704299  89.4235402
   5.7438709  90.5755746  91.0721264   5.0910159  90.8231654  90.4173716
   6.1219089  89.7619885  90.7383741   2.7045883 100.6115440  85.1749434
   2.8868277  99.7937096  85.6377186   3.5278869 100.8283132  84.7374324
   3.0388048  99.5383625  82.4364482   3.5675815  99.0276079  81.8234644
   3.3016268  99.2226155  83.3010015   3.6717452 100.5724461  88.7808599
   3.5468592  99.7714200  88.2719544   4.3296543 101.0670654  88.2922569
   5.7352361  98.3733481  90.4088149   4.7882696  98.2538832  90.3366476
   6.0835134  97.4855979  90.4914410   2.7398794  98.1686197  86.6092501
   2.5923756  97.2402904  86.7900071   3.5652287  98.1906288  86.1249576
   6.3432916  98.9914756  87.6957374   7.2679463  98.7857617  87.5581825
   6.1748219  98.7431157  88.6046715   2.7360308  86.0224034  81.6024618
   2.9523923  86.9048672  81.3013447   2.2554375  85.6310248  80.8730260
   1.1882043  86.4049636  90.2729380   0.9299821  87.3266707  90.2713710
   0.6567083  86.0080070  90.9629844   6.1328232  99.5100423  83.0519465
   6.3065109  98.9446845  82.2993318   6.6257123 100.3101318  82.8698955
   1.6083999  82.5381586  86.6330543   1.6305696  82.6020919  85.6782522
   2.0252058  81.6986095  86.8271049  11.9867623  92.2736846  84.6709765
  12.4298769  91.5244171  84.2728888  11.1094133  92.2646982  84.2883497
   7.1203404  98.8267187  80.1516364   7.8154309  99.4473880  80.3703678
   7.4626554  97.9762539  80.4268742   9.0194827  96.2766893  81.6803694
   9.5446152  96.6154166  80.9553014   8.9317180  95.3413908  81.4966829
   8.8286609  93.7592263  94.2987621   8.8784614  93.5942270  95.2403144
   8.7200532  92.8919522  93.9085502   6.1190371  89.7423191  95.6146928
   7.0200234  89.6029656  95.3230925   6.1938345  89.9077646  96.5545105
  10.3304805  96.1789204  94.5429642  10.0389614  96.5419185  95.3793103
   9.7176937  95.4656213  94.3642975  11.5300488  93.7442084  87.0632213
  12.3647379  94.1831888  87.2269773  11.6659617  93.2680737  86.2440458
   8.5791994  91.3021819  93.0109700   9.0546115  91.4949465  92.2028552
   7.6557559  91.3581005  92.7653084   3.1572210  83.3369663  91.9765534
   3.6754154  84.0730690  91.6512023   2.8027343  83.6433656  92.8112293
   3.4084804  79.7569945  87.4966431   3.6886558  79.0893134  88.1226857
   4.1935411  79.9499041  86.9841095   1.2118273  98.9328939  79.0591457
   0.6392240  99.5519126  78.6061929   1.7851066  99.4828301  79.5931379
   7.2793663  88.1787579  91.2438006   8.2311086  88.2785677  91.2650230
   7.1097113  87.3865848  91.7536090   5.3008042  85.2643162  91.4297407
   4.7057974  85.5448175  90.7343896   5.0157739  85.7537063  92.2014148
   4.4315533  99.2166089  80.1900040   5.3646206  99.1511651  80.3932915
   4.3438745 100.0522356  79.7314572   7.0603549  98.5331960  77.1503987
   6.9817181  98.1991823  78.0439745   7.8813216  99.0253727  77.1495459
   9.7581740  91.3993699  90.3580306   9.7258061  90.4609700  90.5439990
  10.3682364  91.4777736  89.6246131   1.5965071  90.2689752  76.4007510
   2.5424176  90.1395960  76.4695928   1.2179316  89.5304414  76.8776938
   9.9076229  88.1904742  90.4038589   9.3915278  87.4063199  90.2168518
  10.7916177  87.8623459  90.5685108   7.5686956  81.9345758  86.3634402
   7.3711777  81.6260846  87.2477734   8.1786661  82.6607397  86.4932331
  15.5758290  92.4609706  89.4986342  16.3061679  92.1994994  90.0594046
  14.9665236  91.7238428  89.5388410  13.6573587  90.6017568  90.0960794
  12.9306751  90.4673533  89.4877285  13.2420874  90.9094397  90.9017512
   1.3970054  82.7376618  82.4906636   0.5870783  82.3923703  82.8661882
   2.0854471  82.4284162  83.0794248   3.3260602  81.8154665  84.1130933
   3.8791641  82.2350118  84.7720956   3.5630689  80.8890413  84.1553889
   6.7039410  83.9255190  83.6209597   6.1238079  84.5839994  83.2387650
   6.4375342  83.1032535  83.2097015   5.1542976  83.3260248  85.8230917
   5.6542754  83.4376782  85.0145236   5.7978584  83.0221300  86.4631726
   5.4864288  86.0855280  82.6765945   4.5990143  86.3704931  82.4586140
   5.9018277  85.9249044  81.8293222   8.8378824  86.1101801  86.3920285
   9.6139214  86.5998254  86.6644901   8.1126958  86.5359855  86.8492154
  11.2751382  86.8229421  87.4494225  11.8695873  86.5825156  86.7387534
  11.3477966  86.1036551  88.0767762   4.6307501  95.8499955  76.7713965
   5.3343351  96.0549957  77.3871621   3.9070150  96.4176717  77.0363049
   5.4605311  91.6009816  82.8916236   5.4040513  92.0578368  82.0523868
   6.0133654  90.8400501  82.7139078   9.2710117  87.3899548  83.7166355
   9.0147051  86.9896184  84.5474563   8.6462985  88.1043342  83.5916494
  13.5822455  90.1295621  86.2237646  13.0222013  90.1988811  86.9969209
  12.9765958  89.9536606  85.5037143   6.5394198  96.2882484  78.8212425
   7.3739802  95.8563683  78.6389900   6.3778541  96.1164498  79.7489320
   6.1940091  92.7914597  80.1868765   6.1388894  92.6258869  79.2457209
   5.5686146  93.4990630  80.3430954   3.3188336  78.8865483  84.0200020
   2.5520731  78.3323970  84.1656702   3.7299041  78.9587352  84.8814172
  15.1678474 106.8052135  88.9167602  15.8056884 106.6858883  88.2130942
  15.0499316 107.7532979  88.9755554  11.9768180 106.7579563  88.8529127
  11.6386691 106.6420628  87.9649662  12.8457948 106.3570728  88.8330133
   9.6776459 105.5267811  78.1846067   9.9301980 105.0049332  77.4229530
   8.7401018 105.3633956  78.2872751  14.7219742 104.5303589  85.9920810
  15.5082831 104.1123012  85.6411227  14.9858446 105.4349681  86.1602459
  20.1228169 104.4678822  86.8953789  20.8553341 103.8978039  87.1291618
  19.3667525 104.0800423  87.3360294  11.7404289 106.8906064  84.0917131
  11.3762496 106.3636685  84.8030053  12.5971405 106.5004533  83.9183617
  17.6453590  98.1800396  91.3548397  17.3136914  99.0495807  91.1309612
  17.0499203  97.8636680  92.0342428  11.3809776 101.9195964  79.0878480
  11.5484178 102.7876200  79.4548951  11.1906945 102.0823245  78.1639769
  17.5382253 102.8995483  88.4341747  16.6299130 102.8310891  88.1400508
  17.4869849 103.3767428  89.2623573  11.3598997 104.3753621  80.0725147
  11.2398622 104.8210672  80.9110627  10.6651585 104.7238939  79.5138685
  19.4043899 101.1011921  90.2119621  18.7618279 101.3944454  89.5659416
  18.8998828 100.9864841  91.0172818  17.0584063 104.8475094  80.9005481
  17.9701919 105.0802481  80.7253178  16.5493710 105.4312138  80.3380559
  11.6955901 104.2072329  91.9100330  12.5417096 104.6311742  92.0534979
  11.6354538 103.5505953  92.6038893  14.8455346 101.8676697  93.5681504
  14.6016278 102.6218758  93.0315779  15.1215276 102.2462045  94.4028751
  16.7993809 108.4115310  92.2458769  17.0110704 109.0547069  91.5693150
  16.7523557 107.5777626  91.7780699  14.4020038 101.0233130  89.1495341
  13.5404517 101.3214384  89.4412079  14.4282472 101.2403529  88.2176374
  10.1550493 105.6898473  82.3658712  10.8574536 106.1419517  82.8332639
   9.8231122 105.0482292  82.9938605   3.8975827 103.9482026  87.6675846
   3.1074881 104.2039554  87.1915956   4.3887074 104.7630364  87.7727886
   5.8490572 104.3126605  84.6259323   5.0521736 104.4245299  85.1442818
   5.6216165 104.6513257  83.7600213  26.0045630 107.6326013  86.7666098
  25.2509338 107.0633412  86.6110103  26.1393171 107.5988678  87.7136733
  14.7436721  96.0269978  90.9719711  14.4000991  96.9171619  90.8958822
  15.1115684  95.8371635  90.1089296  14.7087004 106.0178589  79.4792146
  14.1933627 106.7883193  79.7180533  14.4364312 105.3443725  80.1025208
  12.2934115 100.8628290  84.5377384  11.4375711 100.4735140  84.3583023
  12.7061067 100.9420250  83.6777170  13.8233262  98.3974633  88.9368944
  13.3198057  98.3604768  88.1236749  14.1163869  99.3067375  88.9965601
  10.0676148  98.4813362  87.9435126  10.9329144  98.2856171  87.5841015
  10.1353657  98.2523714  88.8704483  19.6821278 108.7710943  81.4145320
  18.9050721 108.4322103  80.9700482  20.3612759 108.7763567  80.7400285
  14.4973307 103.8905681  81.3051927  14.1923443 104.2051830  82.1562070
  15.4503749 103.9687101  81.3479260  17.9212585 108.2444925  88.0711928
  17.2636260 108.9344186  88.1592056  18.7252984 108.6341357  88.4145914
   7.6738467 100.7115570  85.3151493   8.2482219 100.4890752  84.5824686
   8.2609449 100.7804265  86.0680094  16.7318044 106.5989297  86.1215869
  17.2449926 107.2319289  86.6237579  17.3819268 105.9990493  85.7559229
   8.0008054 102.7420031  79.3347378   7.1645366 103.0794718  79.6556653
   7.8612823 102.6069011  78.3974515   9.9761134  97.5856819  84.0426562
   9.3225547  97.2705837  83.4183177   9.9341609  96.9632560  84.7686385
  13.2098875 104.0738753  88.3674210  12.2921436 104.2953700  88.2095898
  13.6259018 104.1485063  87.5085917  13.9933923 105.4730169  83.4976890
  14.7405741 105.9851566  83.1884012  14.2625512 105.1514221  84.3581284
  16.4412760 102.5087285  85.4795679  15.7035516 101.9964671  85.8105922
  16.6939533 102.0687666  84.6678956  16.5424387  95.2863537  86.0737449
  16.8483264  94.4260900  85.7863364  17.2676992  95.8781157  85.8736443
  10.8145467 105.5817330  86.5813640  10.8694077 104.6291166  86.5056116
  10.0036669 105.7376769  87.0654938   8.7537827 104.1994390  84.3404019
   7.9405692 104.4988560  84.7469211   9.2496821 103.8050078  85.0578501
  14.3512038 104.6636214  93.1718912  14.7061426 104.8907687  94.0313378
  14.9984170 104.9954591  92.5496168  20.0809775 107.7854650  83.8768241
  19.9427674 107.9756246  82.9489431  19.7245994 108.5474033  84.3336293
   8.2451901 101.7712745  89.9565254   8.8851281 101.6301504  89.2588217
   7.4129432 101.4847259  89.5803856  20.1079155 109.8531177  88.8879513
  20.5415662 109.7606466  89.7362567  20.8210736 109.8288677  88.2499529
   5.3294969 105.2158257  82.1459999   4.3992557 105.1542713  82.3629961
   5.4252441 104.6934210  81.3496640   5.2480518 101.7413070  84.7338240
   5.5087335 102.6558403  84.6247401   6.0697690 101.2737513  84.8834853
  20.9694704 109.8954878  91.4212398  21.1630595 110.8000688  91.6671673
  20.8695323 109.4362297  92.2550983  12.6231015  99.7812768  93.9202726
  11.9758930 100.4802718  93.8267202  13.3932031 100.2148912  94.2878974
  12.7995150 107.6193533  91.9799545  13.7287210 107.7704693  91.8068513
  12.3786180 107.7077554  91.1248192   7.8746434 102.5867259  76.5345285
   6.9975900 102.4656060  76.1707531   8.3504187 101.7953337  76.2824173
  14.3707010 100.7488179  86.4242011  14.8675710  99.9958141  86.1043081
  13.5993992 100.7852495  85.8585220  22.2236768 106.4528544  88.0660302
  22.2126644 107.3353260  87.6954235  21.3554147 106.1000095  87.8714839
  10.9541979 102.8905562  86.1513695  10.5839766 102.3376602  86.8394601
  11.4501071 102.2863695  85.5988695  18.8409342 105.3477185  84.5330468
  19.3069794 106.1805177  84.4590771  19.2916843 104.8822167  85.2375727
  16.8126005  97.7157772  88.5721370  15.8989085  97.9461999  88.7403577
  17.2419106  97.7996216  89.4235402  16.5832463 105.9047664  91.0721264
  15.9303914 106.1523572  90.4173716  16.9612843 105.0911802  90.7383741
   6.3507313 100.3009552  92.3966801   6.4148639 101.1624383  91.9844199
   6.2874433  99.6883554  91.6639160   2.6025128 104.1809114  81.9758190
   2.8978569 103.2719793  81.9225244   1.7013164 104.1596854  81.6539193
   6.1319375 102.2565111  87.9585739   5.4105961 102.8701078  87.8193212
   6.9212631 102.7922876  87.8802385   8.9345688  99.5919537  94.2326391
   9.4580090  99.8381834  94.9952700   8.7158022 100.4239572  93.8129528
   4.3312969 101.8623212  82.0997516   4.0025676 100.9820591  81.9172622
   4.6852340 101.8070880  82.9873905   7.4454793 102.1496182  82.4672993
   7.7850865 102.6782103  81.7451602   7.8926913 102.4876588  83.2431560
  10.1398233 100.5333232  91.9176061   9.7995054  99.7341045  92.3196741
   9.4337240 100.8334943  91.3452895  10.7914705  97.6182545  90.3703384
  11.6140775  97.1443023  90.2482275  11.0352769  98.3973028  90.8702071
   9.4322940 100.6470803  80.6666286  10.1531302 101.0252056  80.1630003
   8.8088244 101.3659680  80.7701264  13.5754063 101.3515952  81.6024618
  13.7917677 102.2340590  81.3013447  13.0948130 100.9602166  80.8730260
   8.3153284 104.3101665  88.1795363   8.1697865 104.6241968  89.0719644
   7.8378488 104.9286566  87.6266262  10.1749667 101.3004213  88.2276253
  10.1611236 100.4045307  87.8908550  10.8922095 101.3074877  88.8614539
  12.0275798 101.7341554  90.2729380  11.7693575 102.6558624  90.2713710
  11.4960838 101.3371988  90.9629844   9.5786563 100.1818594  83.4963823
   9.7002474  99.2535240  83.6954710   9.2888605 100.1957280  82.5842138
  12.4477753  97.8673504  86.6330543  12.4699450  97.9312837  85.6782522
  12.8645812  97.0278013  86.8271049  22.8261378 107.6028764  84.6709765
  23.2692524 106.8536089  84.2728888  21.9487888 107.5938900  84.2883497
  19.6680363 109.0884181  94.2987621  19.7178368 108.9234188  95.2403144
  19.5594286 108.2211440  93.9085502  16.9584125 105.0715109  95.6146928
  17.8593988 104.9321574  95.3230925  17.0332100 105.2369563  96.5545105
  11.2926931 102.4481963  94.4600114  10.4230240 102.7415529  94.1882702
  11.5286411 103.0322408  95.1807378  22.3694242 109.0734002  87.0632213
  23.2041134 109.5123806  87.2269773  22.5053371 108.5972655  86.2440458
  19.4185748 106.6313737  93.0109700  19.8939870 106.8241383  92.2028552
  18.4951314 106.6872923  92.7653084  13.9965965  98.6661580  91.9765534
  14.5147909  99.4022607  91.6512023  13.6421097  98.9725574  92.8112293
   5.5764902 103.5266262  80.0926940   4.8834147 103.6010617  79.4366976
   5.3316654 102.7626605  80.6148457  14.2478559  95.0861863  87.4966431
  14.5280313  94.4185052  88.1226857  15.0329166  95.2790958  86.9841095
  18.1187417 103.5079497  91.2438006  19.0704840 103.6077595  91.2650230
  17.9490868 102.7157765  91.7536090  16.1401797 100.5935080  91.4297407
  15.5451729 100.8740093  90.7343896  15.8551493 101.0828981  92.2014148
  20.5975495 106.7285617  90.3580306  20.5651815 105.7901617  90.5439990
  21.2076119 106.8069653  89.6246131  12.4358826 105.5981670  76.4007510
  13.3817931 105.4687878  76.4695928  12.0573071 104.8596331  76.8776938
  20.7469983 103.5196660  90.4038589  20.2309032 102.7355117  90.2168518
  21.6309932 103.1915377  90.5685108  18.4080710  97.2637676  86.3634402
  18.2105531  96.9552764  87.2477734  19.0180416  97.9899314  86.4932331
  26.4152045 107.7901623  89.4986342  27.1455433 107.5286912  90.0594046
  25.8058990 107.0530345  89.5388410  24.4967342 105.9309486  90.0960794
  23.7700505 105.7965451  89.4877285  24.0814629 106.2386315  90.9017512
  10.6201743 103.5231646  76.3362395   9.7133198 103.2264759  76.4125109
  10.8977724 103.2261464  75.4696681  12.2363809  98.0668536  82.4906636
  11.4264537  97.7215621  82.8661882  12.9248226  97.7576079  83.0794248
  14.1654357  97.1446582  84.1130933  14.7185396  97.5642036  84.7720956
  14.4024443  96.2182331  84.1553889   9.3900528 100.3818581  76.4774374
  10.2519692 100.7073479  76.7370191   9.5750872  99.5950077  75.9647440
  17.5433164  99.2547108  83.6209597  16.9631833  99.9131912  83.2387650
  17.2769097  98.4324452  83.2097015  15.9936730  98.6552165  85.8230917
  16.4936509  98.7668700  85.0145236  16.6372338  98.3513218  86.4631726
  16.3258042 101.4147198  82.6765945  15.4383897 101.6996849  82.4586140
  16.7412031 101.2540961  81.8293222  19.6772578 101.4393719  86.3920285
  20.4532968 101.9290171  86.6644901  18.9520712 101.8651773  86.8492154
  22.1145137 102.1521338  87.4494225  22.7089628 101.9117074  86.7387534
  22.1871721 101.4328469  88.0767762  16.2999066 106.9301734  82.8916236
  16.2434267 107.3870285  82.0523868  16.8527408 106.1692419  82.7139078
  20.1103872 102.7191466  83.7166355  19.8540806 102.3188101  84.5474563
  19.4856740 103.4335260  83.5916494  24.4216210 105.4587539  86.2237646
  23.8615768 105.5280728  86.9969209  23.8159713 105.2828524  85.5037143
  17.0333845 108.1206515  80.1868765  16.9782649 107.9550787  79.2457209
  16.4079900 108.8282548  80.3430954  10.3429971  97.6214624  79.7654083
  10.3308640  98.5656464  79.9222354  11.2353392  97.4384770  79.4713544
  14.1582090  94.2157401  84.0200020  13.3914486  93.6615888  84.1656702
  14.5692795  94.2879270  84.8814172  25.5830476 111.3561895  90.9719711
  25.2394745 112.2463537  90.8958822  25.9509438 111.1663553  90.1089296
  27.3818141 110.6155454  86.0737449  27.6877018 109.7552818  85.7863364
  28.1070746 111.2073075  85.8736443  25.0872313 110.4153781  87.4966431
  25.3674067 109.7476970  88.1226857  25.8722920 110.6082876  86.9841095
  29.2474465 112.5929593  86.3634402  29.0499286 112.2844681  87.2477734
  29.8574170 113.3191232  86.4932331  24.9975845 109.5449318  84.0200020
  24.2308240 108.9907805  84.1656702  25.4086550 109.6171187  84.8814172
   4.3258122  53.9804301  73.4911405   3.5721830  53.4111699  73.3355409
   4.4605663  53.9466965  74.4382039   0.6906735  55.4212289  73.7877519
   1.5253626  55.8602093  73.9515080   0.8265863  54.9450942  72.9685765
   4.7364537  54.1379911  76.2231649   5.4667926  53.8765199  76.7839352
   4.1271483  53.4008633  76.2633717   2.8179834  52.2787773  76.8206100
   2.0912998  52.1443738  76.2122592   2.4027121  52.5864602  77.6262818
   2.7428702  51.8065826  72.9482953   2.1828260  51.8759016  73.7214515
   2.1372205  51.6306811  72.2282449   4.3284720  68.4822340  75.6412909
   4.9663130  68.3629088  74.9376249   4.2105563  69.4303184  75.7000861
   1.1374427  68.4349768  75.5774434   0.7992938  68.3190833  74.6894968
   2.0064195  68.0340933  75.5575440   1.6194210  69.5884620  81.5360639
   1.6082850  69.1937418  80.6641143   1.7814849  68.8550693  82.1294411
   2.5760801  73.9556212  66.8785789   1.9248781  74.5410293  66.4919803
   3.3705164  74.4862407  66.9380827   3.8825989  66.2073794  72.7166117
   4.6689078  65.7893217  72.3656534   4.1464693  67.1119886  72.8847765
   4.0536066  71.6446644  67.4154774   3.4181899  71.7181271  68.1275678
   3.7233473  72.2340243  66.7373853   9.2834416  66.1449027  73.6199095
  10.0159588  65.5748244  73.8536925   8.5273772  65.7570628  74.0605601
   0.9010536  68.5676269  70.8162438   0.5368743  68.0406890  71.5275359
   1.7577652  68.1774738  70.6428923   6.8059836  59.8570601  78.0793704
   6.4743161  60.7266012  77.8554919   6.2105450  59.5406885  78.7587734
   3.2991356  72.0583147  77.4789617   2.9992079  72.9608186  77.3705424
   2.9542415  71.7915331  78.3310770   6.6988500  64.5765688  75.1587054
   5.7905377  64.5081096  74.8645815   6.6476095  65.0537632  75.9868880
   8.5650146  62.7782126  76.9364928   7.9224526  63.0714659  76.2904723
   8.0605075  62.6635046  77.7418125   6.2190310  66.5245299  67.6250787
   7.1308166  66.7572686  67.4498485   5.7099957  67.1082343  67.0625866
   4.5031077  70.9469927  81.2612080   4.9114433  70.5052337  80.5166712
   3.7808339  70.3722554  81.5146273   0.8562147  65.8842534  78.6345637
   1.7023343  66.3081947  78.7780286   0.7960785  65.2276158  79.3284200
   4.8259892  71.5071118  75.0164369   4.1968754  71.6716832  74.3140437
   4.4385554  71.9212727  75.7875333   8.7049124  72.4425555  72.3708732
   8.0200162  72.8224457  71.8205766   8.7892973  73.0520882  73.1040680
   4.0061593  63.5446902  80.2926810   3.7622525  64.2988963  79.7561086
   4.2821523  63.9232250  81.1274057   5.9600055  70.0885514  78.9704076
   6.1716951  70.7317274  78.2938457   5.9129804  69.2547831  78.5026006
   3.5626284  62.7003335  75.8740648   2.7010763  62.9984589  76.1657386
   3.5888719  62.9173734  74.9421681   7.0745883  72.9657470  77.1426433
   7.8963327  72.5637657  76.8609115   7.0708286  72.8625704  78.0942549
  15.1651876  69.3096218  73.4911405  14.4115585  68.7403616  73.3355409
  15.2999418  69.2758883  74.4382039   2.1818981  74.8033187  83.2966466
   1.7382835  74.0169566  82.9787371   2.8436194  74.9912338  82.6310357
   4.2800219  75.0835987  81.3247868   4.2618694  75.9044868  80.8328137
   5.2020139  74.9590062  81.5498009   3.9042968  57.7040183  77.6965018
   3.5607237  58.5941824  77.6204128   4.2721931  57.5141840  76.8334603
   3.8693251  67.6948794  66.2037453   3.3539874  68.4653398  66.4425840
   3.5970559  67.0213930  66.8270514   1.4540362  62.5398494  71.2622691
   0.5981958  62.1505345  71.0828330   1.8667314  62.6190455  70.4022477
   2.9839508  60.0744838  75.6614251   2.4804304  60.0374973  74.8482056
   3.2770115  60.9837580  75.7210908   8.8427525  70.4481148  68.1390626
   8.0656968  70.1092308  67.6945788   9.5219006  70.4533771  67.4645591
   3.6579554  65.5675886  68.0297234   3.3529690  65.8822035  68.8807377
   4.6109996  65.6457306  68.0724567   2.1025986  71.7266109  69.6790188
   1.5747347  70.9918869  69.3663425   1.6013489  72.5040785  69.4330156
   7.0818832  69.9215130  74.7957234   6.4242506  70.6114391  74.8837363
   7.8859231  70.3111561  75.1391221   5.8924291  68.2759502  72.8461176
   6.4056172  68.9089494  73.3482886   6.5425515  67.6760698  72.4804536
   3.1546665  78.2543827  65.6021847   2.4808364  78.5575523  66.2106805
   3.5412487  79.0572907  65.2527304   2.3705122  65.7508958  75.0919516
   1.4527683  65.9723905  74.9341205   2.7865265  65.8255268  74.2331224
   3.1540169  67.1500373  70.2222197   3.9011988  67.6621771  69.9129319
   3.4231759  66.8284426  71.0826590   1.4266819  69.6458914  67.2049151
   0.5178039  69.3617947  67.3021621   1.4561903  70.0657993  66.3452458
   6.6586087  73.2565504  70.9740319   6.2048414  72.4156414  71.0305509
   6.0280054  73.8926902  71.3115099   5.6019006  64.1857490  72.2040986
   4.8641763  63.6734876  72.5351229   5.8545780  63.7457871  71.3924263
   5.1019026  75.0942000  71.9090137   5.3942000  75.6547057  71.1902502
   5.6117647  75.3870561  72.6643296   5.7030634  56.9633742  72.7982755
   6.0089511  56.1031105  72.5108670   6.4283239  57.5551362  72.5981749
   1.1242907  71.1867658  64.5437230   0.6862337  70.4703517  64.0842867
   1.8653348  71.4143773  63.9822321   3.5118285  66.3406419  79.8964219
   3.8667673  66.5677892  80.7558685   4.1590416  66.6724796  79.2741474
   9.2416022  69.4624855  70.6013548   9.1033921  69.6526451  69.6734737
   8.8852241  70.2244238  71.0581599   9.2685402  71.5301382  75.6124820
   9.7021908  71.4376671  76.4607874   9.9816982  71.5058882  74.9744836
   3.0013297  75.1303476  77.1457920   3.0550319  75.6994412  77.9135636
   2.1328078  75.3005361  76.7811957  10.1300951  71.5725083  78.1457705
  10.3236841  72.4770893  78.3916980  10.0301569  71.1132502  78.9796290
   1.7837262  61.4582973  80.6448032   1.1365177  62.1572923  80.5512509
   2.5538277  61.8919117  81.0124281   5.1916060  71.7231825  83.7198586
   5.0401566  71.4942377  82.8028669   5.1820739  72.6802427  83.7329931
   1.9601396  69.2963738  78.7044852   2.8893456  69.4474898  78.5313819
   1.5392426  69.3847759  77.8493499   1.3537880  78.4223499  67.8168926
   1.5289636  77.9511542  68.6314549   0.6670668  79.0489265  68.0450187
   2.3094943  72.6996005  73.8632228   1.9744776  72.6596775  74.7589877
   1.8098889  72.0340721  73.3902638   5.2454135  70.0452040  64.1369287
   4.6283306  69.3198868  64.0402340   4.7770623  70.8061400  63.7936361
   6.9008267  74.7550948  81.7975068   6.8420813  74.0710168  81.1305651
   7.3027785  75.4969938  81.3455694   6.9025674  72.7190532  80.0289047
   6.0152453  72.3816454  80.1515446   7.4724225  71.9873563  80.2657813
   3.5313257  62.4258384  73.1487317   4.0281956  61.6728346  72.8288388
   2.7600238  62.4622700  72.5830527  11.3843014  68.1298749  74.7905609
  11.3732891  69.0123465  74.4199542  10.5160394  67.7770300  74.5960146
   2.8925511  77.2778818  79.1508449   3.6053483  77.9126283  79.0784351
   2.4015539  77.3742684  78.3348451   4.6143038  71.1830071  70.7225741
   3.6799316  71.3031533  70.5530445   4.7919706  70.2802538  70.4585751
   8.0015589  67.0247390  71.2575775   8.4676041  67.8575382  71.1836078
   8.4523089  66.5592372  71.9621033   6.0691820  73.3691211  68.2561927
   6.3451664  73.2547806  69.1655801   5.1996319  72.9708696  68.2174100
   5.9732252  59.3927977  75.2966676   5.0595332  59.6232204  75.4648883
   6.4025353  59.4766421  76.1480709   5.7438710  67.5817869  77.7966570
   5.0910160  67.8293777  77.1419023   6.1219090  66.7682007  77.4629048
   2.7045884  77.6177562  71.8994741   2.8868279  76.7999218  72.3622493
   3.5278870  77.8345255  71.4619631   3.0388050  76.5445747  69.1609789
   3.5675816  76.0338202  68.5479951   3.3016269  76.2288278  70.0255322
   1.7926283  68.3237680  84.2832607   1.1166920  68.2231809  84.9534983
   2.6153917  68.1676894  84.7468605   0.5349066  79.6304608  78.5190223
   1.0867374  79.7936229  79.2839309   0.8755260  80.2209045  77.8470248
   5.3859940  74.4565865  84.3738878   5.9299844  75.0695823  83.8793833
   4.8046785  75.0145444  84.8905891   3.6717453  77.5786583  75.5053905
   3.5468593  76.7776323  74.9964851   4.3296545  78.0732776  75.0167875
   5.7352362  75.3795603  77.1333456   4.7882697  75.2600954  77.0611782
   6.0835135  74.4918101  77.2159717   2.7398795  75.1748319  73.3337808
   2.5923758  74.2465027  73.5145378   3.5652289  75.1968410  72.8494883
   6.3432917  75.9976878  74.4202681   7.2679464  75.7919739  74.2827132
   6.1748220  75.7493279  75.3292022   2.7360309  63.0286157  68.3269925
   2.9523924  63.9110795  68.0258753   2.2554377  62.6372370  67.5975567
   1.1882044  63.4111758  76.9974687   0.9299822  64.3328829  76.9959017
   0.6567085  63.0142193  77.6875151   6.1328233  76.5162546  69.7764772
   6.3065111  75.9508968  69.0238624   6.6257124  77.3163440  69.5944262
   1.6084000  59.5443709  73.3575849   1.6305697  59.6083042  72.4027829
   2.0252059  58.7048218  73.5516355  11.9867624  69.2798969  71.3955072
  12.4298770  68.5306294  70.9974195  11.1094135  69.2709105  71.0128804
   7.1203406  75.8329310  66.8761670   7.8154310  76.4536003  67.0948985
   7.4626556  74.9824661  67.1514048   9.0194829  73.2829016  68.4049001
   9.5446153  73.6216288  67.6798321   8.9317181  72.3476031  68.2212136
   0.6814877  77.1963089  80.5338878   0.9902004  76.9512236  81.4061577
   1.4790359  77.4009728  80.0457748   8.7088735  73.9161919  83.7100199
   7.9184279  73.8986058  83.1704698   8.4722089  74.4550213  84.4649236
   8.8286610  70.7654386  81.0232928   8.8784615  70.6004393  81.9648450
   8.7200533  69.8981645  80.6330808   6.1190372  66.7485314  82.3392234
   7.0200235  66.6091778  82.0476232   6.1938347  66.9139768  83.2790412
  10.3304807  73.1851327  81.2674949  10.0389615  73.5481308  82.1038410
   9.7176938  72.4718335  81.0888281  11.5300489  70.7504207  73.7877519
  12.3647380  71.1894011  73.9515080  11.6659618  70.2742860  72.9685765
   8.5791995  68.3083942  79.7355007   9.0546117  68.5011588  78.9273858
   7.6557560  68.3643128  79.4898391   3.1572211  60.3431785  78.7010841
   3.6754155  61.0792812  78.3757330   2.8027344  60.6495779  79.5357600
   3.4084806  56.7632068  74.2211738   3.6886559  56.0955257  74.8472164
   4.1935413  56.9561163  73.7086401   1.2118274  75.9391062  65.7836764
   0.6392241  76.5581249  65.3307236   1.7851068  76.4890423  66.3176686
   7.2793664  65.1849702  77.9683313   8.2311087  65.2847799  77.9895537
   7.1097114  64.3927970  78.4781397   5.3008043  62.2705285  78.1542714
   4.7057976  62.5510298  77.4589202   5.0157740  62.7599186  78.9259455
   4.4315534  76.2228212  66.9145346   5.3646207  76.1573774  67.1178222
   4.3438747  77.0584479  66.4559879   7.0603551  75.5394082  63.8749294
   6.9817182  75.2053946  64.7685052   7.8813217  76.0315850  63.8740766
   9.7581742  68.4055821  77.0825612   9.7258062  67.4671822  77.2685296
  10.3682365  68.4839858  76.3491437   1.5965073  67.2751874  63.1252816
   2.5424177  67.1458083  63.1941234   1.2179318  66.5366536  63.6022245
   9.9076230  65.1966865  77.1283896   9.3915279  64.4125322  76.9413824
  10.7916179  64.8685582  77.2930415   7.5686957  58.9407880  73.0879708
   7.3711778  58.6322969  73.9723040   8.1786663  59.6669519  73.2177638
  15.5758292  69.4671828  76.2231649  16.3061680  69.2057116  76.7839352
  14.9665237  68.7300550  76.2633717  13.6573589  67.6079691  76.8206100
  12.9306752  67.4735656  76.2122592  13.2420876  67.9156520  77.6262818
   1.4803765  71.3269621  84.5853473   2.4006775  71.5048220  84.7793520
   1.4453348  70.3825666  84.4333173   1.3970055  59.7438741  69.2151943
   0.5870784  59.3985826  69.5907189   2.0854472  59.4346284  69.8039554
   3.3260604  58.8216787  70.8376240   3.8791642  59.2412241  71.4966263
   3.5630690  57.8952535  70.8799196   6.7039411  60.9317313  70.3454904
   6.1238080  61.5902117  69.9632956   6.4375344  60.1094657  69.9342321
   5.1542977  60.3322370  72.5476224   5.6542756  60.4438905  71.7390543
   5.7978585  60.0283423  73.1877033   5.4864289  63.0917403  69.4011252
   4.5990144  63.3767054  69.1831447   5.9018278  62.9311166  68.5538529
   8.8378825  63.1163924  73.1165591   9.6139215  63.6060376  73.3890208
   8.1126959  63.5421978  73.5737461  11.2751384  63.8291543  74.1739532
  11.8695874  63.5887279  73.4632840  11.3477967  63.1098674  74.8013068
   4.6307502  72.8562078  63.4959272   5.3343352  73.0612080  64.1116928
   3.9070151  73.4238839  63.7608356   5.4605313  68.6071939  69.6161542
   5.4040514  69.0640490  68.7769175   6.0133655  67.8462623  69.4384385
   9.2710119  64.3961671  70.4411662   9.0147053  63.9958306  71.2719869
   8.6462987  65.1105465  70.3161801  13.5822456  67.1357744  72.9482953
  13.0222014  67.2050933  73.7214515  12.9765960  66.9598729  72.2282449
   6.5394200  73.2944607  65.5457732   7.3739804  72.8625805  65.3635207
   6.3778543  73.1226620  66.4734627   6.1940092  69.7976720  66.9114071
   6.1388896  69.6320992  65.9702516   5.5686147  70.5052753  67.0676261
   3.5085999  72.1025632  86.2367634   4.3777159  72.2766284  85.8754269
   3.0292751  72.9220049  86.1143364   3.3188337  55.8927606  70.7445327
   2.5520733  55.3386092  70.8902009   3.7299042  55.9649474  71.6059478
  15.1678475  83.8114258  75.6412909  15.8056885  83.6921005  74.9376249
  15.0499318  84.7595102  75.7000861  11.9768181  83.7641686  75.5774434
  11.6386693  83.6482751  74.6894968  12.8457949  83.3632851  75.5575440
   7.8354997  85.6177162  71.5671324   7.2719862  85.5267099  70.7987612
   7.7207392  84.7977067  72.0473817  12.4587964  84.9176538  81.5360639
  12.4476605  84.5229336  80.6641143  12.6208604  84.1842610  82.1294411
   5.3819429  87.1128354  74.4055545   6.1740721  86.7719179  73.9901844
   5.6216079  87.2223329  75.3257698  13.4154556  89.2848130  66.8785789
  12.7642535  89.8702211  66.4919803  14.2098918  89.8154325  66.9380827
   7.3410183  86.3737267  67.2772924   8.1141059  85.8266254  67.1385800
   7.6935582  87.2381517  67.4887385   9.1795225  87.7013650  80.4839823
   8.8885091  88.6059280  80.3686489   9.8152210  87.7430177  81.1983893
  10.1051432  85.0790498  77.0741183  10.7015004  84.8546520  76.3598146
  10.1626404  84.3375244  77.6766631   9.6776460  82.5329933  64.9091374
   9.9301981  82.0111455  64.1474837   8.7401020  82.3696079  65.0118057
  14.7219743  81.5365712  72.7166117  15.5082833  81.1185135  72.3656534
  14.9858448  82.4411804  72.8847765  14.8929821  86.9738562  67.4154774
  14.2575654  87.0473189  68.1275678  14.5627227  87.5632161  66.7373853
  20.1228170  81.4740945  73.6199095  20.8553342  80.9040162  73.8536925
  19.3667526  81.0862545  74.0605601   9.3972749  84.4358039  67.1115749
   9.2809007  83.7602943  67.7796833   9.5075009  83.9490413  66.2947902
  11.7404290  83.8968186  70.8162438  11.3762497  83.3698807  71.5275359
  12.5971406  83.5066655  70.6428923  17.6453591  75.1862519  78.0793704
  17.3136916  76.0557930  77.8554919  17.0499204  74.8698803  78.7587734
  11.3809777  78.9258086  65.8123786  11.5484179  79.7938323  66.1794257
  11.1906946  79.0885368  64.8885076  14.1385110  87.3875065  77.4789617
  13.8385833  88.2900104  77.3705424  13.7936170  87.1207248  78.3310770
   7.5897592  83.8388862  73.5126321   6.6648088  83.7065076  73.7204013
   7.8382005  84.6183081  74.0096264  17.5382254  79.9057605  75.1587054
  16.6299131  79.8373014  74.8645815  17.4869850  80.3829550  75.9868880
  11.3598998  81.3815744  66.7970453  11.2398623  81.8272794  67.6355933
  10.6651586  81.7301061  66.2383991   4.9506403  83.4822135  74.3470110
   5.0798784  83.7356614  75.2609522   4.2703854  84.0749843  74.0274765
   9.1205890  94.1519385  70.4460584   9.0429920  95.1027210  70.5249065
   8.5167534  93.8065258  71.1035511  11.6123120  81.3247251  83.1021951
  10.8356454  81.8841171  83.0924816  12.2513683  81.8104034  83.6236821
  19.4043900  78.1074044  76.9364928  18.7618281  78.4006577  76.2904723
  18.8998829  77.9926964  77.7418125  17.0584064  81.8537217  67.6250787
  17.9701920  82.0864604  67.4498485  16.5493711  82.4374261  67.0625866
   9.8669492  84.1332704  82.6639918  10.6084177  84.6717748  82.3874742
   9.1606478  84.7598993  82.8211470  15.3424832  86.2761845  81.2612080
  15.7508188  85.8344255  80.5166712  14.6202093  85.7014472  81.5146273
  11.6955902  81.2134451  78.6345637  12.5417097  81.6373865  78.7780286
  11.6354540  80.5568076  79.3284200  15.6653646  86.8363035  75.0164369
  15.0362509  87.0008749  74.3140437  15.2779309  87.2504645  75.7875333
  19.5442878  87.7717473  72.3708732  18.8593917  88.1516374  71.8205766
  19.6286728  88.3812800  73.1040680  14.8455347  78.8738820  80.2926810
  14.6016279  79.6280880  79.7561086  15.1215278  79.2524167  81.1274057
  16.7993810  85.4177432  78.9704076  17.0110705  86.0609192  78.2938457
  16.7523558  84.5839749  78.5026006  14.4020039  78.0295253  75.8740648
  13.5404518  78.3276506  76.1657386  14.4282474  78.2465652  74.9421681
  11.2181608  86.5737443  72.2814454  11.6819954  86.8525146  71.4919076
  10.9538406  85.6720888  72.0987544   8.1105689  86.1208925  75.2194217
   8.6807046  86.5496193  74.5811702   8.7013801  85.8391510  75.9178403
  10.1550494  82.6960596  69.0904019  10.8574538  83.1481639  69.5577945
   9.8231123  82.0544415  69.7183912   8.6030856  81.2872352  83.4655228
   7.9729517  81.9688633  83.6990625   8.4966944  81.1755434  82.5208367
   3.8975828  80.9544148  74.3921152   3.1074882  81.2101677  73.9161263
   4.3887076  81.7692486  74.4973193  17.9139638  88.2949388  77.1426433
  18.7357082  87.8929575  76.8609115  17.9102041  88.1917622  78.0942549
   5.8490574  81.3188728  71.3504629   5.0521737  81.4307422  71.8688125
   5.6216166  81.6575380  70.4845520  11.6796241  87.8433431  79.2987144
  11.7440674  88.3053838  80.1345316  10.9707165  87.2130796  79.4269454
   2.1813531  81.2074639  76.8236143   2.4321570  82.0921649  77.0893719
   2.7173080  81.0279240  76.0511235  26.0045631  84.6388136  73.4911405
  25.2509339  84.0695534  73.3355409  26.1393172  84.6050801  74.4382039
  11.3944259  89.5101538  69.1666124  11.2589934  90.3553074  69.5950972
  11.9354072  89.7120816  68.4032058   7.8811599  75.5893118  85.8280479
   7.4878544  75.0359317  86.5028124   8.6977739  75.9003697  86.2186997
   4.8473656  87.0276976  69.7394049   5.3598177  87.8220227  69.8899614
   5.4996369  86.3303267  69.6727651   6.6568541  90.1442733  71.8216802
   6.8335169  91.0660697  71.6337786   7.4525375  89.8301152  72.2511182
  10.7979560  77.0050997  83.4200736  11.5389273  77.6058150  83.3405198
  11.0297482  76.2628635  82.8618778   5.9420898  82.1907365  81.6978966
   5.8274413  81.2892622  81.9986065   5.0865415  82.4371061  81.3463782
  13.0212735  90.1325105  83.2966466  12.5776590  89.3461483  82.9787371
  13.6829949  90.3204255  82.6310357   7.7799857  91.6620906  77.8227145
   8.3307282  91.5337970  77.0504139   6.9411332  91.9615795  77.4722038
  15.1193973  90.4127905  81.3247868  15.1012449  91.2336786  80.8328137
  16.0413894  90.2881980  81.5498009  11.5767028  87.9272034  82.1671376
  12.1095364  87.1660322  81.9370684  11.0481109  87.6345686  82.9095530
  14.7436723  73.0332100  77.6965018  14.4000992  73.9233742  77.6204128
  15.1115685  72.8433758  76.8334603   2.8122573  85.3565631  70.5153620
   3.6497795  85.7662639  70.2987327   2.9900841  84.4165073  70.4853814
  14.7087005  83.0240711  66.2037453  14.1933629  83.7945316  66.4425840
  14.4364314  82.3505847  66.8270514  12.2934116  77.8690412  71.2622691
  11.4375713  77.4797263  71.0828330  12.7061068  77.9482373  70.4022477
  13.8233263  75.4036755  75.6614251  13.3198059  75.3666891  74.8482056
  14.1163870  76.3129498  75.7210908  10.0676149  75.4875485  74.6680433
  10.9329146  75.2918294  74.3086322  10.1353658  75.2585837  75.5949789
  19.6821279  85.7773066  68.1390626  18.9050722  85.4384225  67.6945788
  20.3612760  85.7825689  67.4645591  14.4973308  80.8967803  68.0297234
  14.1923444  81.2113953  68.8807377  15.4503751  80.9749223  68.0724567
  12.9419740  87.0558027  69.6790188  12.4141102  86.3210786  69.3663425
  12.4407243  87.8332703  69.4330156  17.9212586  85.2507047  74.7957234
  17.2636261  85.9406309  74.8837363  18.7252986  85.6403479  75.1391221
   7.6738468  77.7177693  72.0396799   8.2482220  77.4952875  71.3069992
   8.2609450  77.7866388  72.7925401  16.7318045  83.6051420  72.8461176
  17.2449927  84.2381412  73.3482886  17.3819269  83.0052615  72.4804536
   8.0008055  79.7482154  66.0592685   7.1645367  80.0856841  66.3801959
   7.8612825  79.6131134  65.1219822   9.9761136  74.5918942  70.7671869
   9.3225548  74.2767959  70.1428484   9.9341610  73.9694682  71.4931692
  11.0872340  84.8738237  62.6825161  10.1799402  84.6427490  62.8816310
  11.5843372  84.0775856  62.8699142  13.9940419  93.5835744  65.6021847
  13.3202118  93.8867441  66.2106805  14.3806241  94.3864825  65.2527304
  13.2098876  81.0800875  75.0919516  12.2921437  81.3015822  74.9341205
  13.6259020  81.1547186  74.2331224  13.9933924  82.4792291  70.2222197
  14.7405743  82.9913688  69.9129319  14.2625513  82.1576344  71.0826590
  12.2660574  84.9750832  67.2049151  11.3571793  84.6909865  67.3021621
  12.2955658  85.3949910  66.3452458  17.4979841  88.5857421  70.9740319
  17.0442168  87.7448331  71.0305509  16.8673808  89.2218820  71.3115099
  16.4412761  79.5149407  72.2040986  15.7035518  79.0026794  72.5351229
  16.6939534  79.0749789  71.3924263  15.9412781  90.4233918  71.9090137
  16.2335755  90.9838975  71.1902502  16.4511401  90.7162479  72.6643296
  16.5424388  72.2925659  72.7982755  16.8483265  71.4323023  72.5108670
  17.2676993  72.8843280  72.5981749   2.8348744  82.6956346  71.1864353
   2.6373144  82.1025707  70.4615420   2.2795408  82.3908556  71.9040292
  10.8145468  82.5879452  73.3058946  10.8694078  81.6353289  73.2301423
  10.0036670  82.7438892  73.7900245  11.9636662  86.5159576  64.5437230
  11.5256092  85.7995434  64.0842867  12.7047103  86.7435690  63.9822321
   8.7537828  81.2056512  71.0649325   7.9405693  81.5050683  71.4714517
   9.2496822  80.8112201  71.7823807  10.9046406  91.2014269  72.9983590
  10.8622585  91.4275115  72.0692122  11.8209105  90.9677644  73.1469391
  14.3512040  81.6698337  79.8964219  14.7061427  81.8969810  80.7558685
  14.9984171  82.0016713  79.2741474  20.0809777  84.7916773  70.6013548
  19.9427675  84.9818369  69.6734737  19.7245995  85.5536155  71.0581599
   8.2451903  78.7774868  76.6810560   8.8851282  78.6363627  75.9833523
   7.4129433  78.4909381  76.3049162  20.1079156  86.8593300  75.6124820
  20.5415663  86.7668589  76.4607874  20.8210737  86.8350800  74.9744836
   9.0212207  88.0777298  72.7945553   9.8152805  87.5827618  72.5928128
   8.3103899  87.5495161  72.4313258  13.8407051  90.4595394  77.1457920
  13.8944073  91.0286330  77.9135636  12.9721832  90.6297279  76.7811957
   5.3294970  82.2220380  68.8705305   4.3992558  82.1604835  69.0875267
   5.4252442  81.6996333  68.0741947   5.2480519  78.7475193  71.4583547
   5.5087336  79.6620526  71.3492707   6.0697691  78.2799635  71.6080160
   6.7205444  80.1612950  78.6282372   7.3928498  79.9530312  77.9795020
   5.8935231  79.9635036  78.1887604  20.9694706  86.9017000  78.1457705
  21.1630596  87.8062811  78.3916980  20.8695324  86.4424419  78.9796290
  12.6231016  76.7874891  80.6448032  11.9758931  77.4864840  80.5512509
  13.3932032  77.2211035  81.0124281  16.0309814  87.0523743  83.7198586
  15.8795321  86.8234295  82.8028669  16.0214494  88.0094344  83.7329931
  12.7995151  84.6255656  78.7044852  13.7287211  84.7766815  78.5313819
  12.3786181  84.7139677  77.8493499  11.5983483  88.6506320  76.4743390
  11.4594568  88.2825105  77.3469328  10.8098079  89.1653960  76.3027348
  12.1931635  93.7515417  67.8168926  12.3683390  93.2803460  68.6314549
  11.5064423  94.3781183  68.0450187  13.1488698  88.0287923  73.8632228
  12.8138530  87.9888693  74.7589877  12.6492643  87.3632639  73.3902638
   7.1232942  83.4355553  79.3884809   6.9852740  82.7035792  79.9896348
   8.0337865  83.3464453  79.1068996  16.0847889  85.3743957  64.1369287
  15.4677060  84.6490785  64.0402340  15.6164378  86.1353317  63.7936361
   9.7515242  83.1475512  78.8768488  10.4614861  82.5068704  78.8355107
   9.7084550  83.3988407  79.7994669  17.7402021  90.0842866  81.7975068
  17.6814567  89.4002086  81.1305651  18.1421539  90.8261856  81.3455694
   8.4644176  80.1340730  80.6964128   7.9281533  79.6831469  81.3485724
   7.8760885  80.2686639  79.9534592   6.7592720  96.9004779  74.5908786
   6.9989318  97.5323304  75.2687805   5.9161916  96.5492819  74.8774146
   7.8746435  79.5929381  63.2590591   6.9975902  79.4718182  62.8952838
   8.3504188  78.8015460  63.0069480  17.7419428  88.0482449  80.0289047
  16.8546207  87.7108371  80.1515446  18.3117979  87.3165481  80.2657813
   4.1983298  79.2696738  77.7817122   4.1141486  78.6622407  77.0467532
   3.3766004  79.7605756  77.7826619  11.2720582  92.7083902  76.9950290
  11.1990753  93.5138873  77.5069595  10.8297975  92.9075868  76.1698312
  11.0610361  91.9455672  70.5053112  10.2777883  92.4877352  70.5991336
  11.7603106  92.4629651  70.9047353  14.3707011  77.7550301  73.1487317
  14.8675711  77.0020264  72.8288388  13.5993993  77.7914618  72.5830527
  22.2236769  83.4590667  74.7905609  22.2126645  84.3415382  74.4199542
  21.3554148  83.1062218  74.5960146  13.7319265  92.6070736  79.1508449
  14.4447237  93.2418201  79.0784351  13.2409294  92.7034602  78.3348451
  15.4536792  86.5121989  70.7225741  14.5193071  86.6323451  70.5530445
  15.6313461  85.6094455  70.4585751  10.9541980  79.8967684  72.8759002
  10.5839768  79.3438725  73.5639908  11.4501073  79.2925818  72.3234002
  18.8409343  82.3539308  71.2575775  19.3069796  83.1867299  71.1836078
  19.2916844  81.8884289  71.9621033   8.7831179  90.3565179  79.9714020
   9.4840638  90.9901662  80.1243414   8.3126294  90.6979911  79.2109659
  16.9085575  88.6983129  68.2561927  17.1845418  88.5839724  69.1655801
  16.0390073  88.3000614  68.2174100  16.8126006  74.7219895  75.2966676
  15.8989086  74.9524122  75.4648883  17.2419108  74.8058339  76.1480709
  16.5832465  82.9109787  77.7966570  15.9303915  83.1585694  77.1419023
  16.9612845  82.0973925  77.4629048  13.5439639  92.9469480  71.8994741
  13.7262033  92.1291136  72.3622493  14.3672625  93.1637172  71.4619631
  13.8781804  91.8737665  69.1609789  14.4069571  91.3630120  68.5479951
  14.1410024  91.5580195  70.0255322  12.6320038  83.6529598  84.2832607
  11.9560675  83.5523727  84.9534983  13.4547672  83.4968812  84.7468605
   4.3798897  89.8901534  76.9045123   4.9652334  89.1445222  77.0373027
   4.1823735  90.2005491  77.7881786   7.2337552  92.9252782  71.9207565
   6.5647927  93.4098909  71.4371605   7.0950422  93.1722002  72.8350943
  11.3742821  94.9596525  78.5190223  11.9261129  95.1228147  79.2839309
  11.7149014  95.5500963  77.8470248   6.3507314  77.3071675  79.1212108
   6.4148640  78.1686506  78.7089506   6.2874434  76.6945677  78.3884467
   5.8259586  79.3794808  82.7685142   6.4531625  78.9971885  83.3822667
   4.9687505  79.1609010  83.1340835  16.2253695  89.7857783  84.3738878
  16.7693599  90.3987741  83.8793833  15.6440540  90.3437361  84.8905891
   2.6025129  81.1871237  68.7003497   2.8978570  80.2781915  68.6470551
   1.7013165  81.1658976  68.3784499  14.5111208  92.9078501  75.5053905
  14.3862347  92.1068241  74.9964851  15.1690299  93.4024694  75.0167875
   6.1319376  79.2627233  74.6831046   5.4105962  79.8763201  74.5438519
   6.9212632  79.7984998  74.6047692  16.5746116  90.7087521  77.1333456
  15.6276452  90.5892872  77.0611782  16.9228889  89.8210019  77.2159717
   8.9345690  76.5981660  80.9571697   9.4580091  76.8443956  81.7198007
   8.7158023  77.4301695  80.5374835   4.3312971  78.8685334  68.8242822
   4.0025677  77.9882713  68.6417928   4.6852341  78.8133003  69.7119212
  13.5792550  90.5040237  73.3337808  13.4317512  89.5756945  73.5145378
  14.4046043  90.5260328  72.8494883   7.4454794  79.1558304  69.1918300
   7.7850866  79.6844225  68.4696908   7.8926914  79.4938710  69.9676866
  17.1826671  91.3268796  74.4202681  18.1073219  91.1211657  74.2827132
  17.0141975  91.0785197  75.3292022  10.1398235  77.5395355  78.6421368
   9.7995055  76.7403168  79.0442048   9.4337241  77.8397066  78.0698201
  10.7914706  74.6244667  77.0948691  11.6140776  74.1505146  76.9727581
  11.0352770  75.4035151  77.5947377   9.4322941  77.6532926  67.3911593
  10.1531303  78.0314179  66.8875310   8.8088245  78.3721803  67.4946571
  13.5754064  78.3578075  68.3269925  13.7917678  79.2402713  68.0258753
  13.0948131  77.9664288  67.5975567   8.3153285  81.3163788  74.9040670
   8.1697866  81.6304091  75.7964951   7.8378489  81.9348688  74.3511568
  10.1749668  78.3066336  74.9521559  10.1611237  77.4107429  74.6153857
  10.8922096  78.3137000  75.5859845  12.0275799  78.7403676  76.9974687
  11.7693577  79.6620747  76.9959017  11.4960839  78.3434111  77.6875151
  16.9721988  91.8454463  69.7764772  17.1458865  91.2800886  69.0238624
  17.4650879  92.6455358  69.5944262   2.7898947  83.8569132  77.8428331
   2.2452415  84.6328940  77.9748605   3.6678297  84.2039937  77.6847452
   9.5786564  77.1880716  70.2209129   9.7002475  76.2597362  70.4200017
   9.2888606  77.2019402  69.3087445  12.4477754  74.8735627  73.3575849
  12.4699451  74.9374960  72.4027829  12.8645813  74.0340135  73.5516355
  22.8261379  84.6090886  71.3955072  23.2692525  83.8598211  70.9974195
  21.9487889  84.6001023  71.0128804  17.9597160  91.1621228  66.8761670
  18.6548065  91.7827920  67.0948985  18.3020310  90.3116579  67.1514048
   3.5764969  82.9839029  80.7358488   2.8346705  83.1321664  81.3223118
   3.2557714  83.2447294  79.8725237  19.8588583  88.6120933  68.4049001
  20.3839907  88.9508206  67.6798321  19.7710936  87.6767949  68.2212136
  11.5208632  92.5255007  80.5338878  11.8295758  92.2804154  81.4061577
  12.3184114  92.7301645  80.0457748  11.5429244  94.6792916  72.7644254
  11.1034234  94.1869295  73.4577111  12.2937361  94.1365884  72.5236329
   4.0221583  90.8704457  72.7668882   4.8479603  90.5708229  72.3867526
   3.6715635  90.1012080  73.2158671   8.9903116  90.2230926  74.8366556
   8.3683125  89.5601631  74.5368784   9.6607983  90.2492057  74.1540204
   2.2230188  88.7890784  73.7257816   1.3862096  88.3612958  73.5441817
   2.1953833  88.9823227  74.6628607   9.0627644  78.7012714  84.4299062
   9.1115799  79.5774836  84.0476832   9.6050158  78.1590107  83.8570705
  19.5482489  89.2453837  83.7100199  18.7578033  89.2277976  83.1704698
  19.3115844  89.7842131  84.4649236  19.6680364  86.0946303  81.0232928
  19.7178369  85.9296311  81.9648450  19.5594288  85.2273562  80.6330808
   8.5516623  88.7734849  68.3125016   8.7004743  89.4570313  67.6591689
   9.3583066  88.7539939  68.8274472  16.9584127  82.0777231  82.3392234
  17.8593989  81.9383696  82.0476232  17.0332101  82.2431686  83.2790412
  11.2926932  79.4544086  81.1845421  10.4230241  79.7477652  80.9128009
  11.5286412  80.0384531  81.9052684  21.1698561  88.5143245  81.2674949
  20.8783369  88.8773225  82.1038410  20.5570692  87.8010253  81.0888281
  22.3694243  86.0796125  73.7877519  23.2041135  86.5185929  73.9515080
  22.5053372  85.6034778  72.9685765  19.4185749  83.6375859  79.7355007
  19.8939871  83.8303506  78.9273858  18.4951315  83.6935045  79.4898391
   6.3069256  84.8000027  69.3186085   6.0615298  83.8962357  69.5166295
   6.4765171  84.8017177  68.3765563  13.9965966  75.6723703  78.7010841
  14.5147910  76.4084730  78.3757330  13.6421099  75.9787696  79.5357600
   5.5764904  80.5328384  66.8172247   4.8834148  80.6072739  66.1612283
   5.3316655  79.7688728  67.3393764  14.2478560  72.0923985  74.2211738
  14.5280314  71.4247175  74.8472164  15.0329167  72.2853081  73.7086401
  12.0512029  91.2682979  65.7836764  11.4785996  91.8873167  65.3307236
  12.6244822  91.8182341  66.3176686  18.1187418  80.5141619  77.9683313
  19.0704841  80.6139717  77.9895537  17.9490869  79.7219888  78.4781397
  16.1401798  77.5997203  78.1542714  15.5451730  77.8802215  77.4589202
  15.8551495  78.0891104  78.9259455  15.2709288  91.5520130  66.9145346
  16.2039961  91.4865691  67.1178222  15.1832501  92.3876396  66.4559879
  17.8997305  90.8686000  63.8749294  17.8210937  90.5345863  64.7685052
  18.7206972  91.3607768  63.8740766  20.5975496  83.7347739  77.0825612
  20.5651816  82.7963740  77.2685296  21.2076120  83.8131776  76.3491437
  12.4358827  82.6043792  63.1252816  13.3817932  82.4750000  63.1941234
  12.0573072  81.8658454  63.6022245  20.7469985  80.5258783  77.1283896
  20.2309033  79.7417239  76.9413824  21.6309933  80.1977499  77.2930415
  18.4080712  74.2699798  73.0879708  18.2105533  73.9614886  73.9723040
  19.0180417  74.9961437  73.2177638  26.4152046  84.7963746  76.2231649
  27.1455435  84.5349034  76.7839352  25.8058992  84.0592468  76.2633717
  24.4967343  82.9371609  76.8206100  23.7700507  82.8027574  76.2122592
  24.0814630  83.2448437  77.6262818  12.3197520  86.6561538  84.5853473
  13.2400529  86.8340137  84.7793520  12.2847103  85.7117584  84.4333173
  10.6201744  80.5293769  63.0607702   9.7133200  80.2326881  63.1370415
  10.8977725  80.2323587  62.1941988   1.5379685  81.8500132  73.5106748
   1.2182469  80.9965440  73.2181122   0.9913113  82.0648710  74.2664715
   5.3159592  84.5662573  77.2276255   5.5345602  85.4979681  77.2464288
   5.7285366  84.2070547  78.0131058  12.2363810  75.0730658  69.2151943
  11.4264538  74.7277743  69.5907189  12.9248227  74.7638202  69.8039554
  14.1654358  74.1508705  70.8376240  14.7185397  74.5704158  71.4966263
  14.4024445  73.2244453  70.8799196  10.1887457  80.1395779  86.6179003
  10.0884184  81.0890136  86.5491095   9.9709000  79.8114018  85.7455074
   9.3900529  77.3880704  63.2019681  10.2519693  77.7135602  63.4615498
   9.5750873  76.6012200  62.6892747   1.4067945  85.4703043  75.4799870
   0.7131416  85.0556996  74.9669824   2.1540936  85.5123580  74.8833288
  17.5433165  76.2609230  70.3454904  16.9631834  76.9194034  69.9632956
  17.2769098  75.4386575  69.9342321  15.9936732  75.6614288  72.5476224
  16.4936510  75.7730822  71.7390543  16.6372340  75.3575341  73.1877033
  10.0518728  83.5692918  85.4344065   9.5685809  84.3693278  85.6407954
  10.1379667  83.5800862  84.4811509   3.3204687  85.4021297  73.3565884
   3.2975375  85.5008984  72.4047768   3.6305324  86.2486448  73.6783051
   5.9792065  87.4597452  77.4712499   6.9335319  87.4281395  77.4042430
   5.7804589  86.9988076  78.2862725   6.5691447  86.0298568  80.0383297
   7.3884336  86.5242647  80.0618134   6.8428255  85.1130536  80.0100864
  16.3258043  78.4209321  69.4011252  15.4383898  78.7058971  69.1831447
  16.7412032  78.2603084  68.5538529  19.6772579  78.4455842  73.1165591
  20.4532970  78.9352294  73.3890208  18.9520714  78.8713896  73.5737461
  22.1145138  79.1583461  74.1739532  22.7089629  78.9179197  73.4632840
  22.1871722  78.4390591  74.8013068   4.3342294  93.0017072  74.4882697
   4.1996762  92.2417473  73.9220695   3.9174356  93.7257972  74.0211486
  15.4701257  88.1853995  63.4959272  16.1737107  88.3903998  64.1116928
  14.7463906  88.7530757  63.7608356  16.2999067  83.9363857  69.6161542
  16.2434268  84.3932408  68.7769175  16.8527410  83.1754541  69.4384385
  20.1103873  79.7253588  70.4411662  19.8540807  79.3250224  71.2719869
  19.4856741  80.4397382  70.3161801  24.4216211  82.4649662  72.9482953
  23.8615769  82.5342851  73.7214515  23.8159714  82.2890646  72.2282449
   7.4911420  93.8986389  74.7001139   7.3743804  94.8431821  74.5979830
   6.6703866  93.5959950  75.0886939  17.3787954  88.6236524  65.5457732
  18.2133558  88.1917723  65.3635207  17.2172297  88.4518538  66.4734627
  17.0333846  85.1268638  66.9114071  16.9782650  84.9612909  65.9702516
  16.4079902  85.8344671  67.0676261   1.8226361  80.3636702  80.7375494
   2.4685225  79.8535656  81.2262719   1.6143512  81.1005384  81.3118919
  14.3479754  87.4317550  86.2367634  15.2170913  87.6058202  85.8754269
  13.8686505  88.2511966  86.1143364  10.3429972  74.6276747  66.4899390
  10.3308642  75.5718587  66.6467661  11.2353394  74.4446892  66.1958851
   8.5165934  94.5514651  77.9157068   9.4193180  94.5838261  78.2323563
   8.2903304  93.6215102  77.9303404  10.2719536  93.3045637  74.5767146
   9.3215167  93.3047499  74.4631519  10.5752022  92.5578372  74.0603181
  14.1582091  71.2219523  70.7445327  13.3914487  70.6678010  70.8902009
  14.5692796  71.2941392  71.6059478   6.1623852  77.5104319  84.8350508
   7.0255314  77.1541124  85.0453832   5.5889263  77.1718214  85.5225912
  26.0072229  99.1406176  75.6412909  26.6450639  99.0212923  74.9376249
  25.8893072 100.0887020  75.7000861  22.8161936  99.0933604  75.5774434
  22.4780447  98.9774668  74.6894968  23.6851704  98.6924769  75.5575440
  18.6748751 100.9469080  71.5671324  18.1113616 100.8559017  70.7987612
  18.5601146 100.1268985  72.0473817  23.2981719 100.2468455  81.5360639
  23.2870359  99.8521254  80.6641143  23.4602358  99.5134528  82.1294411
  16.2213183 102.4420272  74.4055545  17.0134475 102.1011096  73.9901844
  16.4609833 102.5515247  75.3257698  24.2548310 104.6140048  66.8785789
  23.6036290 105.1994128  66.4919803  25.0492673 105.1446243  66.9380827
  18.1803937 101.7029185  67.2772924  18.9534813 101.1558172  67.1385800
  18.5329336 102.5673434  67.4887385  20.0188980 103.0305567  80.4839823
  19.7278846 103.9351198  80.3686489  20.6545964 103.0722095  81.1983893
  20.9445187 100.4082416  77.0741183  21.5408759 100.1838438  76.3598146
  21.0020158  99.6667161  77.6766631  20.5170215  97.8621851  64.9091374
  20.7695736  97.3403372  64.1474837  19.5794774  97.6987996  65.0118057
  25.5613498  96.8657629  72.7166117  26.3476587  96.4477053  72.3656534
  25.8252202  97.7703722  72.8847765  25.7323575 102.3030480  67.4154774
  25.0969408 102.3765106  68.1275678  25.4020982 102.8924079  66.7373853
  30.9621925  96.8032863  73.6199095  31.6947097  96.2332079  73.8536925
  30.2061281  96.4154463  74.0605601  20.2366504  99.7649957  67.1115749
  20.1202762  99.0894860  67.7796833  20.3468764  99.2782331  66.2947902
  22.5798045  99.2260104  70.8162438  22.2156252  98.6990725  71.5275359
  23.4365161  98.8358573  70.6428923  28.4847345  90.5154437  78.0793704
  28.1530670  91.3849848  77.8554919  27.8892959  90.1990721  78.7587734
  22.2203532  94.2550004  65.8123786  22.3877934  95.1230240  66.1794257
  22.0300701  94.4177286  64.8885076  24.9778865 102.7166983  77.4789617
  24.6779588 103.6192022  77.3705424  24.6329924 102.4499166  78.3310770
  18.4291346  99.1680780  73.5126321  17.5041843  99.0356994  73.7204013
  18.6775759  99.9474999  74.0096264  28.3776009  95.2349523  75.1587054
  27.4692886  95.1664931  74.8645815  28.3263604  95.7121468  75.9868880
  22.1992752  96.7107661  66.7970453  22.0792378  97.1564712  67.6355933
  21.5045341  97.0592979  66.2383991  15.7900157  98.8114053  74.3470110
  15.9192538  99.0648532  75.2609522  15.1097609  99.4041761  74.0274765
  19.9599645 109.4811303  70.4460584  19.8823674 110.4319128  70.5249065
  19.3561288 109.1357176  71.1035511  22.4516874  96.6539168  83.1021951
  21.6750208  97.2133089  83.0924816  23.0907437  97.1395951  83.6236821
  30.2437655  93.4365961  76.9364928  29.6012035  93.7298494  76.2904723
  29.7392584  93.3218882  77.7418125  27.8977819  97.1829134  67.6250787
  28.8095675  97.4156521  67.4498485  27.3887466  97.7666179  67.0625866
  20.7063247  99.4624622  82.6639918  21.4477931 100.0009666  82.3874742
  20.0000232 100.0890911  82.8211470  26.1818586 101.6053762  81.2612080
  26.5901942 101.1636173  80.5166712  25.4595848 101.0306390  81.5146273
  22.5349656  96.5426369  78.6345637  23.3810852  96.9665783  78.7780286
  22.4748294  95.8859993  79.3284200  26.5047401 102.1654953  75.0164369
  25.8756263 102.3300667  74.3140437  26.1173063 102.5796562  75.7875333
  30.3836633 103.1009391  72.3708732  29.6987671 103.4808292  71.8205766
  30.4680482 103.7104717  73.1040680  25.6849102  94.2030737  80.2926810
  25.4410034  94.9572798  79.7561086  25.9609032  94.5816085  81.1274057
  27.6387564 100.7469350  78.9704076  27.8504460 101.3901110  78.2938457
  27.5917313  99.9131666  78.5026006  25.2413793  93.3587170  75.8740648
  24.3798272  93.6568424  76.1657386  25.2676228  93.5757569  74.9421681
  22.0575363 101.9029361  72.2814454  22.5213708 102.1817064  71.4919076
  21.7932161 101.0012806  72.0987544  18.9499444 101.4500843  75.2194217
  19.5200801 101.8788111  74.5811702  19.5407556 101.1683427  75.9178403
  20.9944249  98.0252513  69.0904019  21.6968292  98.4773557  69.5577945
  20.6624877  97.3836332  69.7183912  19.4424610  96.6164270  83.4655228
  18.8123271  97.2980551  83.6990625  19.3360698  96.5047352  82.5208367
  14.7369583  96.2836066  74.3921152  13.9468637  96.5393595  73.9161263
  15.2280830  97.0984404  74.4973193  28.7533392 103.6241305  77.1426433
  29.5750836 103.2221493  76.8609115  28.7495795 103.5209539  78.0942549
  16.6884328  96.6480645  71.3504629  15.8915492  96.7599340  71.8688125
  16.4609920  96.9867298  70.4845520  22.5189996 103.1725349  79.2987144
  22.5834428 103.6345756  80.1345316  21.8100920 102.5422713  79.4269454
  13.0207286  96.5366556  76.8236143  13.2715324  97.4213566  77.0893719
  13.5566834  96.3571158  76.0511235  36.8439385  99.9680054  73.4911405
  36.0903094  99.3987452  73.3355409  36.9786927  99.9342718  74.4382039
  22.2338013 104.8393456  69.1666124  22.0983688 105.6844992  69.5950972
  22.7747826 105.0412734  68.4032058  18.7205353  90.9185036  85.8280479
  18.3272299  90.3651234  86.5028124  19.5371493  91.2295614  86.2186997
  15.6867411 102.3568894  69.7394049  16.1991931 103.1512144  69.8899614
  16.3390124 101.6595185  69.6727651  17.4962296 105.4734650  71.8216802
  17.6728924 106.3952615  71.6337786  18.2919129 105.1593070  72.2511182
  21.6373314  92.3342915  83.4200736  22.3783028  92.9350068  83.3405198
  21.8691237  91.5920553  82.8618778  16.7814652  97.5199282  81.6978966
  16.6668167  96.6184539  81.9986065  15.9259170  97.7662979  81.3463782
  23.8606490 105.4617023  83.2966466  23.4170344 104.6753401  82.9787371
  24.5223703 105.6496173  82.6310357  18.6193611 106.9912824  77.8227145
  19.1701036 106.8629887  77.0504139  17.7805087 107.2907713  77.4722038
  25.9587728 105.7419822  81.3247868  25.9406203 106.5628703  80.8328137
  26.8807648 105.6173898  81.5498009  22.4160782 103.2563952  82.1671376
  22.9489119 102.4952240  81.9370684  21.8874863 102.9637604  82.9095530
  25.5830477  88.3624018  77.6965018  25.2394746  89.2525660  77.6204128
  25.9509440  88.1725676  76.8334603  13.6516328 100.6857548  70.5153620
  14.4891550 101.0954557  70.2987327  13.8294595  99.7456991  70.4853814
  25.5480760  98.3532629  66.2037453  25.0327383  99.1237234  66.4425840
  25.2758068  97.6797765  66.8270514  23.1327871  93.1982330  71.2622691
  22.2769467  92.8089180  71.0828330  23.5454823  93.2774291  70.4022477
  24.6627017  90.7328673  75.6614251  24.1591813  90.6958808  74.8482056
  24.9557624  91.6421416  75.7210908  20.9069903  90.8167403  74.6680433
  21.7722900  90.6210211  74.3086322  20.9747412  90.5877755  75.5949789
  30.5215034 101.1064984  68.1390626  29.7444477 100.7676143  67.6945788
  31.2006515 101.1117607  67.4645591  25.3367063  96.2259721  68.0297234
  25.0317199  96.5405870  68.8807377  26.2897505  96.3041141  68.0724567
  23.7813495 102.3849944  69.6790188  23.2534856 101.6502704  69.3663425
  23.2800998 103.1624621  69.4330156  28.7606341 100.5798965  74.7957234
  28.1030015 101.2698226  74.8837363  29.5646740 100.9695397  75.1391221
  18.5132222  93.0469611  72.0396799  19.0875974  92.8244792  71.3069992
  19.1003205  93.1158305  72.7925401  27.5711800  98.9343338  72.8461176
  28.0843681  99.5673329  73.3482886  28.2213024  98.3344533  72.4804536
  18.8401810  95.0774072  66.0592685  18.0039122  95.4148758  66.3801959
  18.7006579  94.9423052  65.1219822  20.8154890  89.9210860  70.7671869
  20.1619302  89.6059877  70.1428484  20.7735364  89.2986600  71.4931692
  21.9266095 100.2030155  62.6825161  21.0193157  99.9719408  62.8816310
  22.4237127  99.4067774  62.8699142  24.8334174 108.9127662  65.6021847
  24.1595873 109.2159359  66.2106805  25.2199996 109.7156742  65.2527304
  24.0492630  96.4092793  75.0919516  23.1315192  96.6307740  74.9341205
  24.4652774  96.4839104  74.2331224  24.8327678  97.8084209  70.2222197
  25.5799497  98.3205606  69.9129319  25.1019268  97.4868262  71.0826590
  23.1054328 100.3042750  67.2049151  22.1965548 100.0201782  67.3021621
  23.1349412 100.7241828  66.3452458  28.3373596 103.9149339  70.9740319
  27.8835923 103.0740249  71.0305509  27.7067563 104.5510737  71.3115099
  27.2806515  94.8441325  72.2040986  26.5429272  94.3318711  72.5351229
  27.5333289  94.4041707  71.3924263  26.7806535 105.7525836  71.9090137
  27.0729509 106.3130893  71.1902502  27.2905156 106.0454397  72.6643296
  27.3818143  87.6217577  72.7982755  27.6877020  86.7614941  72.5108670
  28.1070748  88.2135197  72.5981749  13.6742499  98.0248264  71.1864353
  13.4766899  97.4317624  70.4615420  13.1189163  97.7200474  71.9040292
  21.6539222  97.9171370  73.3058946  21.7087832  96.9645207  73.2301423
  20.8430424  98.0730809  73.7900245  22.8030416 101.8451493  64.5437230
  22.3649846 101.1287352  64.0842867  23.5440857 102.0727608  63.9822321
  19.5931582  96.5348430  71.0649325  18.7799448  96.8342600  71.4714517
  20.0890577  96.1404119  71.7823807  21.7440160 106.5306187  72.9983590
  21.7016339 106.7567033  72.0692122  22.6602859 106.2969561  73.1469391
  25.1905794  96.9990254  79.8964219  25.5455182  97.2261728  80.7558685
  25.8377925  97.3308631  79.2741474  30.9203531 100.1208690  70.6013548
  30.7821430 100.3110286  69.6734737  30.5639750 100.8828073  71.0581599
  19.0845657  94.1066785  76.6810560  19.7245036  93.9655545  75.9833523
  18.2523188  93.8201299  76.3049162  30.9472911 102.1885217  75.6124820
  31.3809417 102.0960506  76.4607874  31.6604491 102.1642718  74.9744836
  19.8605961 103.4069216  72.7945553  20.6546560 102.9119536  72.5928128
  19.1497653 102.8787079  72.4313258  24.6800806 105.7887311  77.1457920
  24.7337828 106.3578248  77.9135636  23.8115587 105.9589196  76.7811957
  16.1688725  97.5512298  68.8705305  15.2386313  97.4896753  69.0875267
  16.2646197  97.0288250  68.0741947  16.0874274  94.0767110  71.4583547
  16.3481091  94.9912444  71.3492707  16.9091446  93.6091553  71.6080160
  17.5599199  95.4904868  78.6282372  18.2322252  95.2822230  77.9795020
  16.7328985  95.2926954  78.1887604  31.8088460 102.2308918  78.1457705
  32.0024350 103.1354728  78.3916980  31.7089078 101.7716337  78.9796290
  23.4624771  92.1166808  80.6448032  22.8152686  92.8156758  80.5512509
  24.2325786  92.5502952  81.0124281  26.8703569 102.3815661  83.7198586
  26.7189075 102.1526212  82.8028669  26.8608248 103.3386262  83.7329931
  23.6388905  99.9547573  78.7044852  24.5680965 100.1058733  78.5313819
  23.2179935 100.0431594  77.8493499  22.4377237 103.9798238  76.4743390
  22.2988323 103.6117022  77.3469328  21.6491833 104.4945877  76.3027348
  23.0325389 109.0807334  67.8168926  23.2077145 108.6095377  68.6314549
  22.3458177 109.7073100  68.0450187  23.9882452 103.3579841  73.8632228
  23.6532285 103.3180610  74.7589877  23.4886398 102.6924556  73.3902638
  17.9626696  98.7647471  79.3884809  17.8246494  98.0327709  79.9896348
  18.8731620  98.6756371  79.1068996  26.9241644 100.7035875  64.1369287
  26.3070814  99.9782703  64.0402340  26.4558132 101.4645235  63.7936361
  20.5908997  98.4767430  78.8768488  21.3008615  97.8360622  78.8355107
  20.5478305  98.7280325  79.7994669  28.5795776 105.4134783  81.7975068
  28.5208322 104.7294003  81.1305651  28.9815294 106.1553773  81.3455694
  19.3037931  95.4632648  80.6964128  18.7675288  95.0123386  81.3485724
  18.7154639  95.5978557  79.9534592  18.7140190  94.9221299  63.2590591
  17.8369656  94.8010100  62.8952838  19.1897943  94.1307377  63.0069480
  28.5813183 103.3774367  80.0289047  27.6939962 103.0400289  80.1515446
  29.1511734 102.6457398  80.2657813  10.2342330  99.7098459  73.3532099
  10.9213370  99.3960189  72.7653114  10.0790459 100.6139824  73.0799350
  15.0377052  94.5988655  77.7817122  14.9535241  93.9914325  77.0467532
  14.2159758  95.0897674  77.7826619  22.1114336 108.0375819  76.9950290
  22.0384508 108.8430791  77.5069595  21.6691729 108.2367785  76.1698312
  21.9004116 107.2747590  70.5053112  21.1171638 107.8169270  70.5991336
  22.5996861 107.7921569  70.9047353  25.2100766  93.0842219  73.1487317
  25.7069465  92.3312181  72.8288388  24.4387747  93.1206536  72.5830527
  33.0630523  98.7882585  74.7905609  33.0520400  99.6707300  74.4199542
  32.1947903  98.4354135  74.5960146  24.5713020 107.9362654  79.1508449
  25.2840992 108.5710118  79.0784351  24.0803048 108.0326520  78.3348451
  26.2930547 101.8413906  70.7225741  25.3586825 101.9615369  70.5530445
  26.4707215 100.9386373  70.4585751  21.7935735  95.2259602  72.8759002
  21.4233522  94.6730642  73.5639908  22.2894827  94.6217735  72.3234002
  29.6803098  97.6831225  71.2575775  30.1463550  98.5159217  71.1836078
  30.1310598  97.2176207  71.9621033  19.6224933 105.6857097  79.9714020
  20.3234393 106.3193580  80.1243414  19.1520048 106.0271829  79.2109659
  27.7479329 104.0275047  68.2561927  28.0239173 103.9131641  69.1655801
  26.8783828 103.6292532  68.2174100  27.6519761  90.0511812  75.2966676
  26.7382840  90.2816039  75.4648883  28.0812862  90.1350257  76.1480709
  27.4226219  98.2401704  77.7966570  26.7697669  98.4877612  77.1419023
  27.8006599  97.4265843  77.4629048  24.3833393 108.2761398  71.8994741
  24.5655788 107.4583054  72.3622493  25.2066379 108.4929090  71.4619631
  24.7175559 107.2029583  69.1609789  25.2463325 106.6922037  68.5479951
  24.9803778 106.8872113  70.0255322  23.4713792  98.9821515  84.2832607
  22.7954429  98.8815645  84.9534983  24.2941426  98.8260729  84.7468605
  15.2192651 105.2193452  76.9045123  15.8046088 104.4737140  77.0373027
  15.0217490 105.5297409  77.7881786  18.0731307 108.2544699  71.9207565
  17.4041682 108.7390827  71.4371605  17.9344176 108.5013920  72.8350943
   9.8110306  97.7899052  75.6249566   9.8494406  97.2562643  76.4186684
   9.3050599  97.2634258  75.0060543  22.2136575 110.2888443  78.5190223
  22.7654883 110.4520064  79.2839309  22.5542769 110.8792881  77.8470248
  17.1901068  92.6363593  79.1212108  17.2542395  93.4978424  78.7089506
  17.1268189  92.0237594  78.3884467  16.6653341  94.7086725  82.7685142
  17.2925380  94.3263803  83.3822667  15.8081260  94.4900927  83.1340835
  27.0647449 105.1149700  84.3738878  27.6087353 105.7279659  83.8793833
  26.4834294 105.6729279  84.8905891  13.4418884  96.5163154  68.7003497
  13.7372325  95.6073833  68.6470551  12.5406919  96.4950894  68.3784499
  25.3504962 108.2370418  75.5053905  25.2256102 107.4360158  74.9964851
  26.0084053 108.7316612  75.0167875  16.9713131  94.5919151  74.6831046
  16.2499716  95.2055119  74.5438519  17.7606386  95.1276916  74.6047692
  27.4139871 106.0379439  77.1333456  26.4670206 105.9184790  77.0611782
  27.7622644 105.1501937  77.2159717  19.7739444  91.9273577  80.9571697
  20.2973846  92.1735874  81.7198007  19.5551777  92.7593612  80.5374835
  15.1706725  94.1977252  68.8242822  14.8419431  93.3174631  68.6417928
  15.5246096  94.1424921  69.7119212  24.4186304 105.8332155  73.3337808
  24.2711266 104.9048862  73.5145378  25.2439798 105.8552245  72.8494883
  18.2848548  94.4850222  69.1918300  18.6244621  95.0136143  68.4696908
  18.7320669  94.8230628  69.9676866  28.0220426 106.6560714  74.4202681
  28.9466973 106.4503575  74.2827132  27.8535729 106.4077115  75.3292022
  20.9791989  92.8687273  78.6421368  20.6388810  92.0695086  79.0442048
  20.2730995  93.1688983  78.0698201  21.6308461  89.9536585  77.0948691
  22.4534530  89.4797063  76.9727581  21.8746525  90.7327069  77.5947377
  20.2716695  92.9824843  67.3911593  20.9925058  93.3606096  66.8875310
  19.6482000  93.7013720  67.4946571  24.4147818  93.6869992  68.3269925
  24.6311433  94.5694630  68.0258753  23.9341886  93.2956206  67.5975567
  19.1547040  96.6455706  74.9040670  19.0091620  96.9596009  75.7964951
  18.6772243  97.2640606  74.3511568  21.0143423  93.6358254  74.9521559
  21.0004991  92.7399347  74.6153857  21.7315851  93.6428917  75.5859845
  22.8669553  94.0695594  76.9974687  22.6087331  94.9912664  76.9959017
  22.3354594  93.6726028  77.6875151  27.8115742 107.1746381  69.7764772
  27.9852620 106.6092803  69.0238624  28.3044633 107.9747276  69.5944262
  13.6292702  99.1861050  77.8428331  13.0846170  99.9620858  77.9748605
  14.5072052  99.5331855  77.6847452  20.4180319  92.5172634  70.2209129
  20.5396230  91.5889280  70.4200017  20.1282361  92.5311320  69.3087445
  23.2871509  90.2027544  73.3575849  23.3093206  90.2666877  72.4027829
  23.7039568  89.3632053  73.5516355  33.6655133  99.9382804  71.3955072
  34.1086279  99.1890129  70.9974195  32.7881644  99.9292940  71.0128804
  28.7990915 106.4913145  66.8761670  29.4941819 107.1119838  67.0948985
  29.1414065 105.6408497  67.1514048  14.4158724  98.3130946  80.7358488
  13.6740460  98.4613582  81.3223118  14.0951468  98.5739212  79.8725237
  30.6982338 103.9412851  68.4049001  31.2233662 104.2800124  67.6798321
  30.6104690 103.0059866  68.2212136  22.3602386 107.8546925  80.5338878
  22.6689513 107.6096071  81.4061577  23.1577868 108.0593563  80.0457748
  22.3822998 110.0084834  72.7644254  21.9427989 109.5161213  73.4577111
  23.1331115 109.4657802  72.5236329  14.8615337 106.1996375  72.7668882
  15.6873357 105.9000147  72.3867526  14.5109389 105.4303997  73.2158671
  19.8296871 105.5522843  74.8366556  19.2076880 104.8893548  74.5368784
  20.5001738 105.5783975  74.1540204  13.0623942 104.1182701  73.7257816
  12.2255851 103.6904876  73.5441817  13.0347588 104.3115145  74.6628607
  19.9021398  94.0304631  84.4299062  19.9509554  94.9066754  84.0476832
  20.4443912  93.4882024  83.8570705  30.3876244 104.5745755  83.7100199
  29.5971787 104.5569893  83.1704698  30.1509598 105.1134048  84.4649236
  30.5074119 101.4238221  81.0232928  30.5572124 101.2588228  81.9648450
  30.3988042 100.5565480  80.6330808  19.3910378 104.1026767  68.3125016
  19.5398498 104.7862231  67.6591689  20.1976821 104.0831857  68.8274472
  27.7977881  97.4069149  82.3392234  28.6987744  97.2675614  82.0476232
  27.8725856  97.5723604  83.2790412  22.1320687  94.7836004  81.1845421
  21.2623996  95.0769570  80.9128009  22.3680167  95.3676449  81.9052684
  32.0092316 103.8435162  81.2674949  31.7177124 104.2065143  82.1038410
  31.3964447 103.1302171  81.0888281  33.2087998 101.4088042  73.7877519
  34.0434889 101.8477846  73.9515080  33.3447127 100.9326695  72.9685765
  30.2579504  98.9667777  79.7355007  30.7333625  99.1595423  78.9273858
  29.3345069  99.0226963  79.4898391  17.1463011 100.1291944  69.3186085
  16.9009052  99.2254274  69.5166295  17.3158925 100.1309095  68.3765563
  24.8359720  91.0015621  78.7010841  25.3541664  91.7376648  78.3757330
  24.4814853  91.3079614  79.5357600  16.4158658  95.8620302  66.8172247
  15.7227903  95.9364657  66.1612283  16.1710410  95.0980645  67.3393764
  25.0872315  87.4215903  74.2211738  25.3674068  86.7539092  74.8472164
  25.8722921  87.6144999  73.7086401  22.8905783 106.5974897  65.7836764
  22.3179750 107.2165084  65.3307236  23.4638577 107.1474259  66.3176686
  28.9581173  95.8433537  77.9683313  29.9098596  95.9431635  77.9895537
  28.7884623  95.0511806  78.4781397  26.9795552  92.9289120  78.1542714
  26.3845484  93.2094133  77.4589202  26.6945249  93.4183021  78.9259455
  26.1103043 106.8812047  66.9145346  27.0433716 106.8157609  67.1178222
  26.0226256 107.7168314  66.4559879  28.7391060 106.1977918  63.8749294
  28.6604691 105.8637781  64.7685052  29.5600726 106.6899685  63.8740766
  31.4369251  99.0639657  77.0825612  31.4045571  98.1255658  77.2685296
  32.0469874  99.1423694  76.3491437  23.2752582  97.9335710  63.1252816
  24.2211686  97.8041918  63.1941234  22.8966827  97.1950372  63.6022245
  31.5863739  95.8550700  77.1283896  31.0702788  95.0709157  76.9413824
  32.4703688  95.5269417  77.2930415  29.2474466  89.5991716  73.0879708
  29.0499287  89.2906804  73.9723040  29.8574172  90.3253355  73.2177638
  37.2545801 100.1255664  76.2231649  37.9849189  99.8640952  76.7839352
  36.6452746  99.3884386  76.2633717  35.3361098  98.2663526  76.8206100
  34.6094261  98.1319491  76.2122592  34.9208385  98.5740355  77.6262818
  23.1591274 101.9853456  84.5853473  24.0794284 102.1632055  84.7793520
  23.1240857 101.0409501  84.4333173  21.4595499  95.8585686  63.0607702
  20.5526954  95.5618799  63.1370415  21.7371480  95.5615504  62.1941988
  12.3773439  97.1792050  73.5106748  12.0576223  96.3257358  73.2181122
  11.8306867  97.3940628  74.2664715  16.1553347  99.8954491  77.2276255
  16.3739356 100.8271598  77.2464288  16.5679120  99.5362465  78.0131058
  23.0757564  90.4022576  69.2151943  22.2658293  90.0569661  69.5907189
  23.7641981  90.0930120  69.8039554  25.0048113  89.4800623  70.8376240
  25.5579151  89.8996076  71.4966263  25.2418199  88.5536371  70.8799196
  21.0281212  95.4687696  86.6179003  20.9277939  96.4182053  86.5491095
  20.8102754  95.1405935  85.7455074  20.2294283  92.7172621  63.2019681
  21.0913447  93.0427520  63.4615498  20.4144627  91.9304117  62.6892747
  12.2461699 100.7994961  75.4799870  11.5525171 100.3848914  74.9669824
  12.9934690 100.8415498  74.8833288  28.3826920  91.5901148  70.3454904
  27.8025589  92.2485952  69.9632956  28.1162852  90.7678492  69.9342321
  26.8330486  90.9906206  72.5476224  27.3330265  91.1022740  71.7390543
  27.4766094  90.6867258  73.1877033  20.8912482  98.8984835  85.4344065
  20.4079564  99.6985195  85.6407954  20.9773421  98.9092780  84.4811509
  14.1598442 100.7313215  73.3565884  14.1369130 100.8300902  72.4047768
  14.4699078 101.5778366  73.6783051  16.8185819 102.7889370  77.4712499
  17.7729073 102.7573312  77.4042430  16.6198343 102.3279994  78.2862725
  17.4085202 101.3590486  80.0383297  18.2278091 101.8534565  80.0618134
  17.6822009 100.4422454  80.0100864  27.1651798  93.7501238  69.4011252
  26.2777653  94.0350889  69.1831447  27.5805787  93.5895002  68.5538529
  30.5166334  93.7747759  73.1165591  31.2926724  94.2644212  73.3890208
  29.7914468  94.2005813  73.5737461  32.9538893  94.4875378  74.1739532
  33.5483383  94.2471114  73.4632840  33.0265476  93.7682509  74.8013068
  26.3095011 103.5145913  63.4959272  27.0130861 103.7195915  64.1116928
  25.5857660 104.0822675  63.7608356  27.1392822  99.2655774  69.6161542
  27.0828023  99.7224326  68.7769175  27.6921164  98.5046459  69.4384385
  30.9497627  95.0545506  70.4411662  30.6934562  94.6542142  71.2719869
  30.3250496  95.7689300  70.3161801  35.2609965  97.7941579  72.9482953
  34.7009523  97.8634769  73.7214515  34.6553469  97.6182564  72.2282449
  28.2181709 103.9528442  65.5457732  29.0527313 103.5209641  65.3635207
  28.0566052 103.7810456  66.4734627  27.8727601 100.4560555  66.9114071
  27.8176405 100.2904827  65.9702516  27.2473656 101.1636588  67.0676261
  12.6620116  95.6928620  80.7375494  13.3078979  95.1827574  81.2262719
  12.4537267  96.4297301  81.3118919  25.1873508 102.7609467  86.2367634
  26.0564668 102.9350120  85.8754269  24.7080260 103.5803884  86.1143364
  21.1823726  89.9568664  66.4899390  21.1702396  90.9010504  66.6467661
  22.0747148  89.7738810  66.1958851  19.3559688 109.8806568  77.9157068
  20.2586935 109.9130179  78.2323563  19.1297058 108.9507019  77.9303404
  21.1113290 108.6337555  74.5767146  20.1608921 108.6339416  74.4631519
  21.4145776 107.8870289  74.0603181  24.9975846  86.5511441  70.7445327
  24.2308242  85.9969928  70.8902009  25.4086551  86.6233310  71.6059478
  17.0017607  92.8396237  84.8350508  17.8649068  92.4833042  85.0453832
  16.4283018  92.5010132  85.5225912  36.8465984 114.4698093  75.6412909
  37.4844394 114.3504841  74.9376249  36.7286827 115.4178937  75.7000861
  33.6555690 114.4225521  75.5774434  33.3174202 114.3066586  74.6894968
  34.5245458 114.0216686  75.5575440  34.1375473 115.5760373  81.5360639
  34.1264114 115.1813171  80.6641143  34.2996113 114.8426446  82.1294411
  31.3563969 113.1913769  64.9091374  31.6089490 112.6695290  64.1474837
  30.4188529 113.0279914  65.0118057  36.4007252 112.1949547  72.7166117
  37.1870342 111.7768970  72.3656534  36.6645957 113.0995639  72.8847765
  41.8015679 112.1324780  73.6199095  42.5340851 111.5623997  73.8536925
  41.0455035 111.7446381  74.0605601  33.4191799 114.5552022  70.8162438
  33.0550006 114.0282643  71.5275359  34.2758915 114.1650491  70.6428923
  39.3241100 105.8446354  78.0793704  38.9924425 106.7141765  77.8554919
  38.7286713 105.5282638  78.7587734  33.0597286 109.5841921  65.8123786
  33.2271688 110.4522158  66.1794257  32.8694455 109.7469203  64.8885076
  39.2169763 110.5641441  75.1587054  38.3086640 110.4956849  74.8645815
  39.1657359 111.0413386  75.9868880  33.0386507 112.0399579  66.7970453
  32.9186132 112.4856630  67.6355933  32.3439095 112.3884897  66.2383991
  33.2910629 111.9831086  83.1021951  32.5143963 112.5425006  83.0924816
  33.9301192 112.4687869  83.6236821  41.0831409 108.7657879  76.9364928
  40.4405790 109.0590412  76.2904723  40.5786338 108.6510799  77.7418125
  38.7371573 112.5121052  67.6250787  39.6489429 112.7448439  67.4498485
  38.2281220 113.0958096  67.0625866  33.3743411 111.8718287  78.6345637
  34.2204606 112.2957700  78.7780286  33.3142049 111.2151911  79.3284200
  36.5242856 109.5322655  80.2926810  36.2803788 110.2864716  79.7561086
  36.8002787 109.9108003  81.1274057  38.4781319 116.0761267  78.9704076
  38.6898214 116.7193027  78.2938457  38.4311067 115.2423584  78.5026006
  36.0807548 108.6879088  75.8740648  35.2192027 108.9860342  76.1657386
  36.1069983 108.9049487  74.9421681  31.8338003 113.3544431  69.0904019
  32.5362047 113.8065475  69.5577945  31.5018632 112.7128250  69.7183912
  30.2818365 111.9456188  83.4655228  29.6517025 112.6272469  83.6990625
  30.1754453 111.8339269  82.5208367  25.5763337 111.6127984  74.3921152
  24.7862391 111.8685512  73.9161263  26.0674585 112.4276322  74.4973193
  27.5278083 111.9772563  71.3504629  26.7309246 112.0891257  71.8688125
  27.3003675 112.3159215  70.4845520  47.6833140 115.2971971  73.4911405
  46.9296848 114.7279369  73.3355409  47.8180681 115.2634636  74.4382039
  29.5599108 106.2476954  85.8280479  29.1666053 105.6943152  86.5028124
  30.3765248 106.5587532  86.2186997  32.4767069 107.6634833  83.4200736
  33.2176782 108.2641986  83.3405198  32.7084991 106.9212470  82.8618778
  36.4224232 103.6915936  77.6965018  36.0788501 104.5817577  77.6204128
  36.7903194 103.5017593  76.8334603  36.3874514 113.6824547  66.2037453
  35.8721138 114.4529151  66.4425840  36.1151823 113.0089683  66.8270514
  33.9721625 108.5274247  71.2622691  33.1163222 108.1381098  71.0828330
  34.3848577 108.6066208  70.4022477  35.5020772 106.0620591  75.6614251
  34.9985568 106.0250726  74.8482056  35.7951379 106.9713333  75.7210908
  31.7463658 106.1459320  74.6680433  32.6116655 105.9502129  74.3086322
  31.8141167 105.9169672  75.5949789  41.3608788 116.4356901  68.1390626
  40.5838231 116.0968061  67.6945788  42.0400269 116.4409524  67.4645591
  36.1760817 111.5551639  68.0297234  35.8710953 111.8697788  68.8807377
  37.1291260 111.6333059  68.0724567  39.6000095 115.9090883  74.7957234
  38.9423770 116.5990144  74.8837363  40.4040495 116.2987315  75.1391221
  29.3525977 108.3761528  72.0396799  29.9269729 108.1536710  71.3069992
  29.9396959 108.4450223  72.7925401  38.4105554 114.2635255  72.8461176
  38.9237436 114.8965247  73.3482886  39.0606778 113.6636451  72.4804536
  29.6795564 110.4065989  66.0592685  28.8432876 110.7440676  66.3801959
  29.5400334 110.2714969  65.1219822  31.6548645 105.2502777  70.7671869
  31.0013057 104.9351794  70.1428484  31.6129119 104.6278518  71.4931692
  34.8886385 111.7384711  75.0919516  33.9708946 111.9599658  74.9341205
  35.3046529 111.8131021  74.2331224  35.6721433 113.1376126  70.2222197
  36.4193252 113.6497524  69.9129319  35.9413022 112.8160179  71.0826590
  38.1200270 110.1733243  72.2040986  37.3823027 109.6610629  72.5351229
  38.3727043 109.7333624  71.3924263  38.2211897 102.9509495  72.7982755
  38.5270774 102.0906858  72.5108670  38.9464502 103.5427115  72.5981749
  32.4932977 113.2463288  73.3058946  32.5481587 112.2937124  73.2301423
  31.6824179 113.4022727  73.7900245  30.4325337 111.8640348  71.0649325
  29.6193202 112.1634518  71.4714517  30.9284331 111.4696036  71.7823807
  36.0299549 112.3282172  79.8964219  36.3848936 112.5553645  80.7558685
  36.6771680 112.6600549  79.2741474  41.7597286 115.4500608  70.6013548
  41.6215184 115.6402204  69.6734737  41.4033504 116.2119991  71.0581599
  29.9239412 109.4358703  76.6810560  30.5638791 109.2947462  75.9833523
  29.0916942 109.1493216  76.3049162  41.7866665 117.5177135  75.6124820
  42.2203172 117.4252424  76.4607874  42.4998246 117.4934635  74.9744836
  27.0082479 112.8804215  68.8705305  26.0780067 112.8188671  69.0875267
  27.1039951 112.3580168  68.0741947  26.9268028 109.4059028  71.4583547
  27.1874845 110.3204361  71.3492707  27.7485200 108.9383471  71.6080160
  28.3992953 110.8196785  78.6282372  29.0716007 110.6114147  77.9795020
  27.5722740 110.6218871  78.1887604  42.6482215 117.5600836  78.1457705
  42.8418105 118.4646646  78.3916980  42.5482833 117.1008255  78.9796290
  34.3018525 107.4458726  80.6448032  33.6546440 108.1448676  80.5512509
  35.0719541 107.8794870  81.0124281  34.4782660 115.2839491  78.7044852
  35.4074720 115.4350651  78.5313819  34.0573690 115.3723512  77.8493499
  31.4302751 113.8059348  78.8768488  32.1402370 113.1652540  78.8355107
  31.3872059 114.0572242  79.7994669  30.1431685 110.7924565  80.6964128
  29.6069042 110.3415304  81.3485724  29.5548394 110.9270474  79.9534592
  29.5533944 110.2513217  63.2590591  28.6763411 110.1302018  62.8952838
  30.0291697 109.4599295  63.0069480  25.8770807 109.9280573  77.7817122
  25.7928995 109.3206243  77.0467532  25.0553513 110.4189591  77.7826619
  36.0494520 108.4134137  73.1487317  36.5463220 107.6604099  72.8288388
  35.2781502 108.4498453  72.5830527  43.9024278 114.1174502  74.7905609
  43.8914154 114.9999218  74.4199542  43.0341657 113.7646053  74.5960146
  32.6329489 110.5551520  72.8759002  32.2627277 110.0022560  73.5639908
  33.1288582 109.9509653  72.3234002  40.5196852 113.0123143  71.2575775
  40.9857305 113.8451135  71.1836078  40.9704353 112.5468125  71.9621033
  38.4913515 105.3803730  75.2966676  37.5776595 105.6107957  75.4648883
  38.9206617 105.4642174  76.1480709  38.2619974 113.5693622  77.7966570
  37.6091424 113.8169530  77.1419023  38.6400354 112.7557760  77.4629048
  34.3107547 114.3113433  84.2832607  33.6348184 114.2107563  84.9534983
  35.1335181 114.1552647  84.7468605  28.0294823 107.9655510  79.1212108
  28.0936149 108.8270341  78.7089506  27.9661943 107.3529512  78.3884467
  27.5047095 110.0378643  82.7685142  28.1319134 109.6555720  83.3822667
  26.6475014 109.8192845  83.1340835  24.2812638 111.8455072  68.7003497
  24.5766079 110.9365750  68.6470551  23.3800674 111.8242812  68.3784499
  27.8106885 109.9211069  74.6831046  27.0893471 110.5347036  74.5438519
  28.6000141 110.4568833  74.6047692  30.6133199 107.2565495  80.9571697
  31.1367600 107.5027792  81.7198007  30.3945532 108.0885530  80.5374835
  26.0100480 109.5269170  68.8242822  25.6813186 108.6466549  68.6417928
  26.3639850 109.4716838  69.7119212  29.1242303 109.8142140  69.1918300
  29.4638375 110.3428061  68.4696908  29.5714423 110.1522546  69.9676866
  31.8185744 108.1979190  78.6421368  31.4782564 107.3987003  79.0442048
  31.1124750 108.4980901  78.0698201  32.4702215 105.2828503  77.0948691
  33.2928285 104.8088981  76.9727581  32.7140279 106.0618986  77.5947377
  31.1110450 108.3116761  67.3911593  31.8318812 108.6898014  66.8875310
  30.4875754 109.0305638  67.4946571  35.2541573 109.0161910  68.3269925
  35.4705187 109.8986548  68.0258753  34.7735640 108.6248124  67.5975567
  29.9940794 111.9747623  74.9040670  29.8485375 112.2887926  75.7964951
  29.5165998 112.5932524  74.3511568  31.8537177 108.9650171  74.9521559
  31.8398746 108.0691265  74.6153857  32.5709605 108.9720835  75.5859845
  33.7063308 109.3987512  76.9974687  33.4481086 110.3204582  76.9959017
  33.1748348 109.0017946  77.6875151  31.2574073 107.8464552  70.2209129
  31.3789984 106.9181198  70.4200017  30.9676115 107.8603238  69.3087445
  34.1265263 105.5319462  73.3575849  34.1486960 105.5958795  72.4027829
  34.5433322 104.6923971  73.5516355  44.5048888 115.2674722  71.3955072
  44.9480034 114.5182047  70.9974195  43.6275398 115.2584858  71.0128804
  30.7415153 109.3596549  84.4299062  30.7903308 110.2358672  84.0476832
  31.2837667 108.8173942  83.8570705  41.3467873 116.7530139  81.0232928
  41.3965878 116.5880146  81.9648450  41.2381797 115.8857398  80.6330808
  38.6371636 112.7361067  82.3392234  39.5381498 112.5967531  82.0476232
  38.7119610 112.9015521  83.2790412  32.9714441 110.1127921  81.1845421
  32.1017750 110.4061487  80.9128009  33.2073921 110.6968366  81.9052684
  44.0481752 116.7379960  73.7877519  44.8828644 117.1769764  73.9515080
  44.1840881 116.2618613  72.9685765  41.0973258 114.2959695  79.7355007
  41.5727380 114.4887341  78.9273858  40.1738824 114.3518881  79.4898391
  35.6753475 106.3307538  78.7010841  36.1935419 107.0668565  78.3757330
  35.3208608 106.6371532  79.5357600  27.2552413 111.1912219  66.8172247
  26.5621657 111.2656574  66.1612283  27.0104164 110.4272563  67.3393764
  35.9266069 102.7507821  74.2211738  36.2067823 102.0831010  74.8472164
  36.7116676 102.9436916  73.7086401  39.7974927 111.1725455  77.9683313
  40.7492350 111.2723552  77.9895537  39.6278378 110.3803723  78.4781397
  37.8189307 108.2581038  78.1542714  37.2239239 108.5386051  77.4589202
  37.5339004 108.7474939  78.9259455  42.2763005 114.3931575  77.0825612
  42.2439325 113.4547575  77.2685296  42.8863629 114.4715611  76.3491437
  34.1146336 113.2627627  63.1252816  35.0605441 113.1333836  63.1941234
  33.7360581 112.5242289  63.6022245  42.4257494 111.1842618  77.1283896
  41.9096542 110.4001075  76.9413824  43.3097442 110.8561335  77.2930415
  40.0868221 104.9283634  73.0879708  39.8893042 104.6198722  73.9723040
  40.6967926 105.6545272  73.2177638  48.0939555 115.4547581  76.2231649
  48.8242944 115.1932869  76.7839352  47.4846501 114.7176303  76.2633717
  46.1754852 113.5955444  76.8206100  45.4488016 113.4611409  76.2122592
  45.7602139 113.9032273  77.6262818  32.2989253 111.1877604  63.0607702
  31.3920709 110.8910717  63.1370415  32.5765234 110.8907422  62.1941988
  33.9151319 105.7314494  69.2151943  33.1052047 105.3861579  69.5907189
  34.6035736 105.4222037  69.8039554  35.8441867 104.8092540  70.8376240
  36.3972906 105.2287994  71.4966263  36.0811954 103.8828289  70.8799196
  31.8674966 110.7979614  86.6179003  31.7671693 111.7473971  86.5491095
  31.6496508 110.4697853  85.7455074  31.0688038 108.0464539  63.2019681
  31.9307202 108.3719437  63.4615498  31.2538382 107.2596035  62.6892747
  39.2220674 106.9193066  70.3454904  38.6419343 107.5777870  69.9632956
  38.9556607 106.0970410  69.9342321  37.6724241 106.3198123  72.5476224
  38.1724019 106.4314658  71.7390543  38.3159849 106.0159176  73.1877033
  38.0045552 109.0793156  69.4011252  37.1171407 109.3642807  69.1831447
  38.4199541 108.9186919  68.5538529  41.3560088 109.1039677  73.1165591
  42.1320479 109.5936129  73.3890208  40.6308223 109.5297731  73.5737461
  43.7932647 109.8167296  74.1739532  44.3877138 109.5763032  73.4632840
  43.8659231 109.0974427  74.8013068  37.9786576 114.5947692  69.6161542
  37.9221777 115.0516243  68.7769175  38.5314919 113.8338376  69.4384385
  41.7891382 110.3837424  70.4411662  41.5328316 109.9834059  71.2719869
  41.1644250 111.0981218  70.3161801  46.1003720 113.1233497  72.9482953
  45.5403278 113.1926686  73.7214515  45.4947223 112.9474482  72.2282449
  38.7121355 115.7852473  66.9114071  38.6570159 115.6196745  65.9702516
  38.0867411 116.4928506  67.0676261  23.5013870 111.0220537  80.7375494
  24.1472734 110.5119491  81.2262719  23.2931021 111.7589219  81.3118919
  32.0217481 105.2860582  66.4899390  32.0096151 106.2302422  66.6467661
  32.9140903 105.1030728  66.1958851  35.8369600 101.8803359  70.7445327
  35.0701996 101.3261845  70.8902009  36.2480305 101.9525228  71.6059478
  27.8411361 108.1688155  84.8350508  28.7042823 107.8124959  85.0453832
  27.2676772 107.8302049  85.5225912  47.2617986 119.0207853  77.6965018
  46.9182255 119.9109495  77.6204128  47.6296949 118.8309511  76.8334603
  49.0605652 118.2801412  72.7982755  49.3664529 117.4198776  72.5108670
  49.7858257 118.8719033  72.5981749  46.7659824 118.0799739  74.2211738
  47.0461577 117.4122928  74.8472164  47.5510430 118.2728834  73.7086401
  50.9261975 120.2575551  73.0879708  50.7286796 119.9490639  73.9723040
  51.5361681 120.9837190  73.2177638  46.6763355 117.2095276  70.7445327
  45.9095751 116.6553763  70.8902009  47.0874060 117.2817145  71.6059478
   4.3258123  30.9866423  60.2156711   3.5721832  30.4173821  60.0600716
   4.4605664  30.9529088  61.1627346   0.6906736  32.4274412  60.5122826
   1.5253627  32.8664216  60.6760386   0.8265865  31.9513065  59.6931072
   4.7364538  31.1442033  62.9476956   5.4667927  30.8827321  63.5084659
   4.1271484  30.4070755  62.9879024   2.8179835  29.2849896  63.5451407
   2.0912999  29.1505861  62.9367899   2.4027122  29.5926724  64.3508125
   2.7428703  28.8127949  59.6728260   2.1828261  28.8821138  60.4459822
   2.1372206  28.6368933  58.9527756   4.3284722  45.4884463  62.3658215
   4.9663132  45.3691210  61.6621556   4.2105564  46.4365307  62.4246168
   1.1374428  45.4411891  62.3019740   0.7992939  45.3252956  61.4140275
   2.0064196  45.0403056  62.2820746   1.6194211  46.5946743  68.2605946
   1.6082852  46.1999541  67.3886449   1.7814850  45.8612815  68.8539717
   2.5760802  50.9618335  53.6031096   1.9248782  51.5472415  53.2165110
   3.3705165  51.4924530  53.6626133   3.8825990  43.2135917  59.4411424
   4.6689079  42.7955340  59.0901841   4.1464694  44.1182009  59.6093072
   4.0536067  48.6508767  54.1400080   3.4181900  48.7243393  54.8520985
   3.7233474  49.2402366  53.4619160   9.2834417  43.1511150  60.3444402
  10.0159589  42.5810367  60.5782232   8.5273773  42.7632750  60.7850908
   0.9010537  45.5738391  57.5407744   0.5368744  45.0469012  58.2520666
   1.7577653  45.1836860  57.3674230   6.8059838  36.8632724  64.8039011
   6.4743162  37.7328135  64.5800226   6.2105451  36.5469008  65.4833041
   3.2991357  49.0645270  64.2034923   2.9992080  49.9670309  64.0950731
   2.9542417  48.7977453  65.0556076   6.6988501  41.5827810  61.8832361
   5.7905378  41.5143219  61.5891122   6.6476097  42.0599755  62.7114186
   8.5650147  39.7844249  63.6610235   7.9224528  40.0776782  63.0150029
   8.0605076  39.6697169  64.4663431   6.2190311  43.5307422  54.3496094
   7.1308167  43.7634808  54.1743791   5.7099958  44.1144466  53.7871172
   4.5031079  47.9532050  67.9857386   4.9114435  47.5114460  67.2412019
   3.7808340  47.3784677  68.2391579   0.8562149  42.8904656  65.3590943
   1.7023344  43.3144070  65.5025592   0.7960786  42.2338281  66.0529507
   4.8259893  48.5133240  61.7409675   4.1968756  48.6778954  61.0385743
   4.4385555  48.9274850  62.5120639   8.7049125  49.4487678  59.0954039
   8.0200163  49.8286579  58.5451072   8.7892974  50.0583005  59.8285987
   4.0061594  40.5509025  67.0172117   3.7622526  41.3051085  66.4806393
   4.2821524  40.9294372  67.8519364   5.9600057  47.0947637  65.6949383
   6.1716952  47.7379397  65.0183764   5.9129805  46.2609954  65.2271313
   3.5626286  39.7065458  62.5985955   2.7010765  40.0046711  62.8902692
   3.5888720  39.9235857  61.6666987   7.0745885  49.9719592  63.8671740
   7.8963328  49.5699780  63.5854422   7.0708288  49.8687827  64.8187856
  15.1651878  46.3158341  60.2156711  14.4115586  45.7465739  60.0600716
  15.2999419  46.2821005  61.1627346   2.1818982  51.8095310  70.0211773
   1.7382836  51.0231688  69.7032677   2.8436196  51.9974460  69.3555664
   4.2800220  52.0898110  68.0493174   4.2618696  52.9106991  67.5573443
   5.2020140  51.9652185  68.2743315   3.9042969  34.7102305  64.4210324
   3.5607239  35.6003947  64.3449435   4.2721932  34.5203963  63.5579909
   3.8693252  44.7010916  52.9282759   3.3539876  45.4715521  53.1671147
   3.5970561  44.0276052  53.5515821   1.4540363  39.5460617  57.9867998
   0.5981959  39.1567467  57.8073636   1.8667315  39.6252578  57.1267783
   2.9839510  37.0806960  62.3859557   2.4804305  37.0437095  61.5727363
   3.2770117  37.9899703  62.4456214   8.8427526  47.4543271  54.8635933
   8.0656969  47.1154430  54.4191095   9.5219007  47.4595894  54.1890898
   3.6579555  42.5738008  54.7542541   3.3529691  42.8884158  55.6052684
   4.6109997  42.6519428  54.7969874   2.1025987  48.7328232  56.4035495
   1.5747349  47.9980991  56.0908732   1.6013490  49.5102908  56.1575463
   7.0818833  46.9277252  61.5202541   6.4242508  47.6176514  61.6082669
   7.8859232  47.3173684  61.8636527   5.8924292  45.2821625  59.5706483
   6.4056174  45.9151617  60.0728192   6.5425516  44.6822820  59.2049843
   3.1546666  55.2605949  52.3267154   2.4808365  55.5637646  52.9352112
   3.5412488  56.0635029  51.9772611   2.3705123  42.7571080  61.8164823
   1.4527684  42.9786027  61.6586511   2.7865266  42.8317391  60.9576530
   3.1540171  44.1562496  56.9467503   3.9011989  44.6683893  56.6374625
   3.4231760  43.8346549  57.8071897   1.4266821  46.6521037  53.9294458
   0.5178040  46.3680070  54.0266927   1.4561905  47.0720115  53.0697764
   6.6586088  50.2627626  57.6985625   6.2048415  49.4218536  57.7550816
   6.0280055  50.8989025  58.0360405   5.6019008  41.1919612  58.9286293
   4.8641764  40.6796999  59.2596535   5.8545781  40.7519994  58.1169570
   5.1019027  52.1004123  58.6335443   5.3942002  52.6609180  57.9147809
   5.6117648  52.3932684  59.3888602   5.7030635  33.9695864  59.5228062
   6.0089512  33.1093228  59.2353977   6.4283240  34.5613485  59.3227056
   1.1242909  48.1929780  51.2682536   0.6862338  47.4765639  50.8088174
   1.8653349  48.4205895  50.7067628   3.5118286  43.3468542  66.6209526
   3.8667674  43.5740015  67.4803992   4.1590418  43.6786918  65.9986781
   9.2416023  46.4686977  57.3258855   9.1033922  46.6588573  56.3980044
   8.8852242  47.2306360  57.7826906   9.2685403  48.5363505  62.3370126
   9.7021910  48.4438794  63.1853180   9.9816984  48.5121005  61.6990142
   3.0013298  52.1365599  63.8703227   3.0550320  52.7056535  64.6380943
   2.1328079  52.3067484  63.5057264  10.1300952  48.5787205  64.8703012
  10.3236843  49.4833016  65.1162287  10.0301571  48.1194624  65.7041597
   1.7837263  38.4645096  67.3693339   1.1365178  39.1635045  67.2757815
   2.5538279  38.8981240  67.7369587   5.1916061  48.7293948  70.4443892
   5.0401568  48.5004500  69.5273976   5.1820741  49.6864549  70.4575237
   1.9601398  46.3025861  65.4290159   2.8893458  46.4537020  65.2559126
   1.5392428  46.3909881  64.5738805   1.3537881  55.4285622  54.5414233
   1.5289637  54.9573665  55.3559856   0.6670669  56.0551388  54.7695494
   2.3094944  49.7058128  60.5877534   1.9744777  49.6658898  61.4835184
   1.8098890  49.0402844  60.1147944   5.2454136  47.0514162  50.8614594
   4.6283307  46.3260990  50.7647646   4.7770625  47.8123522  50.5181668
   6.9008268  51.7613070  68.5220374   6.8420814  51.0772291  67.8550957
   7.3027786  52.5032060  68.0701000   6.9025675  49.7252654  66.7534354
   6.0152454  49.3878576  66.8760753   7.4724226  48.9935686  66.9903119
   3.5313258  39.4320506  59.8732624   4.0281958  38.6790469  59.5533694
   2.7600240  39.4684823  59.3075833  11.3843016  45.1360872  61.5150915
  11.3732892  46.0185587  61.1444849  10.5160395  44.7832423  61.3205453
   2.8925512  54.2840941  65.8753756   3.6053484  54.9188406  65.8029657
   2.4015541  54.3804807  65.0593758   4.6143039  48.1892193  57.4471047
   3.6799318  48.3093656  57.2775752   4.7919707  47.2864660  57.1831057
   8.0015590  44.0309513  57.9821082   8.4676042  44.8637504  57.9081384
   8.4523091  43.5654494  58.6866340   6.0691821  50.3753334  54.9807234
   6.3451665  50.2609929  55.8901108   5.1996320  49.9770819  54.9419407
   5.9732253  36.3990100  62.0211983   5.0595333  36.6294327  62.1894190
   6.4025354  36.4828544  62.8726015   5.7438711  44.5879992  64.5211877
   5.0910162  44.8355899  63.8664330   6.1219091  43.7744130  64.1874354
   2.7045885  54.6239685  58.6240047   2.8868280  53.8061341  59.0867800
   3.5278871  54.8407377  58.1864937   3.0388051  53.5507870  55.8855096
   3.5675817  53.0400325  55.2725258   3.3016270  53.2350400  56.7500629
   1.7926284  45.3299803  71.0077914   1.1166922  45.2293932  71.6780289
   2.6153918  45.1739016  71.4713911   0.5349067  56.6366730  65.2435530
   1.0867375  56.7998352  66.0084615   0.8755261  57.2271168  64.5715555
   5.3859942  51.4627988  71.0984184   5.9299846  52.0757946  70.6039139
   4.8046787  52.0207566  71.6151197   3.6717455  54.5848706  62.2299212
   3.5468594  53.7838446  61.7210158   4.3296546  55.0794899  61.7413182
   5.7352363  52.3857726  63.8578762   4.7882699  52.2663077  63.7857089
   6.0835136  51.4980224  63.9405024   2.7398796  52.1810442  60.0583114
   2.5923759  51.2527149  60.2390684   3.5652290  52.2030533  59.5740190
   6.3432918  53.0039001  61.1447987   7.2679466  52.7981862  61.0072438
   6.1748222  52.7555402  62.0537329   2.7360311  40.0348280  55.0515232
   2.9523925  40.9172918  54.7504060   2.2554378  39.6434493  54.3220874
   1.1882046  40.4173881  63.7219993   0.9299823  41.3390952  63.7204324
   0.6567086  40.0204316  64.4120457   6.1328234  53.5224668  56.5010079
   6.3065112  52.9571091  55.7483931   6.6257126  54.3225563  56.3189569
   1.6084001  36.5505832  60.0821156   1.6305698  36.6145165  59.1273135
   2.0252060  35.7110340  60.2761662  11.9867626  46.2861091  58.1200378
  12.4298772  45.5368416  57.7219502  11.1094136  46.2771228  57.7374110
   7.1203407  52.8391433  53.6006977   7.8154312  53.4598125  53.8194292
   7.4626557  51.9886784  53.8759355   9.0194830  50.2891138  55.1294308
   9.5446154  50.6278411  54.4043628   8.9317183  49.3538153  54.9457442
   0.6814879  54.2025212  67.2584184   0.9902005  53.9574359  68.1306884
   1.4790361  54.4071850  66.7703055   8.7088736  50.9224042  70.4345506
   7.9184280  50.9048181  69.8950005   8.4722091  51.4612335  71.1894542
   8.8286611  47.7716508  67.7478234   8.8784616  47.6066516  68.6893757
   8.7200534  46.9043767  67.3576115   6.1190374  43.7547436  69.0637541
   7.0200236  43.6153901  68.7721539   6.1938348  43.9201891  70.0035718
  10.3304808  50.1913450  67.9920256  10.0389616  50.5543430  68.8283717
   9.7176939  49.4780458  67.8133588  11.5300490  47.7566329  60.5122826
  12.3647382  48.1956134  60.6760386  11.6659619  47.2804983  59.6931072
   8.5791996  45.3146064  66.4600314   9.0546118  45.5073711  65.6519165
   7.6557562  45.3705250  66.2143697   3.1572213  37.3493908  65.4256148
   3.6754157  38.0854935  65.1002636   2.8027345  37.6557901  66.2602907
   3.4084807  33.7694190  60.9457044   3.6886561  33.1017379  61.5717471
   4.1935414  33.9623286  60.4331708   1.2118275  52.9453184  52.5082071
   0.6392242  53.5643371  52.0552542   1.7851069  53.4952546  53.0421992
   7.2793665  42.1911824  64.6928619   8.2311088  42.2909922  64.7140843
   7.1097116  41.3990093  65.2026704   5.3008045  39.2767408  64.8788020
   4.7057977  39.5572420  64.1834509   5.0157741  39.7661309  65.6504761
   4.4315535  53.2290334  53.6390653   5.3646208  53.1635896  53.8423528
   4.3438748  54.0646601  53.1805185   7.0603552  52.5456205  50.5994600
   6.9817183  52.2116068  51.4930358   7.8813219  53.0377973  50.5986073
   9.7581743  45.4117944  63.8070919   9.7258063  44.4733945  63.9930603
  10.3682367  45.4901981  63.0736744   1.5965074  44.2813997  49.8498123
   2.5424179  44.1520205  49.9186541   1.2179319  43.5428659  50.3267551
   9.9076231  42.2028988  63.8529202   9.3915280  41.4187444  63.6659131
  10.7916180  41.8747704  64.0175722   7.5686958  35.9470003  59.8125015
   7.3711780  35.6385091  60.6968347   8.1786664  36.6731642  59.9422945
  15.5758293  46.4733951  62.9476956  16.3061681  46.2119239  63.5084659
  14.9665238  45.7362673  62.9879024  13.6573590  44.6141813  63.5451407
  12.9306754  44.4797778  62.9367899  13.2420877  44.9218642  64.3508125
   1.4803766  48.3331743  71.3098780   2.4006776  48.5110342  71.5038827
   1.4453349  47.3887789  71.1578479   1.3970057  36.7500863  55.9397250
   0.5870785  36.4047948  56.3152496   2.0854474  36.4408407  56.5284861
   3.3260605  35.8278910  57.5621546   3.8791644  36.2474363  58.2211569
   3.5630691  34.9014658  57.6044502   6.7039412  37.9379435  57.0700210
   6.1238081  38.5964239  56.6878263   6.4375345  37.1156780  56.6587628
   5.1542978  37.3384493  59.2721531   5.6542757  37.4501027  58.4635850
   5.7978586  37.0345546  59.9122339   5.4864290  40.0979525  56.1256559
   4.5990145  40.3829176  55.9076753   5.9018279  39.9373289  55.2783836
   8.8378826  40.1226046  59.8410898   9.6139216  40.6122499  60.1135515
   8.1126960  40.5484101  60.2982767  11.2751385  40.8353666  60.8984839
  11.8695876  40.5949402  60.1878147  11.3477969  40.1160796  61.5258375
   4.6307504  49.8624200  50.2204579   5.3343354  50.0674203  50.8362234
   3.9070152  50.4300962  50.4853662   5.4605314  45.6134061  56.3406849
   5.4040515  46.0702613  55.5014481   6.0133656  44.8524746  56.1629692
   9.2710120  41.4023793  57.1656968   9.0147054  41.0020429  57.9965176
   8.6462988  42.1167587  57.0407108  13.5822458  44.1419867  59.6728260
  13.0222016  44.2113056  60.4459822  12.9765961  43.9660851  58.9527756
   6.5394201  50.3006729  52.2703039   7.3739805  49.8687928  52.0880514
   6.3778544  50.1288743  53.1979933   6.1940093  46.8038843  53.6359378
   6.1388897  46.6383114  52.6947822   5.5686148  47.5114876  53.7921568
   3.5086000  49.1087755  72.9612941   4.3777160  49.2828407  72.5999576
   3.0292752  49.9282171  72.8388670   3.3188338  32.8989728  57.4690633
   2.5520734  32.3448215  57.6147316   3.7299043  32.9711597  58.3304785
  15.1678476  60.8176380  62.3658215  15.8056886  60.6983128  61.6621556
  15.0499319  61.7657224  62.4246168  11.9768182  60.7703809  62.3019740
  11.6386694  60.6544873  61.4140275  12.8457951  60.3694974  62.2820746
   7.8354998  62.6239285  58.2916631   7.2719863  62.5329222  57.5232919
   7.7207393  61.8039189  58.7719124  12.4587965  61.9238660  68.2605946
  12.4476606  61.5291459  67.3886449  12.6208605  61.1904733  68.8539717
   5.3819430  64.1190477  61.1300852   6.1740722  63.7781301  60.7147151
   5.6216080  64.2285452  62.0503005  13.4154557  66.2910253  53.6031096
  12.7642537  66.8764333  53.2165110  14.2098920  66.8216448  53.6626133
   7.3410184  63.3799390  54.0018230   8.1141060  62.8328377  53.8631106
   7.6935583  64.2443639  54.2132692   9.1795226  64.7075772  67.2085130
   8.8885092  65.6121403  67.0931796   9.8152211  64.7492300  67.9229199
  10.1051433  62.0852621  63.7986489  10.7015006  61.8608643  63.0843452
  10.1626405  61.3437366  64.4011937   9.6776462  59.5392056  51.6336680
   9.9301982  59.0173577  50.8720143   8.7401021  59.3758201  51.7363364
  14.7219745  58.5427834  59.4411424  15.5082834  58.1247257  59.0901841
  14.9858449  59.4473927  59.6093072  14.8929822  63.9800685  54.1400080
  14.2575655  64.0535311  54.8520985  14.5627228  64.5694283  53.4619160
  20.1228172  58.4803068  60.3444402  20.8553344  57.9102284  60.5782232
  19.3667527  58.0924668  60.7850908   9.3972750  61.4420162  53.8361055
   9.2809009  60.7665065  54.5042140   9.5075010  60.9552536  53.0193208
  11.7404291  60.9030309  57.5407744  11.3762499  60.3760930  58.2520666
  12.5971407  60.5128778  57.3674230  17.6453592  52.1924642  64.8039011
  17.3136917  53.0620053  64.5800226  17.0499205  51.8760926  65.4833041
  11.3809778  55.9320209  52.5369093  11.5484181  56.8000445  52.9039564
  11.1906947  56.0947490  51.6130382  14.1385112  64.3937188  64.2034923
  13.8385835  65.2962226  64.0950731  13.7936171  64.1269371  65.0556076
   7.5897593  60.8450984  60.2371628   6.6648090  60.7127199  60.4449320
   7.8382006  61.6245204  60.7341570  17.5382255  56.9119728  61.8832361
  16.6299133  56.8435136  61.5891122  17.4869851  57.3891673  62.7114186
  11.3598999  58.3877866  53.5215760  11.2398624  58.8334917  54.3601240
  10.6651588  58.7363184  52.9629298   4.9506404  60.4884258  61.0715417
   5.0798785  60.7418737  61.9854829   4.2703855  61.0811966  60.7520072
   9.1205891  71.1581508  57.1705891   9.0429921  72.1089333  57.2494372
   8.5167535  70.8127380  57.8280817  11.6123121  58.3309373  69.8267258
  10.8356455  58.8903294  69.8170123  12.2513684  58.8166156  70.3482128
  19.4043902  55.1136166  63.6610235  18.7618282  55.4068699  63.0150029
  18.8998830  54.9989087  64.4663431  17.0584065  58.8599339  54.3496094
  17.9701922  59.0926726  54.1743791  16.5493712  59.4436384  53.7871172
   9.8669493  61.1394827  69.3885225  10.6084178  61.6779871  69.1120049
   9.1606479  61.7661116  69.5456777  15.3424833  63.2823967  67.9857386
  15.7508189  62.8406378  67.2412019  14.6202095  62.7076595  68.2391579
  11.6955903  58.2196574  65.3590943  12.5417098  58.6435988  65.5025592
  11.6354541  57.5630198  66.0529507  15.6653648  63.8425158  61.7409675
  15.0362510  64.0070872  61.0385743  15.2779310  64.2566767  62.5120639
  19.5442880  64.7779596  59.0954039  18.8593918  65.1578497  58.5451072
  19.6286729  65.3874922  59.8285987  14.8455348  55.8800942  67.0172117
  14.6016280  56.6343003  66.4806393  15.1215279  56.2586290  67.8519364
  16.7993811  62.4239555  65.6949383  17.0110706  63.0671315  65.0183764
  16.7523559  61.5901871  65.2271313  14.4020040  55.0357375  62.5985955
  13.5404519  55.3338629  62.8902692  14.4282475  55.2527774  61.6666987
  11.2181610  63.5799566  59.0059760  11.6819955  63.8587269  58.2164383
  10.9538408  62.6783011  58.8232851   8.1105691  63.1271047  61.9439524
   8.6807048  63.5558316  61.3057008   8.7013803  62.8453632  62.6423709
  10.1550496  59.7022718  55.8149326  10.8574539  60.1543762  56.2823252
   9.8231124  59.0606537  56.4429219   8.6030857  58.2934475  70.1900535
   7.9729518  58.9750756  70.4235932   8.4966945  58.1817557  69.2453673
   3.8975830  57.9606271  61.1166459   3.1074884  58.2163800  60.6406570
   4.3887077  58.7754609  61.2218500  17.9139639  65.3011510  63.8671740
  18.7357083  64.8991697  63.5854422  17.9102042  65.1979744  64.8187856
   5.8490575  58.3250850  58.0749936   5.0521738  58.4369544  58.5933432
   5.6216167  58.6637502  57.2090826  11.6796243  64.8495553  66.0232450
  11.7440675  65.3115961  66.8590622  10.9707166  64.2192918  66.1514760
   2.1813533  58.2136761  63.5481450   2.4321571  59.0983771  63.8139026
   2.7173081  58.0341363  62.7756542  26.0045632  61.6450259  60.2156711
  25.2509341  61.0757657  60.0600716  26.1393173  61.6112923  61.1627346
  11.3944260  66.5163661  55.8911431  11.2589935  67.3615197  56.3196279
  11.9354073  66.7182939  55.1277365   7.8811600  52.5955241  72.5525786
   7.4878545  52.0421439  73.2273430   8.6977740  52.9065819  72.9432304
   4.8473658  64.0339099  56.4639356   5.3598178  64.8282349  56.6144921
   5.4996370  63.3365389  56.3972957   6.6568542  67.1504855  58.5462109
   6.8335171  68.0722820  58.3583093   7.4525376  66.8363274  58.9756489
  10.7979561  54.0113120  70.1446043  11.5389274  54.6120273  70.0650505
  11.0297484  53.2690758  69.5864085   5.9420899  59.1969487  68.4224272
   5.8274414  58.2954744  68.7231371   5.0865417  59.4433184  68.0709089
  13.0212737  67.1387227  70.0211773  12.5776591  66.3523606  69.7032677
  13.6829950  67.3266378  69.3555664   7.7799858  68.6683029  64.5472451
   8.3307283  68.5400092  63.7749445   6.9411334  68.9677918  64.1967344
  15.1193975  67.4190027  68.0493174  15.1012450  68.2398908  67.5573443
  16.0413895  67.2944103  68.2743315  11.5767029  64.9334157  68.8916682
  12.1095366  64.1722445  68.6615990  11.0481110  64.6407809  69.6340837
  14.7436724  50.0394223  64.4210324  14.4000993  50.9295864  64.3449435
  15.1115686  49.8495880  63.5579909   2.8122574  62.3627753  57.2398926
   3.6497796  62.7724762  57.0232634   2.9900842  61.4227195  57.2099120
  14.7087007  60.0302834  52.9282759  14.1933630  60.8007439  53.1671147
  14.4364315  59.3567970  53.5515821  12.2934118  54.8752535  57.9867998
  11.4375714  54.4859385  57.8073636  12.7061069  54.9544496  57.1267783
  13.8233264  52.4098878  62.3859557  13.3198060  52.3729013  61.5727363
  14.1163871  53.3191621  62.4456214  10.0676150  52.4937608  61.3925739
  10.9329147  52.2980416  61.0331629  10.1353659  52.2647959  62.3195096
  19.6821281  62.7835189  54.8635933  18.9050723  62.4446348  54.4191095
  20.3612762  62.7887812  54.1890898  14.4973310  57.9029926  54.7542541
  14.1923445  58.2176075  55.6052684  15.4503752  57.9811346  54.7969874
  12.9419742  64.0620149  56.4035495  12.4141103  63.3272909  56.0908732
  12.4407244  64.8394826  56.1575463  17.9212588  62.2569170  61.5202541
  17.2636262  62.9468431  61.6082669  18.7252987  62.6465602  61.8636527
   7.6738469  54.7239816  58.7642106   8.2482221  54.5014997  58.0315299
   8.2609452  54.7928510  59.5170707  16.7318046  60.6113543  59.5706483
  17.2449928  61.2443534  60.0728192  17.3819270  60.0114738  59.2049843
   8.0008056  56.7544277  52.7837991   7.1645369  57.0918963  53.1047266
   7.8612826  56.6193256  51.8465128   9.9761137  51.5981065  57.4917175
   9.3225549  51.2830082  56.8673790   9.9341611  50.9756805  58.2176998
  11.0872342  61.8800360  49.4070468  10.1799404  61.6489613  49.6061617
  11.5843374  61.0837979  49.5944449  13.9940421  70.5897867  52.3267154
  13.3202119  70.8929564  52.9352112  14.3806243  71.3926947  51.9772611
  13.2098877  58.0862998  61.8164823  12.2921439  58.3077945  61.6586511
  13.6259021  58.1609309  60.9576530  13.9933925  59.4854414  56.9467503
  14.7405744  59.9975811  56.6374625  14.2625515  59.1638466  57.8071897
  12.2660575  61.9812954  53.9294458  11.3571794  61.6971987  54.0266927
  12.2955659  62.4012033  53.0697764  17.4979843  65.5919544  57.6985625
  17.0442170  64.7510454  57.7550816  16.8673809  66.2280942  58.0360405
  16.4412762  56.5211530  58.9286293  15.7035519  56.0088916  59.2596535
  16.6939536  56.0811912  58.1169570  15.9412782  67.4296041  58.6335443
  16.2335756  67.9901098  57.9147809  16.4511402  67.7224602  59.3888602
  16.5424389  49.2987782  59.5228062  16.8483266  48.4385145  59.2353977
  17.2676994  49.8905402  59.3227056   2.8348746  59.7018469  57.9109660
   2.6373145  59.1087829  57.1860726   2.2795410  59.3970679  58.6285599
  10.8145469  59.5941575  60.0304253  10.8694079  58.6415411  59.9546730
  10.0036671  59.7501014  60.5145551  11.9636663  63.5221698  51.2682536
  11.5256093  62.8057557  50.8088174  12.7047104  63.7497813  50.7067628
   8.7537829  58.2118635  57.7894632   7.9405695  58.5112805  58.1959824
   9.2496823  57.8174324  58.5069114  10.9046407  68.2076392  59.7228897
  10.8622586  68.4337238  58.7937429  11.8209106  67.9739766  59.8714698
  14.3512041  58.6760459  66.6209526  14.7061429  58.9031932  67.4803992
  14.9984172  59.0078836  65.9986781  20.0809778  61.7978895  57.3258855
  19.9427676  61.9880491  56.3980044  19.7245997  62.5598278  57.7826906
   8.2451904  55.7836990  63.4055867   8.8851283  55.6425749  62.7078830
   7.4129434  55.4971504  63.0294469  20.1079157  63.8655422  62.3370126
  20.5415664  63.7730711  63.1853180  20.8210738  63.8412923  61.6990142
   9.0212208  65.0839421  59.5190859   9.8152806  64.5889741  59.3173434
   8.3103900  64.5557284  59.1558565  13.8407052  67.4657516  63.8703227
  13.8944075  68.0348453  64.6380943  12.9721834  67.6359401  63.5057264
   5.3294971  59.2282502  55.5950612   4.3992559  59.1666958  55.8120574
   5.4252443  58.7058455  54.7987253   5.2480520  55.7537315  58.1828854
   5.5087338  56.6682649  58.0738014   6.0697693  55.2861758  58.3325466
   6.7205446  57.1675072  65.3527678   7.3928499  56.9592435  64.7040327
   5.8935232  56.9697158  64.9132910  20.9694707  63.9079123  64.8703012
  21.1630597  64.8124933  65.1162287  20.8695325  63.4486542  65.7041597
  12.6231018  53.7937013  67.3693339  11.9758933  54.4926963  67.2757815
  13.3932033  54.2273157  67.7369587  16.0309816  64.0585866  70.4443892
  15.8795322  63.8296417  69.5273976  16.0214495  65.0156467  70.4575237
  12.7995152  61.6317778  65.4290159  13.7287212  61.7828938  65.2559126
  12.3786182  61.7201799  64.5738805  11.5983484  65.6568443  63.1988696
  11.4594570  65.2887227  64.0714634  10.8098080  66.1716082  63.0272654
  12.1931636  70.7577539  54.5414233  12.3683391  70.2865582  55.3559856
  11.5064424  71.3843305  54.7695494  13.1488699  65.0350045  60.5877534
  12.8138532  64.9950815  61.4835184  12.6492645  64.3694761  60.1147944
   7.1232943  60.4417675  66.1130115   6.9852741  59.7097914  66.7141654
   8.0337866  60.3526576  65.8314303  16.0847891  62.3806080  50.8614594
  15.4677061  61.6552908  50.7647646  15.6164379  63.1415440  50.5181668
   9.7515244  60.1537635  65.6013795  10.4614862  59.5130827  65.5600413
   9.7084552  60.4050530  66.5239976  17.7402022  67.0904988  68.5220374
  17.6814568  66.4064208  67.8550957  18.1421541  67.8323978  68.0701000
   8.4644178  57.1402853  67.4209434   7.9281535  56.6893591  68.0731031
   7.8760886  57.2748762  66.6779899   6.7592721  73.9066902  61.3154093
   6.9989319  74.5385426  61.9933112   5.9161918  73.5554942  61.6019452
   7.8746437  56.5991504  49.9835898   6.9975903  56.4780305  49.6198145
   8.3504190  55.8077582  49.7314787  17.7419430  65.0544572  66.7534354
  16.8546208  64.7170494  66.8760753  18.3117981  64.3227603  66.9903119
   4.1983299  56.2758860  64.5062429   4.1141488  55.6684530  63.7712839
   3.3766005  56.7667879  64.5071925  11.2720583  69.7146024  63.7195597
  11.1990754  70.5200996  64.2314902  10.8297976  69.9137990  62.8943618
  11.0610363  68.9517794  57.2298419  10.2777884  69.4939475  57.3236643
  11.7603108  69.4691774  57.6292660  14.3707013  54.7612424  59.8732624
  14.8675712  54.0082386  59.5533694  13.5993994  54.7976741  59.3075833
  22.2236770  60.4652789  61.5150915  22.2126646  61.3477505  61.1444849
  21.3554150  60.1124340  61.3205453  13.7319266  69.6132858  65.8753756
  14.4447239  70.2480323  65.8029657  13.2409295  69.7096724  65.0593758
  15.4536793  63.5184111  57.4471047  14.5193072  63.6385574  57.2775752
  15.6313462  62.6156578  57.1831057  10.9541981  56.9029807  59.6004309
  10.5839769  56.3500847  60.2885214  11.4501074  56.2987940  59.0479309
  18.8409345  59.3601430  57.9821082  19.3069797  60.1929422  57.9081384
  19.2916845  58.8946412  58.6866340   8.7831180  67.3627302  66.6959327
   9.4840639  67.9963785  66.8488721   8.3126295  67.7042033  65.9354966
  16.9085576  65.7045252  54.9807234  17.1845420  65.5901846  55.8901108
  16.0390075  65.3062737  54.9419407  16.8126007  51.7282017  62.0211983
  15.8989087  51.9586244  62.1894190  17.2419109  51.8120461  62.8726015
  16.5832466  59.9171909  64.5211877  15.9303916  60.1647817  63.8664330
  16.9612846  59.1036048  64.1874354  13.5439640  69.9531603  58.6240047
  13.7262034  69.1353258  59.0867800  14.3672626  70.1699295  58.1864937
  13.8781805  68.8799788  55.8855096  14.4069572  68.3692242  55.2725258
  14.1410025  68.5642318  56.7500629  12.6320039  60.6591720  71.0077914
  11.9560676  60.5585850  71.6780289  13.4547673  60.5030934  71.4713911
   4.3798898  66.8963657  63.6290429   4.9652335  66.1507345  63.7618333
   4.1823737  67.2067614  64.5127093   7.2337553  69.9314904  58.6452872
   6.5647929  70.4161032  58.1616912   7.0950423  70.1784125  59.5596250
  11.3742822  71.9658648  65.2435530  11.9261130  72.1290269  66.0084615
  11.7149015  72.5563086  64.5715555   6.3507315  54.3133798  65.8457415
   6.4148642  55.1748629  65.4334812   6.2874435  53.7007799  65.1129773
   5.8259588  56.3856930  69.4930449   6.4531626  56.0034008  70.1067973
   4.9687506  56.1671132  69.8586141  16.2253696  66.7919905  71.0984184
  16.7693600  67.4049864  70.6039139  15.6440541  67.3499484  71.6151197
   2.6025130  58.1933359  55.4248804   2.8978571  57.2844038  55.3715857
   1.7013166  58.1721099  55.1029806  14.5111209  69.9140623  62.2299212
  14.3862349  69.1130363  61.7210158  15.1690300  70.4086817  61.7413182
   6.1319377  56.2689356  61.4076352   5.4105963  56.8825324  61.2683826
   6.9212633  56.8047121  61.3292998  16.5746118  67.7149643  63.8578762
  15.6276453  67.5954995  63.7857089  16.9228891  66.8272142  63.9405024
   8.9345691  53.6043782  67.6817004   9.4580093  53.8506079  68.4443313
   8.7158024  54.4363817  67.2620141   4.3312972  55.8747457  55.5488129
   4.0025678  54.9944836  55.3663235   4.6852343  55.8195126  56.4364518
  13.5792551  67.5102360  60.0583114  13.4317513  66.5819067  60.2390684
  14.4046044  67.5322450  59.5740190   7.4454795  56.1620427  55.9163607
   7.7850868  56.6906348  55.1942215   7.8926916  56.5000833  56.6922173
  17.1826673  68.3330918  61.1447987  18.1073220  68.1273780  61.0072438
  17.0141976  68.0847320  62.0537329  10.1398236  54.5457478  65.3666675
   9.7995056  53.7465291  65.7687355   9.4337242  54.8459188  64.7943508
  10.7914708  51.6306790  63.8193998  11.6140777  51.1567268  63.6972888
  11.0352771  52.4097274  64.3192684   9.4322942  54.6595048  54.1156899
  10.1531305  55.0376301  53.6120616   8.8088246  55.3783925  54.2191877
  13.5754065  55.3640197  55.0515232  13.7917680  56.2464835  54.7504060
  13.0948132  54.9726411  54.3220874   8.3153287  58.3225911  61.6285976
   8.1697867  58.6366214  62.5210258   7.8378490  58.9410811  61.0756875
  10.1749669  55.3128459  61.6766866  10.1611238  54.4169552  61.3399164
  10.8922098  55.3199122  62.3105152  12.0275800  55.7465799  63.7219993
  11.7693578  56.6682869  63.7204324  11.4960840  55.3496233  64.4120457
  16.9721989  68.8516586  56.5010079  17.1458866  68.2863008  55.7483931
  17.4650880  69.6517481  56.3189569   2.7898949  60.8631255  64.5673637
   2.2452417  61.6391063  64.6993912   3.6678299  61.2102059  64.4092759
   9.5786565  54.1942839  56.9454436   9.7002477  53.2659485  57.1445323
   9.2888608  54.2081525  56.0332751  12.4477756  51.8797749  60.0821156
  12.4699453  51.9437082  59.1273135  12.8645815  51.0402258  60.2761662
  22.8261380  61.6153009  58.1200378  23.2692526  60.8660334  57.7219502
  21.9487890  61.6063145  57.7374110  17.9597161  68.1683350  53.6006977
  18.6548066  68.7890043  53.8194292  18.3020312  67.3178702  53.8759355
   3.5764971  59.9901151  67.4603794   2.8346707  60.1383787  68.0468425
   3.2557715  60.2509417  66.5970544  19.8588584  65.6183056  55.1294308
  20.3839909  65.9570329  54.4043628  19.7710937  64.6830071  54.9457442
  11.5208633  69.5317129  67.2584184  11.8295760  69.2866276  68.1306884
  12.3184115  69.7363768  66.7703055  11.5429245  71.6855039  59.4889561
  11.1034236  71.1931418  60.1822418  12.2937362  71.1428007  59.2481636
   4.0221584  67.8766580  59.4914189   4.8479604  67.5770352  59.1112832
   3.6715636  67.1074202  59.9403978   8.9903117  67.2293048  61.5611863
   8.3683127  66.5663753  61.2614090   9.6607984  67.2554180  60.8785510
   2.2230189  65.7952906  60.4503123   1.3862098  65.3675081  60.2687124
   2.1953835  65.9885350  61.3873914   9.0627645  55.7074836  71.1544369
   9.1115800  56.5836959  70.7722138   9.6050159  55.1652229  70.5816012
  19.5482491  66.2515959  70.4345506  18.7578034  66.2340098  69.8950005
  19.3115845  66.7904253  71.1894542  19.6680366  63.1008426  67.7478234
  19.7178371  62.9358433  68.6893757  19.5594289  62.2335685  67.3576115
   8.5516624  65.7796972  55.0370323   8.7004745  66.4632436  54.3836996
   9.3583068  65.7602062  55.5519779  16.9584128  59.0839354  69.0637541
  17.8593991  58.9445819  68.7721539  17.0332103  59.2493809  70.0035718
  11.2926933  56.4606209  67.9090727  10.4230243  56.7539775  67.6373316
  11.5286414  57.0446654  68.6297991  21.1698562  65.5205367  67.9920256
  20.8783371  65.8835348  68.8283717  20.5570694  64.8072376  67.8133588
  22.3694245  63.0858247  60.5122826  23.2041136  63.5248051  60.6760386
  22.5053374  62.6096900  59.6931072  19.4185751  60.6437982  66.4600314
  19.8939872  60.8365628  65.6519165  18.4951316  60.6997168  66.2143697
   6.3069257  61.8062149  56.0431392   6.0615299  60.9024479  56.2411602
   6.4765172  61.8079300  55.1010870  13.9965967  52.6785826  65.4256148
  14.5147911  53.4146852  65.1002636  13.6421100  52.9849819  66.2602907
   5.5764905  57.5390507  53.5417553   4.8834150  57.6134862  52.8857589
   5.3316657  56.7750850  54.0639070  14.2478561  49.0986108  60.9457044
  14.5280315  48.4309297  61.5717471  15.0329168  49.2915204  60.4331708
  12.0512030  68.2745102  52.5082071  11.4785997  68.8935289  52.0552542
  12.6244823  68.8244464  53.0421992  18.1187420  57.5203742  64.6928619
  19.0704843  57.6201840  64.7140843  17.9490870  56.7282011  65.2026704
  16.1401799  54.6059325  64.8788020  15.5451731  54.8864338  64.1834509
  15.8551496  55.0953226  65.6504761  15.2709290  68.5582252  53.6390653
  16.2039963  68.4927814  53.8423528  15.1832502  69.3938519  53.1805185
  17.8997306  67.8748122  50.5994600  17.8210938  67.5407986  51.4930358
  18.7206973  68.3669890  50.5986073  20.5975497  60.7409862  63.8070919
  20.5651818  59.8025862  63.9930603  21.2076121  60.8193898  63.0736744
  12.4358828  59.6105915  49.8498123  13.3817933  59.4812123  49.9186541
  12.0573073  58.8720577  50.3267551  20.7469986  57.5320905  63.8529202
  20.2309035  56.7479362  63.6659131  21.6309934  57.2039622  64.0175722
  18.4080713  51.2761921  59.8125015  18.2105534  50.9677009  60.6968347
  19.0180418  52.0023560  59.9422945  26.4152047  61.8025869  62.9476956
  27.1455436  61.5411157  63.5084659  25.8058993  61.0654591  62.9879024
  24.4967344  59.9433731  63.5451407  23.7700508  59.8089696  62.9367899
  24.0814631  60.2510560  64.3508125  12.3197521  63.6623661  71.3098780
  13.2400530  63.8402260  71.5038827  12.2847104  62.7179706  71.1578479
  10.6201745  57.5355891  49.7853008   9.7133201  57.2389004  49.8615722
  10.8977726  57.2385709  48.9187294   1.5379686  58.8562255  60.2352055
   1.2182470  58.0027563  59.9426429   0.9913114  59.0710833  60.9910022
   5.3159593  61.5724696  63.9521561   5.5345603  62.5041803  63.9709595
   5.7285367  61.2132670  64.7376365  12.2363811  52.0792781  55.9397250
  11.4264540  51.7339866  56.3152496  12.9248228  51.7700325  56.5284861
  14.1654359  51.1570828  57.5621546  14.7185398  51.5766281  58.2211569
  14.4024446  50.2306576  57.6044502  10.1887459  57.1457901  73.3424310
  10.0884186  58.0952258  73.2736401   9.9709001  56.8176140  72.4700380
   9.3900530  54.3942826  49.9264987  10.2519694  54.7197725  50.1860805
   9.5750874  53.6074322  49.4138053   1.4067946  62.4765166  62.2045176
   0.7131417  62.0619119  61.6915131   2.1540937  62.5185703  61.6078595
  17.5433167  53.2671353  57.0700210  16.9631836  53.9256157  56.6878263
  17.2769099  52.4448697  56.6587628  15.9936733  52.6676411  59.2721531
  16.4936511  52.7792945  58.4635850  16.6372341  52.3637463  59.9122339
  10.0518729  60.5755040  72.1589372   9.5685810  61.3755400  72.3653261
  10.1379668  60.5862985  71.2056816   3.3204688  62.4083420  60.0811191
   3.2975376  62.5071107  59.1293074   3.6305325  63.2548571  60.4028357
   5.9792066  64.4659575  64.1957806   6.9335320  64.4343517  64.1287737
   5.7804590  64.0050199  65.0108031   6.5691448  63.0360691  66.7628603
   7.3884337  63.5304770  66.7863440   6.8428256  62.1192659  66.7346171
  16.3258045  55.4271443  56.1256559  15.4383900  55.7121094  55.9076753
  16.7412034  55.2665207  55.2783836  19.6772581  55.4517964  59.8410898
  20.4532971  55.9414417  60.1135515  18.9520715  55.8776018  60.2982767
  22.1145139  56.1645583  60.8984839  22.7089630  55.9241319  60.1878147
  22.1871723  55.4452714  61.5258375   4.3342295  70.0079194  61.2128003
   4.1996763  69.2479595  60.6466001   3.9174357  70.7320094  60.7456792
  15.4701258  65.1916118  50.2204579  16.1737108  65.3966120  50.8362234
  14.7463907  65.7592880  50.4853662  16.2999068  60.9425979  56.3406849
  16.2434270  61.3994531  55.5014481  16.8527411  60.1816664  56.1629692
  20.1103874  56.7315711  57.1656968  19.8540808  56.3312347  57.9965176
  19.4856742  57.4459505  57.0407108  24.4216212  59.4711784  59.6728260
  23.8615770  59.5404974  60.4459822  23.8159715  59.2952769  58.9527756
   7.4911421  70.9048511  61.4246446   7.3743805  71.8493944  61.3225136
   6.6703867  70.6022073  61.8132245  17.3787955  65.6298647  52.2703039
  18.2133559  65.1979846  52.0880514  17.2172298  65.4580661  53.1979933
  17.0333848  62.1330760  53.6359378  16.9782651  61.9675032  52.6947822
  16.4079903  62.8406793  53.7921568   1.8226363  57.3698825  67.4620800
   2.4685226  56.8597779  67.9508025   1.6143514  58.1067506  68.0364225
  14.3479755  64.4379672  72.9612941  15.2170914  64.6120325  72.5999576
  13.8686506  65.2574089  72.8388670  10.3429973  51.6338869  53.2144696
  10.3308643  52.5780709  53.3712967  11.2353395  51.4509015  52.9204158
   8.5165935  71.5576773  64.6402374   9.4193182  71.5900383  64.9568869
   8.2903305  70.6277224  64.6548710  10.2719537  70.3107760  61.3012453
   9.3215168  70.3109621  61.1876825  10.5752023  69.5640494  60.7848488
  14.1582093  48.2281646  57.4690633  13.3914488  47.6740133  57.6147316
  14.5692798  48.3003515  58.3304785   6.1623854  54.5166442  71.5595814
   7.0255315  54.1603247  71.7699139   5.5889264  54.1780337  72.2471219
  18.6748753  77.9531203  58.2916631  18.1113618  77.8621140  57.5232919
  18.5601148  77.1331107  58.7719124  16.2213184  79.4482394  61.1300852
  17.0134476  79.1073219  60.7147151  16.4609835  79.5577369  62.0503005
  24.2548311  81.6202170  53.6031096  23.6036291  82.2056251  53.2165110
  25.0492674  82.1508365  53.6626133  18.1803938  78.7091308  54.0018230
  18.9534814  78.1620295  53.8631106  18.5329337  79.5735557  54.2132692
  20.0188981  80.0367690  67.2085130  19.7278847  80.9413321  67.0931796
  20.6545965  80.0784217  67.9229199  20.9445188  77.4144538  63.7986489
  21.5408760  77.1900561  63.0843452  21.0020159  76.6729284  64.4011937
  20.5170216  74.8683974  51.6336680  20.7695737  74.3465495  50.8720143
  19.5794775  74.7050119  51.7363364  25.7323576  79.3092602  54.1400080
  25.0969409  79.3827229  54.8520985  25.4020983  79.8986201  53.4619160
  20.2366505  76.7712080  53.8361055  20.1202763  76.0956983  54.5042140
  20.3468765  76.2844454  53.0193208  22.5798046  76.2322227  57.5407744
  22.2156253  75.7052848  58.2520666  23.4365162  75.8420696  57.3674230
  22.2203533  71.2612126  52.5369093  22.3877935  72.1292363  52.9039564
  22.0300702  71.4239408  51.6130382  24.9778866  79.7229105  64.2034923
  24.6779589  80.6254144  64.0950731  24.6329926  79.4561289  65.0556076
  18.4291348  76.1742902  60.2371628  17.5041844  76.0419116  60.4449320
  18.6775761  76.9537121  60.7341570  22.1992754  73.7169784  53.5215760
  22.0792379  74.1626835  54.3601240  21.5045342  74.0655102  52.9629298
  15.7900159  75.8176176  61.0715417  15.9192540  76.0710655  61.9854829
  15.1097610  76.4103884  60.7520072  19.9599646  86.4873426  57.1705891
  19.8823676  87.4381251  57.2494372  19.3561289  86.1419298  57.8280817
  27.8977820  74.1891257  54.3496094  28.8095676  74.4218644  54.1743791
  27.3887467  74.7728301  53.7871172  20.7063248  76.4686744  69.3885225
  21.4477932  77.0071788  69.1120049  20.0000233  77.0953033  69.5456777
  26.5047402  79.1717076  61.7409675  25.8756265  79.3362790  61.0385743
  26.1173064  79.5858685  62.5120639  30.3836634  80.1071513  59.0954039
  29.6987672  80.4870415  58.5451072  30.4680483  80.7166840  59.8285987
  22.0575364  78.9091484  59.0059760  22.5213710  79.1879187  58.2164383
  21.7932162  78.0074928  58.8232851  18.9499445  78.4562965  61.9439524
  19.5200802  78.8850234  61.3057008  19.5407557  78.1745550  62.6423709
  20.9944250  75.0314636  55.8149326  21.6968293  75.4835680  56.2823252
  20.6624879  74.3898455  56.4429219  19.4424612  73.6226393  70.1900535
  18.8123272  74.3042673  70.4235932  19.3360700  73.5109474  69.2453673
  14.7369584  73.2898189  61.1166459  13.9468638  73.5455717  60.6406570
  15.2280831  74.1046527  61.2218500  28.7533394  80.6303428  63.8671740
  29.5750837  80.2283615  63.5854422  28.7495797  80.5271662  64.8187856
  16.6884329  73.6542768  58.0749936  15.8915493  73.7661462  58.5933432
  16.4609922  73.9929420  57.2090826  22.5189997  80.1787471  66.0232450
  22.5834430  80.6407878  66.8590622  21.8100921  79.5484836  66.1514760
  13.0207287  73.5428679  63.5481450  13.2715326  74.4275689  63.8139026
  13.5566835  73.3633281  62.7756542  22.2338015  81.8455579  55.8911431
  22.0983690  82.6907114  56.3196279  22.7747827  82.0474856  55.1277365
  18.7205354  67.9247158  72.5525786  18.3272300  67.3713357  73.2273430
  19.5371495  68.2357737  72.9432304  15.6867412  79.3631017  56.4639356
  16.1991933  80.1574267  56.6144921  16.3390125  78.6657307  56.3972957
  17.4962297  82.4796773  58.5462109  17.6728925  83.4014738  58.3583093
  18.2919130  82.1655192  58.9756489  21.6373315  69.3405038  70.1446043
  22.3783029  69.9412191  70.0650505  21.8691238  68.5982675  69.5864085
  16.7814653  74.5261405  68.4224272  16.6668169  73.6246662  68.7231371
  15.9259171  74.7725102  68.0709089  23.8606491  82.4679145  70.0211773
  23.4170345  81.6815524  69.7032677  24.5223705  82.6558296  69.3555664
  18.6193612  83.9974947  64.5472451  19.1701037  83.8692010  63.7749445
  17.7805088  84.2969836  64.1967344  25.9587729  82.7481945  68.0493174
  25.9406205  83.5690826  67.5573443  26.8807649  82.6236020  68.2743315
  22.4160783  80.2626075  68.8916682  22.9489120  79.5014363  68.6615990
  21.8874864  79.9699726  69.6340837  13.6516329  77.6919671  57.2398926
  14.4891551  78.1016679  57.0232634  13.8294597  76.7519113  57.2099120
  25.5480761  75.3594752  52.9282759  25.0327384  76.1299356  53.1671147
  25.2758069  74.6859888  53.5515821  23.1327872  70.2044452  57.9867998
  22.2769468  69.8151303  57.8073636  23.5454824  70.2836413  57.1267783
  20.9069905  67.8229525  61.3925739  21.7722901  67.6272334  61.0331629
  20.9747414  67.5939877  62.3195096  30.5215035  78.1127106  54.8635933
  29.7444478  77.7738266  54.4191095  31.2006516  78.1179729  54.1890898
  25.3367064  73.2321844  54.7542541  25.0317200  73.5467993  55.6052684
  26.2897506  73.3103264  54.7969874  23.7813496  79.3912067  56.4035495
  23.2534858  78.6564827  56.0908732  23.2800999  80.1686743  56.1575463
  18.5132224  70.0531733  58.7642106  19.0875976  69.8306915  58.0315299
  19.1003206  70.1220428  59.5170707  18.8401811  72.0836194  52.7837991
  18.0039123  72.4210881  53.1047266  18.7006580  71.9485174  51.8465128
  20.8154891  66.9272982  57.4917175  20.1619304  66.6121999  56.8673790
  20.7735366  66.3048723  58.2176998  21.9266096  77.2092277  49.4070468
  21.0193158  76.9781531  49.6061617  22.4237128  76.4129897  49.5944449
  24.8334175  85.9189784  52.3267154  24.1595874  86.2221481  52.9352112
  25.2199997  86.7218865  51.9772611  23.1054330  77.3104872  53.9294458
  22.1965549  77.0263905  54.0266927  23.1349413  77.7303951  53.0697764
  28.3373597  80.9211462  57.6985625  27.8835924  80.0802372  57.7550816
  27.7067564  81.5572860  58.0360405  26.7806536  82.7587958  58.6335443
  27.0729511  83.3193015  57.9147809  27.2905157  83.0516519  59.3888602
  27.3818144  64.6279700  59.5228062  27.6877021  63.7677063  59.2353977
  28.1070749  65.2197320  59.3227056  13.6742500  75.0310386  57.9109660
  13.4766900  74.4379747  57.1860726  13.1189164  74.7262596  58.6285599
  22.8030417  78.8513616  51.2682536  22.3649847  78.1349475  50.8088174
  23.5440858  79.0789731  50.7067628  19.5931584  73.5410552  57.7894632
  18.7799449  73.8404723  58.1959824  20.0890578  73.1466241  58.5069114
  21.7440162  83.5368309  59.7228897  21.7016340  83.7629156  58.7937429
  22.6602860  83.3031684  59.8714698  30.9203532  77.1270813  57.3258855
  30.7821431  77.3172409  56.3980044  30.5639751  77.8890196  57.7826906
  19.0845658  71.1128908  63.4055867  19.7245038  70.9717667  62.7078830
  18.2523189  70.8263421  63.0294469  19.8605962  80.4131338  59.5190859
  20.6546561  79.9181659  59.3173434  19.1497655  79.8849202  59.1558565
  24.6800807  82.7949434  63.8703227  24.7337829  83.3640370  64.6380943
  23.8115588  82.9651319  63.5057264  16.1688726  74.5574420  55.5950612
  15.2386314  74.4958876  55.8120574  16.2646198  74.0350373  54.7987253
  16.0874275  71.0829233  58.1828854  16.3481092  71.9974566  58.0738014
  16.9091447  70.6153676  58.3325466  17.5599200  72.4966990  65.3527678
  18.2322254  72.2884352  64.7040327  16.7328987  72.2989076  64.9132910
  22.4377238  80.9860360  63.1988696  22.2988324  80.6179145  64.0714634
  21.6491835  81.5008000  63.0272654  23.0325390  86.0869457  54.5414233
  23.2077146  85.6157500  55.3559856  22.3458178  86.7135223  54.7695494
  23.9882453  80.3641963  60.5877534  23.6532286  80.3242733  61.4835184
  23.4886399  79.6986679  60.1147944  17.9626697  75.7709593  66.1130115
  17.8246495  75.0389832  66.7141654  18.8731621  75.6818493  65.8314303
  26.9241645  77.7097997  50.8614594  26.3070816  76.9844826  50.7647646
  26.4558134  78.4707358  50.5181668  28.5795777  82.4196906  68.5220374
  28.5208323  81.7356126  67.8550957  28.9815295  83.1615896  68.0701000
  17.5986476  89.2358820  61.3154093  17.8383074  89.8677344  61.9933112
  16.7555672  88.8846860  61.6019452  18.7140191  71.9283422  49.9835898
  17.8369657  71.8072223  49.6198145  19.1897944  71.1369500  49.7314787
  28.5813184  80.3836490  66.7534354  27.6939963  80.0462412  66.8760753
  29.1511735  79.6519521  66.9903119  10.2342331  76.7160581  60.0777405
  10.9213371  76.4022312  59.4898421  10.0790460  77.6201946  59.8044657
  15.0377053  71.6050778  64.5062429  14.9535242  70.9976448  63.7712839
  14.2159760  72.0959796  64.5071925  22.1114337  85.0437942  63.7195597
  22.0384509  85.8492914  64.2314902  21.6691731  85.2429908  62.8943618
  21.9004117  84.2809712  57.2298419  21.1171639  84.8231392  57.3236643
  22.5996862  84.7983692  57.6292660  24.5713021  84.9424776  65.8753756
  25.2840993  85.5772241  65.8029657  24.0803050  85.0388642  65.0593758
  26.2930548  78.8476029  57.4471047  25.3586827  78.9677491  57.2775752
  26.4707216  77.9448496  57.1831057  19.6224934  82.6919220  66.6959327
  20.3234394  83.3255703  66.8488721  19.1520049  83.0333951  65.9354966
  27.7479330  81.0337169  54.9807234  28.0239174  80.9193764  55.8901108
  26.8783829  80.6354654  54.9419407  24.3833394  85.2823520  58.6240047
  24.5655789  84.4645176  59.0867800  25.2066380  85.4991212  58.1864937
  24.7175560  84.2091705  55.8855096  25.2463326  83.6984160  55.2725258
  24.9803779  83.8934236  56.7500629  15.2192653  82.2255575  63.6290429
  15.8046089  81.4799263  63.7618333  15.0217491  82.5359531  64.5127093
  18.0731308  85.2606822  58.6452872  17.4041683  85.7452950  58.1616912
  17.9344177  85.5076042  59.5596250   9.8110307  74.7961175  62.3494872
   9.8494407  74.2624766  63.1431990   9.3050600  74.2696380  61.7305850
  22.2136576  87.2950566  65.2435530  22.7654884  87.4582187  66.0084615
  22.5542770  87.8855003  64.5715555  17.1901070  69.6425715  65.8457415
  17.2542396  70.5040546  65.4334812  17.1268190  69.0299717  65.1129773
  16.6653342  71.7148848  69.4930449  17.2925381  71.3325925  70.1067973
  15.8081261  71.4963050  69.8586141  27.0647451  82.1211823  71.0984184
  27.6087355  82.7341781  70.6039139  26.4834296  82.6791401  71.6151197
  13.4418885  73.5225277  55.4248804  13.7372326  72.6135955  55.3715857
  12.5406921  73.5013016  55.1029806  25.3504964  85.2432541  62.2299212
  25.2256103  84.4422281  61.7210158  26.0084055  85.7378734  61.7413182
  16.9713132  71.5981274  61.4076352  16.2499718  72.2117241  61.2683826
  17.7606388  72.1339038  61.3292998  27.4139872  83.0441561  63.8578762
  26.4670208  82.9246912  63.7857089  27.7622645  82.1564059  63.9405024
  19.7739445  68.9335700  67.6817004  20.2973847  69.1797997  68.4443313
  19.5551779  69.7655735  67.2620141  15.1706726  71.2039375  55.5488129
  14.8419433  70.3236754  55.3663235  15.5246097  71.1487043  56.4364518
  24.4186305  82.8394277  60.0583114  24.2711268  81.9110985  60.2390684
  25.2439799  82.8614368  59.5740190  18.2848550  71.4912344  55.9163607
  18.6244622  72.0198266  55.1942215  18.7320670  71.8292751  56.6922173
  28.0220427  83.6622836  61.1447987  28.9466975  83.4565697  61.0072438
  27.8535731  83.4139237  62.0537329  21.6308462  66.9598708  63.8193998
  22.4534532  66.4859186  63.6972888  21.8746526  67.7389191  64.3192684
  20.2716697  69.9886966  54.1156899  20.9925059  70.3668219  53.6120616
  19.6482001  70.7075843  54.2191877  24.4147820  70.6932115  55.0515232
  24.6311434  71.5756753  54.7504060  23.9341887  70.3018328  54.3220874
  19.1547041  73.6517828  61.6285976  19.0091622  73.9658131  62.5210258
  18.6772245  74.2702729  61.0756875  21.0143424  70.6420376  61.6766866
  21.0004993  69.7461470  61.3399164  21.7315852  70.6491040  62.3105152
  27.8115743  84.1808504  56.5010079  27.9852621  83.6154926  55.7483931
  28.3044635  84.9809398  56.3189569  13.6292703  76.1923173  64.5673637
  13.0846171  76.9682981  64.6993912  14.5072053  76.5393977  64.4092759
  20.4180320  69.5234757  56.9454436  20.5396231  68.5951403  57.1445323
  20.1282362  69.5373442  56.0332751  23.2871510  67.2089667  60.0821156
  23.3093207  67.2729000  59.1273135  23.7039569  66.3694176  60.2761662
  33.6655135  76.9444927  58.1200378  34.1086281  76.1952252  57.7219502
  32.7881645  76.9355063  57.7374110  28.7990916  83.4975268  53.6006977
  29.4941820  84.1181961  53.8194292  29.1414066  82.6470619  53.8759355
  14.4158725  75.3193069  67.4603794  13.6740461  75.4675704  68.0468425
  14.0951469  75.5801335  66.5970544  30.6982339  80.9474973  55.1294308
  31.2233663  81.2862246  54.4043628  30.6104692  80.0121989  54.9457442
  22.3602388  84.8609047  67.2584184  22.6689514  84.6158194  68.1306884
  23.1577870  85.0655686  66.7703055  22.3823000  87.0146957  59.4889561
  21.9427990  86.5223335  60.1822418  23.1331117  86.4719924  59.2481636
  14.8615339  83.2058498  59.4914189  15.6873359  82.9062269  59.1112832
  14.5109391  82.4366120  59.9403978  19.8296872  82.5584966  61.5611863
  19.2076881  81.8955671  61.2614090  20.5001739  82.5846098  60.8785510
  13.0623944  81.1244824  60.4503123  12.2255852  80.6966998  60.2687124
  13.0347589  81.3177267  61.3873914  19.9021399  71.0366754  71.1544369
  19.9509555  71.9128877  70.7722138  20.4443914  70.4944147  70.5816012
  30.3876245  81.5807877  70.4345506  29.5971789  81.5632016  69.8950005
  30.1509600  82.1196171  71.1894542  19.3910379  81.1088889  55.0370323
  19.5398499  81.7924354  54.3836996  20.1976822  81.0893979  55.5519779
  32.0092317  80.8497285  67.9920256  31.7177125  81.2127266  68.8283717
  31.3964448  80.1364293  67.8133588  33.2087999  78.4150165  60.5122826
  34.0434891  78.8539969  60.6760386  33.3447128  77.9388818  59.6931072
  17.1463012  77.1354067  56.0431392  16.9009054  76.2316397  56.2411602
  17.3158926  77.1371217  55.1010870  16.4158659  72.8682424  53.5417553
  15.7227904  72.9426779  52.8857589  16.1710411  72.1042768  54.0639070
  25.0872316  64.4278026  60.9457044  25.3674070  63.7601215  61.5717471
  25.8722923  64.6207121  60.4331708  22.8905784  83.6037020  52.5082071
  22.3179751  84.2227207  52.0552542  23.4638578  84.1536381  53.0421992
  26.1103044  83.8874170  53.6390653  27.0433717  83.8219731  53.8423528
  26.0226257  84.7230437  53.1805185  28.7391061  83.2040040  50.5994600
  28.6604692  82.8699904  51.4930358  29.5600728  83.6961808  50.5986073
  23.2752583  74.9397832  49.8498123  24.2211688  74.8104041  49.9186541
  22.8966828  74.2012494  50.3267551  29.2474467  66.6053838  59.8125015
  29.0499288  66.2968927  60.6968347  29.8574173  67.3315477  59.9422945
  23.1591275  78.9915579  71.3098780  24.0794285  79.1694178  71.5038827
  23.1240858  78.0471624  71.1578479  21.4595500  72.8647809  49.7853008
  20.5526955  72.5680922  49.8615722  21.7371481  72.5677627  48.9187294
  12.3773440  74.1854172  60.2352055  12.0576225  73.3319480  59.9426429
  11.8306869  74.4002750  60.9910022  16.1553348  76.9016613  63.9521561
  16.3739358  77.8333721  63.9709595  16.5679122  76.5424588  64.7376365
  23.0757566  67.4084699  55.9397250  22.2658294  67.0631783  56.3152496
  23.7641983  67.0992242  56.5284861  25.0048114  66.4862745  57.5621546
  25.5579153  66.9058199  58.2211569  25.2418200  65.5598493  57.6044502
  21.0281213  72.4749819  73.3424310  20.9277940  73.4244176  73.2736401
  20.8102755  72.1468058  72.4700380  20.2294285  69.7234744  49.9264987
  21.0913449  70.0489642  50.1860805  20.4144629  68.9366240  49.4138053
  12.2461700  77.8057084  62.2045176  11.5525172  77.3911036  61.6915131
  12.9934691  77.8477620  61.6078595  26.8330487  67.9968328  59.2721531
  27.3330266  68.1084863  58.4635850  27.4766095  67.6929381  59.9122339
  20.8912483  75.9046958  72.1589372  20.4079565  76.7047318  72.3653261
  20.9773422  75.9154903  71.2056816  14.1598443  77.7375337  60.0811191
  14.1369131  77.8363025  59.1293074  14.4699079  78.5840488  60.4028357
  16.8185821  79.7951492  64.1957806  17.7729074  79.7635435  64.1287737
  16.6198344  79.3342116  65.0108031  17.4085203  78.3652609  66.7628603
  18.2278092  78.8596687  66.7863440  17.6822011  77.4484577  66.7346171
  27.1651799  70.7563361  56.1256559  26.2777654  71.0413011  55.9076753
  27.5805788  70.5957124  55.2783836  15.1736050  85.3371112  61.2128003
  15.0390517  84.5771513  60.6466001  14.7568112  86.0612012  60.7456792
  26.3095013  80.5208036  50.2204579  27.0130863  80.7258038  50.8362234
  25.5857661  81.0884797  50.4853662  27.1392823  76.2717897  56.3406849
  27.0828024  76.7286448  55.5014481  27.6921165  75.5108581  56.1629692
  35.2609967  74.8003702  59.6728260  34.7009525  74.8696891  60.4459822
  34.6553470  74.6244687  58.9527756  18.3305175  86.2340429  61.4246446
  18.2137560  87.1785861  61.3225136  17.5097622  85.9313991  61.8132245
  28.2181710  80.9590565  52.2703039  29.0527314  80.5271763  52.0880514
  28.0566053  80.7872578  53.1979933  27.8727602  77.4622678  53.6359378
  27.8176406  77.2966949  52.6947822  27.2473657  78.1698711  53.7921568
  12.6620117  72.6990742  67.4620800  13.3078981  72.1889696  67.9508025
  12.4537268  73.4359424  68.0364225  25.1873509  79.7671590  72.9612941
  26.0564669  79.9412242  72.5999576  24.7080261  80.5866007  72.8388670
  21.1823728  66.9630787  53.2144696  21.1702397  67.9072627  53.3712967
  22.0747149  66.7800932  52.9204158  19.3559690  86.8868691  64.6402374
  20.2586936  86.9192301  64.9568869  19.1297060  85.9569142  64.6548710
  21.1113292  85.6399677  61.3012453  20.1608923  85.6401539  61.1876825
  21.4145778  84.8932412  60.7848488  24.9975847  63.5573564  57.4690633
  24.2308243  63.0032050  57.6147316  25.4086552  63.6295432  58.3304785
  17.0017608  69.8458359  71.5595814  17.8649070  69.4895164  71.7699139
  16.4283019  69.5072254  72.2471219  36.8465985  91.4760216  62.3658215
  37.4844395  91.3566963  61.6621556  36.7286828  92.4241060  62.4246168
  33.6555691  91.4287644  62.3019740  33.3174203  91.3128709  61.4140275
  34.5245460  91.0278809  62.2820746  29.5142507  93.2823120  58.2916631
  28.9507372  93.1913057  57.5232919  29.3994902  92.4623025  58.7719124
  34.1375474  92.5822496  68.2605946  34.1264115  92.1875294  67.3886449
  34.2996114  91.8488568  68.8539717  27.0606939  94.7774312  61.1300852
  27.8528231  94.4365137  60.7147151  27.3003589  94.8869287  62.0503005
  35.0942066  96.9494088  53.6031096  34.4430045  97.5348168  53.2165110
  35.8886429  97.4800283  53.6626133  29.0197693  94.0383225  54.0018230
  29.7928569  93.4912212  53.8631106  29.3723092  94.9027475  54.2132692
  30.8582735  95.3659607  67.2085130  30.5672601  96.2705238  67.0931796
  31.4939720  95.4076135  67.9229199  31.7838942  92.7436456  63.7986489
  32.3802515  92.5192478  63.0843452  31.8413914  92.0021201  64.4011937
  31.3563971  90.1975891  51.6336680  31.6089491  89.6757413  50.8720143
  30.4188530  90.0342037  51.7363364  36.4007254  89.2011670  59.4411424
  37.1870343  88.7831093  59.0901841  36.6645958  90.1057762  59.6093072
  36.5717331  94.6384520  54.1400080  35.9363164  94.7119147  54.8520985
  36.2414737  95.2278119  53.4619160  41.8015681  89.1386903  60.3444402
  42.5340853  88.5686120  60.5782232  41.0455036  88.7508503  60.7850908
  31.0760259  92.1003997  53.8361055  30.9596518  91.4248901  54.5042140
  31.1862519  91.6136371  53.0193208  33.4191800  91.5614144  57.5407744
  33.0550008  91.0344765  58.2520666  34.2758916  91.1712613  57.3674230
  33.0597287  86.5904044  52.5369093  33.2271690  87.4584280  52.9039564
  32.8694456  86.7531326  51.6130382  35.8172621  95.0521023  64.2034923
  35.5173344  95.9546062  64.0950731  35.4723680  94.7853206  65.0556076
  29.2685102  91.5034820  60.2371628  28.3435598  91.3711034  60.4449320
  29.5169515  92.2829039  60.7341570  39.2169764  87.5703563  61.8832361
  38.3086642  87.5018972  61.5891122  39.1657360  88.0475508  62.7114186
  33.0386508  89.0461702  53.5215760  32.9186133  89.4918752  54.3601240
  32.3439097  89.3947019  52.9629298  26.6293913  91.1468093  61.0715417
  26.7586294  91.4002572  61.9854829  25.9491364  91.7395801  60.7520072
  30.7993400 101.8165343  57.1705891  30.7217430 102.7673168  57.2494372
  30.1955044 101.4711216  57.8280817  33.2910630  88.9893209  69.8267258
  32.5143964  89.5487129  69.8170123  33.9301193  89.4749992  70.3482128
  41.0831411  85.7720002  63.6610235  40.4405791  86.0652535  63.0150029
  40.5786339  85.6572922  64.4663431  38.7371574  89.5183175  54.3496094
  39.6489431  89.7510562  54.1743791  38.2281221  90.1020219  53.7871172
  31.5457002  91.7978662  69.3885225  32.2871687  92.3363706  69.1120049
  30.8393988  92.4244951  69.5456777  37.0212342  93.9407803  67.9857386
  37.4295698  93.4990213  67.2412019  36.2989604  93.3660430  68.2391579
  33.3743412  88.8780409  65.3590943  34.2204607  89.3019823  65.5025592
  33.3142050  88.2214034  66.0529507  37.3441157  94.5008993  61.7409675
  36.7150019  94.6654707  61.0385743  36.9566819  94.9150603  62.5120639
  41.2230389  95.4363431  59.0954039  40.5381427  95.8162332  58.5451072
  41.3074238  96.0458758  59.8285987  36.5242857  86.5384778  67.0172117
  36.2803789  87.2926838  66.4806393  36.8002788  86.9170125  67.8519364
  38.4781320  93.0823390  65.6949383  38.6898215  93.7255150  65.0183764
  38.4311068  92.2485707  65.2271313  36.0807549  85.6941211  62.5985955
  35.2192028  85.9922464  62.8902692  36.1069984  85.9111610  61.6666987
  32.8969119  94.2383401  59.0059760  33.3607464  94.5171104  58.2164383
  32.6325917  93.3366846  58.8232851  29.7893200  93.7854883  61.9439524
  30.3594557  94.2142151  61.3057008  30.3801311  93.5037468  62.6423709
  31.8338005  90.3606554  55.8149326  32.5362048  90.8127597  56.2823252
  31.5018633  89.7190373  56.4429219  30.2818366  88.9518310  70.1900535
  29.6517027  89.6334591  70.4235932  30.1754454  88.8401392  69.2453673
  25.5763339  88.6190106  61.1166459  24.7862393  88.8747635  60.6406570
  26.0674586  89.4338444  61.2218500  39.5927148  95.9595346  63.8671740
  40.4144592  95.5575533  63.5854422  39.5889551  95.8563580  64.8187856
  27.5278084  88.9834686  58.0749936  26.7309247  89.0953380  58.5933432
  27.3003676  89.3221338  57.2090826  33.3583752  95.5079389  66.0232450
  33.4228184  95.9699796  66.8590622  32.6494675  94.8776754  66.1514760
  23.8601042  88.8720597  63.5481450  24.1109080  89.7567607  63.8139026
  24.3960590  88.6925198  62.7756542  47.6833141  92.3034094  60.2156711
  46.9296850  91.7341492  60.0600716  47.8180682  92.2696758  61.1627346
  33.0731769  97.1747496  55.8911431  32.9377444  98.0199032  56.3196279
  33.6141582  97.3766774  55.1277365  29.5599109  83.2539076  72.5525786
  29.1666054  82.7005275  73.2273430  30.3765249  83.5649655  72.9432304
  26.5261167  94.6922934  56.4639356  27.0385687  95.4866185  56.6144921
  27.1783879  93.9949225  56.3972957  28.3356051  97.8088691  58.5462109
  28.5122680  98.7306655  58.3583093  29.1312885  97.4947110  58.9756489
  32.4767070  84.6696955  70.1446043  33.2176783  85.2704108  70.0650505
  32.7084993  83.9274593  69.5864085  27.6208408  89.8553322  68.4224272
  27.5061923  88.9538580  68.7231371  26.7652926  90.1017019  68.0709089
  34.7000246  97.7971063  70.0211773  34.2564100  97.0107441  69.7032677
  35.3617459  97.9850213  69.3555664  29.4587367  99.3266864  64.5472451
  30.0094792  99.1983928  63.7749445  28.6198843  99.6261753  64.1967344
  36.7981484  98.0773863  68.0493174  36.7799959  98.8982744  67.5573443
  37.7201404  97.9527938  68.2743315  33.2554538  95.5917992  68.8916682
  33.7882875  94.8306280  68.6615990  32.7268619  95.2991644  69.6340837
  24.4910083  93.0211589  57.2398926  25.3285305  93.4308597  57.0232634
  24.6688351  92.0811031  57.2099120  36.3874516  90.6886669  52.9282759
  35.8721139  91.4591274  53.1671147  36.1151824  90.0151805  53.5515821
  33.9721627  85.5336370  57.9867998  33.1163223  85.1443220  57.8073636
  34.3848578  85.6128331  57.1267783  35.5020773  83.0682713  62.3859557
  34.9985569  83.0312848  61.5727363  35.7951380  83.9775456  62.4456214
  31.7463659  83.1521443  61.3925739  32.6116656  82.9564252  61.0331629
  31.8141168  82.9231795  62.3195096  41.3608790  93.4419024  54.8635933
  40.5838232  93.1030183  54.4191095  42.0400271  93.4471647  54.1890898
  36.1760819  88.5613761  54.7542541  35.8710954  88.8759911  55.6052684
  37.1291261  88.6395181  54.7969874  34.6207251  94.7203985  56.4035495
  34.0928612  93.9856744  56.0908732  34.1194753  95.4978661  56.1575463
  39.6000097  92.9153005  61.5202541  38.9423771  93.6052267  61.6082669
  40.4040496  93.3049437  61.8636527  29.3525978  85.3823651  58.7642106
  29.9269730  85.1598832  58.0315299  29.9396961  85.4512345  59.5170707
  38.4105555  91.2697378  59.5706483  38.9237437  91.9027370  60.0728192
  39.0606779  90.6698573  59.2049843  29.6795565  87.4128112  52.7837991
  28.8432878  87.7502799  53.1047266  29.5400335  87.2777092  51.8465128
  31.6548646  82.2564900  57.4917175  31.0013058  81.9413917  56.8673790
  31.6129120  81.6340640  58.2176998  32.7659851  92.5384195  49.4070468
  31.8586912  92.3073448  49.6061617  33.2630883  91.7421814  49.5944449
  35.6727930 101.2481702  52.3267154  34.9989628 101.5513399  52.9352112
  36.0593752 102.0510782  51.9772611  34.8886386  88.7446833  61.8164823
  33.9708948  88.9661780  61.6586511  35.3046530  88.8193144  60.9576530
  35.6721434  90.1438249  56.9467503  36.4193253  90.6559646  56.6374625
  35.9413024  89.8222302  57.8071897  33.9448084  92.6396790  53.9294458
  33.0359303  92.3555823  54.0266927  33.9743168  93.0595868  53.0697764
  39.1767352  96.2503379  57.6985625  38.7229679  95.4094289  57.7550816
  38.5461318  96.8864778  58.0360405  38.1200271  87.1795365  58.9286293
  37.3823028  86.6672752  59.2596535  38.3727045  86.7395747  58.1169570
  37.6200291  98.0879876  58.6335443  37.9123265  98.6484933  57.9147809
  38.1298911  98.3808437  59.3888602  38.2211898  79.9571617  59.5228062
  38.5270775  79.0968981  59.2353977  38.9464503  80.5489238  59.3227056
  24.5136255  90.3602304  57.9109660  24.3160654  89.7671665  57.1860726
  23.9582919  90.0554514  58.6285599  32.4932978  90.2525410  60.0304253
  32.5481588  89.2999247  59.9546730  31.6824180  90.4084850  60.5145551
  33.6424172  94.1805533  51.2682536  33.2043602  93.4641392  50.8088174
  34.3834613  94.4081648  50.7067628  30.4325338  88.8702470  57.7894632
  29.6193204  89.1696641  58.1959824  30.9284332  88.4758159  58.5069114
  32.5833916  98.8660227  59.7228897  32.5410095  99.0921073  58.7937429
  33.4996615  98.6323602  59.8714698  36.0299550  89.3344295  66.6209526
  36.3848938  89.5615768  67.4803992  36.6771681  89.6662671  65.9986781
  41.7597287  92.4562731  57.3258855  41.6215185  92.6464327  56.3980044
  41.4033506  93.2182113  57.7826906  29.9239413  86.4420826  63.4055867
  30.5638792  86.3009585  62.7078830  29.0916943  86.1555339  63.0294469
  41.7866666  94.5239258  62.3370126  42.2203173  94.4314547  63.1853180
  42.4998247  94.4996758  61.6990142  30.6999717  95.7423256  59.5190859
  31.4940315  95.2473576  59.3173434  29.9891409  95.2141119  59.1558565
  35.5194561  98.1241352  63.8703227  35.5731584  98.6932288  64.6380943
  34.6509343  98.2943237  63.5057264  27.0082480  89.8866338  55.5950612
  26.0780068  89.8250793  55.8120574  27.1039952  89.3642291  54.7987253
  26.9268029  86.4121151  58.1828854  27.1874847  87.3266484  58.0738014
  27.7485202  85.9445593  58.3325466  28.3992955  87.8258908  65.3527678
  29.0716008  87.6176270  64.7040327  27.5722741  87.6280994  64.9132910
  42.6482216  94.5662958  64.8703012  42.8418106  95.4708769  65.1162287
  42.5482834  94.1070377  65.7041597  34.3018527  84.4520849  67.3693339
  33.6546442  85.1510798  67.2757815  35.0719542  84.8856993  67.7369587
  37.7097325  94.7169701  70.4443892  37.5582831  94.4880253  69.5273976
  37.7002004  95.6740302  70.4575237  34.4782661  92.2901614  65.4290159
  35.4074721  92.4412773  65.2559126  34.0573691  92.3785634  64.5738805
  33.2770993  96.3152278  63.1988696  33.1382078  95.9471062  64.0714634
  32.4885589  96.8299918  63.0272654  33.8719145 101.4161375  54.5414233
  34.0470900 100.9449418  55.3559856  33.1851933 102.0427141  54.7695494
  34.8276208  95.6933881  60.5877534  34.4926041  95.6534651  61.4835184
  34.3280154  95.0278597  60.1147944  28.8020452  91.1001511  66.1130115
  28.6640250  90.3681750  66.7141654  29.7125375  91.0110411  65.8314303
  37.7635400  93.0389915  50.8614594  37.1464570  92.3136743  50.7647646
  37.2951888  93.7999275  50.5181668  31.4302753  90.8121470  65.6013795
  32.1402371  90.1714662  65.5600413  31.3872061  91.0634365  66.5239976
  39.4189531  97.7488823  68.5220374  39.3602077  97.0648044  67.8550957
  39.8209050  98.4907813  68.0701000  30.1431687  87.7986688  67.4209434
  29.6069044  87.3477426  68.0731031  29.5548395  87.9332597  66.6779899
  28.4380230 104.5650737  61.3154093  28.6776828 105.1969261  61.9933112
  27.5949427 104.2138777  61.6019452  29.5533946  87.2575339  49.9835898
  28.6763412  87.1364140  49.6198145  30.0291699  86.4661418  49.7314787
  39.4206939  95.7128407  66.7534354  38.5333717  95.3754329  66.8760753
  39.9905490  94.9811439  66.9903119  21.0736086  92.0452499  60.0777405
  21.7607125  91.7314229  59.4898421  20.9184214  92.9493864  59.8044657
  25.8770808  86.9342696  64.5062429  25.7928997  86.3268365  63.7712839
  25.0553514  87.4251714  64.5071925  32.9508092 100.3729860  63.7195597
  32.8778263 101.1784831  64.2314902  32.5085485 100.5721826  62.8943618
  32.7397872  99.6101630  57.2298419  31.9565393 100.1523310  57.3236643
  33.4390617 100.1275609  57.6292660  36.0494522  85.4196259  59.8732624
  36.5463221  84.6666222  59.5533694  35.2781503  85.4560576  59.3075833
  43.9024279  91.1236625  61.5150915  43.8914155  92.0061340  61.1444849
  43.0341658  90.7708176  61.3205453  35.4106775 100.2716694  65.8753756
  36.1234748 100.9064159  65.8029657  34.9196804 100.3680560  65.0593758
  37.1324302  94.1767946  57.4471047  36.1980581  94.2969409  57.2775752
  37.3100971  93.2740413  57.1831057  32.6329490  87.5613642  59.6004309
  32.2627278  87.0084683  60.2885214  33.1288583  86.9571776  59.0479309
  40.5196854  90.0185266  57.9821082  40.9857306  90.8513257  57.9081384
  40.9704354  89.5530247  58.6866340  30.4618689  98.0211137  66.6959327
  31.1628148  98.6547620  66.8488721  29.9913804  98.3625869  65.9354966
  38.5873085  96.3629087  54.9807234  38.8632929  96.2485682  55.8901108
  37.7177584  95.9646572  54.9419407  38.2619975  90.5755745  64.5211877
  37.6091425  90.8231652  63.8664330  38.6400355  89.7619883  64.1874354
  35.2227149 100.6115438  58.6240047  35.4049543  99.7937094  59.0867800
  36.0460135 100.8283130  58.1864937  35.5569314  99.5383623  55.8855096
  36.0857081  99.0276078  55.2725258  35.8197534  99.2226153  56.7500629
  34.3107548  91.3175556  71.0077914  33.6348185  91.2169685  71.6780289
  35.1335182  91.1614770  71.4713911  26.0586407  97.5547492  63.6290429
  26.6439844  96.8091180  63.7618333  25.8611245  97.8651449  64.5127093
  28.9125062 100.5898740  58.6452872  28.2435438 101.0744867  58.1616912
  28.7737932 100.8367960  59.5596250  20.6504062  90.1253093  62.3494872
  20.6888161  89.5916683  63.1431990  20.1444355  89.5988298  61.7305850
  33.0530331 102.6242483  65.2435530  33.6048639 102.7874105  66.0084615
  33.3936524 103.2146921  64.5715555  28.0294824  84.9717633  65.8457415
  28.0936151  85.8332464  65.4334812  27.9661944  84.3591635  65.1129773
  27.5047097  87.0440766  69.4930449  28.1319135  86.6617843  70.1067973
  26.6475015  86.8254968  69.8586141  37.9041205  97.4503741  71.0984184
  38.4481109  98.0633699  70.6039139  37.3228050  98.0083319  71.6151197
  24.2812639  88.8517195  55.4248804  24.5766080  87.9427873  55.3715857
  23.3800675  88.8304934  55.1029806  36.1898718 100.5724459  62.2299212
  36.0649858  99.7714199  61.7210158  36.8477809 101.0670652  61.7413182
  27.8106886  86.9273191  61.4076352  27.0893472  87.5409159  61.2683826
  28.6000142  87.4630956  61.3292998  38.2533627  98.3733479  63.8578762
  37.3063962  98.2538830  63.7857089  38.6016400  97.4855977  63.9405024
  30.6133200  84.2627618  67.6817004  31.1367602  84.5089914  68.4443313
  30.3945533  85.0947653  67.2620141  26.0100481  86.5331292  55.5488129
  25.6813187  85.6528671  55.3663235  26.3639852  86.4778961  56.4364518
  35.2580060  98.1686195  60.0583114  35.1105022  97.2402902  60.2390684
  36.0833553  98.1906286  59.5740190  29.1242304  86.8204262  55.9163607
  29.4638377  87.3490183  55.1942215  29.5714425  87.1584668  56.6922173
  38.8614182  98.9914754  61.1447987  39.7860729  98.7857615  61.0072438
  38.6929485  98.7431155  62.0537329  31.8185745  85.2041313  65.3666675
  31.4782565  84.4049126  65.7687355  31.1124751  85.5043024  64.7943508
  32.4702217  82.2890625  63.8193998  33.2928286  81.8151103  63.6972888
  32.7140280  83.0681109  64.3192684  31.1110451  85.3178884  54.1156899
  31.8318814  85.6960137  53.6120616  30.4875755  86.0367761  54.2191877
  35.2541574  86.0224033  55.0515232  35.4705189  86.9048671  54.7504060
  34.7735641  85.6310246  54.3220874  29.9940796  88.9809746  61.6285976
  29.8485376  89.2950049  62.5210258  29.5165999  89.5994646  61.0756875
  31.8537178  85.9712294  61.6766866  31.8398747  85.0753387  61.3399164
  32.5709606  85.9782958  62.3105152  33.7063309  86.4049634  63.7219993
  33.4481087  87.3266705  63.7204324  33.1748349  86.0080069  64.4120457
  38.6509498  99.5100421  56.5010079  38.8246375  98.9446844  55.7483931
  39.1438389 100.3101316  56.3189569  24.4686458  91.5215090  64.5673637
  23.9239926  92.2974898  64.6993912  25.3465808  91.8685895  64.4092759
  31.2574074  84.8526674  56.9454436  31.3789986  83.9243320  57.1445323
  30.9676117  84.8665360  56.0332751  34.1265265  82.5381585  60.0821156
  34.1486962  82.6020918  59.1273135  34.5433324  81.6986093  60.2761662
  44.5048889  92.2736844  58.1200378  44.9480035  91.5244169  57.7219502
  43.6275399  92.2646981  57.7374110  39.6384670  98.8267186  53.6006977
  40.3335575  99.4473878  53.8194292  39.9807820  97.9762537  53.8759355
  25.2552480  90.6484987  67.4603794  24.5134216  90.7967622  68.0468425
  24.9345224  90.9093252  66.5970544  41.5376093  96.2766891  55.1294308
  42.0627418  96.6154164  54.4043628  41.4498446  95.3413906  54.9457442
  33.1996142 100.1900965  67.2584184  33.5083269  99.9450112  68.1306884
  33.9971624 100.3947603  66.7703055  33.2216754 102.3438874  59.4889561
  32.7821745 101.8515253  60.1822418  33.9724871 101.8011842  59.2481636
  25.7009093  98.5350415  59.4914189  26.5267113  98.2354187  59.1112832
  25.3503145  97.7658038  59.9403978  30.6690626  97.8876884  61.5611863
  30.0470636  97.2247589  61.2614090  31.3395493  97.9138015  60.8785510
  23.9017698  96.4536742  60.4503123  23.0649607  96.0258916  60.2687124
  23.8741344  96.6469185  61.3873914  30.7415154  86.3658672  71.1544369
  30.7903309  87.2420794  70.7722138  31.2837668  85.8236065  70.5816012
  41.2270000  96.9099795  70.4345506  40.4365543  96.8923934  69.8950005
  40.9903354  97.4488089  71.1894542  41.3467875  93.7592261  67.7478234
  41.3965880  93.5942269  68.6893757  41.2381798  92.8919520  67.3576115
  30.2304133  96.4380807  55.0370323  30.3792254  97.1216271  54.3836996
  31.0370577  96.4185897  55.5519779  38.6371637  89.7423189  69.0637541
  39.5381500  89.6029654  68.7721539  38.7119611  89.9077644  70.0035718
  32.9714442  87.1190044  67.9090727  32.1017752  87.4123610  67.6373316
  33.2073923  87.7030489  68.6297991  42.8486071  96.1789203  67.9920256
  42.5570880  96.5419183  68.8283717  42.2358203  95.4656211  67.8133588
  44.0481754  93.7442082  60.5122826  44.8828645  94.1831887  60.6760386
  44.1840883  93.2680736  59.6931072  41.0973260  91.3021817  66.4600314
  41.5727381  91.4949464  65.6519165  40.1738825  91.3581003  66.2143697
  27.9856766  92.4645985  56.0431392  27.7402808  91.5608315  56.2411602
  28.1552681  92.4663135  55.1010870  27.2552414  88.1974342  53.5417553
  26.5621659  88.2718697  52.8857589  27.0104166  87.4334686  54.0639070
  33.7299539  98.9328937  52.5082071  33.1573506  99.5519124  52.0552542
  34.3032332  99.4828299  53.0421992  39.7974929  88.1787577  64.6928619
  40.7492352  88.2785675  64.7140843  39.6278379  87.3865846  65.2026704
  37.8189308  85.2643161  64.8788020  37.2239240  85.5448173  64.1834509
  37.5339005  85.7537062  65.6504761  36.9496799  99.2166087  53.6390653
  37.8827472  99.1511649  53.8423528  36.8620011 100.0522354  53.1805185
  39.5784815  98.5331958  50.5994600  39.4998447  98.1991821  51.4930358
  40.3994482  99.0253726  50.5986073  42.2763006  91.3993697  63.8070919
  42.2439327  90.4609698  63.9930603  42.8863630  91.4777734  63.0736744
  34.1146337  90.2689750  49.8498123  35.0605442  90.1395958  49.9186541
  33.7360582  89.5304412  50.3267551  42.4257495  88.1904741  63.8529202
  41.9096544  87.4063197  63.6659131  43.3097443  87.8623457  64.0175722
  40.0868222  81.9345756  59.8125015  39.8893043  81.6260844  60.6968347
  40.6967927  82.6607395  59.9422945  48.0939556  92.4609704  62.9476956
  48.8242945  92.1994992  63.5084659  47.4846502  91.7238426  62.9879024
  46.1754853  90.6017567  63.5451407  45.4488017  90.4673531  62.9367899
  45.7602140  90.9094395  64.3508125  33.9985030  94.3207496  71.3098780
  34.9188039  94.4986095  71.5038827  33.9634613  93.3763542  71.1578479
  32.2989254  88.1939726  49.7853008  31.3920710  87.8972839  49.8615722
  32.5765235  87.8969545  48.9187294  23.2167195  89.5146090  60.2352055
  22.8969979  88.6611398  59.9426429  22.6700623  89.7294668  60.9910022
  26.9947102  92.2308531  63.9521561  27.2133112  93.1625639  63.9709595
  27.4072876  91.8716505  64.7376365  33.9151320  82.7376616  55.9397250
  33.1052048  82.3923701  56.3152496  34.6035737  82.4284160  56.5284861
  35.8441868  81.8154663  57.5621546  36.3972907  82.2350116  58.2211569
  36.0811955  80.8890411  57.6044502  31.8674968  87.8041737  73.3424310
  31.7671695  88.7536094  73.2736401  31.6496510  87.4759976  72.4700380
  31.0688039  85.0526662  49.9264987  31.9307203  85.3781560  50.1860805
  31.2538383  84.2658158  49.4138053  23.0855455  93.1349001  62.2045176
  22.3918926  92.7202954  61.6915131  23.8328446  93.1769538  61.6078595
  39.2220676  83.9255188  57.0700210  38.6419345  84.5839992  56.6878263
  38.9556608  83.1032533  56.6587628  37.6724242  83.3260246  59.2721531
  38.1724020  83.4376780  58.4635850  38.3159850  83.0221299  59.9122339
  31.7306238  91.2338875  72.1589372  31.2473319  92.0339236  72.3653261
  31.8167177  91.2446820  71.2056816  24.9992197  93.0667255  60.0811191
  24.9762885  93.1654942  59.1293074  25.3092834  93.9132406  60.4028357
  27.6579575  95.1243410  64.1957806  28.6122829  95.0927353  64.1287737
  27.4592099  94.6634034  65.0108031  28.2478957  93.6944526  66.7628603
  29.0671846  94.1888605  66.7863440  28.5215765  92.7776494  66.7346171
  38.0045554  86.0855279  56.1256559  37.1171409  86.3704929  55.9076753
  38.4199543  85.9249042  55.2783836  41.3560090  86.1101800  59.8410898
  42.1320480  86.5998252  60.1135515  40.6308224  86.5359854  60.2982767
  43.7932648  86.8229419  60.8984839  44.3877139  86.5825155  60.1878147
  43.8659232  86.1036549  61.5258375  26.0129804 100.6663030  61.2128003
  25.8784272  99.9063431  60.6466001  25.5961866 101.3903930  60.7456792
  37.1488767  95.8499953  50.2204579  37.8524617  96.0549956  50.8362234
  36.4251416  96.4176715  50.4853662  37.9786577  91.6009814  56.3406849
  37.9221779  92.0578366  55.5014481  38.5314920  90.8400499  56.1629692
  41.7891383  87.3899546  57.1656968  41.5328317  86.9896182  57.9965176
  41.1644251  88.1043340  57.0407108  46.1003721  90.1295620  59.6728260
  45.5403279  90.1988809  60.4459822  45.4947224  89.9536604  58.9527756
  29.1698930 101.5632347  61.4246446  29.0531314 102.5077779  61.3225136
  28.3491376 101.2605908  61.8132245  39.0575464  96.2882482  52.2703039
  39.8921068  95.8563681  52.0880514  38.8959807  96.1164496  53.1979933
  38.7121357  92.7914596  53.6359378  38.6570160  92.6258867  52.6947822
  38.0867412  93.4990629  53.7921568  23.5013872  88.0282660  67.4620800
  24.1472735  87.5181614  67.9508025  23.2931023  88.7651342  68.0364225
  36.0267264  95.0963508  72.9612941  36.8958423  95.2704160  72.5999576
  35.5474015  95.9157924  72.8388670  32.0217482  82.2922705  53.2144696
  32.0096152  83.2364545  53.3712967  32.9140904  82.1092850  52.9204158
  30.1953444 102.2160609  64.6402374  31.0980691 102.2484219  64.9568869
  29.9690814 101.2861060  64.6548710  31.9507046 100.9691595  61.3012453
  31.0002677 100.9693457  61.1876825  32.2539532 100.2224330  60.7848488
  35.8369602  78.8865481  57.4690633  35.0701997  78.3323968  57.6147316
  36.2480307  78.9587350  58.3304785  27.8411363  85.1750277  71.5595814
  28.7042824  84.8187082  71.7699139  27.2676773  84.8364172  72.2471219
  47.6859740 106.8052134  62.3658215  48.3238149 106.6858881  61.6621556
  47.5680582 107.7532977  62.4246168  44.4949446 106.7579562  62.3019740
  44.1567957 106.6420626  61.4140275  45.3639214 106.3570727  62.2820746
  40.3536262 108.6115038  58.2916631  39.7901127 108.5204975  57.5232919
  40.2388657 107.7914942  58.7719124  44.9769229 107.9114413  68.2605946
  44.9657870 107.5167212  67.3886449  45.1389868 107.1780486  68.8539717
  37.9000693 110.1066230  61.1300852  38.6921985 109.7657054  60.7147151
  38.1397344 110.2161205  62.0503005  45.9335820 112.2786006  53.6031096
  45.2823800 112.8640086  53.2165110  46.7280183 112.8092201  53.6626133
  39.8591447 109.3675143  54.0018230  40.6322323 108.8204130  53.8631106
  40.2116846 110.2319392  54.2132692  41.6976490 110.6951525  67.2085130
  41.4066356 111.5997156  67.0931796  42.3333474 110.7368053  67.9229199
  42.6232697 108.0728374  63.7986489  43.2196269 107.8484396  63.0843452
  42.6807668 107.3313119  64.4011937  42.1957725 105.5267809  51.6336680
  42.4483246 105.0049330  50.8720143  41.2582284 105.3633954  51.7363364
  47.2401008 104.5303587  59.4411424  48.0264097 104.1123011  59.0901841
  47.5039712 105.4349680  59.6093072  47.4111085 109.9676438  54.1400080
  46.7756918 110.0411064  54.8520985  47.0808492 110.5570037  53.4619160
  52.6409435 104.4678821  60.3444402  53.3734607 103.8978037  60.5782232
  51.8848791 104.0800421  60.7850908  41.9154014 107.4295915  53.8361055
  41.7990272 106.7540818  54.5042140  42.0256274 106.9428289  53.0193208
  44.2585555 106.8906062  57.5407744  43.8943762 106.3636683  58.2520666
  45.1152671 106.5004531  57.3674230  50.1634855  98.1800395  64.8039011
  49.8318180  99.0495806  64.5800226  49.5680469  97.8636679  65.4833041
  43.8991042 101.9195962  52.5369093  44.0665444 102.7876198  52.9039564
  43.7088211 102.0823243  51.6130382  46.6566375 110.3812941  64.2034923
  46.3567098 111.2837979  64.0950731  46.3117435 110.1145124  65.0556076
  40.1078857 106.8326738  60.2371628  39.1829353 106.7002952  60.4449320
  40.3563270 107.6120957  60.7341570  50.0563519 102.8995481  61.8832361
  49.1480396 102.8310889  61.5891122  50.0051115 103.3767426  62.7114186
  43.8780263 104.3753619  53.5215760  43.7579888 104.8210670  54.3601240
  43.1832851 104.7238937  52.9629298  37.4687668 106.4760011  61.0715417
  37.5980049 106.7294490  61.9854829  36.7885119 107.0687719  60.7520072
  41.6387155 117.1457261  57.1705891  41.5611185 118.0965086  57.2494372
  41.0348798 116.8003134  57.8280817  44.1304385 104.3185126  69.8267258
  43.3537719 104.8779047  69.8170123  44.7694948 104.8041909  70.3482128
  51.9225165 101.1011919  63.6610235  51.2799545 101.3944452  63.0150029
  51.4180094 100.9864840  64.4663431  49.5765329 104.8475092  54.3496094
  50.4883185 105.0802479  54.1743791  49.0674976 105.4312137  53.7871172
  42.3850757 107.1270580  69.3885225  43.1265441 107.6655624  69.1120049
  41.6787742 107.7536869  69.5456777  47.8606097 109.2699720  67.9857386
  48.2689453 108.8282131  67.2412019  47.1383358 108.6952348  68.2391579
  44.2137167 104.2072327  65.3590943  45.0598362 104.6311741  65.5025592
  44.1535804 103.5505951  66.0529507  48.1834911 109.8300911  61.7409675
  47.5543774 109.9946625  61.0385743  47.7960573 110.2442520  62.5120639
  52.0624143 110.7655349  59.0954039  51.3775181 111.1454250  58.5451072
  52.1467992 111.3750675  59.8285987  47.3636612 101.8676695  67.0172117
  47.1197544 102.6218756  66.4806393  47.6396542 102.2462043  67.8519364
  49.3175075 108.4115308  65.6949383  49.5291970 109.0547068  65.0183764
  49.2704823 107.5777624  65.2271313  46.9201304 101.0233128  62.5985955
  46.0585783 101.3214382  62.8902692  46.9463738 101.2403527  61.6666987
  43.7362873 109.5675319  59.0059760  44.2001219 109.8463022  58.2164383
  43.4719671 108.6658764  58.8232851  40.6286954 109.1146801  61.9439524
  41.1988311 109.5434069  61.3057008  41.2195066 108.8329385  62.6423709
  42.6731759 105.6898471  55.8149326  43.3755802 106.1419515  56.2823252
  42.3412388 105.0482290  56.4429219  41.1212121 104.2810228  70.1900535
  40.4910781 104.9626509  70.4235932  41.0148209 104.1693310  69.2453673
  36.4157093 103.9482024  61.1166459  35.6256147 104.2039553  60.6406570
  36.9068340 104.7630362  61.2218500  50.4320903 111.2887263  63.8671740
  51.2538346 110.8867450  63.5854422  50.4283306 111.1855497  64.8187856
  38.3671838 104.3126603  58.0749936  37.5703002 104.4245298  58.5933432
  38.1397431 104.6513255  57.2090826  44.1977506 110.8371306  66.0232450
  44.2621939 111.2991714  66.8590622  43.4888430 110.2068671  66.1514760
  34.6994796 104.2012514  63.5481450  34.9502834 105.0859524  63.8139026
  35.2354344 104.0217116  62.7756542  58.5226896 107.6326012  60.2156711
  57.7690604 107.0633410  60.0600716  58.6574437 107.5988676  61.1627346
  43.9125524 112.5039414  55.8911431  43.7771199 113.3490950  56.3196279
  44.4535336 112.7058692  55.1277365  40.3992863  98.5830994  72.5525786
  40.0059809  98.0297192  73.2273430  41.2159004  98.8941572  72.9432304
  37.3654921 110.0214852  56.4639356  37.8779442 110.8158102  56.6144921
  38.0177634 109.3241142  56.3972957  39.1749806 113.1380608  58.5462109
  39.3516434 114.0598573  58.3583093  39.9706639 112.8239027  58.9756489
  43.3160824  99.9988873  70.1446043  44.0570538 100.5996026  70.0650505
  43.5478747  99.2566511  69.5864085  38.4602162 105.1845240  68.4224272
  38.3455678 104.2830497  68.7231371  37.6046680 105.4308937  68.0709089
  45.5394000 113.1262980  70.0211773  45.0957854 112.3399359  69.7032677
  46.2011214 113.3142131  69.3555664  40.2981121 114.6558782  64.5472451
  40.8488546 114.5275845  63.7749445  39.4592597 114.9553671  64.1967344
  47.6375238 113.4065780  68.0493174  47.6193714 114.2274661  67.5573443
  48.5595158 113.2819856  68.2743315  44.0948292 110.9209910  68.8916682
  44.6276629 110.1598198  68.6615990  43.5662373 110.6283562  69.6340837
  47.2617987  96.0269976  64.4210324  46.9182257  96.9171618  64.3449435
  47.6296950  95.8371633  63.5579909  35.3303838 108.3503506  57.2398926
  36.1679060 108.7600515  57.0232634  35.5082106 107.4102948  57.2099120
  47.2268270 106.0178587  52.9282759  46.7114893 106.7883192  53.1671147
  46.9545578 105.3443723  53.5515821  44.8115381 100.8628288  57.9867998
  43.9556977 100.4735138  57.8073636  45.2242333 100.9420249  57.1267783
  46.3414528  98.3974631  62.3859557  45.8379323  98.3604766  61.5727363
  46.6345135  99.3067374  62.4456214  42.5857414  98.4813361  61.3925739
  43.4510410  98.2856169  61.0331629  42.6534922  98.2523712  62.3195096
  52.2002544 108.7710942  54.8635933  51.4231987 108.4322101  54.4191095
  52.8794025 108.7763565  54.1890898  47.0154573 103.8905679  54.7542541
  46.7104709 104.2051828  55.6052684  47.9685015 103.9687099  54.7969874
  45.4601005 110.0495902  56.4035495  44.9322367 109.3148662  56.0908732
  44.9588508 110.8270579  56.1575463  50.4393851 108.2444923  61.5202541
  49.7817526 108.9344184  61.6082669  51.2434250 108.6341355  61.8636527
  40.1919733 100.7115569  58.7642106  40.7663485 100.4890750  58.0315299
  40.7790715 100.7804263  59.5170707  49.2499310 106.5989296  59.5706483
  49.7631192 107.2319287  60.0728192  49.9000534 105.9990491  59.2049843
  40.5189320 102.7420030  52.7837991  39.6826632 103.0794716  53.1047266
  40.3794089 102.6069009  51.8465128  42.4942400  97.5856818  57.4917175
  41.8406813  97.2705835  56.8673790  42.4522875  96.9632558  58.2176998
  43.6053605 107.8676113  49.4070468  42.6980667 107.6365366  49.6061617
  44.1024637 107.0713732  49.5944449  46.5121684 116.5773620  52.3267154
  45.8383383 116.8805317  52.9352112  46.8987506 117.3802700  51.9772611
  45.7280141 104.0738751  61.8164823  44.8102702 104.2953698  61.6586511
  46.1440284 104.1485062  60.9576530  46.5115188 105.4730167  56.9467503
  47.2587007 105.9851564  56.6374625  46.7806778 105.1514219  57.8071897
  44.7841839 107.9688707  53.9294458  43.8753058 107.6847740  54.0266927
  44.8136922 108.3887786  53.0697764  50.0161106 111.5795297  57.6985625
  49.5623433 110.7386207  57.7550816  49.3855073 112.2156695  58.0360405
  48.9594026 102.5087283  58.9286293  48.2216782 101.9964669  59.2596535
  49.2120799 102.0687665  58.1169570  48.4594045 113.4171794  58.6335443
  48.7517020 113.9776851  57.9147809  48.9692666 113.7100355  59.3888602
  49.0605653  95.2863535  59.5228062  49.3664530  94.4260898  59.2353977
  49.7858258  95.8781155  59.3227056  35.3530009 105.6894222  57.9109660
  35.1554409 105.0963582  57.1860726  34.7976673 105.3846432  58.6285599
  43.3326733 105.5817328  60.0304253  43.3875342 104.6291164  59.9546730
  42.5217935 105.7376767  60.5145551  44.4817926 109.5097451  51.2682536
  44.0437356 108.7933310  50.8088174  45.2228367 109.7373566  50.7067628
  41.2719093 104.1994388  57.7894632  40.4586958 104.4988558  58.1959824
  41.7678087 103.8050077  58.5069114  43.4227671 114.1952145  59.7228897
  43.3803849 114.4212991  58.7937429  44.3390369 113.9615519  59.8714698
  46.8693304 104.6636212  66.6209526  47.2242692 104.8907685  67.4803992
  47.5165436 104.9954589  65.9986781  52.5991041 107.7854648  57.3258855
  52.4608940 107.9756244  56.3980044  52.2427260 108.5474031  57.7826906
  40.7633167 101.7712743  63.4055867  41.4032547 101.6301502  62.7078830
  39.9310698 101.4847257  63.0294469  52.6260421 109.8531175  62.3370126
  53.0596928 109.7606464  63.1853180  53.3392002 109.8288676  61.6990142
  41.5393471 111.0715174  59.5190859  42.3334070 110.5765494  59.3173434
  40.8285164 110.5433037  59.1558565  46.3588316 113.4533269  63.8703227
  46.4125338 114.0224206  64.6380943  45.4903097 113.6235154  63.5057264
  37.8476235 105.2158256  55.5950612  36.9173823 105.1542711  55.8120574
  37.9433707 104.6934208  54.7987253  37.7661784 101.7413068  58.1828854
  38.0268601 102.6558402  58.0738014  38.5878956 101.2737511  58.3325466
  39.2386709 103.1550826  65.3527678  39.9109763 102.9468188  64.7040327
  38.4116496 102.9572912  64.9132910  53.4875970 109.8954876  64.8703012
  53.6811861 110.8000686  65.1162287  53.3876589 109.4362295  65.7041597
  45.1412281  99.7812766  67.3693339  44.4940196 100.4802716  67.2757815
  45.9113297 100.2148910  67.7369587  48.5491079 110.0461619  70.4443892
  48.3976586 109.8172170  69.5273976  48.5395759 111.0032220  70.4575237
  45.3176416 107.6193531  65.4290159  46.2468476 107.7704691  65.2559126
  44.8967446 107.7077552  64.5738805  44.1164747 111.6444196  63.1988696
  43.9775833 111.2762980  64.0714634  43.3279344 112.1591835  63.0272654
  44.7112899 116.7453292  54.5414233  44.8864655 116.2741335  55.3559856
  44.0245687 117.3719058  54.7695494  45.6669962 111.0225798  60.5877534
  45.3319795 110.9826568  61.4835184  45.1673908 110.3570514  60.1147944
  39.6414206 106.4293428  66.1130115  39.5034004 105.6973667  66.7141654
  40.5519130 106.3402329  65.8314303  48.6029154 108.3681833  50.8614594
  47.9858325 107.6428661  50.7647646  48.1345643 109.1291193  50.5181668
  42.2696507 106.1413388  65.6013795  42.9796126 105.5006580  65.5600413
  42.2265815 106.3926283  66.5239976  50.2583286 113.0780741  68.5220374
  50.1995832 112.3939961  67.8550957  50.6602804 113.8199731  68.0701000
  40.9825441 103.1278606  67.4209434  40.4462798 102.6769344  68.0731031
  40.3942149 103.2624515  66.6779899  40.3927700 102.5867257  49.9835898
  39.5157166 102.4656058  49.6198145  40.8685453 101.7953335  49.7314787
  50.2600693 111.0420325  66.7534354  49.3727472 110.7046247  66.8760753
  50.8299244 110.3103356  66.9903119  31.9129840 107.3744417  60.0777405
  32.6000880 107.0606147  59.4898421  31.7577969 108.2785781  59.8044657
  36.7164562 102.2634613  64.5062429  36.6322751 101.6560283  63.7712839
  35.8947269 102.7543632  64.5071925  43.7901846 115.7021777  63.7195597
  43.7172018 116.5076749  64.2314902  43.3479240 115.9013743  62.8943618
  43.5791626 114.9393547  57.2298419  42.7959148 115.4815228  57.3236643
  44.2784371 115.4567527  57.6292660  46.8888276 100.7488177  59.8732624
  47.3856976  99.9958139  59.5533694  46.1175258 100.7852494  59.3075833
  54.7418034 106.4528542  61.5150915  54.7307910 107.3353258  61.1444849
  53.8735413 106.1000093  61.3205453  46.2500530 115.6008611  65.8753756
  46.9628502 116.2356076  65.8029657  45.7590559 115.6972477  65.0593758
  47.9718057 109.5059864  57.4471047  47.0374336 109.6261327  57.2775752
  48.1494725 108.6032331  57.1831057  43.4723245 102.8905560  59.6004309
  43.1021032 102.3376600  60.2885214  43.9682337 102.2863693  59.0479309
  51.3590608 105.3477183  57.9821082  51.8251060 106.1805175  57.9081384
  51.8098109 104.8822165  58.6866340  41.3012443 113.3503055  66.6959327
  42.0021903 113.9839538  66.8488721  40.8307558 113.6917786  65.9354966
  49.4266839 111.6921005  54.9807234  49.7026683 111.5777599  55.8901108
  48.5571338 111.2938490  54.9419407  49.3307271  97.7157770  62.0211983
  48.4170351  97.9461997  62.1894190  49.7600372  97.7996214  62.8726015
  49.1013729 105.9047662  64.5211877  48.4485180 106.1523570  63.8664330
  49.4794109 105.0911801  64.1874354  46.0620903 115.9407356  58.6240047
  46.2443298 115.1229011  59.0867800  46.8853889 116.1575048  58.1864937
  46.3963069 114.8675541  55.8855096  46.9250835 114.3567995  55.2725258
  46.6591288 114.5518071  56.7500629  45.1501302 106.6467473  71.0077914
  44.4741939 106.5461603  71.6780289  45.9728936 106.4906687  71.4713911
  36.8980162 112.8839410  63.6290429  37.4833598 112.1383098  63.7618333
  36.7005000 113.1943367  64.5127093  39.7518817 115.9190657  58.6452872
  39.0829192 116.4036785  58.1616912  39.6131686 116.1659878  59.5596250
  31.4897816 105.4545010  62.3494872  31.5281916 104.9208601  63.1431990
  30.9838109 104.9280216  61.7305850  43.8924085 117.9534401  65.2435530
  44.4442393 118.1166022  66.0084615  44.2330279 118.5438839  64.5715555
  38.8688579 100.3009551  65.8457415  38.9329905 101.1624382  65.4334812
  38.8055699  99.6883552  65.1129773  38.3440851 102.3732683  69.4930449
  38.9712890 101.9909761  70.1067973  37.4868770 102.1546885  69.8586141
  48.7434960 112.7795658  71.0984184  49.2874864 113.3925617  70.6039139
  48.1621805 113.3375237  71.6151197  35.1206394 104.1809112  55.4248804
  35.4159835 103.2719791  55.3715857  34.2194430 104.1596852  55.1029806
  47.0292473 115.9016376  62.2299212  46.9043612 115.1006116  61.7210158
  47.6871564 116.3962570  61.7413182  38.6500641 102.2565109  61.4076352
  37.9287227 102.8701077  61.2683826  39.4393897 102.7922874  61.3292998
  49.0927381 113.7025397  63.8578762  48.1457717 113.5830748  63.7857089
  49.4410154 112.8147895  63.9405024  41.4526954  99.5919535  67.6817004
  41.9761356  99.8381832  68.4443313  41.2339288 100.4239570  67.2620141
  36.8494235 101.8623210  55.5488129  36.5206942 100.9820589  55.3663235
  37.2033606 101.8070879  56.4364518  46.0973814 113.4978113  60.0583114
  45.9498777 112.5694820  60.2390684  46.9227308 113.5198203  59.5740190
  39.9636059 102.1496180  55.9163607  40.3032131 102.6782101  55.1942215
  40.4108179 102.4876586  56.6922173  49.7007936 114.3206671  61.1447987
  50.6254484 114.1149533  61.0072438  49.5323240 114.0723073  62.0537329
  42.6579499 100.5333231  65.3666675  42.3176320  99.7341044  65.7687355
  41.9518506 100.8334941  64.7943508  43.3095971  97.6182543  63.8193998
  44.1322041  97.1443021  63.6972888  43.5534035  98.3973027  64.3192684
  41.9504206 100.6470801  54.1156899  42.6712568 101.0252054  53.6120616
  41.3269510 101.3659678  54.2191877  46.0935329 101.3515950  55.0515232
  46.3098943 102.2340588  54.7504060  45.6129396 100.9602164  54.3220874
  40.8334550 104.3101664  61.6285976  40.6879131 104.6241967  62.5210258
  40.3559754 104.9286564  61.0756875  42.6930933 101.3004212  61.6766866
  42.6792502 100.4045305  61.3399164  43.4103361 101.3074875  62.3105152
  44.5457064 101.7341552  63.7219993  44.2874841 102.6558622  63.7204324
  44.0142104 101.3371986  64.4120457  49.4903252 114.8392339  56.5010079
  49.6640130 114.2738761  55.7483931  49.9832144 115.6393234  56.3189569
  35.3080212 106.8507008  64.5673637  34.7633680 107.6266816  64.6993912
  36.1859562 107.1977812  64.4092759  42.0967829 100.1818592  56.9454436
  42.2183740  99.2535238  57.1445323  41.8069871 100.1957278  56.0332751
  44.9659019  97.8673502  60.0821156  44.9880716  97.9312835  59.1273135
  45.3827078  97.0278011  60.2761662  55.3442644 107.6028762  58.1200378
  55.7873790 106.8536087  57.7219502  54.4669154 107.5938898  57.7374110
  50.4778425 114.1559103  53.6006977  51.1729329 114.7765796  53.8194292
  50.8201575 113.3054455  53.8759355  36.0946234 105.9776904  67.4603794
  35.3527970 106.1259540  68.0468425  35.7738978 106.2385170  66.5970544
  52.3769848 111.6058809  55.1294308  52.9021172 111.9446082  54.4043628
  52.2892201 110.6705824  54.9457442  44.0389897 115.5192882  67.2584184
  44.3477023 115.2742029  68.1306884  44.8365379 115.7239521  66.7703055
  44.0610509 117.6730792  59.4889561  43.6215499 117.1807171  60.1822418
  44.8118626 117.1303760  59.2481636  36.5402848 113.8642333  59.4914189
  37.3660868 113.5646105  59.1112832  36.1896900 113.0949955  59.9403978
  41.5084381 113.2168801  61.5611863  40.8864390 112.5539506  61.2614090
  42.1789248 113.2429933  60.8785510  34.7411453 111.7828659  60.4503123
  33.9043361 111.3550834  60.2687124  34.7135098 111.9761103  61.3873914
  41.5808908 101.6950589  71.1544369  41.6297064 102.5712712  70.7722138
  42.1231423 101.1527982  70.5816012  52.0663754 112.2391712  70.4345506
  51.2759298 112.2215851  69.8950005  51.8297109 112.7780006  71.1894542
  52.1861629 109.0884179  67.7478234  52.2359634 108.9234186  68.6893757
  52.0775552 108.2211438  67.3576115  41.0697888 111.7672725  55.0370323
  41.2186008 112.4508189  54.3836996  41.8764331 111.7477815  55.5519779
  49.4765391 105.0715107  69.0637541  50.3775254 104.9321572  68.7721539
  49.5513366 105.2369562  70.0035718  43.8108197 102.4481962  67.9090727
  42.9411506 102.7415528  67.6373316  44.0467677 103.0322407  68.6297991
  53.6879826 111.5081120  67.9920256  53.3964634 111.8711101  68.8283717
  53.0751957 110.7948129  67.8133588  54.8875508 109.0734000  60.5122826
  55.7222400 109.5123804  60.6760386  55.0234637 108.5972653  59.6931072
  51.9367014 106.6313735  66.4600314  52.4121136 106.8241381  65.6519165
  51.0132580 106.6872921  66.2143697  38.8250521 107.7937902  56.0431392
  38.5796563 106.8900232  56.2411602  38.9946435 107.7955053  55.1010870
  46.5147231  98.6661579  65.4256148  47.0329174  99.4022605  65.1002636
  46.1602363  98.9725572  66.2602907  38.0946168 103.5266260  53.5417553
  37.4015413 103.6010615  52.8857589  37.8497920 102.7626603  54.0639070
  46.7659825  95.0861861  60.9457044  47.0461579  94.4185050  61.5717471
  47.5510432  95.2790957  60.4331708  44.5693293 114.2620855  52.5082071
  43.9967260 114.8811042  52.0552542  45.1426087 114.8120217  53.0421992
  50.6368683 103.5079495  64.6928619  51.5886106 103.6077593  64.7140843
  50.4672134 102.7157764  65.2026704  48.6583063 100.5935078  64.8788020
  48.0632995 100.8740091  64.1834509  48.3732759 101.0828979  65.6504761
  47.7890553 114.5458005  53.6390653  48.7221226 114.4803567  53.8423528
  47.7013766 115.3814272  53.1805185  50.4178570 113.8623875  50.5994600
  50.3392201 113.5283739  51.4930358  51.2388237 114.3545643  50.5986073
  53.1156761 106.7285615  63.8070919  53.0833081 105.7901616  63.9930603
  53.7257385 106.8069651  63.0736744  44.9540092 105.5981668  49.8498123
  45.8999197 105.4687876  49.9186541  44.5754337 104.8596330  50.3267551
  53.2651249 103.5196658  63.8529202  52.7490298 102.7355115  63.6659131
  54.1491198 103.1915375  64.0175722  50.9261976  97.2637674  59.8125015
  50.7286797  96.9552762  60.6968347  51.5361682  97.9899313  59.9422945
  58.9333311 107.7901622  62.9476956  59.6636699 107.5286910  63.5084659
  58.3240256 107.0530344  62.9879024  57.0148608 105.9309484  63.5451407
  56.2881771 105.7965449  62.9367899  56.5995895 106.2386313  64.3508125
  44.8378784 109.6499414  71.3098780  45.7581794 109.8278013  71.5038827
  44.8028367 108.7055459  71.1578479  43.1383009 103.5231644  49.7853008
  42.2314464 103.2264757  49.8615722  43.4158990 103.2261462  48.9187294
  34.0560949 104.8438008  60.2352055  33.7363734 103.9903316  59.9426429
  33.5094378 105.0586586  60.9910022  37.8340857 107.5600449  63.9521561
  38.0526867 108.4917556  63.9709595  38.2466631 107.2008423  64.7376365
  44.7545075  98.0668534  55.9397250  43.9445803  97.7215619  56.3152496
  45.4429492  97.7576078  56.5284861  46.6835623  97.1446581  57.5621546
  47.2366662  97.5642034  58.2211569  46.9205709  96.2182329  57.6044502
  42.7068722 103.1333654  73.3424310  42.6065449 104.0828011  73.2736401
  42.4890264 102.8051893  72.4700380  41.9081794 100.3818579  49.9264987
  42.7700958 100.7073478  50.1860805  42.0932138  99.5950075  49.4138053
  33.9249209 108.4640919  62.2045176  33.2312681 108.0494872  61.6915131
  34.6722200 108.5061456  61.6078595  50.0614430  99.2547106  57.0700210
  49.4813099  99.9131910  56.6878263  49.7950363  98.4324450  56.6587628
  48.5117996  98.6552164  59.2721531  49.0117775  98.7668698  58.4635850
  49.1553604  98.3513216  59.9122339  42.5699992 106.5630793  72.1589372
  42.0867074 107.3631153  72.3653261  42.6560931 106.5738738  71.2056816
  35.8385952 108.3959173  60.0811191  35.8156640 108.4946860  59.1293074
  36.1486588 109.2424324  60.4028357  38.4973330 110.4535328  64.1957806
  39.4516583 110.4219270  64.1287737  38.2985853 109.9925952  65.0108031
  39.0872712 109.0236444  66.7628603  39.9065601 109.5180523  66.7863440
  39.3609520 108.1068412  66.7346171  48.8439308 101.4147196  56.1256559
  47.9565163 101.6996847  55.9076753  49.2593297 101.2540960  55.2783836
  52.1953844 101.4393717  59.8410898  52.9714234 101.9290170  60.1135515
  51.4701978 101.8651771  60.2982767  54.6326403 102.1521336  60.8984839
  55.2270894 101.9117072  60.1878147  54.7052987 101.4328467  61.5258375
  47.9882522 111.1791871  50.2204579  48.6918372 111.3841873  50.8362234
  47.2645170 111.7468633  50.4853662  48.8180332 106.9301732  56.3406849
  48.7615533 107.3870284  55.5014481  49.3708674 106.1692417  56.1629692
  52.6285138 102.7191464  57.1656968  52.3722072 102.3188100  57.9965176
  52.0038006 103.4335258  57.0407108  56.9397476 105.4587537  59.6728260
  56.3797034 105.5280727  60.4459822  56.3340979 105.2828522  58.9527756
  49.8969219 111.6174400  52.2703039  50.7314823 111.1855599  52.0880514
  49.7353562 111.4456414  53.1979933  49.5515111 108.1206513  53.6359378
  49.4963915 107.9550785  52.6947822  48.9261166 108.8282546  53.7921568
  34.3407626 103.3574578  67.4620800  34.9866490 102.8473532  67.9508025
  34.1324777 104.0943259  68.0364225  46.8661018 110.4255425  72.9612941
  47.7352178 110.5996078  72.5999576  46.3867770 111.2449842  72.8388670
  42.8611237  97.6214622  53.2144696  42.8489906  98.5656462  53.3712967
  43.7534658  97.4384768  52.9204158  41.0347199 117.5452526  64.6402374
  41.9374445 117.5776137  64.9568869  40.8084569 116.6152977  64.6548710
  42.7900801 116.2983513  61.3012453  41.8396432 116.2985374  61.1876825
  43.0933287 115.5516247  60.7848488  46.6763356  94.2157399  57.4690633
  45.9095752  93.6615886  57.6147316  47.0874061  94.2879268  58.3304785
  38.6805117 100.5042195  71.5595814  39.5436579 100.1479000  71.7699139
  38.1070528 100.1656090  72.2471219  58.5253494 122.1344051  62.3658215
  59.1631904 122.0150799  61.6621556  58.4074337 123.0824895  62.4246168
  55.3343200 122.0871479  62.3019740  54.9961712 121.9712544  61.4140275
  56.2032968 121.6862644  62.2820746  55.8162983 123.2406331  68.2605946
  55.8051624 122.8459129  67.3886449  55.9783623 122.5072404  68.8539717
  53.0351480 120.8559727  51.6336680  53.2877000 120.3341248  50.8720143
  52.0976039 120.6925872  51.7363364  58.0794763 119.8595505  59.4411424
  58.8657852 119.4414928  59.0901841  58.3433467 120.7641597  59.6093072
  63.4803190 119.7970738  60.3444402  64.2128362 119.2269955  60.5782232
  62.7242545 119.4092339  60.7850908  55.0979309 122.2197980  57.5407744
  54.7337517 121.6928601  58.2520666  55.9546425 121.8296449  57.3674230
  61.0028610 113.5092312  64.8039011  60.6711935 114.3787723  64.5800226
  60.4074223 113.1928596  65.4833041  54.7384796 117.2487879  52.5369093
  54.9059199 118.1168116  52.9039564  54.5481965 117.4115161  51.6130382
  60.8957273 118.2287399  61.8832361  59.9874151 118.1602807  61.5891122
  60.8444869 118.7059343  62.7114186  54.7174017 119.7045537  53.5215760
  54.5973642 120.1502588  54.3601240  54.0226606 120.0530855  52.9629298
  54.9698139 119.6477044  69.8267258  54.1931473 120.2070964  69.8170123
  55.6088702 120.1333827  70.3482128  62.7618920 116.4303837  63.6610235
  62.1193300 116.7236370  63.0150029  62.2573848 116.3156757  64.4663431
  60.4159083 120.1767010  54.3496094  61.3276939 120.4094397  54.1743791
  59.9068730 120.7604054  53.7871172  55.0530921 119.5364245  65.3590943
  55.8992116 119.9603658  65.5025592  54.9929559 118.8797869  66.0529507
  58.2030366 117.1968613  67.0172117  57.9591298 117.9510674  66.4806393
  58.4790297 117.5753961  67.8519364  60.1568829 123.7407225  65.6949383
  60.3685724 124.3838985  65.0183764  60.1098577 122.9069542  65.2271313
  57.7595058 116.3525046  62.5985955  56.8979537 116.6506300  62.8902692
  57.7857493 116.5695445  61.6666987  53.5125514 121.0190389  55.8149326
  54.2149557 121.4711433  56.2823252  53.1806142 120.3774208  56.4429219
  51.9605875 119.6102146  70.1900535  51.3304536 120.2918427  70.4235932
  51.8541963 119.4985227  69.2453673  47.2550848 119.2773942  61.1166459
  46.4649902 119.5331470  60.6406570  47.7462095 120.0922280  61.2218500
  49.2065593 119.6418521  58.0749936  48.4096756 119.7537215  58.5933432
  48.9791185 119.9805173  57.2090826  69.3620650 122.9617929  60.2156711
  68.6084359 122.3925327  60.0600716  69.4968191 122.9280594  61.1627346
  51.2386618 113.9122911  72.5525786  50.8453563 113.3589110  73.2273430
  52.0552758 114.2233490  72.9432304  54.1554579 115.3280791  70.1446043
  54.8964292 115.9287944  70.0650505  54.3872502 114.5858428  69.5864085
  58.1011742 111.3561894  64.4210324  57.7576011 112.2463535  64.3449435
  58.4690704 111.1663551  63.5579909  58.0662025 121.3470505  52.9282759
  57.5508648 122.1175109  53.1671147  57.7939333 120.6735641  53.5515821
  55.6509136 116.1920205  57.9867998  54.7950732 115.8027056  57.8073636
  56.0636087 116.2712166  57.1267783  57.1808282 113.7266549  62.3859557
  56.6773078 113.6896684  61.5727363  57.4738889 114.6359291  62.4456214
  53.4251168 113.8105278  61.3925739  54.2904165 113.6148087  61.0331629
  53.4928677 113.5815630  62.3195096  63.0396299 124.1002859  54.8635933
  62.2625741 123.7614019  54.4191095  63.7187780 124.1055482  54.1890898
  57.8548328 119.2197597  54.7542541  57.5498463 119.5343746  55.6052684
  58.8078770 119.2979017  54.7969874  61.2787606 123.5736841  61.5202541
  60.6211280 124.2636102  61.6082669  62.0828005 123.9633272  61.8636527
  51.0313487 116.0407486  58.7642106  51.6057239 115.8182668  58.0315299
  51.6184470 116.1096181  59.5170707  60.0893064 121.9281213  59.5706483
  60.6024946 122.5611205  60.0728192  60.7394288 121.3282409  59.2049843
  51.3583074 118.0711947  52.7837991  50.5220387 118.4086634  53.1047266
  51.2187844 117.9360927  51.8465128  53.3336155 112.9148735  57.4917175
  52.6800567 112.5997752  56.8673790  53.2916629 112.2924476  58.2176998
  56.5673895 119.4030669  61.8164823  55.6496457 119.6245616  61.6586511
  56.9834039 119.4776979  60.9576530  57.3508943 120.8022084  56.9467503
  58.0980762 121.3143482  56.6374625  57.6200533 120.4806137  57.8071897
  59.7987780 117.8379201  58.9286293  59.0610537 117.3256587  59.2596535
  60.0514554 117.3979582  58.1169570  59.8999407 110.6155453  59.5228062
  60.2058284 109.7552816  59.2353977  60.6252012 111.2073073  59.3227056
  54.1720487 120.9109246  60.0304253  54.2269097 119.9583082  59.9546730
  53.3611689 121.0668685  60.5145551  52.1112847 119.5286306  57.7894632
  51.2980713 119.8280476  58.1959824  52.6071841 119.1341994  58.5069114
  57.7087059 119.9928130  66.6209526  58.0636447 120.2199603  67.4803992
  58.3559190 120.3246507  65.9986781  63.4384796 123.1146566  57.3258855
  63.3002694 123.3048162  56.3980044  63.0821015 123.8765949  57.7826906
  51.6026922 117.1004661  63.4055867  52.2426301 116.9593420  62.7078830
  50.7704452 116.8139174  63.0294469  63.4654175 125.1823093  62.3370126
  63.8990682 125.0898382  63.1853180  64.1785756 125.1580593  61.6990142
  48.6869989 120.5450173  55.5950612  47.7567577 120.4834629  55.8120574
  48.7827461 120.0226126  54.7987253  48.6055538 117.0704986  58.1828854
  48.8662356 117.9850319  58.0738014  49.4272711 116.6029429  58.3325466
  50.0780464 118.4842743  65.3527678  50.7503517 118.2760105  64.7040327
  49.2510250 118.2864829  64.9132910  64.3269725 125.2246794  64.8703012
  64.5205615 126.1292604  65.1162287  64.2270343 124.7654213  65.7041597
  55.9806036 115.1104684  67.3693339  55.3333951 115.8094634  67.2757815
  56.7507051 115.5440828  67.7369587  56.1570170 122.9485449  65.4290159
  57.0862230 123.0996609  65.2559126  55.7361200 123.0369470  64.5738805
  53.1090262 121.4705306  65.6013795  53.8189880 120.8298498  65.5600413
  53.0659570 121.7218200  66.5239976  51.8219196 118.4570523  67.4209434
  51.2856553 118.0061262  68.0731031  51.2335904 118.5916432  66.6779899
  51.2321454 117.9159175  49.9835898  50.3550921 117.7947976  49.6198145
  51.7079208 117.1245253  49.7314787  47.5558317 117.5926531  64.5062429
  47.4716506 116.9852201  63.7712839  46.7341023 118.0835549  64.5071925
  57.7282031 116.0780095  59.8732624  58.2250730 115.3250057  59.5533694
  56.9569012 116.1144411  59.3075833  65.5811788 121.7820460  61.5150915
  65.5701664 122.6645176  61.1444849  64.7129167 121.4292011  61.3205453
  54.3116999 118.2197478  59.6004309  53.9414787 117.6668518  60.2885214
  54.8076092 117.6155611  59.0479309  62.1984363 120.6769101  57.9821082
  62.6644815 121.5097093  57.9081384  62.6491863 120.2114083  58.6866340
  60.1701025 113.0449688  62.0211983  59.2564105 113.2753915  62.1894190
  60.5994127 113.1288132  62.8726015  59.9407484 121.2339580  64.5211877
  59.2878934 121.4815488  63.8664330  60.3187864 120.4203718  64.1874354
  55.9895057 121.9759391  71.0077914  55.3135694 121.8753520  71.6780289
  56.8122691 121.8198605  71.4713911  49.7082333 115.6301468  65.8457415
  49.7723660 116.4916299  65.4334812  49.6449453 115.0175470  65.1129773
  49.1834606 117.7024601  69.4930449  49.8106644 117.3201678  70.1067973
  48.3262524 117.4838803  69.8586141  45.9600148 119.5101030  55.4248804
  46.2553589 118.6011708  55.3715857  45.0588184 119.4888769  55.1029806
  49.4894395 117.5857027  61.4076352  48.7680981 118.1992994  61.2683826
  50.2787651 118.1214791  61.3292998  52.2920709 114.9211453  67.6817004
  52.8155111 115.1673750  68.4443313  52.0733042 115.7531488  67.2620141
  47.6887990 117.1915128  55.5488129  47.3600696 116.3112507  55.3663235
  48.0427361 117.1362796  56.4364518  50.8029813 117.4788097  55.9163607
  51.1425886 118.0074019  55.1942215  51.2501934 117.8168504  56.6922173
  53.4973254 115.8625148  65.3666675  53.1570074 115.0632961  65.7687355
  52.7912260 116.1626859  64.7943508  54.1489726 112.9474461  63.8193998
  54.9715795 112.4734939  63.6972888  54.3927789 113.7264944  64.3192684
  52.7897960 115.9762719  54.1156899  53.5106323 116.3543972  53.6120616
  52.1663264 116.6951596  54.2191877  56.9329083 116.6807868  55.0515232
  57.1492697 117.5632506  54.7504060  56.4523150 116.2894081  54.3220874
  51.6728304 119.6393581  61.6285976  51.5272885 119.9533884  62.5210258
  51.1953508 120.2578482  61.0756875  53.5324687 116.6296129  61.6766866
  53.5186256 115.7337223  61.3399164  54.2497115 116.6366793  62.3105152
  55.3850818 117.0633469  63.7219993  55.1268596 117.9850540  63.7204324
  54.8535858 116.6663904  64.4120457  52.9361583 115.5110510  56.9454436
  53.0577494 114.5827156  57.1445323  52.6463626 115.5249196  56.0332751
  55.8052774 113.1965420  60.0821156  55.8274471 113.2604753  59.1273135
  56.2220833 112.3569929  60.2761662  66.1836398 122.9320680  58.1200378
  66.6267544 122.1828005  57.7219502  65.3062908 122.9230816  57.7374110
  52.4202663 117.0242507  71.1544369  52.4690818 117.9004630  70.7722138
  52.9625177 116.4819900  70.5816012  63.0255384 124.4176097  67.7478234
  63.0753388 124.2526104  68.6893757  62.9169307 123.5503356  67.3576115
  60.3159146 120.4007025  69.0637541  61.2169009 120.2613489  68.7721539
  60.3907120 120.5661479  70.0035718  54.6501951 117.7773879  67.9090727
  53.7805261 118.0707445  67.6373316  54.8861432 118.3614324  68.6297991
  65.7269263 124.4025918  60.5122826  66.5616154 124.8415722  60.6760386
  65.8628392 123.9264571  59.6931072  62.7760769 121.9605653  66.4600314
  63.2514890 122.1533299  65.6519165  61.8526334 122.0164839  66.2143697
  57.3540985 113.9953496  65.4256148  57.8722929 114.7314523  65.1002636
  56.9996118 114.3017490  66.2602907  48.9339923 118.8558177  53.5417553
  48.2409168 118.9302532  52.8857589  48.6891675 118.0918521  54.0639070
  57.6053579 110.4153779  60.9457044  57.8855333 109.7476968  61.5717471
  58.3904186 110.6082874  60.4331708  61.4762438 118.8371413  64.6928619
  62.4279861 118.9369510  64.7140843  61.3065888 118.0449681  65.2026704
  59.4976817 115.9226996  64.8788020  58.9026749 116.2032009  64.1834509
  59.2126514 116.4120897  65.6504761  63.9550515 122.0577532  63.8070919
  63.9226836 121.1193533  63.9930603  64.5651139 122.1361569  63.0736744
  55.7933846 120.9273585  49.8498123  56.7392951 120.7979794  49.9186541
  55.4148091 120.1888247  50.3267551  64.1045004 118.8488576  63.8529202
  63.5884053 118.0647033  63.6659131  64.9884952 118.5207293  64.0175722
  61.7655731 112.5929591  59.8125015  61.5680552 112.2844680  60.6968347
  62.3755436 113.3191230  59.9422945  69.7727065 123.1193539  62.9476956
  70.5030454 122.8578827  63.5084659  69.1634011 122.3822261  62.9879024
  67.8542362 121.2601402  63.5451407  67.1275526 121.1257367  62.9367899
  67.4389649 121.5678230  64.3508125  53.9776763 118.8523562  49.7853008
  53.0708219 118.5556675  49.8615722  54.2552744 118.5553380  48.9187294
  55.5938829 113.3960452  55.9397250  54.7839557 113.0507537  56.3152496
  56.2823246 113.0867995  56.5284861  57.5229377 112.4738498  57.5621546
  58.0760416 112.8933952  58.2211569  57.7599464 111.5474246  57.6044502
  53.5462477 118.4625572  73.3424310  53.4459204 119.4119929  73.2736401
  53.3284019 118.1343811  72.4700380  52.7475548 115.7110497  49.9264987
  53.6094712 116.0365395  50.1860805  52.9325892 114.9241993  49.4138053
  60.9008185 114.5839023  57.0700210  60.3206854 115.2423828  56.6878263
  60.6344117 113.7616368  56.6587628  59.3511751 113.9844081  59.2721531
  59.8511529 114.0960616  58.4635850  59.9947359 113.6805134  59.9122339
  59.6833063 116.7439114  56.1256559  58.7958918 117.0288765  55.9076753
  60.0987052 116.5832877  55.2783836  63.0347599 116.7685635  59.8410898
  63.8107989 117.2582087  60.1135515  62.3095733 117.1943689  60.2982767
  65.4720157 117.4813254  60.8984839  66.0664648 117.2408990  60.1878147
  65.5446741 116.7620385  61.5258375  59.6574086 122.2593650  56.3406849
  59.6009288 122.7162201  55.5014481  60.2102429 121.4984334  56.1629692
  63.4678892 118.0483382  57.1656968  63.2115826 117.6480017  57.9965176
  62.8431760 118.7627176  57.0407108  67.7791230 120.7879455  59.6728260
  67.2190788 120.8572644  60.4459822  67.1734733 120.6120440  58.9527756
  60.3908866 123.4498431  53.6359378  60.3357669 123.2842702  52.6947822
  59.7654921 124.1574464  53.7921568  45.1801381 118.6866495  67.4620800
  45.8260244 118.1765449  67.9508025  44.9718532 119.4235177  68.0364225
  53.7004991 112.9506540  53.2144696  53.6883661 113.8948380  53.3712967
  54.5928413 112.7676685  52.9204158  57.5157111 109.5449317  57.4690633
  56.7489506 108.9907803  57.6147316  57.9267815 109.6171185  58.3304785
  49.5198872 115.8334113  71.5595814  50.3830333 115.4770917  71.7699139
  48.9464282 115.4948007  72.2471219  68.9405496 126.6853811  64.4210324
  68.5969766 127.5755453  64.3449435  69.3084459 126.4955469  63.5579909
  70.7393162 125.9447370  59.5228062  71.0452039 125.0844734  59.2353977
  71.4645767 126.5364991  59.3227056  68.4447334 125.7445696  60.9457044
  68.7249088 125.0768886  61.5717471  69.2297941 125.9374792  60.4331708
  72.6049485 127.9221509  59.8125015  72.4074306 127.6136597  60.6968347
  73.2149191 128.6483148  59.9422945  68.3550865 124.8741234  57.4690633
  67.5883261 124.3199721  57.6147316  68.7661570 124.9463103  58.3304785
   4.3284723  22.4946585  49.0903522   4.9663133  22.3753333  48.3866862
   4.2105566  23.4427429  49.1491474   1.1374429  22.4474014  49.0265047
   0.7992941  22.3315078  48.1385582   2.0064197  22.0465179  49.0066053
   1.6194212  23.6008865  54.9851252   1.6082853  23.2061664  54.1131756
   1.7814852  22.8674938  55.5785024   2.5760804  27.9680458  40.3276403
   1.9248783  28.5534538  39.9410416   3.3705166  28.4986653  40.3871440
   3.8825991  20.2198039  46.1656730   4.6689081  19.8017462  45.8147147
   4.1464696  21.1244131  46.3338379   4.0536069  25.6570890  40.8645387
   3.4181902  25.7305516  41.5766292   3.7233475  26.2464488  40.1864466
   9.2834418  20.1573272  47.0689709  10.0159590  19.5872489  47.3027538
   8.5273774  19.7694873  47.5096214   0.9010538  22.5800514  44.2653051
   0.5368745  22.0531135  44.9765973   1.7577654  22.1898983  44.0919537
   3.2991358  26.0707393  50.9280230   2.9992081  26.9732431  50.8196037
   2.9542418  25.8039576  51.7801383   6.6988502  18.5889933  48.6077667
   5.7905379  18.5205341  48.3136428   6.6476098  19.0661878  49.4359493
   8.5650149  16.7906371  50.3855541   7.9224529  17.0838904  49.7395336
   8.0605077  16.6759291  51.1908738   6.2190312  20.5369544  41.0741401
   7.1308168  20.7696931  40.8989098   5.7099959  21.1206589  40.5116479
   4.5031080  24.9594172  54.7102693   4.9114436  24.5176583  53.9657325
   3.7808341  24.3846800  54.9636886   0.8562150  19.8966779  52.0836250
   1.7023345  20.3206192  52.2270899   0.7960788  19.2400403  52.7774813
   4.8259894  25.5195363  48.4654982   4.1968757  25.6841077  47.7631050
   4.4385557  25.9336972  49.2365946   8.7049126  26.4549801  45.8199346
   8.0200165  26.8348702  45.2696379   8.7892976  27.0645127  46.5531293
   4.0061595  17.5571147  53.7417424   3.7622527  18.3113208  53.2051699
   4.2821526  17.9356495  54.5764671   5.9600058  24.1009760  52.4194689
   6.1716953  24.7441520  51.7429070   5.9129806  23.2672076  51.9516619
   3.5626287  16.7127580  49.3231261   2.7010766  17.0108834  49.6147999
   3.5888722  16.9297979  48.3912294   7.0745886  26.9781715  50.5917047
   7.8963330  26.5761902  50.3099728   7.0708289  26.8749949  51.5433162
  15.1651879  23.3220464  46.9402018  14.4115587  22.7527862  46.7846022
  15.2999420  23.2883128  47.8872653   2.1818983  28.8157432  56.7457080
   1.7382838  28.0293811  56.4277984   2.8436197  29.0036583  56.0800970
   4.2800221  29.0960232  54.7738481   4.2618697  29.9169113  54.2818750
   5.2020142  28.9714308  54.9988622   3.8693253  21.7073039  39.6528066
   3.3539877  22.4777643  39.8916453   3.5970562  21.0338175  40.2761127
   8.8427527  24.4605393  41.5881239   8.0656970  24.1216553  41.1436402
   9.5219008  24.4658017  40.9136205   3.6579557  19.5800131  41.4787847
   3.3529692  19.8946280  42.3297990   4.6109999  19.6581551  41.5215180
   2.1025988  25.7390354  43.1280801   1.5747350  25.0043114  42.8154039
   1.6013491  26.5165031  42.8820769   7.0818834  23.9339375  48.2447847
   6.4242509  24.6238636  48.3327976   7.8859234  24.3235807  48.5881834
   5.8924293  22.2883747  46.2951789   6.4056175  22.9213739  46.7973499
   6.5425517  21.6884943  45.9295149   3.1546667  32.2668072  39.0512460
   2.4808366  32.5699768  39.6597418   3.5412489  33.0697152  38.7017917
   2.3705124  19.7633203  48.5410130   1.4527685  19.9848150  48.3831818
   2.7865268  19.8379513  47.6821837   3.1540172  21.1624619  43.6712810
   3.9011991  21.6746016  43.3619932   3.4231761  20.8408671  44.5317204
   1.4266822  23.6583159  40.6539764   0.5178041  23.3742192  40.7512234
   1.4561906  24.0782238  39.7943071   6.6586089  27.2689749  44.4230932
   6.2048416  26.4280659  44.4796122   6.0280056  27.9051147  44.7605712
   5.6019009  18.1981735  45.6531599   4.8641766  17.6859121  45.9841842
   5.8545782  17.7582117  44.8414876   5.1019029  29.1066246  45.3580750
   5.3942003  29.6671303  44.6393116   5.6117649  29.3994807  46.1133909
   1.1242910  25.1991903  37.9927843   0.6862340  24.4827762  37.5333480
   1.8653351  25.4268018  37.4312934   3.5118288  20.3530664  53.3454832
   3.8667675  20.5802137  54.2049298   4.1590419  20.6849041  52.7232088
   9.2416025  23.4749100  44.0504161   9.1033923  23.6650696  43.1225351
   8.8852243  24.2368483  44.5072213   9.2685404  25.5425627  49.0615433
   9.7021911  25.4500916  49.9098487   9.9816985  25.5183128  48.4235449
   3.0013299  29.1427721  50.5948534   3.0550321  29.7118658  51.3626249
   2.1328080  29.3129606  50.2302571  10.1300954  25.5849328  51.5948318
  10.3236844  26.4895138  51.8407593  10.0301572  25.1256747  52.4286903
   5.1916062  25.7356071  57.1689199   5.0401569  25.5066622  56.2519283
   5.1820742  26.6926672  57.1820544   1.9601399  23.3087983  52.1535465
   2.8893459  23.4599143  51.9804433   1.5392429  23.3972004  51.2984112
   1.3537883  32.4347744  41.2659540   1.5289638  31.9635787  42.0805162
   0.6670671  33.0613510  41.4940800   2.3094946  26.7120250  47.3122841
   1.9744778  26.6721020  48.2080491   1.8098891  26.0464966  46.8393251
   5.2454137  24.0576285  37.5859900   4.6283308  23.3323113  37.4892953
   4.7770626  24.8185645  37.2426975   6.9008269  28.7675193  55.2465681
   6.8420815  28.0834413  54.5796264   7.3027787  29.5094183  54.7946307
   6.9025676  26.7314777  53.4779660   6.0152455  26.3940699  53.6006059
   7.4724227  25.9997808  53.7148426  11.3843017  22.1422994  48.2396222
  11.3732893  23.0247710  47.8690155  10.5160396  21.7894545  48.0450759
   2.8925513  31.2903063  52.5999062   3.6053485  31.9250528  52.5274964
   2.4015542  31.3866929  51.7839064   4.6143040  25.1954316  44.1716354
   3.6799319  25.3155779  44.0021058   4.7919709  24.2926783  43.9076364
   8.0015591  21.0371635  44.7066388   8.4676044  21.8699627  44.6326691
   8.4523092  20.5716617  45.4111647   6.0691823  27.3815457  41.7052540
   6.3451666  27.2672051  42.6146414   5.1996321  26.9832941  41.6664713
   5.7438713  21.5942114  51.2457184   5.0910163  21.8418022  50.5909636
   6.1219093  20.7806252  50.9119661   2.7045887  31.6301807  45.3485354
   2.8868281  30.8123463  45.8113106   3.5278873  31.8469500  44.9110244
   3.0388052  30.5569993  42.6100402   3.5675819  30.0462447  41.9970564
   3.3016272  30.2412523  43.4745935   1.7926286  22.3361925  57.7323221
   1.1166923  22.2356055  58.4025596   2.6153920  22.1801139  58.1959218
   0.5349069  33.6428853  51.9680837   1.0867377  33.8060474  52.7329922
   0.8755262  34.2333291  51.2960861   5.3859943  28.4690110  57.8229491
   5.9299847  29.0820069  57.3284446   4.8046788  29.0269689  58.3396504
   3.6717456  31.5910828  48.9544519   3.5468595  30.7900568  48.4455464
   4.3296547  32.0857022  48.4658489   5.7352364  29.3919848  50.5824069
   4.7882700  29.2725200  50.5102396   6.0835137  28.5042346  50.6650330
   2.7398798  29.1872565  46.7828421   2.5923760  28.2589272  46.9635991
   3.5652291  29.2092655  46.2985496   6.3432919  30.0101123  47.8693294
   7.2679467  29.8043985  47.7317745   6.1748223  29.7617525  48.7782635
   6.1328236  30.5286791  43.2255385   6.3065113  29.9633213  42.4729238
   6.6257127  31.3287686  43.0434875  11.9867627  23.2923214  44.8445685
  12.4298773  22.5430539  44.4464808  11.1094137  23.2833350  44.4619417
   7.1203408  29.8453555  40.3252284   7.8154313  30.4660248  40.5439598
   7.4626558  28.9948906  40.6004661   9.0194831  27.2953261  41.8539614
   9.5446155  27.6340533  41.1288934   8.9317184  26.3600276  41.6702749
   0.6814880  31.2087334  53.9829491   0.9902006  30.9636481  54.8552191
   1.4790362  31.4133973  53.4948361   8.7088737  27.9286164  57.1590812
   7.9184281  27.9110303  56.6195312   8.4722092  28.4674458  57.9139849
   8.8286612  24.7778631  54.4723541   8.8784617  24.6128638  55.4139064
   8.7200536  23.9105890  54.0821422   6.1190375  20.7609559  55.7882848
   7.0200238  20.6216024  55.4966845   6.1938349  20.9264014  56.7281025
  10.3304809  27.1975572  54.7165562  10.0389618  27.5605553  55.5529023
   9.7176940  26.4842581  54.5378894  11.5300492  24.7628452  47.2368133
  12.3647383  25.2018256  47.4005693  11.6659620  24.2867105  46.4176378
   8.5791997  22.3208187  53.1845620   9.0546119  22.5135833  52.3764472
   7.6557563  22.3767373  52.9389004   1.2118277  29.9515307  39.2327377
   0.6392244  30.5705494  38.7797849   1.7851070  30.5014669  39.7667299
   7.2793666  19.1973947  51.4173926   8.2311089  19.2972045  51.4386150
   7.1097117  18.4052216  51.9272010   5.3008046  16.2829530  51.6033327
   4.7057978  16.5634543  50.9079815   5.0157743  16.7723431  52.3750068
   4.4315536  30.2352457  40.3635959   5.3646210  30.1698019  40.5668835
   4.3438749  31.0708724  39.9050492   7.0603553  29.5518327  37.3239907
   6.9817185  29.2178191  38.2175665   7.8813220  30.0440095  37.3231379
   9.7581744  22.4180067  50.5316226   9.7258064  21.4796067  50.7175909
  10.3682368  22.4964103  49.7982050   1.5965075  21.2876120  36.5743430
   2.5424180  21.1582328  36.6431848   1.2179320  20.5490782  37.0512858
   9.9076233  19.2091110  50.5774509   9.3915281  18.4249567  50.3904438
  10.7916181  18.8809827  50.7421028  15.5758294  23.4796074  49.6722262
  16.3061683  23.2181362  50.2329966  14.9665240  22.7424795  49.7124330
  13.6573591  21.6203936  50.2696714  12.9306755  21.4859901  49.6613205
  13.2420878  21.9280765  51.0753432   1.4803768  25.3393866  58.0344087
   2.4006777  25.5172465  58.2284133   1.4453351  24.3949911  57.8823786
   6.7039413  14.9441558  43.7945517   6.1238082  15.6026362  43.4123569
   6.4375346  14.1218902  43.3832935   5.4864291  17.1041648  42.8501865
   4.5990146  17.3891299  42.6322060   5.9018280  16.9435411  42.0029142
   8.8378827  17.1288169  46.5656205   9.6139218  17.6184622  46.8380821
   8.1126962  17.5546223  47.0228074  11.2751386  17.8415788  47.6230145
  11.8695877  17.6011524  46.9123453  11.3477970  17.1222919  48.2503681
   4.6307505  26.8686323  36.9449885   5.3343355  27.0736325  37.5607541
   3.9070154  27.4363085  37.2098969   5.4605315  22.6196184  43.0652155
   5.4040517  23.0764735  42.2259788   6.0133658  21.8586869  42.8874998
   9.2710121  18.4085916  43.8902275   9.0147055  18.0082552  44.7210483
   8.6462989  19.1229710  43.7652414  13.5822459  21.1481989  46.3973566
  13.0222017  21.2175178  47.1705128  12.9765962  20.9722974  45.6773063
   6.5394202  27.3068852  38.9948345   7.3739806  26.8750050  38.8125820
   6.3778545  27.1350866  39.9225240   6.1940094  23.8100965  40.3604685
   6.1388898  23.6445237  39.4193129   5.5686150  24.5176998  40.5166874
   3.5086002  26.1149877  59.6858247   4.3777161  26.2890529  59.3244882
   3.0292753  26.9344294  59.5633977  15.1678477  37.8238503  49.0903522
  15.8056887  37.7045250  48.3866862  15.0499320  38.7719347  49.1491474
  11.9768184  37.7765931  49.0265047  11.6386695  37.6606996  48.1385582
  12.8457952  37.3757096  49.0066053   7.8354999  39.6301408  45.0161938
   7.2719864  39.5391345  44.2478226   7.7207394  38.8101312  45.4964430
  12.4587967  38.9300783  54.9851252  12.4476607  38.5353581  54.1131756
  12.6208606  38.1966856  55.5785024   5.3819431  41.1252599  47.8546158
   6.1740723  40.7843424  47.4392458   5.6216081  41.2347574  48.7748312
  13.4154558  43.2972375  40.3276403  12.7642538  43.8826456  39.9410416
  14.2098921  43.8278570  40.3871440   7.3410185  40.3861512  40.7263537
   8.1141061  39.8390500  40.5876413   7.6935584  41.2505762  40.9377998
   9.1795228  41.7137895  53.9330436   8.8885094  42.6183526  53.8177103
   9.8152212  41.7554422  54.6474506  10.1051435  39.0914743  50.5231796
  10.7015007  38.8670766  49.8088759  10.1626406  38.3499489  51.1257244
   9.6776463  36.5454179  38.3581987   9.9301984  36.0235700  37.5965450
   8.7401022  36.3820324  38.4608671  14.7219746  35.5489957  46.1656730
  15.5082835  35.1309380  45.8147147  14.9858450  36.4536049  46.3338379
  14.8929823  40.9862807  40.8645387  14.2575656  41.0597434  41.5766292
  14.5627230  41.5756406  40.1864466  20.1228173  35.4865190  47.0689709
  20.8553345  34.9164407  47.3027538  19.3667529  35.0986791  47.5096214
   9.3972752  38.4482285  40.5606362   9.2809010  37.7727188  41.2287446
   9.5075012  37.9614658  39.7438515  11.7404293  37.9092432  44.2653051
  11.3762500  37.3823053  44.9765973  12.5971409  37.5190901  44.0919537
  17.6453593  29.1986764  51.5284317  17.3136918  30.0682175  51.3045532
  17.0499207  28.8823048  52.2078348  11.3809780  32.9382331  39.2614400
  11.5484182  33.8062568  39.6284871  11.1906949  33.1009613  38.3375689
  14.1385113  41.3999310  50.9280230  13.8385836  42.3024349  50.8196037
  13.7936172  41.1331493  51.7801383   7.5897594  37.8513107  46.9616934
   6.6648091  37.7189321  47.1694626   7.8382008  38.6307326  47.4586877
  17.5382257  33.9181850  48.6077667  16.6299134  33.8497259  48.3136428
  17.4869852  34.3953795  49.4359493  11.3599001  35.3939989  40.2461066
  11.2398626  35.8397040  41.0846547  10.6651589  35.7425306  39.6874605
   4.9506405  37.4946381  47.7960723   5.0798787  37.7480860  48.7100135
   4.2703857  38.0874089  47.4765379   9.1205893  48.1643631  43.8951198
   9.0429922  49.1151456  43.9739678   8.5167536  47.8189503  44.5526124
  11.6123122  35.3371496  56.5512565  10.8356456  35.8965416  56.5415429
  12.2513685  35.8228279  57.0727435  19.4043903  32.1198289  50.3855541
  18.7618283  32.4130822  49.7395336  18.8998832  32.0051209  51.1908738
  17.0584067  35.8661462  41.0741401  17.9701923  36.0988849  40.8989098
  16.5493714  36.4498506  40.5116479   9.8669495  38.1456949  56.1130532
  10.6084179  38.6841993  55.8365355   9.1606480  38.7723238  56.2702083
  15.3424834  40.2886090  54.7102693  15.7508190  39.8468500  53.9657325
  14.6202096  39.7138717  54.9636886  11.6955904  35.2258697  52.0836250
  12.5417100  35.6498110  52.2270899  11.6354542  34.5692321  52.7774813
  15.6653649  40.8487280  48.4654982  15.0362511  41.0132995  47.7631050
  15.2779311  41.2628890  49.2365946  19.5442881  41.7841718  45.8199346
  18.8593919  42.1640620  45.2696379  19.6286730  42.3937045  46.5531293
  14.8455350  32.8863065  53.7417424  14.6016282  33.6405125  53.2051699
  15.1215280  33.2648413  54.5764671  16.7993812  39.4301677  52.4194689
  17.0110708  40.0733437  51.7429070  16.7523561  38.5963994  51.9516619
  14.4020041  32.0419498  49.3231261  13.5404520  32.3400752  49.6147999
  14.4282476  32.2589897  48.3912294  11.2181611  40.5861689  45.7305067
  11.6819956  40.8649392  44.9409690  10.9538409  39.6845133  45.5478158
   8.1105692  40.1333170  48.6684830   8.6807049  40.5620438  48.0302315
   8.7013804  39.8515755  49.3669016  10.1550497  36.7084841  42.5394632
  10.8574540  37.1605885  43.0068559   9.8231125  36.0668660  43.1674525
   8.6030858  35.2996598  56.9145842   7.9729519  35.9812878  57.1481238
   8.4966946  35.1879679  55.9698980   3.8975831  34.9668394  47.8411766
   3.1074885  35.2225922  47.3651876   4.3887078  35.7816731  47.9463806
  17.9139640  42.3073633  50.5917047  18.7357084  41.9053820  50.3099728
  17.9102043  42.2041867  51.5433162   5.8490576  35.3312973  44.7995242
   5.0521740  35.4431667  45.3178738   5.6216168  35.6699625  43.9336133
  11.6796244  41.8557676  52.7477757  11.7440676  42.3178083  53.5835929
  10.9707168  41.2255041  52.8760067   2.1813534  35.2198884  50.2726757
   2.4321572  36.1045894  50.5384333   2.7173082  35.0403486  49.5001848
  26.0045633  38.6512381  46.9402018  25.2509342  38.0819779  46.7846022
  26.1393175  38.6175046  47.8872653  11.3944262  43.5225784  42.6156737
  11.2589936  44.3677319  43.0441585  11.9354074  43.7245061  41.8522671
   7.8811601  29.6017363  59.2771093   7.4878547  29.0483562  59.9518737
   8.6977741  29.9127942  59.6677610   4.8473659  41.0401222  43.1884663
   5.3598179  41.8344472  43.3390227   5.4996372  40.3427512  43.1218264
   6.6568544  44.1566978  45.2707416   6.8335172  45.0784943  45.0828400
   7.4525377  43.8425397  45.7001795  10.7979562  31.0175242  56.8691349
  11.5389276  31.6182396  56.7895812  11.0297485  30.2752880  56.3109392
   5.9420900  36.2031610  55.1469579   5.8274415  35.3016867  55.4476678
   5.0865418  36.4495306  54.7954395  13.0212738  44.1449350  56.7457080
  12.5776592  43.3585729  56.4277984  13.6829951  44.3328501  56.0800970
   7.7799859  45.6745152  51.2717758   8.3307284  45.5462215  50.4994752
   6.9411335  45.9740041  50.9212651  15.1193976  44.4252150  54.7738481
  15.1012451  45.2461031  54.2818750  16.0413896  44.3006225  54.9988622
  11.5767030  41.9396279  55.6161989  12.1095367  41.1784568  55.3861297
  11.0481111  41.6469931  56.3586144  14.7436725  27.0456345  51.1455631
  14.4000994  27.9357987  51.0694741  15.1115688  26.8558003  50.2825216
   2.8122576  39.3689876  43.9644233   3.6497798  39.7786884  43.7477941
   2.9900843  38.4289318  43.9344427  14.7087008  37.0364957  39.6528066
  14.1933631  37.8069561  39.8916453  14.4364316  36.3630093  40.2761127
  12.2934119  31.8814657  44.7113304  11.4375715  31.4921508  44.5318943
  12.7061071  31.9606618  43.8513090  13.8233265  29.4161001  49.1104864
  13.3198061  29.3791136  48.2972669  14.1163872  30.3253743  49.1701521
  10.0676151  29.4999730  48.1171046  10.9329148  29.3042539  47.7576935
  10.1353660  29.2710082  49.0440403  19.6821282  39.7897311  41.5881239
  18.9050725  39.4508471  41.1436402  20.3612763  39.7949934  40.9136205
  14.4973311  34.9092049  41.4787847  14.1923447  35.2238198  42.3297990
  15.4503753  34.9873469  41.5215180  12.9419743  41.0682272  43.1280801
  12.4141104  40.3335032  42.8154039  12.4407246  41.8456948  42.8820769
  17.9212589  39.2631292  48.2447847  17.2636263  39.9530554  48.3327976
  18.7252988  39.6527724  48.5881834   7.6738470  31.7301938  45.4887413
   8.2482222  31.5077120  44.7560606   8.2609453  31.7990633  46.2416014
  16.7318048  37.6175665  46.2951789  17.2449929  38.2505657  46.7973499
  17.3819272  37.0176861  45.9295149   8.0008058  33.7606399  39.5083298
   7.1645370  34.0981086  39.8292573   7.8612827  33.6255379  38.5710435
   9.9761138  28.6043187  44.2162482   9.3225551  28.2892204  43.5919097
   9.9341612  27.9818928  44.9422305  11.0872343  38.8862482  36.1315774
  10.1799405  38.6551736  36.3306923  11.5843375  38.0900101  36.3189756
  13.9940422  47.5959989  39.0512460  13.3202121  47.8991686  39.6597418
  14.3806244  48.3989070  38.7017917  13.2098879  35.0925121  48.5410130
  12.2921440  35.3140068  48.3831818  13.6259022  35.1671431  47.6821837
  13.9933926  36.4916536  43.6712810  14.7405745  37.0037934  43.3619932
  14.2625516  36.1700589  44.5317204  12.2660576  38.9875077  40.6539764
  11.3571796  38.7034110  40.7512234  12.2955660  39.4074156  39.7943071
  17.4979844  42.5981667  44.4230932  17.0442171  41.7572576  44.4796122
  16.8673811  43.2343065  44.7605712  16.4412763  33.5273653  45.6531599
  15.7035520  33.0151039  45.9841842  16.6939537  33.0874034  44.8414876
  15.9412783  44.4358163  45.3580750  16.2335757  44.9963220  44.6393116
  16.4511404  44.7286724  46.1133909  16.5424391  26.3049905  46.2473369
  16.8483268  25.4447268  45.9599284  17.2676996  26.8967525  46.0472362
   2.8348747  36.7080591  44.6354966   2.6373147  36.1149952  43.9106033
   2.2795411  36.4032801  45.3530905  10.8145470  36.6003698  46.7549560
  10.8694080  35.6477534  46.6792036  10.0036673  36.7563137  47.2390858
  11.9636664  40.5283821  37.9927843  11.5256094  39.8119680  37.5333480
  12.7047105  40.7559936  37.4312934   8.7537830  35.2180757  44.5139938
   7.9405696  35.5174928  44.9205131   9.2496825  34.8236446  45.2314421
  10.9046408  45.2138514  46.4474203  10.8622587  45.4399361  45.5182735
  11.8209107  44.9801889  46.5960004  14.3512042  35.6822582  53.3454832
  14.7061430  35.9094055  54.2049298  14.9984173  36.0140959  52.7232088
  20.0809779  38.8041018  44.0504161  19.9427678  38.9942614  43.1225351
  19.7245998  39.5660401  44.5072213   8.2451905  32.7899113  50.1301173
   8.8851285  32.6487872  49.4324137   7.4129436  32.5033626  49.7539775
  20.1079159  40.8717545  49.0615433  20.5415665  40.7792834  49.9098487
  20.8210739  40.8475045  48.4235449   9.0212209  42.0901543  46.2436166
   9.8152808  41.5951863  46.0418741   8.3103901  41.5619406  45.8803871
  13.8407054  44.4719639  50.5948534  13.8944076  45.0410575  51.3626249
  12.9721835  44.6421524  50.2302571   5.3294973  36.2344625  42.3195919
   4.3992561  36.1729081  42.5365881   5.4252445  35.7120578  41.5232560
   5.2480522  32.7599438  44.9074160   5.5087339  33.6744771  44.7983321
   6.0697694  32.2923880  45.0570773   6.7205447  34.1737195  52.0772985
   7.3928500  33.9654557  51.4285634   5.8935233  33.9759281  51.6378217
  20.9694708  40.9141245  51.5948318  21.1630598  41.8187056  51.8407593
  20.8695326  40.4548665  52.4286903  12.6231019  30.7999136  54.0938646
  11.9758934  31.4989086  54.0003122  13.3932034  31.2335280  54.4614894
  16.0309817  41.0647988  57.1689199  15.8795323  40.8358540  56.2519283
  16.0214496  42.0218590  57.1820544  12.7995153  38.6379901  52.1535465
  13.7287213  38.7891061  51.9804433  12.3786183  38.7263922  51.2984112
  11.5983485  42.6630565  49.9234003  11.4594571  42.2949350  50.7959941
  10.8098081  43.1778205  49.7517961  12.1931637  47.7639662  41.2659540
  12.3683393  47.2927705  42.0805162  11.5064425  48.3905428  41.4940800
  13.1488700  42.0412168  47.3122841  12.8138533  42.0012938  48.2080491
  12.6492646  41.3756884  46.8393251   7.1232944  37.4479798  52.8375422
   6.9852742  36.7160037  53.4386961   8.0337868  37.3588698  52.5559610
  16.0847892  39.3868202  37.5859900  15.4677063  38.6615031  37.4892953
  15.6164380  40.1477563  37.2426975   9.7515245  37.1599757  52.3259102
  10.4614863  36.5192950  52.2845720   9.7084553  37.4112652  53.2485282
  17.7402024  44.0967111  55.2465681  17.6814570  43.4126331  54.5796264
  18.1421542  44.8386101  54.7946307   8.4644179  34.1464975  54.1454741
   7.9281536  33.6955714  54.7976337   7.8760887  34.2810884  53.4025205
   6.7592722  50.9129025  48.0399400   6.9989321  51.5447549  48.7178418
   5.9161919  50.5617065  48.3264759   7.8746438  33.6053627  36.7081205
   6.9975904  33.4842427  36.3443451   8.3504191  32.8139705  36.4560093
  17.7419431  42.0606695  53.4779660  16.8546210  41.7232616  53.6006059
  18.3117982  41.3289726  53.7148426   4.1983300  33.2820983  51.2307736
   4.1141489  32.6746653  50.4958145   3.3766006  33.7730001  51.2317232
  11.2720584  46.7208147  50.4440904  11.1990756  47.5263119  50.9560208
  10.8297977  46.9200113  49.6188925  11.0610364  45.9579917  43.9543725
  10.2777886  46.5001597  44.0481950  11.7603109  46.4753897  44.3537966
  14.3707014  31.7674547  46.5977931  14.8675713  31.0144509  46.2779001
  13.5993995  31.8038863  46.0321140  22.2236771  37.4714912  48.2396222
  22.2126648  38.3539627  47.8690155  21.3554151  37.1186463  48.0450759
  13.7319268  46.6194981  52.5999062  14.4447240  47.2542446  52.5274964
  13.2409296  46.7158847  51.7839064  15.4536795  40.5246234  44.1716354
  14.5193073  40.6447696  44.0021058  15.6313463  39.6218700  43.9076364
  10.9541983  33.9091929  46.3249615  10.5839770  33.3562970  47.0130521
  11.4501075  33.3050063  45.7724615  18.8409346  36.3663553  44.7066388
  19.3069798  37.1991545  44.6326691  19.2916846  35.9008535  45.4111647
   8.7831181  44.3689425  53.4204633   9.4840641  45.0025907  53.5734027
   8.3126296  44.7104156  52.6600272  16.9085577  42.7107374  41.7052540
  17.1845421  42.5963969  42.6146414  16.0390076  42.3124859  41.6664713
  16.8126009  28.7344140  48.7457289  15.8989089  28.9648367  48.9139496
  17.2419110  28.8182584  49.5971322  16.5832467  36.9234032  51.2457184
  15.9303917  37.1709939  50.5909636  16.9612847  36.1098170  50.9119661
  13.5439641  46.9593725  45.3485354  13.7262036  46.1415381  45.8113106
  14.3672627  47.1761417  44.9110244  13.8781807  45.8861910  42.6100402
  14.4069573  45.3754365  41.9970564  14.1410026  45.5704440  43.4745935
  12.6320040  37.6653843  57.7323221  11.9560677  37.5647972  58.4025596
  13.4547674  37.5093057  58.1959218   4.3798899  43.9025780  50.3535736
   4.9652336  43.1569467  50.4863640   4.1823738  44.2129736  51.2372400
   7.2337555  46.9377027  45.3698178   6.5647930  47.4223155  44.8862218
   7.0950424  47.1846247  46.2841557  11.3742823  48.9720770  51.9680837
  11.9261131  49.1352392  52.7329922  11.7149017  49.5625208  51.2960861
   6.3507316  31.3195920  52.5702721   6.4148643  32.1810751  52.1580119
   6.2874437  30.7069922  51.8375080   5.8259589  33.3919053  56.2175756
   6.4531628  33.0096130  56.8313280   4.9687508  33.1733255  56.5831448
  16.2253697  43.7982028  57.8229491  16.7693601  44.4111986  57.3284446
  15.6440542  44.3561606  58.3396504   2.6025132  35.1995482  42.1494110
   2.8978573  34.2906160  42.0961164   1.7013167  35.1783221  41.8275113
  14.5111210  46.9202746  48.9544519  14.3862350  46.1192486  48.4455464
  15.1690302  47.4148939  48.4658489   6.1319379  33.2751478  48.1321659
   5.4105964  33.8887446  47.9929132   6.9212634  33.8109243  48.0538305
  16.5746119  44.7211766  50.5824069  15.6276454  44.6017117  50.5102396
  16.9228892  43.8334264  50.6650330   8.9345692  30.6105905  54.4062311
   9.4580094  30.8568202  55.1688620   8.7158025  31.4425940  53.9865448
   4.3312973  32.8809580  42.2733436   4.0025679  32.0006959  42.0908541
   4.6852344  32.8257248  43.1609825  13.5792552  44.5164482  46.7828421
  13.4317515  43.5881190  46.9635991  14.4046046  44.5384573  46.2985496
   7.4454796  33.1682549  42.6408913   7.7850869  33.6968471  41.9187522
   7.8926917  33.5062956  43.4167480  17.1826674  45.3393041  47.8693294
  18.1073221  45.1335902  47.7317745  17.0141977  45.0909442  48.7782635
  10.1398237  31.5519600  52.0911981   9.7995058  30.7527413  52.4932661
   9.4337243  31.8521311  51.5188814  10.7914709  28.6368913  50.5439304
  11.6140778  28.1629391  50.4218195  11.0352773  29.4159396  51.0437991
   9.4322944  31.6657171  40.8402206  10.1531306  32.0438424  40.3365923
   8.8088248  32.3846048  40.9437184  13.5754066  32.3702320  41.7760538
  13.7917681  33.2526958  41.4749366  13.0948134  31.9788533  41.0466180
   8.3153288  35.3288033  48.3531283   8.1697868  35.6428336  49.2455564
   7.8378491  35.9472933  47.8002182  10.1749671  32.3190581  48.4012172
  10.1611239  31.4231674  48.0644470  10.8922099  32.3261245  49.0350459
  12.0275801  32.7527921  50.4465300  11.7693579  33.6744992  50.4449630
  11.4960842  32.3558356  51.1365764  16.9721990  45.8578708  43.2255385
  17.1458868  45.2925131  42.4729238  17.4650881  46.6579603  43.0434875
   2.7898950  37.8693378  51.2918944   2.2452418  38.6453186  51.4239218
   3.6678300  38.2164182  51.1338066   9.5786567  31.2004961  43.6699743
   9.7002478  30.2721608  43.8690630   9.2888609  31.2143647  42.7578058
  12.4477757  28.8859872  46.8066462  12.4699454  28.9499205  45.8518442
  12.8645816  28.0464381  47.0006969  22.8261381  38.6215131  44.8445685
  23.2692527  37.8722457  44.4464808  21.9487892  38.6125268  44.4619417
  17.9597163  45.1745473  40.3252284  18.6548067  45.7952166  40.5439598
  18.3020313  44.3240824  40.6004661   3.5764972  36.9963274  54.1849101
   2.8346708  37.1445909  54.7713731   3.2557716  37.2571539  53.3215850
  19.8588586  42.6245178  41.8539614  20.3839910  42.9632451  41.1288934
  19.7710938  41.6892194  41.6702749  11.5208634  46.5379252  53.9829491
  11.8295761  46.2928399  54.8552191  12.3184116  46.7425891  53.4948361
  11.5429246  48.6917162  46.2134868  11.1034237  48.1993540  46.9067724
  12.2937363  48.1490129  45.9726943   4.0221585  44.8828703  46.2159496
   4.8479605  44.5832474  45.8358139   3.6715637  44.1136325  46.6649284
   8.9903119  44.2355171  48.2857169   8.3683128  43.5725876  47.9859397
   9.6607986  44.2616303  47.6030817   2.2230191  42.8015029  47.1748429
   1.3862099  42.3737203  46.9932430   2.1953836  42.9947472  48.1119220
   9.0627646  32.7136959  57.8789675   9.1115802  33.5899082  57.4967445
   9.6050160  32.1714352  57.3061318  19.5482492  43.2578082  57.1590812
  18.7578036  43.2402221  56.6195312  19.3115846  43.7966376  57.9139849
  19.6680367  40.1070548  54.4723541  19.7178372  39.9420556  55.4139064
  19.5594290  39.2397807  54.0821422   8.5516626  42.7859094  41.7615630
   8.7004746  43.4694559  41.1082302   9.3583069  42.7664184  42.2765085
  16.9584129  36.0901476  55.7882848  17.8593992  35.9507941  55.4966845
  17.0332104  36.2555931  56.7281025  11.2926935  33.4668331  54.6336034
  10.4230244  33.7601897  54.3618622  11.5286415  34.0508776  55.3543297
  21.1698564  42.5267490  54.7165562  20.8783372  42.8897470  55.5529023
  20.5570695  41.8134498  54.5378894  22.3694246  40.0920370  47.2368133
  23.2041137  40.5310174  47.4005693  22.5053375  39.6159023  46.4176378
  19.4185752  37.6500105  53.1845620  19.8939874  37.8427751  52.3764472
  18.4951317  37.7059290  52.9389004   6.3069259  38.8124272  42.7676699
   6.0615300  37.9086602  42.9656909   6.4765173  38.8141422  41.8256177
  13.9965968  29.6847948  52.1501454  14.5147912  30.4208975  51.8247943
  13.6421101  29.9911941  52.9848213   5.5764906  34.5452629  40.2662860
   4.8834151  34.6196984  39.6102896   5.3316658  33.7812973  40.7884377
  14.2478563  26.1048231  47.6702351  14.5280316  25.4371420  48.2962777
  15.0329170  26.2977326  47.1577015  12.0512031  45.2807225  39.2327377
  11.4785998  45.8997412  38.7797849  12.6244825  45.8306586  39.7667299
  18.1187421  34.5265865  51.4173926  19.0704844  34.6263962  51.4386150
  17.9490871  33.7344133  51.9272010  16.1401800  31.6121448  51.6033327
  15.5451733  31.8926461  50.9079815  15.8551497  32.1015349  52.3750068
  15.2709291  45.5644375  40.3635959  16.2039964  45.4989936  40.5668835
  15.1832504  46.4000642  39.9050492  17.8997308  44.8810245  37.3239907
  17.8210939  44.5470109  38.2175665  18.7206974  45.3732013  37.3231379
  20.5975499  37.7471984  50.5316226  20.5651819  36.8087985  50.7175909
  21.2076122  37.8256021  49.7982050  12.4358830  36.6168037  36.5743430
  13.3817934  36.4874245  36.6431848  12.0573075  35.8782699  37.0512858
  20.7469987  34.5383028  50.5774509  20.2309036  33.7541484  50.3904438
  21.6309936  34.2101744  50.7421028  18.4080714  28.2824043  46.5370321
  18.2105535  27.9739132  47.4213653  19.0180420  29.0085682  46.6668251
  26.4152049  38.8087991  49.6722262  27.1455437  38.5473279  50.2329966
  25.8058994  38.0716713  49.7124330  24.4967346  36.9495854  50.2696714
  23.7700509  36.8151819  49.6613205  24.0814633  37.2572682  51.0753432
  12.3197522  40.6685783  58.0344087  13.2400532  40.8464382  58.2284133
  12.2847105  39.7241829  57.8823786  10.6201747  34.5418014  36.5098315
   9.7133202  34.2451126  36.5861028  10.8977728  34.2447832  35.6432601
   1.5379687  35.8624377  46.9597361   1.2182471  35.0089685  46.6671735
   0.9913115  36.0772955  47.7155329   5.3159595  38.5786818  50.6766868
   5.5345604  39.5103926  50.6954902   5.7285368  38.2194793  51.4621672
  12.2363812  29.0854903  42.6642556  11.4264541  28.7401988  43.0397802
  12.9248229  28.7762447  43.2530168  14.1654361  28.1632950  44.2866853
  14.7185399  28.5828404  44.9456876  14.4024447  27.2368698  44.3289809
  10.1887460  34.1520024  60.0669617  10.0884187  35.1014381  59.9981708
   9.9709002  33.8238263  59.1945687   9.3900531  31.4004949  36.6510294
  10.2519695  31.7259847  36.9106111   9.5750876  30.6136445  36.1383360
   1.4067947  39.4827289  48.9290483   0.7131419  39.0681241  48.4160437
   2.1540938  39.5247825  48.3323902  17.5433168  30.2733475  43.7945517
  16.9631837  30.9318279  43.4123569  17.2769101  29.4510820  43.3832935
  15.9936734  29.6738533  45.9966837  16.4936513  29.7855068  45.1881156
  16.6372342  29.3699586  46.6367646  10.0518730  37.5817163  58.8834678
   9.5685812  38.3817523  59.0898567  10.1379669  37.5925108  57.9302122
   3.3204690  39.4145542  46.8056498   3.2975378  39.5133230  45.8538381
   3.6305326  40.2610693  47.1273664   5.9792068  41.4721697  50.9203112
   6.9335321  41.4405640  50.8533044   5.7804591  41.0112321  51.7353338
   6.5691450  40.0422813  53.4873910   7.3884339  40.5366892  53.5108747
   6.8428257  39.1254782  53.4591477  16.3258046  32.4333566  42.8501865
  15.4383901  32.7183216  42.6322060  16.7412035  32.2727329  42.0029142
  19.6772582  32.4580087  46.5656205  20.4532972  32.9476539  46.8380821
  18.9520716  32.8838141  47.0228074  22.1145141  33.1707706  47.6230145
  22.7089631  32.9303442  46.9123453  22.1871724  32.4514837  48.2503681
   4.3342296  47.0141317  47.9373310   4.1996764  46.2541718  47.3711308
   3.9174359  47.7382217  47.4702099  15.4701259  42.1978240  36.9449885
  16.1737109  42.4028243  37.5607541  14.7463908  42.7655002  37.2098969
  16.2999070  37.9488102  43.0652155  16.2434271  38.4056653  42.2259788
  16.8527412  37.1878786  42.8874998  20.1103876  33.7377834  43.8902275
  19.8540810  33.3374469  44.7210483  19.4856744  34.4521628  43.7652414
  24.4216213  36.4773907  46.3973566  23.8615771  36.5467096  47.1705128
  23.8159717  36.3014891  45.6773063   7.4911422  47.9110634  48.1491753
   7.3743806  48.8556066  48.0470443   6.6703868  47.6084195  48.5377552
  17.3787957  42.6360770  38.9948345  18.2133561  42.2041968  38.8125820
  17.2172300  42.4642783  39.9225240  17.0333849  39.1392883  40.3604685
  16.9782653  38.9737154  39.4193129  16.4079904  39.8468916  40.5166874
   1.8226364  34.3760947  54.1866107   2.4685227  33.8659901  54.6753332
   1.6143515  35.1129629  54.7609532  14.3479756  41.4441795  59.6858247
  15.2170916  41.6182447  59.3244882  13.8686508  42.2636212  59.5633977
  10.3429974  28.6400992  39.9390003  10.3308644  29.5842832  40.0958274
  11.2353396  28.4571137  39.6449464   8.5165936  48.5638896  51.3647681
   9.4193183  48.5962506  51.6814176   8.2903306  47.6339347  51.3794017
  10.2719538  47.3169882  48.0257760   9.3215169  47.3171744  47.9122132
  10.5752024  46.5702617  47.5093794  14.1582094  25.2343769  44.1935940
  13.3914490  24.6802255  44.3392622  14.5692799  25.3065637  45.0550091
   6.1623855  31.5228564  58.2841121   7.0255316  31.1665369  58.4944446
   5.5889266  31.1842459  58.9716525  26.0072232  53.1530421  49.0903522
  26.6450642  53.0337168  48.3866862  25.8893075  54.1011265  49.1491474
  22.8161938  53.1057849  49.0265047  22.4780450  52.9898914  48.1385582
  23.6851706  52.7049014  49.0066053  18.6748754  54.9593325  45.0161938
  18.1113619  54.8683262  44.2478226  18.5601149  54.1393230  45.4964430
  23.2981721  54.2592701  54.9851252  23.2870362  53.8645499  54.1131756
  23.4602361  53.5258773  55.5785024  16.2213186  56.4544517  47.8546158
  17.0134478  56.1135342  47.4392458  16.4609836  56.5639492  48.7748312
  24.2548313  58.6264293  40.3276403  23.6036292  59.2118373  39.9410416
  25.0492675  59.1570488  40.3871440  18.1803940  55.7153430  40.7263537
  18.9534816  55.1682417  40.5876413  18.5329339  56.5797679  40.9377998
  20.0188982  57.0429812  53.9330436  19.7278848  57.9475443  53.8177103
  20.6545967  57.0846340  54.6474506  20.9445189  54.4206661  50.5231796
  21.5408761  54.1962683  49.8088759  21.0020161  53.6791406  51.1257244
  20.5170217  51.8746096  38.3581987  20.7695738  51.3527618  37.5965450
  19.5794777  51.7112242  38.4608671  25.5613500  50.8781875  46.1656730
  26.3476590  50.4601298  45.8147147  25.8252205  51.7827967  46.3338379
  25.7323578  56.3154725  40.8645387  25.0969411  56.3889351  41.5766292
  25.4020984  56.9048324  40.1864466  30.9621927  50.8157108  47.0689709
  31.6947099  50.2456325  47.3027538  30.2061283  50.4278708  47.5096214
  20.2366506  53.7774202  40.5606362  20.1202764  53.1019106  41.2287446
  20.3468766  53.2906576  39.7438515  22.5798047  53.2384349  44.2653051
  22.2156254  52.7114970  44.9765973  23.4365163  52.8482818  44.0919537
  28.4847348  44.5278682  51.5284317  28.1530673  45.3974093  51.3045532
  27.8892961  44.2114966  52.2078348  22.2203534  48.2674249  39.2614400
  22.3877936  49.1354485  39.6284871  22.0300703  48.4301531  38.3375689
  24.9778867  56.7291228  50.9280230  24.6779590  57.6316267  50.8196037
  24.6329927  56.4623411  51.7801383  18.4291349  53.1805025  46.9616934
  17.5041845  53.0481239  47.1694626  18.6775762  53.9599244  47.4586877
  28.3776011  49.2473768  48.6077667  27.4692888  49.1789177  48.3136428
  28.3263607  49.7245713  49.4359493  22.1992755  50.7231906  40.2461066
  22.0792380  51.1688957  41.0846547  21.5045343  51.0717224  39.6874605
  15.7900160  52.8238298  47.7960723  15.9192541  53.0772777  48.7100135
  15.1097611  53.4166006  47.4765379  19.9599647  63.4935548  43.8951198
  19.8823677  64.4443373  43.9739678  19.3561291  63.1481421  44.5526124
  22.4516877  50.6663414  56.5512565  21.6750211  51.2257334  56.5415429
  23.0907440  51.1520197  57.0727435  30.2437658  47.4490206  50.3855541
  29.6012038  47.7422740  49.7395336  29.7392586  47.3343127  51.1908738
  27.8977821  51.1953380  41.0741401  28.8095677  51.4280766  40.8989098
  27.3887468  51.7790424  40.5116479  20.7063249  53.4748867  56.1130532
  21.4477934  54.0133911  55.8365355  20.0000235  54.1015156  56.2702083
  26.1818589  55.6178008  54.7102693  26.5901945  55.1760418  53.9657325
  25.4595850  55.0430635  54.9636886  22.5349659  50.5550614  52.0836250
  23.3810854  50.9790028  52.2270899  22.4748297  49.8984239  52.7774813
  26.5047403  56.1779198  48.4654982  25.8756266  56.3424912  47.7631050
  26.1173066  56.5920808  49.2365946  25.6849104  48.2154983  53.7417424
  25.4410036  48.9697043  53.2051699  25.9609035  48.5940330  54.5764671
  27.6387567  54.7593595  52.4194689  27.8504462  55.4025355  51.7429070
  27.5917315  53.9255912  51.9516619  25.2413796  47.3711416  49.3231261
  24.3798275  47.6692669  49.6147999  25.2676231  47.5881815  48.3912294
  22.0575365  55.9153606  45.7305067  22.5213711  56.1941309  44.9409690
  21.7932163  55.0137051  45.5478158  18.9499446  55.4625088  48.6684830
  19.5200803  55.8912356  48.0302315  19.5407558  55.1807672  49.3669016
  20.9944251  52.0376759  42.5394632  21.6968295  52.4897802  43.0068559
  20.6624880  51.3960577  43.1674525  19.4424613  50.6288515  56.9145842
  18.8123274  51.3104796  57.1481238  19.3360701  50.5171597  55.9698980
  14.7369585  50.2960311  47.8411766  13.9468639  50.5517840  47.3651876
  15.2280833  51.1108649  47.9463806  28.7533395  57.6365550  50.5917047
  29.5750839  57.2345738  50.3099728  28.7495798  57.5333785  51.5433162
  16.6884331  50.6604890  44.7995242  15.8915494  50.7723585  45.3178738
  16.4609923  50.9991543  43.9336133  22.5189998  57.1849594  52.7477757
  22.5834431  57.6470001  53.5835929  21.8100922  56.5546959  52.8760067
  13.0207288  50.5490802  50.2726757  13.2715327  51.4337812  50.5384333
  13.5566837  50.3695403  49.5001848  36.8439388  53.9804299  46.9402018
  36.0903096  53.4111697  46.7846022  36.9786929  53.9466963  47.8872653
  22.2338016  58.8517701  42.6156737  22.0983691  59.6969237  43.0441585
  22.7747829  59.0536979  41.8522671  18.7205356  44.9309281  59.2771093
  18.3272301  44.3775480  59.9518737  19.5371496  45.2419860  59.6677610
  15.6867413  56.3693139  43.1884663  16.1991934  57.1636389  43.3390227
  16.3390126  55.6719430  43.1218264  17.4962298  59.4858896  45.2707416
  17.6728926  60.4076860  45.0828400  18.2919132  59.1717315  45.7001795
  21.6373317  46.3467160  56.8691349  22.3783030  46.9474313  56.7895812
  21.8691239  45.6044798  56.3109392  16.7814655  51.5323527  55.1469579
  16.6668170  50.6308785  55.4476678  15.9259172  51.7787224  54.7954395
  23.8606492  59.4741268  56.7457080  23.4170347  58.6877646  56.4277984
  24.5223706  59.6620418  56.0800970  18.6193614  61.0037069  51.2717758
  19.1701039  60.8754133  50.4994752  17.7805089  61.3031958  50.9212651
  25.9587730  59.7544068  54.7738481  25.9406206  60.5752949  54.2818750
  26.8807651  59.6298143  54.9988622  22.4160785  57.2688197  55.6161989
  22.9489121  56.5076485  55.3861297  21.8874866  56.9761849  56.3586144
  25.5830480  42.3748263  51.1455631  25.2394749  43.2649905  51.0694741
  25.9509442  42.1849921  50.2825216  13.6516330  54.6981794  43.9644233
  14.4891552  55.1078802  43.7477941  13.8294598  53.7581236  43.9344427
  25.5480762  52.3656874  39.6528066  25.0327386  53.1361479  39.8916453
  25.2758071  51.6922010  40.2761127  23.1327873  47.2106575  44.7113304
  22.2769470  46.8213425  44.5318943  23.5454825  47.2898536  43.8513090
  24.6627020  44.7452918  49.1104864  24.1591816  44.7083053  48.2972669
  24.9557627  45.6545661  49.1701521  20.9069906  44.8291648  48.1171046
  21.7722903  44.6334457  47.7576935  20.9747415  44.6002000  49.0440403
  30.5215036  55.1189229  41.5881239  29.7444479  54.7800388  41.1436402
  31.2006517  55.1241852  40.9136205  25.3367065  50.2383966  41.4787847
  25.0317201  50.5530115  42.3297990  26.2897508  50.3165386  41.5215180
  23.7813497  56.3974190  43.1280801  23.2534859  55.6626949  42.8154039
  23.2801000  57.1748866  42.8820769  28.7606343  54.5923210  48.2447847
  28.1030018  55.2822471  48.3327976  29.5646743  54.9819642  48.5881834
  18.5132225  47.0593856  45.4887413  19.0875977  46.8369037  44.7560606
  19.1003207  47.1282550  46.2416014  27.5711802  52.9467583  46.2951789
  28.0843684  53.5797575  46.7973499  28.2213026  52.3468778  45.9295149
  18.8401812  49.0898317  39.5083298  18.0039124  49.4273003  39.8292573
  18.7006582  48.9547297  38.5710435  20.8154893  43.9335105  44.2162482
  20.1619305  43.6184122  43.5919097  20.7735367  43.3110845  44.9422305
  21.9266098  54.2154400  36.1315774  21.0193159  53.9843653  36.3306923
  22.4237129  53.4192019  36.3189756  24.8334176  62.9251907  39.0512460
  24.1595875  63.2283604  39.6597418  25.2199998  63.7280987  38.7017917
  24.0492633  50.4217038  48.5410130  23.1315194  50.6431985  48.3831818
  24.4652777  50.4963349  47.6821837  24.8327681  51.8208454  43.6712810
  25.5799500  52.3329851  43.3619932  25.1019270  51.4992507  44.5317204
  23.1054331  54.3166995  40.6539764  22.1965550  54.0326028  40.7512234
  23.1349415  54.7366073  39.7943071  28.3373598  57.9273584  44.4230932
  27.8835925  57.0864494  44.4796122  27.7067565  58.5634983  44.7605712
  27.2806518  48.8565570  45.6531599  26.5429275  48.3442956  45.9841842
  27.5333291  48.4165952  44.8414876  26.7806538  59.7650081  45.3580750
  27.0729512  60.3255138  44.6393116  27.2905158  60.0578642  46.1133909
  27.3818145  41.6341822  46.2473369  27.6877022  40.7739186  45.9599284
  28.1070750  42.2259442  46.0472362  13.6742501  52.0372509  44.6354966
  13.4766901  51.4441870  43.9106033  13.1189165  51.7324719  45.3530905
  21.6539225  51.9295615  46.7549560  21.7087835  50.9769452  46.6792036
  20.8430427  52.0855054  47.2390858  22.8030419  55.8575738  37.9927843
  22.3649849  55.1411597  37.5333480  23.5440860  56.0851853  37.4312934
  19.5931585  50.5472675  44.5139938  18.7799450  50.8466846  44.9205131
  20.0890579  50.1528364  45.2314421  21.7440163  60.5430432  46.4474203
  21.7016342  60.7691278  45.5182735  22.6602862  60.3093807  46.5960004
  25.1905797  51.0114500  53.3454832  25.5455184  51.2385973  54.2049298
  25.8377928  51.3432876  52.7232088  30.9203534  54.1332935  44.0504161
  30.7821432  54.3234531  43.1225351  30.5639752  54.8952318  44.5072213
  19.0845660  48.1191031  50.1301173  19.7245039  47.9779790  49.4324137
  18.2523190  47.8325544  49.7539775  30.9472913  56.2009462  49.0615433
  31.3809420  56.1084752  49.9098487  31.6604494  56.1766963  48.4235449
  19.8605964  57.4193461  46.2436166  20.6546562  56.9243781  46.0418741
  19.1497656  56.8911324  45.8803871  24.6800808  59.8011557  50.5948534
  24.7337830  60.3702493  51.3626249  23.8115589  59.9713442  50.2302571
  16.1688727  51.5636543  42.3195919  15.2386315  51.5020998  42.5365881
  16.2646199  51.0412496  41.5232560  16.0874276  48.0891356  44.9074160
  16.3481093  49.0036689  44.7983321  16.9091448  47.6215798  45.0570773
  17.5599201  49.5029113  52.0772985  18.2322255  49.2946475  51.4285634
  16.7328988  49.3051199  51.6378217  23.4624773  46.1291054  54.0938646
  22.8152688  46.8281003  54.0003122  24.2325789  46.5627198  54.4614894
  26.8703571  56.3939906  57.1689199  26.7189078  56.1650458  56.2519283
  26.8608251  57.3510507  57.1820544  23.6388908  53.9671819  52.1535465
  24.5680968  54.1182978  51.9804433  23.2179938  54.0555839  51.2984112
  22.4377240  57.9922483  49.9234003  22.2988325  57.6241267  50.7959941
  21.6491836  58.5070122  49.7517961  23.0325392  63.0931579  41.2659540
  23.2077147  62.6219623  42.0805162  22.3458180  63.7197346  41.4940800
  23.9882455  57.3704086  47.3122841  23.6532287  57.3304856  48.2080491
  23.4886400  56.7048802  46.8393251  17.9626699  52.7771716  52.8375422
  17.8246497  52.0451955  53.4386961  18.8731622  52.6880616  52.5559610
  26.9241646  54.7160120  37.5859900  26.3070817  53.9906948  37.4892953
  26.4558135  55.4769480  37.2426975  20.5908999  52.4891675  52.3259102
  21.3008618  51.8484867  52.2845720  20.5478308  52.7404570  53.2485282
  28.5795778  59.4259028  55.2465681  28.5208324  58.7418249  54.5796264
  28.9815296  60.1678018  54.7946307  19.3037933  49.4756893  54.1454741
  18.7675290  49.0247631  54.7976337  18.7154642  49.6102802  53.4025205
  17.5986477  66.2420942  48.0399400  17.8383075  66.8739466  48.7178418
  16.7555673  65.8908982  48.3264759  18.7140192  48.9345544  36.7081205
  17.8369659  48.8134345  36.3443451  19.1897945  48.1431623  36.4560093
  28.5813185  57.3898612  53.4779660  27.6939964  57.0524534  53.6006059
  29.1511736  56.6581644  53.7148426  10.2342332  53.7222704  46.8022712
  10.9213372  53.4084434  46.2143727  10.0790461  54.6264069  46.5289963
  15.0377055  48.6112901  51.2307736  14.9535243  48.0038570  50.4958145
  14.2159761  49.1021919  51.2317232  22.1114339  62.0500065  50.4440904
  22.0384510  62.8555036  50.9560208  21.6691732  62.2492031  49.6188925
  21.9004118  61.2871835  43.9543725  21.1171640  61.8293515  44.0481950
  22.5996863  61.8045814  44.3537966  25.2100768  47.0966464  46.5977931
  25.7069468  46.3436427  46.2779001  24.4387750  47.1330781  46.0321140
  33.0630526  52.8006830  48.2396222  33.0520402  53.6831545  47.8690155
  32.1947905  52.4478381  48.0450759  24.5713022  61.9486899  52.5999062
  25.2840994  62.5834364  52.5274964  24.0803051  62.0450765  51.7839064
  26.2930549  55.8538151  44.1716354  25.3586828  55.9739614  44.0021058
  26.4707218  54.9510618  43.9076364  21.7935737  49.2383847  46.3249615
  21.4233525  48.6854888  47.0130521  22.2894830  48.6341981  45.7724615
  29.6803100  51.6955471  44.7066388  30.1463553  52.5283462  44.6326691
  30.1310601  51.2300452  45.4111647  19.6224936  59.6981342  53.4204633
  20.3234395  60.3317825  53.5734027  19.1520051  60.0396074  52.6600272
  27.7479332  58.0399292  41.7052540  28.0239175  57.9255887  42.6146414
  26.8783830  57.6416777  41.6664713  27.6519763  44.0636058  48.7457289
  26.7382843  44.2940285  48.9139496  28.0812865  44.1474502  49.5971322
  27.4226222  52.2525950  51.2457184  26.7697672  52.5001857  50.5909636
  27.8006602  51.4390088  50.9119661  24.3833396  62.2885643  45.3485354
  24.5655790  61.4707299  45.8113106  25.2066382  62.5053335  44.9110244
  24.7175561  61.2153828  42.6100402  25.2463328  60.7046283  41.9970564
  24.9803781  60.8996358  43.4745935  23.4713795  52.9945761  57.7323221
  22.7954432  52.8939890  58.4025596  24.2941429  52.8384974  58.1959218
  15.2192654  59.2317697  50.3535736  15.8046091  58.4861385  50.4863640
  15.0217492  59.5421654  51.2372400  18.0731309  62.2668945  45.3698178
  17.4041684  62.7515072  44.8862218  17.9344179  62.5138165  46.2841557
   9.8110309  51.8023297  49.0740179   9.8494408  51.2686888  49.8677297
   9.3050601  51.2758503  48.4551156  22.2136578  64.3012688  51.9680837
  22.7654886  64.4644310  52.7329922  22.5542771  64.8917126  51.2960861
  17.1901071  46.6487838  52.5702721  17.2542397  47.5102669  52.1580119
  17.1268191  46.0361840  51.8375080  16.6653343  48.7210970  56.2175756
  17.2925382  48.3388048  56.8313280  15.8081262  48.5025172  56.5831448
  27.0647452  59.1273946  57.8229491  27.6087356  59.7403904  57.3284446
  26.4834297  59.6853524  58.3396504  13.4418886  50.5287400  42.1494110
  13.7372327  49.6198078  42.0961164  12.5406922  50.5075139  41.8275113
  25.3504965  62.2494664  48.9544519  25.2256104  61.4484404  48.4455464
  26.0084056  62.7440857  48.4658489  16.9713133  48.6043396  48.1321659
  16.2499719  49.2179364  47.9929132  17.7606389  49.1401161  48.0538305
  27.4139873  60.0503684  50.5824069  26.4670209  59.9309035  50.5102396
  27.7622646  59.1626182  50.6650330  19.7739447  45.9397823  54.4062311
  20.2973848  46.1860119  55.1688620  19.5551780  46.7717857  53.9865448
  15.1706728  48.2101497  42.2733436  14.8419434  47.3298876  42.0908541
  15.5246098  48.1549166  43.1609825  24.4186307  59.8456400  46.7828421
  24.2711269  58.9173107  46.9635991  25.2439800  59.8676491  46.2985496
  18.2848551  48.4974467  42.6408913  18.6244623  49.0260388  41.9187522
  18.7320671  48.8354873  43.4167480  28.0220428  60.6684959  47.8693294
  28.9466976  60.4627820  47.7317745  27.8535732  60.4201360  48.7782635
  20.9791992  46.8811518  52.0911981  20.6388812  46.0819331  52.4932661
  20.2730998  47.1813229  51.5188814  21.6308464  43.9660830  50.5439304
  22.4534533  43.4921308  50.4218195  21.8746527  44.7451314  51.0437991
  20.2716698  46.9949089  40.8402206  20.9925060  47.3730341  40.3365923
  19.6482002  47.7137965  40.9437184  24.4147821  47.6994238  41.7760538
  24.6311435  48.5818875  41.4749366  23.9341888  47.3080451  41.0466180
  19.1547042  50.6579951  48.3531283  19.0091623  50.9720254  49.2455564
  18.6772246  51.2764851  47.8002182  21.0143425  47.6482499  48.4012172
  21.0004994  46.7523592  48.0644470  21.7315853  47.6553163  49.0350459
  22.8669556  48.0819839  50.4465300  22.6087334  49.0036910  50.4449630
  22.3354596  47.6850274  51.1365764  27.8115745  61.1870626  43.2255385
  27.9852622  60.6217049  42.4729238  28.3044636  61.9871521  43.0434875
  13.6292704  53.1985295  51.2918944  13.0846173  53.9745103  51.4239218
  14.5072054  53.5456100  51.1338066  20.4180321  46.5296879  43.6699743
  20.5396232  45.6013525  43.8690630  20.1282363  46.5435565  42.7578058
  23.2871511  44.2151790  46.8066462  23.3093208  44.2791123  45.8518442
  23.7039570  43.3756298  47.0006969  33.6655136  53.9507049  44.8445685
  34.1086282  53.2014374  44.4464808  32.7881646  53.9417185  44.4619417
  28.7990917  60.5037391  40.3252284  29.4941822  61.1244083  40.5439598
  29.1414067  59.6532742  40.6004661  14.4158726  52.3255192  54.1849101
  13.6740462  52.4737827  54.7713731  14.0951471  52.5863457  53.3215850
  30.6982340  57.9537096  41.8539614  31.2233664  58.2924369  41.1288934
  30.6104693  57.0184111  41.6702749  22.3602389  61.8671170  53.9829491
  22.6689515  61.6220317  54.8552191  23.1577871  62.0717808  53.4948361
  22.3823001  64.0209079  46.2134868  21.9427991  63.5285458  46.9067724
  23.1331118  63.4782047  45.9726943  14.8615340  60.2120620  46.2159496
  15.6873360  59.9124392  45.8358139  14.5109392  59.4428243  46.6649284
  19.8296873  59.5647088  48.2857169  19.2076882  58.9017793  47.9859397
  20.5001740  59.5908220  47.6030817  13.0623945  58.1306947  47.1748429
  12.2255853  57.7029121  46.9932430  13.0347590  58.3239390  48.1119220
  19.9021401  48.0428876  57.8789675  19.9509556  48.9190999  57.4967445
  20.4443915  47.5006270  57.3061318  30.3876246  58.5870000  57.1590812
  29.5971790  58.5694139  56.6195312  30.1509601  59.1258293  57.9139849
  30.5074121  55.4362466  54.4723541  30.5572126  55.2712474  55.4139064
  30.3988045  54.5689725  54.0821422  19.3910380  58.1151012  41.7615630
  19.5398500  58.7986476  41.1082302  20.1976823  58.0956102  42.2765085
  27.7977884  51.4193394  55.7882848  28.6987746  51.2799859  55.4966845
  27.8725858  51.5847849  56.7281025  22.1320689  48.7960249  54.6336034
  21.2623998  49.0893815  54.3618622  22.3680169  49.3800694  55.3543297
  33.2088000  55.4212287  47.2368133  34.0434892  55.8602091  47.4005693
  33.3447129  54.9450941  46.4176378  30.2579506  52.9792022  53.1845620
  30.7333628  53.1719669  52.3764472  29.3345072  53.0351208  52.9389004
  17.1463013  54.1416189  42.7676699  16.9009055  53.2378519  42.9656909
  17.3158928  54.1433340  41.8256177  24.8359723  45.0139866  52.1501454
  25.3541667  45.7500893  51.8247943  24.4814856  45.3203859  52.9848213
  16.4158661  49.8744547  40.2662860  15.7227905  49.9488902  39.6102896
  16.1710412  49.1104891  40.7884377  25.0872317  41.4340148  47.6702351
  25.3674071  40.7663337  48.2962777  25.8722924  41.6269244  47.1577015
  22.8905786  60.6099142  39.2327377  22.3179753  61.2289329  38.7797849
  23.4638579  61.1598504  39.7667299  28.9581175  49.8557782  51.4173926
  29.9098598  49.9555880  51.4386150  28.7884626  49.0636051  51.9272010
  26.9795555  46.9413366  51.6033327  26.3845487  47.2218378  50.9079815
  26.6945252  47.4307266  52.3750068  26.1103045  60.8936292  40.3635959
  27.0433719  60.8281854  40.5668835  26.0226258  61.7292559  39.9050492
  28.7391062  60.2102163  37.3239907  28.6604694  59.8762026  38.2175665
  29.5600729  60.7023931  37.3231379  31.4369253  53.0763902  50.5316226
  31.4045573  52.1379903  50.7175909  32.0469877  53.1547939  49.7982050
  23.2752584  51.9459955  36.5743430  24.2211689  51.8166163  36.6431848
  22.8966829  51.2074617  37.0512858  31.5863742  49.8674945  50.5774509
  31.0702790  49.0833402  50.3904438  32.4703690  49.5393662  50.7421028
  29.2474469  43.6115961  46.5370321  29.0499290  43.3031049  47.4213653
  29.8574174  44.3377600  46.6668251  35.3361100  52.2787771  50.2696714
  34.6094264  52.1443736  49.6613205  34.9208387  52.5864600  51.0753432
  23.1591277  55.9977701  58.0344087  24.0794286  56.1756300  58.2284133
  23.1240860  55.0533746  57.8823786  21.4595501  49.8709931  36.5098315
  20.5526957  49.5743044  36.5861028  21.7371482  49.5739749  35.6432601
  12.3773442  51.1916295  46.9597361  12.0576226  50.3381603  46.6671735
  11.8306870  51.4064873  47.7155329  16.1553349  53.9078736  50.6766868
  16.3739359  54.8395844  50.6954902  16.5679123  53.5486710  51.4621672
  23.0757567  44.4146821  42.6642556  22.2658295  44.0693906  43.0397802
  23.7641984  44.1054365  43.2530168  25.0048115  43.4924868  44.2866853
  25.5579154  43.9120321  44.9456876  25.2418202  42.5660616  44.3289809
  21.0281214  49.4811942  60.0669617  20.9277941  50.4306299  59.9981708
  20.8102757  49.1530180  59.1945687  20.2294286  46.7296867  36.6510294
  21.0913450  47.0551765  36.9106111  20.4144630  45.9428363  36.1383360
  12.2461702  54.8119206  48.9290483  11.5525173  54.3973159  48.4160437
  12.9934693  54.8539743  48.3323902  28.3826922  45.6025393  43.7945517
  27.8025591  46.2610197  43.4123569  28.1162855  44.7802738  43.3832935
  26.8330489  45.0030451  45.9966837  27.3330267  45.1146985  45.1881156
  27.4766097  44.6991504  46.6367646  20.8912485  52.9109080  58.8834678
  20.4079566  53.7109441  59.0898567  20.9773424  52.9217025  57.9302122
  14.1598444  54.7437460  46.8056498  14.1369132  54.8425147  45.8538381
  14.4699081  55.5902611  47.1273664  16.8185822  56.8013615  50.9203112
  17.7729076  56.7697557  50.8533044  16.6198346  56.3404239  51.7353338
  17.4085204  55.3714731  53.4873910  18.2278093  55.8658810  53.5108747
  17.6822012  54.4546699  53.4591477  27.1651800  47.7625483  42.8501865
  26.2777655  48.0475134  42.6322060  27.5805789  47.6019247  42.0029142
  30.5166336  47.7872004  46.5656205  31.2926727  48.2768457  46.8380821
  29.7914471  48.2130059  47.0228074  32.9538895  48.4999624  47.6230145
  33.5483386  48.2595360  46.9123453  33.0265479  47.7806754  48.2503681
  15.1736051  62.3433235  47.9373310  15.0390519  61.5833635  47.3711308
  14.7568113  63.0674134  47.4702099  26.3095014  57.5270158  36.9449885
  27.0130864  57.7320161  37.5607541  25.5857663  58.0946920  37.2098969
  27.1392824  53.2780019  43.0652155  27.0828025  53.7348571  42.2259788
  27.6921167  52.5170704  42.8874998  30.9497630  49.0669751  43.8902275
  30.6934564  48.6666387  44.7210483  30.3250498  49.7813545  43.7652414
  35.2609968  51.8065824  46.3973566  34.7009526  51.8759014  47.1705128
  34.6553471  51.6306809  45.6773063  18.3305177  63.2402552  48.1491753
  18.2137561  64.1847984  48.0470443  17.5097623  62.9376113  48.5377552
  28.2181711  57.9652687  38.9948345  29.0527315  57.5333886  38.8125820
  28.0566054  57.7934701  39.9225240  27.8727603  54.4684801  40.3604685
  27.8176407  54.3029072  39.4193129  27.2473659  55.1760834  40.5166874
  12.6620118  49.7052865  54.1866107  13.3078982  49.1951819  54.6753332
  12.4537269  50.4421547  54.7609532  25.1873511  56.7733712  59.6858247
  26.0564670  56.9474365  59.3244882  24.7080262  57.5928129  59.5633977
  21.1823729  43.9692910  39.9390003  21.1702399  44.9134750  40.0958274
  22.0747151  43.7863055  39.6449464  19.3559691  63.8930813  51.3647681
  20.2586938  63.9254424  51.6814176  19.1297061  62.9631264  51.3794017
  21.1113293  62.6461800  48.0257760  20.1608924  62.6463662  47.9122132
  21.4145779  61.8994535  47.5093794  24.9975848  40.5635686  44.1935940
  24.2308244  40.0094173  44.3392622  25.4086553  40.6357555  45.0550091
  17.0017609  46.8520482  58.2841121  17.8649071  46.4957287  58.4944446
  16.4283020  46.5134377  58.9716525  29.5142508  70.2885243  45.0161938
  28.9507373  70.1975180  44.2478226  29.3994903  69.4685147  45.4964430
  27.0606940  71.7836435  47.8546158  27.8528232  71.4427259  47.4392458
  27.3003590  71.8931410  48.7748312  35.0942067  73.9556211  40.3276403
  34.4430047  74.5410291  39.9410416  35.8886430  74.4862406  40.3871440
  29.0197694  71.0445348  40.7263537  29.7928570  70.4974335  40.5876413
  29.3723093  71.9089597  40.9377998  31.3563972  67.2038014  38.3581987
  31.6089493  66.6819535  37.5965450  30.4188531  67.0404159  38.4608671
  36.5717332  71.6446643  40.8645387  35.9363165  71.7181269  41.5766292
  36.2414739  72.2340241  40.1864466  31.0760261  69.1066120  40.5606362
  30.9596519  68.4311023  41.2287446  31.1862521  68.6198494  39.7438515
  33.0597289  63.5966167  39.2614400  33.2271691  64.4646403  39.6284871
  32.8694458  63.7593448  38.3375689  29.2685103  68.5096942  46.9616934
  28.3435600  68.3773157  47.1694626  29.5169516  69.2891162  47.4586877
  33.0386509  66.0523824  40.2461066  32.9186135  66.4980875  41.0846547
  32.3439098  66.4009142  39.6874605  26.6293914  68.1530216  47.7960723
  26.7586295  68.4064695  48.7100135  25.9491366  68.7457924  47.4765379
  30.7993402  78.8227466  43.8951198  30.7217431  79.7735291  43.9739678
  30.1955045  78.4773338  44.5526124  32.8969120  71.2445524  45.7305067
  33.3607465  71.5233227  44.9409690  32.6325918  70.3428968  45.5478158
  29.7893201  70.7917005  48.6684830  30.3594558  71.2204274  48.0302315
  30.3801313  70.5099590  49.3669016  31.8338006  67.3668676  42.5394632
  32.5362049  67.8189720  43.0068559  31.5018634  66.7252495  43.1674525
  30.2818367  65.9580433  56.9145842  29.6517028  66.6396714  57.1481238
  30.1754455  65.8463514  55.9698980  25.5763340  65.6252229  47.8411766
  24.7862394  65.8809757  47.3651876  26.0674587  66.4400567  47.9463806
  27.5278085  65.9896808  44.7995242  26.7309249  66.1015502  45.3178738
  27.3003677  66.3283460  43.9336133  23.8601043  65.8782719  50.2726757
  24.1109081  66.7629729  50.5384333  24.3960591  65.6987321  49.5001848
  47.6833142  69.3096217  46.9402018  46.9296851  68.7403615  46.7846022
  47.8180684  69.2758881  47.8872653  33.0731771  74.1809619  42.6156737
  32.9377445  75.0261155  43.0441585  33.6141583  74.3828897  41.8522671
  26.5261168  71.6985057  43.1884663  27.0385688  72.4928307  43.3390227
  27.1783881  71.0011347  43.1218264  28.3356053  74.8150813  45.2707416
  28.5122681  75.7368778  45.0828400  29.1312886  74.5009232  45.7001795
  27.6208409  66.8615445  55.1469579  27.5061924  65.9600702  55.4476678
  26.7652927  67.1079142  54.7954395  29.4587368  76.3328987  51.2717758
  30.0094793  76.2046050  50.4994752  28.6198844  76.6323876  50.9212651
  24.4910085  70.0273711  43.9644233  25.3285307  70.4370720  43.7477941
  24.6688352  69.0873153  43.9344427  36.3874517  67.6948792  39.6528066
  35.8721140  68.4653397  39.8916453  36.1151825  67.0213928  40.2761127
  41.3608791  70.4481147  41.5881239  40.5838234  70.1092306  41.1436402
  42.0400272  70.4533770  40.9136205  34.6207252  71.7266107  43.1280801
  34.0928613  70.9918867  42.8154039  34.1194755  72.5040784  42.8820769
  29.3525979  62.3885774  45.4887413  29.9269731  62.1660955  44.7560606
  29.9396962  62.4574468  46.2416014  29.6795567  64.4190235  39.5083298
  28.8432879  64.7564921  39.8292573  29.5400336  64.2839214  38.5710435
  32.7659852  69.5446318  36.1315774  31.8586914  69.3135571  36.3306923
  33.2630884  68.7483937  36.3189756  35.6727931  78.2543825  39.0512460
  34.9989630  78.5575521  39.6597418  36.0593753  79.0572905  38.7017917
  33.9448085  69.6458912  40.6539764  33.0359305  69.3617945  40.7512234
  33.9743169  70.0657991  39.7943071  39.1767353  73.2565502  44.4230932
  38.7229680  72.4156412  44.4796122  38.5461320  73.8926900  44.7605712
  37.6200292  75.0941999  45.3580750  37.9123266  75.6547056  44.6393116
  38.1298913  75.3870560  46.1133909  24.5136256  67.3664427  44.6354966
  24.3160656  66.7733787  43.9106033  23.9582920  67.0616637  45.3530905
  33.6424173  71.1867656  37.9927843  33.2043603  70.4703515  37.5333480
  34.3834614  71.4143771  37.4312934  30.4325339  65.8764593  44.5139938
  29.6193205  66.1758763  44.9205131  30.9284334  65.4820282  45.2314421
  32.5833917  75.8722350  46.4474203  32.5410096  76.0983196  45.5182735
  33.4996616  75.6385724  46.5960004  29.9239414  63.4482948  50.1301173
  30.5638793  63.3071707  49.4324137  29.0916945  63.1617462  49.7539775
  30.6999718  72.7485379  46.2436166  31.4940317  72.2535699  46.0418741
  29.9891410  72.2203242  45.8803871  35.5194563  75.1303474  50.5948534
  35.5731585  75.6994411  51.3626249  34.6509344  75.3005359  50.2302571
  27.0082482  66.8928460  42.3195919  26.0780070  66.8312916  42.5365881
  27.1039954  66.3704413  41.5232560  26.9268031  63.4183273  44.9074160
  27.1874848  64.3328607  44.7983321  27.7485203  62.9507716  45.0570773
  28.3992956  64.8321030  52.0772985  29.0716009  64.6238393  51.4285634
  27.5722742  64.6343116  51.6378217  33.2770994  73.3214401  49.9234003
  33.1382080  72.9533185  50.7959941  32.4885590  73.8362040  49.7517961
  33.8719146  78.4223497  41.2659540  34.0470902  77.9511540  42.0805162
  33.1851934  79.0489263  41.4940800  34.8276209  72.6996003  47.3122841
  34.4926042  72.6596773  48.2080491  34.3280155  72.0340719  46.8393251
  28.8020453  68.1063633  52.8375422  28.6640251  67.3743872  53.4386961
  29.7125377  68.0172534  52.5559610  37.7635401  70.0452038  37.5859900
  37.1464571  69.3198866  37.4892953  37.2951889  70.8061398  37.2426975
  30.1431688  64.8048811  54.1454741  29.6069045  64.3539549  54.7976337
  29.5548396  64.9394719  53.4025205  28.4380231  81.5712860  48.0399400
  28.6776830  82.2031384  48.7178418  27.5949428  81.2200900  48.3264759
  29.5533947  64.2637462  36.7081205  28.6763413  64.1426263  36.3443451
  30.0291700  63.4723540  36.4560093  21.0736087  69.0514622  46.8022712
  21.7607127  68.7376352  46.2143727  20.9184216  69.9555986  46.5289963
  25.8770809  63.9404818  51.2307736  25.7928998  63.3330488  50.4958145
  25.0553515  64.4313837  51.2317232  32.9508093  77.3791982  50.4440904
  32.8778265  78.1846954  50.9560208  32.5085486  77.5783948  49.6188925
  32.7397873  76.6163752  43.9543725  31.9565395  77.1585433  44.0481950
  33.4390618  77.1337732  44.3537966  35.4106777  77.2778816  52.5999062
  36.1234749  77.9126281  52.5274964  34.9196805  77.3742682  51.7839064
  37.1324304  71.1830069  44.1716354  36.1980582  71.3031532  44.0021058
  37.3100972  70.2802536  43.9076364  38.5873086  73.3691210  41.7052540
  38.8632930  73.2547804  42.6146414  37.7177585  72.9708695  41.6664713
  35.2227150  77.6177560  45.3485354  35.4049545  76.7999216  45.8113106
  36.0460136  77.8345253  44.9110244  35.5569316  76.5445746  42.6100402
  36.0857082  76.0338200  41.9970564  35.8197535  76.2288276  43.4745935
  26.0586408  74.5609615  50.3535736  26.6439845  73.8153303  50.4863640
  25.8611247  74.8713572  51.2372400  28.9125064  77.5960862  45.3698178
  28.2435439  78.0806990  44.8862218  28.7737933  77.8430083  46.2841557
  20.6504063  67.1315215  49.0740179  20.6888163  66.5978806  49.8677297
  20.1444356  66.6050421  48.4551156  33.0530332  79.6304606  51.9680837
  33.6048640  79.7936227  52.7329922  33.3936526  80.2209044  51.2960861
  28.0294825  61.9779756  52.5702721  28.0936152  62.8394587  52.1580119
  27.9661946  61.3653757  51.8375080  27.5047098  64.0502888  56.2175756
  28.1319137  63.6679965  56.8313280  26.6475017  63.8317090  56.5831448
  24.2812641  65.8579317  42.1494110  24.5766082  64.9489996  42.0961164
  23.3800676  65.8367057  41.8275113  36.1898719  77.5786581  48.9544519
  36.0649859  76.7776321  48.4455464  36.8477810  78.0732775  48.4658489
  27.8106888  63.9335314  48.1321659  27.0893473  64.5471282  47.9929132
  28.6000143  64.4693079  48.0538305  26.0100482  63.5393415  42.2733436
  25.6813188  62.6590794  42.0908541  26.3639853  63.4841084  43.1609825
  35.2580061  75.1748318  46.7828421  35.1105023  74.2465025  46.9635991
  36.0833555  75.1968408  46.2985496  29.1242305  63.8266385  42.6408913
  29.4638378  64.3552306  41.9187522  29.5714426  64.1646791  43.4167480
  38.8614183  75.9976876  47.8693294  39.7860730  75.7919738  47.7317745
  38.6929486  75.7493278  48.7782635  31.1110452  62.3241006  40.8402206
  31.8318815  62.7022259  40.3365923  30.4875757  63.0429883  40.9437184
  35.2541575  63.0286155  41.7760538  35.4705190  63.9110793  41.4749366
  34.7735643  62.6372369  41.0466180  29.9940797  65.9871869  48.3531283
  29.8485377  66.3012172  49.2455564  29.5166000  66.6056769  47.8002182
  38.6509499  76.5162544  43.2255385  38.8246377  75.9508966  42.4729238
  39.1438390  77.3163439  43.0434875  24.4686459  68.5277213  51.2918944
  23.9239927  69.3037021  51.4239218  25.3465809  68.8748017  51.1338066
  31.2574076  61.8588797  43.6699743  31.3789987  60.9305443  43.8690630
  30.9676118  61.8727483  42.7578058  39.6384672  75.8329308  40.3252284
  40.3335576  76.4536001  40.5439598  39.9807822  74.9824659  40.6004661
  25.2552481  67.6547109  54.1849101  24.5134217  67.8029745  54.7713731
  24.9345225  67.9155375  53.3215850  41.5376095  73.2829014  41.8539614
  42.0627419  73.6216287  41.1288934  41.4498447  72.3476029  41.6702749
  33.1996143  77.1963087  53.9829491  33.5083270  76.9512234  54.8552191
  33.9971625  77.4009726  53.4948361  33.2216755  79.3500997  46.2134868
  32.7821746  78.8577376  46.9067724  33.9724872  78.8073965  45.9726943
  25.7009094  75.5412538  46.2159496  26.5267114  75.2416310  45.8358139
  25.3503146  74.7720160  46.6649284  30.6690628  74.8939006  48.2857169
  30.0470637  74.2309711  47.9859397  31.3395495  74.9200138  47.6030817
  23.9017700  73.4598864  47.1748429  23.0649608  73.0321039  46.9932430
  23.8741345  73.6531308  48.1119220  30.2304135  73.4442929  41.7615630
  30.3792255  74.1278394  41.1082302  31.0370578  73.4248020  42.2765085
  27.9856768  69.4708107  42.7676699  27.7402809  68.5670437  42.9656909
  28.1552682  69.4725258  41.8256177  27.2552415  65.2036465  40.2662860
  26.5621660  65.2780820  39.6102896  27.0104167  64.4396808  40.7884377
  33.7299540  75.9391060  39.2327377  33.1573507  76.5581247  38.7797849
  34.3032334  76.4890422  39.7667299  36.9496800  76.2228210  40.3635959
  37.8827473  76.1573772  40.5668835  36.8620013  77.0584477  39.9050492
  39.5784817  75.5394080  37.3239907  39.4998448  75.2053944  38.2175665
  40.3994483  76.0315848  37.3231379  34.1146339  67.2751873  36.5743430
  35.0605443  67.1458081  36.6431848  33.7360584  66.5366535  37.0512858
  32.2989256  65.2001849  36.5098315  31.3920711  64.9034962  36.5861028
  32.5765237  64.9031667  35.6432601  23.2167196  66.5208212  46.9597361
  22.8969980  65.6673521  46.6671735  22.6700624  66.7356791  47.7155329
  26.9947104  69.2370653  50.6766868  27.2133113  70.1687761  50.6954902
  27.4072877  68.8778628  51.4621672  31.0688040  62.0588784  36.6510294
  31.9307204  62.3843683  36.9106111  31.2538384  61.2720280  36.1383360
  23.0855456  70.1411124  48.9290483  22.3918928  69.7265077  48.4160437
  23.8328447  70.1831660  48.3323902  31.7306239  68.2400998  58.8834678
  31.2473321  69.0401358  59.0898567  31.8167178  68.2508943  57.9302122
  24.9992199  70.0729378  46.8056498  24.9762887  70.1717065  45.8538381
  25.3092835  70.9194529  47.1273664  27.6579576  72.1305533  50.9203112
  28.6122830  72.0989475  50.8533044  27.4592100  71.6696157  51.7353338
  28.2478959  70.7006649  53.4873910  29.0671848  71.1950727  53.5108747
  28.5215766  69.7838617  53.4591477  26.0129805  77.6725152  47.9373310
  25.8784273  76.9125553  47.3711308  25.5961868  78.3966052  47.4702099
  37.1488768  72.8562076  36.9449885  37.8524618  73.0612078  37.5607541
  36.4251417  73.4238838  37.2098969  29.1698931  78.5694469  48.1491753
  29.0531315  79.5139902  48.0470443  28.3491377  78.2668031  48.5377552
  39.0575466  73.2944605  38.9948345  39.8921070  72.8625803  38.8125820
  38.8959809  73.1226619  39.9225240  38.7121358  69.7976718  40.3604685
  38.6570162  69.6320990  39.4193129  38.0867413  70.5052751  40.5166874
  23.5013873  65.0344783  54.1866107  24.1472736  64.5243737  54.6753332
  23.2931024  65.7713464  54.7609532  32.0217483  59.2984827  39.9390003
  32.0096153  60.2426667  40.0958274  32.9140905  59.1154973  39.6449464
  30.1953445  79.2222731  51.3647681  31.0980692  79.2546341  51.6814176
  29.9690815  78.2923182  51.3794017  31.9507047  77.9753718  48.0257760
  31.0002678  77.9755579  47.9122132  32.2539533  77.2286452  47.5093794
  35.8369603  55.8927604  44.1935940  35.0701999  55.3386091  44.3392622
  36.2480308  55.9649473  45.0550091  27.8411364  62.1812400  58.2841121
  28.7042825  61.8249205  58.4944446  27.2676775  61.8426295  58.9716525
  47.6859741  83.8114256  49.0903522  48.3238151  83.6921003  48.3866862
  47.5680584  84.7595100  49.1491474  44.4949447  83.7641684  49.0265047
  44.1567959  83.6482749  48.1385582  45.3639215  83.3632849  49.0066053
  40.3536263  85.6177161  45.0161938  39.7901128  85.5267098  44.2478226
  40.2388658  84.7977065  45.4964430  44.9769230  84.9176536  54.9851252
  44.9657871  84.5229334  54.1131756  45.1389870  84.1842609  55.5785024
  37.9000695  87.1128352  47.8546158  38.6921987  86.7719177  47.4392458
  38.1397345  87.2223327  48.7748312  45.9335821  89.2848128  40.3276403
  45.2823801  89.8702209  39.9410416  46.7280184  89.8154323  40.3871440
  39.8591449  86.3737265  40.7263537  40.6322325  85.8266253  40.5876413
  40.2116848  87.2381515  40.9377998  41.6976491  87.7013648  53.9330436
  41.4066357  88.6059279  53.8177103  42.3333476  87.7430175  54.6474506
  42.6232698  85.0790496  50.5231796  43.2196270  84.8546519  49.8088759
  42.6807670  84.3375242  51.1257244  42.1957726  82.5329932  38.3581987
  42.4483247  82.0111453  37.5965450  41.2582286  82.3696077  38.4608671
  47.2401009  81.5365710  46.1656730  48.0264099  81.1185133  45.8147147
  47.5039714  82.4411802  46.3338379  47.4111087  86.9738560  40.8645387
  46.7756920  87.0473187  41.5766292  47.0808493  87.5632159  40.1864466
  52.6409436  81.4740943  47.0689709  53.3734608  80.9040160  47.3027538
  51.8848792  81.0862544  47.5096214  41.9154015  84.4358038  40.5606362
  41.7990273  83.7602941  41.2287446  42.0256275  83.9490411  39.7438515
  44.2585556  83.8968185  44.2653051  43.8943763  83.3698806  44.9765973
  45.1152672  83.5066654  44.0919537  50.1634857  75.1862517  51.5284317
  49.8318182  76.0557928  51.3045532  49.5680470  74.8698801  52.2078348
  43.8991043  78.9258084  39.2614400  44.0665445  79.7938321  39.6284871
  43.7088212  79.0885366  38.3375689  46.6566376  87.3875063  50.9280230
  46.3567099  88.2900102  50.8196037  46.3117436  87.1207246  51.7801383
  40.1078858  83.8388860  46.9616934  39.1829354  83.7065074  47.1694626
  40.3563271  84.6183079  47.4586877  50.0563520  79.9057603  48.6077667
  49.1480397  79.8373012  48.3136428  50.0051116  80.3829548  49.4359493
  43.8780264  81.3815742  40.2461066  43.7579889  81.8272793  41.0846547
  43.1832852  81.7301060  39.6874605  37.4687669  83.4822134  47.7960723
  37.5980050  83.7356613  48.7100135  36.7885120  84.0749842  47.4765379
  41.6387156  94.1519384  43.8951198  41.5611186  95.1027209  43.9739678
  41.0348800  93.8065256  44.5526124  44.1304386  81.3247249  56.5512565
  43.3537720  81.8841169  56.5415429  44.7694949  81.8104032  57.0727435
  51.9225166  78.1074042  50.3855541  51.2799547  78.4006575  49.7395336
  51.4180095  77.9926962  51.1908738  49.5765330  81.8537215  41.0741401
  50.4883186  82.0864602  40.8989098  49.0674977  82.4374259  40.5116479
  42.3850758  84.1332702  56.1130532  43.1265443  84.6717746  55.8365355
  41.6787744  84.7598991  56.2702083  47.8606098  86.2761843  54.7102693
  48.2689454  85.8344253  53.9657325  47.1383359  85.7014470  54.9636886
  44.2137168  81.2134450  52.0836250  45.0598363  81.6373863  52.2270899
  44.1535806  80.5568074  52.7774813  48.1834912  86.8363033  48.4654982
  47.5543775  87.0008748  47.7631050  47.7960575  87.2504643  49.2365946
  52.0624144  87.7717471  45.8199346  51.3775182  88.1516373  45.2696379
  52.1467994  88.3812798  46.5531293  47.3636613  78.8738818  53.7417424
  47.1197545  79.6280879  53.2051699  47.6396544  79.2524166  54.5764671
  49.3175076  85.4177430  52.4194689  49.5291971  86.0609190  51.7429070
  49.2704824  84.5839747  51.9516619  46.9201305  78.0295251  49.3231261
  46.0585784  78.3276505  49.6147999  46.9463740  78.2465650  48.3912294
  43.7362874  86.5737442  45.7305067  44.2001220  86.8525145  44.9409690
  43.4719672  85.6720886  45.5478158  40.6286955  86.1208923  48.6684830
  41.1988312  86.5496191  48.0302315  41.2195067  85.8391508  49.3669016
  42.6731760  82.6960594  42.5394632  43.3755804  83.1481638  43.0068559
  42.3412389  82.0544413  43.1674525  41.1212122  81.2872351  56.9145842
  40.4910782  81.9688631  57.1481238  41.0148210  81.1755432  55.9698980
  36.4157094  80.9544147  47.8411766  35.6256148  81.2101675  47.3651876
  36.9068342  81.7692484  47.9463806  50.4320904  88.2949386  50.5917047
  51.2538348  87.8929573  50.3099728  50.4283307  88.1917620  51.5433162
  38.3671840  81.3188726  44.7995242  37.5703003  81.4307420  45.3178738
  38.1397432  81.6575378  43.9336133  44.1977507  87.8433429  52.7477757
  44.2621940  88.3053836  53.5835929  43.4888431  87.2130794  52.8760067
  34.6994797  81.2074637  50.2726757  34.9502836  82.0921647  50.5384333
  35.2354346  81.0279239  49.5001848  58.5226897  84.6388134  46.9402018
  57.7690605  84.0695532  46.7846022  58.6574438  84.6050799  47.8872653
  43.9125525  89.5101537  42.6156737  43.7771200  90.3553072  43.0441585
  44.4535338  89.7120814  41.8522671  37.3654922  87.0276975  43.1884663
  37.8779443  87.8220225  43.3390227  38.0177635  86.3303265  43.1218264
  39.1749807  90.1442731  45.2707416  39.3516435  91.0660696  45.0828400
  39.9706641  89.8301150  45.7001795  43.3160826  77.0050996  56.8691349
  44.0570539  77.6058149  56.7895812  43.5478748  76.2628633  56.3109392
  38.4602164  82.1907363  55.1469579  38.3455679  81.2892620  55.4476678
  37.6046681  82.4371060  54.7954395  45.5394001  90.1325103  56.7457080
  45.0957856  89.3461482  56.4277984  46.2011215  90.3204254  56.0800970
  40.2981123  91.6620905  51.2717758  40.8488548  91.5337968  50.4994752
  39.4592598  91.9615794  50.9212651  47.6375239  90.4127903  54.7738481
  47.6193715  91.2336784  54.2818750  48.5595159  90.2881978  54.9988622
  44.0948294  87.9272032  55.6161989  44.6276630  87.1660321  55.3861297
  43.5662375  87.6345684  56.3586144  47.2617989  73.0332098  51.1455631
  46.9182258  73.9233740  51.0694741  47.6296951  72.8433756  50.2825216
  35.3303839  85.3565629  43.9644233  36.1679061  85.7662637  43.7477941
  35.5082107  84.4165071  43.9344427  47.2268271  83.0240710  39.6528066
  46.7114895  83.7945314  39.8916453  46.9545580  82.3505846  40.2761127
  44.8115382  77.8690410  44.7113304  43.9556979  77.4797261  44.5318943
  45.2242334  77.9482371  43.8513090  46.3414529  75.4036754  49.1104864
  45.8379325  75.3666889  48.2972669  46.6345136  76.3129496  49.1701521
  52.2002545  85.7773064  41.5881239  51.4231988  85.4384224  41.1436402
  52.8794026  85.7825687  40.9136205  47.0154574  80.8967802  41.4787847
  46.7104710  81.2113951  42.3297990  47.9685017  80.9749222  41.5215180
  45.4601006  87.0558025  43.1280801  44.9322368  86.3210785  42.8154039
  44.9588509  87.8332701  42.8820769  50.4393852  85.2507045  48.2447847
  49.7817527  85.9406307  48.3327976  51.2434252  85.6403477  48.5881834
  40.1919734  77.7177691  45.4887413  40.7663486  77.4952873  44.7560606
  40.7790716  77.7866386  46.2416014  49.2499311  83.6051418  46.2951789
  49.7631193  84.2381410  46.7973499  49.9000535  83.0052614  45.9295149
  40.5189321  79.7482152  39.5083298  39.6826633  80.0856839  39.8292573
  40.3794091  79.6131132  38.5710435  42.4942402  74.5918940  44.2162482
  41.8406814  74.2767957  43.5919097  42.4522876  73.9694681  44.9422305
  43.6053606  84.8738235  36.1315774  42.6980668  84.6427489  36.3306923
  44.1024638  84.0775854  36.3189756  46.5121685  93.5835742  39.0512460
  45.8383384  93.8867439  39.6597418  46.8987507  94.3864823  38.7017917
  45.7280142  81.0800874  48.5410130  44.8102703  81.3015821  48.3831818
  46.1440286  81.1547184  47.6821837  46.5115190  82.4792289  43.6712810
  47.2587009  82.9913687  43.3619932  46.7806779  82.1576342  44.5317204
  44.7841840  84.9750830  40.6539764  43.8753059  84.6909863  40.7512234
  44.8136924  85.3949909  39.7943071  50.0161107  88.5857420  44.4230932
  49.5623434  87.7448329  44.4796122  49.3855074  89.2218818  44.7605712
  48.9594027  79.5149406  45.6531599  48.2216784  79.0026792  45.9841842
  49.2120800  79.0749787  44.8414876  48.4594047  90.4233916  45.3580750
  48.7517021  90.9838973  44.6393116  48.9692667  90.7162477  46.1133909
  49.0605654  72.2925658  46.2473369  49.3664531  71.4323021  45.9599284
  49.7858259  72.8843278  46.0472362  35.3530010  82.6956344  44.6354966
  35.1554410  82.1025705  43.9106033  34.7976674  82.3908554  45.3530905
  43.3326734  82.5879451  46.7549560  43.3875344  81.6353287  46.6792036
  42.5217936  82.7438890  47.2390858  44.4817928  86.5159574  37.9927843
  44.0437358  85.7995433  37.5333480  45.2228369  86.7435689  37.4312934
  41.2719094  81.2056510  44.5139938  40.4586959  81.5050681  44.9205131
  41.7678088  80.8112199  45.2314421  43.4227672  91.2014267  46.4474203
  43.3803851  91.4275114  45.5182735  44.3390371  90.9677642  46.5960004
  46.8693306  81.6698335  53.3454832  47.2242693  81.8969808  54.2049298
  47.5165437  82.0016712  52.7232088  52.5991043  84.7916771  44.0504161
  52.4608941  84.9818367  43.1225351  52.2427261  85.5536154  44.5072213
  40.7633169  78.7774866  50.1301173  41.4032548  78.6363625  49.4324137
  39.9310699  78.4909379  49.7539775  52.6260422  86.8593298  49.0615433
  53.0596929  86.7668587  49.9098487  53.3392003  86.8350798  48.4235449
  41.5393473  88.0777296  46.2436166  42.3334071  87.5827617  46.0418741
  40.8285165  87.5495160  45.8803871  46.3588317  90.4595392  50.5948534
  46.4125339  91.0286328  51.3626249  45.4903098  90.6297277  50.2302571
  37.8476236  82.2220378  42.3195919  36.9173824  82.1604834  42.5365881
  37.9433708  81.6996331  41.5232560  37.7661785  78.7475191  44.9074160
  38.0268602  79.6620524  44.7983321  38.5878957  78.2799634  45.0570773
  39.2386710  80.1612948  52.0772985  39.9109764  79.9530310  51.4285634
  38.4116497  79.9635034  51.6378217  53.4875972  86.9016998  51.5948318
  53.6811862  87.8062809  51.8407593  53.3876590  86.4424418  52.4286903
  45.1412282  76.7874889  54.0938646  44.4940197  77.4864839  54.0003122
  45.9113298  77.2211033  54.4614894  45.3176417  84.6255654  52.1535465
  46.2468477  84.7766814  51.9804433  44.8967447  84.7139675  51.2984112
  44.1164749  88.6506318  49.9234003  43.9775834  88.2825103  50.7959941
  43.3279345  89.1653958  49.7517961  44.7112901  93.7515415  41.2659540
  44.8864656  93.2803458  42.0805162  44.0245689  94.3781181  41.4940800
  45.6669964  88.0287921  47.3122841  45.3319796  87.9888691  48.2080491
  45.1673909  87.3632637  46.8393251  39.6414208  83.4355551  52.8375422
  39.5034006  82.7035790  53.4386961  40.5519131  83.3464451  52.5559610
  48.6029155  85.3743955  37.5859900  47.9858326  84.6490784  37.4892953
  48.1345644  86.1353316  37.2426975  42.2696508  83.1475510  52.3259102
  42.9796127  82.5068703  52.2845720  42.2265816  83.3988405  53.2485282
  50.2583287  90.0842864  55.2465681  50.1995833  89.4002084  54.5796264
  50.6602805  90.8261854  54.7946307  40.9825442  80.1340728  54.1454741
  40.4462799  79.6831467  54.7976337  40.3942151  80.2686637  53.4025205
  39.2773986  96.9004778  48.0399400  39.5170584  97.5323302  48.7178418
  38.4343182  96.5492818  48.3264759  40.3927701  79.5929380  36.7081205
  39.5157168  79.4718180  36.3443451  40.8685454  78.8015458  36.4560093
  50.2600694  88.0482448  53.4779660  49.3727473  87.7108369  53.6006059
  50.8299245  87.3165479  53.7148426  31.9129841  84.3806539  46.8022712
  32.6000881  84.0668269  46.2143727  31.7577970  85.2847904  46.5289963
  36.7164564  79.2696736  51.2307736  36.6322752  78.6622406  50.4958145
  35.8947270  79.7605754  51.2317232  43.7901848  92.7083900  50.4440904
  43.7172019  93.5138872  50.9560208  43.3479241  92.9075866  49.6188925
  43.5791627  91.9455670  43.9543725  42.7959149  92.4877350  44.0481950
  44.2784372  92.4629650  44.3537966  46.8888277  77.7550300  46.5977931
  47.3856977  77.0020262  46.2779001  46.1175259  77.7914616  46.0321140
  54.7418035  83.4590665  48.2396222  54.7307911  84.3415380  47.8690155
  53.8735414  83.1062216  48.0450759  46.2500531  92.6070734  52.5999062
  46.9628503  93.2418199  52.5274964  45.7590560  92.7034600  51.7839064
  47.9718058  86.5121987  44.1716354  47.0374337  86.6323449  44.0021058
  48.1494727  85.6094454  43.9076364  43.4723246  79.8967683  46.3249615
  43.1021034  79.3438723  47.0130521  43.9682339  79.2925816  45.7724615
  51.3590609  82.3539306  44.7066388  51.8251062  83.1867298  44.6326691
  51.8098110  81.8884288  45.4111647  41.3012445  90.3565178  53.4204633
  42.0021904  90.9901661  53.5734027  40.8307560  90.6979909  52.6600272
  49.4266841  88.6983127  41.7052540  49.7026684  88.5839722  42.6146414
  48.5571339  88.3000612  41.6664713  49.3307272  74.7219893  48.7457289
  48.4170352  74.9524120  48.9139496  49.7600374  74.8058337  49.5971322
  49.1013731  82.9109785  51.2457184  48.4485181  83.1585692  50.5909636
  49.4794111  82.0973923  50.9119661  46.0620905  92.9469478  45.3485354
  46.2443299  92.1291134  45.8113106  46.8853891  93.1637170  44.9110244
  46.3963070  91.8737663  42.6100402  46.9250836  91.3630118  41.9970564
  46.6591290  91.5580194  43.4745935  45.1501304  83.6529596  57.7323221
  44.4741941  83.5523725  58.4025596  45.9728938  83.4968810  58.1959218
  36.8980163  89.8901533  50.3535736  37.4833600  89.1445220  50.4863640
  36.7005001  90.2005489  51.2372400  39.7518818  92.9252780  45.3698178
  39.0829193  93.4098908  44.8862218  39.6131688  93.1722000  46.2841557
  31.4897818  82.4607133  49.0740179  31.5281917  81.9270723  49.8677297
  30.9838110  81.9342338  48.4551156  43.8924087  94.9596523  51.9680837
  44.4442395  95.1228145  52.7329922  44.2330280  95.5500961  51.2960861
  38.3440852  79.3794806  56.2175756  38.9712891  78.9971883  56.8313280
  37.4868771  79.1609008  56.5831448  48.7434961  89.7857781  57.8229491
  49.2874865  90.3987739  57.3284446  48.1621806  90.3437359  58.3396504
  35.1206395  81.1871235  42.1494110  35.4159836  80.2781913  42.0961164
  34.2194431  81.1658974  41.8275113  47.0292474  92.9078499  48.9544519
  46.9043613  92.1068239  48.4455464  47.6871565  93.4024692  48.4658489
  38.6500642  79.2627232  48.1321659  37.9287228  79.8763199  47.9929132
  39.4393898  79.7984996  48.0538305  49.0927382  90.7087519  50.5824069
  48.1457718  90.5892870  50.5102396  49.4410155  89.8210017  50.6650330
  41.4526956  76.5981658  54.4062311  41.9761357  76.8443955  55.1688620
  41.2339289  77.4301693  53.9865448  36.8494237  78.8685333  42.2733436
  36.5206943  77.9882712  42.0908541  37.2033607  78.8133001  43.1609825
  46.0973816  90.5040235  46.7828421  45.9498778  89.5756943  46.9635991
  46.9227309  90.5260326  46.2985496  39.9636060  79.1558302  42.6408913
  40.3032132  79.6844224  41.9187522  40.4108180  79.4938709  43.4167480
  49.7007937  91.3268794  47.8693294  50.6254485  91.1211655  47.7317745
  49.5323241  91.0785195  48.7782635  42.6579501  77.5395353  52.0911981
  42.3176321  76.7403166  52.4932661  41.9518507  77.8397064  51.5188814
  41.9504207  77.6532924  40.8402206  42.6712569  78.0314177  40.3365923
  41.3269511  78.3721801  40.9437184  46.0935330  78.3578073  41.7760538
  46.3098944  79.2402711  41.4749366  45.6129397  77.9664286  41.0466180
  40.8334551  81.3163786  48.3531283  40.6879132  81.6304089  49.2455564
  40.3559755  81.9348687  47.8002182  42.6930934  78.3066334  48.4012172
  42.6792503  77.4107427  48.0644470  43.4103362  78.3136998  49.0350459
  44.5457065  78.7403674  50.4465300  44.2874843  79.6620745  50.4449630
  44.0142105  78.3434109  51.1365764  49.4903254  91.8454462  43.2255385
  49.6640131  91.2800884  42.4729238  49.9832145  92.6455356  43.0434875
  35.3080213  83.8569131  51.2918944  34.7633681  84.6328939  51.4239218
  36.1859563  84.2039935  51.1338066  42.0967830  77.1880714  43.6699743
  42.2183741  76.2597361  43.8690630  41.8069872  77.2019400  42.7578058
  55.3442645  84.6090884  44.8445685  55.7873791  83.8598210  44.4464808
  54.4669155  84.6001021  44.4619417  50.4778426  91.1621226  40.3252284
  51.1729331  91.7827919  40.5439598  50.8201576  90.3116577  40.6004661
  36.0946235  82.9839027  54.1849101  35.3527971  83.1321662  54.7713731
  35.7738980  83.2447292  53.3215850  52.3769849  88.6120931  41.8539614
  52.9021173  88.9508204  41.1288934  52.2892202  87.6767947  41.6702749
  44.0389898  92.5255005  53.9829491  44.3477024  92.2804152  54.8552191
  44.8365380  92.7301644  53.4948361  44.0610510  94.6792915  46.2134868
  43.6215500  94.1869293  46.9067724  44.8118627  94.1365882  45.9726943
  36.5402849  90.8704456  46.2159496  37.3660869  90.5708227  45.8358139
  36.1896901  90.1012078  46.6649284  41.5084382  90.2230924  48.2857169
  40.8864391  89.5601629  47.9859397  42.1789249  90.2492056  47.6030817
  34.7411454  88.7890782  47.1748429  33.9043362  88.3612956  46.9932430
  34.7135099  88.9823225  48.1119220  41.5808910  78.7012712  57.8789675
  41.6297065  79.5774835  57.4967445  42.1231424  78.1590105  57.3061318
  52.0663755  89.2453835  57.1590812  51.2759299  89.2277974  56.6195312
  51.8297110  89.7842129  57.9139849  52.1861630  86.0946301  54.4723541
  52.2359635  85.9296309  55.4139064  52.0775554  85.2273560  54.0821422
  41.0697889  88.7734847  41.7615630  41.2186009  89.4570312  41.1082302
  41.8764332  88.7539937  42.2765085  43.8108198  79.4544084  54.6336034
  42.9411507  79.7477650  54.3618622  44.0467678  80.0384529  55.3543297
  54.8875509  86.0796123  47.2368133  55.7222401  86.5185927  47.4005693
  55.0234638  85.6034776  46.4176378  51.9367015  83.6375858  53.1845620
  52.4121137  83.8303504  52.3764472  51.0132581  83.6935043  52.9389004
  38.8250522  84.8000025  42.7676699  38.5796564  83.8962355  42.9656909
  38.9946437  84.8017175  41.8256177  46.5147232  75.6723701  52.1501454
  47.0329176  76.4084728  51.8247943  46.1602365  75.9787694  52.9848213
  38.0946170  80.5328382  40.2662860  37.4015414  80.6072737  39.6102896
  37.8497921  79.7688726  40.7884377  46.7659826  72.0923984  47.6702351
  47.0461580  71.4247173  48.2962777  47.5510433  72.2853079  47.1577015
  44.5693295  91.2682978  39.2327377  43.9967262  91.8873165  38.7797849
  45.1426088  91.8182339  39.7667299  50.6368684  80.5141618  51.4173926
  51.5886107  80.6139715  51.4386150  50.4672135  79.7219886  51.9272010
  48.6583064  77.5997201  51.6033327  48.0632996  77.8802214  50.9079815
  48.3732761  78.0891102  52.3750068  47.7890554  91.5520128  40.3635959
  48.7221227  91.4865689  40.5668835  47.7013767  92.3876395  39.9050492
  50.4178571  90.8685998  37.3239907  50.3392203  90.5345862  38.2175665
  51.2388238  91.3607766  37.3231379  53.1156762  83.7347737  50.5316226
  53.0833082  82.7963738  50.7175909  53.7257386  83.8131774  49.7982050
  44.9540093  82.6043790  36.5743430  45.8999198  82.4749998  36.6431848
  44.5754338  81.8658452  37.0512858  53.2651251  80.5258781  50.5774509
  52.7490299  79.7417237  50.3904438  54.1491199  80.1977497  50.7421028
  50.9261978  74.2699796  46.5370321  50.7286799  73.9614885  47.4213653
  51.5361683  74.9961435  46.6668251  58.9333312  84.7963744  49.6722262
  59.6636701  84.5349032  50.2329966  58.3240258  84.0592466  49.7124330
  57.0148609  82.9371607  50.2696714  56.2881773  82.8027572  49.6613205
  56.5995896  83.2448435  51.0753432  44.8378786  86.6561536  58.0344087
  45.7581795  86.8340135  58.2284133  44.8028369  85.7117582  57.8823786
  43.1383010  80.5293767  36.5098315  42.2314466  80.2326879  36.5861028
  43.4158991  80.2323585  35.6432601  34.0560951  81.8500130  46.9597361
  33.7363735  80.9965438  46.6671735  33.5094379  82.0648708  47.7155329
  37.8340858  84.5662571  50.6766868  38.0526868  85.4979679  50.6954902
  38.2466632  84.2070546  51.4621672  44.7545076  75.0730656  42.6642556
  43.9445804  74.7277741  43.0397802  45.4429493  74.7638200  43.2530168
  46.6835624  74.1508703  44.2866853  47.2366663  74.5704157  44.9456876
  46.9205711  73.2244451  44.3289809  42.7068723  80.1395777  60.0669617
  42.6065450  81.0890134  59.9981708  42.4890265  79.8114016  59.1945687
  41.9081795  77.3880702  36.6510294  42.7700959  77.7135600  36.9106111
  42.0932139  76.6012198  36.1383360  33.9249211  85.4703042  48.9290483
  33.2312682  85.0556994  48.4160437  34.6722202  85.5123578  48.3323902
  50.0614431  76.2609228  43.7945517  49.4813100  76.9194032  43.4123569
  49.7950364  75.4386573  43.3832935  48.5117998  75.6614286  45.9966837
  49.0117776  75.7730821  45.1881156  49.1553606  75.3575339  46.6367646
  42.5699993  83.5692916  58.8834678  42.0867075  84.3693276  59.0898567
  42.6560933  83.5800861  57.9302122  35.8385953  85.4021295  46.8056498
  35.8156641  85.5008983  45.8538381  36.1486590  86.2486446  47.1273664
  38.4973331  87.4597450  50.9203112  39.4516585  87.4281393  50.8533044
  38.2985855  86.9988074  51.7353338  39.0872713  86.0298566  53.4873910
  39.9065602  86.5242645  53.5108747  39.3609521  85.1130535  53.4591477
  48.8439309  78.4209319  42.8501865  47.9565164  78.7058969  42.6322060
  49.2593298  78.2603082  42.0029142  52.1953845  78.4455840  46.5656205
  52.9714236  78.9352292  46.8380821  51.4701980  78.8713894  47.0228074
  54.6326404  79.1583459  47.6230145  55.2270895  78.9179195  46.9123453
  54.7052988  78.4390590  48.2503681  36.8523560  93.0017070  47.9373310
  36.7178028  92.2417471  47.3711308  36.4355622  93.7257970  47.4702099
  47.9882523  88.1853993  36.9449885  48.6918373  88.3903996  37.5607541
  47.2645172  88.7530755  37.2098969  48.8180333  83.9363855  43.0652155
  48.7615534  84.3932406  42.2259788  49.3708676  83.1754539  42.8874998
  52.6285139  79.7253587  43.8902275  52.3722073  79.3250222  44.7210483
  52.0038007  80.4397381  43.7652414  56.9397477  82.4649660  46.3973566
  56.3797035  82.5342849  47.1705128  56.3340980  82.2890644  45.6773063
  40.0092686  93.8986387  48.1491753  39.8925070  94.8431819  48.0470443
  39.1885132  93.5959949  48.5377552  49.8969220  88.6236523  38.9948345
  50.7314824  88.1917721  38.8125820  49.7353563  88.4518536  39.9225240
  49.5515112  85.1268636  40.3604685  49.4963916  84.9612907  39.4193129
  48.9261168  85.8344669  40.5166874  34.3407627  80.3636700  54.1866107
  34.9866491  79.8535654  54.6753332  34.1324778  81.1005382  54.7609532
  42.8611238  74.6276745  39.9390003  42.8489908  75.5718585  40.0958274
  43.7534660  74.4446890  39.6449464  41.0347200  94.5514649  51.3647681
  41.9374446  94.5838259  51.6814176  40.8084570  93.6215100  51.3794017
  42.7900802  93.3045635  48.0257760  41.8396433  93.3047497  47.9122132
  43.0933288  92.5578370  47.5093794  46.6763357  71.2219522  44.1935940
  45.9095753  70.6678008  44.3392622  47.0874062  71.2941390  45.0550091
  58.5253495  99.1406174  49.0903522  59.1631905  99.0212921  48.3866862
  58.4074338 100.0887018  49.1491474  55.3343202  99.0933602  49.0265047
  54.9961713  98.9774667  48.1385582  56.2032970  98.6924767  49.0066053
  51.1930017 100.9469078  45.0161938  50.6294882 100.8559015  44.2478226
  51.0782412 100.1268983  45.4964430  55.8162985 100.2468454  54.9851252
  55.8051625  99.8521252  54.1131756  55.9783624  99.5134526  55.5785024
  48.7394449 102.4420270  47.8546158  49.5315741 102.1011095  47.4392458
  48.9791099 102.5515245  48.7748312  56.7729576 104.6140046  40.3276403
  56.1217556 105.1994126  39.9410416  57.5673939 105.1446241  40.3871440
  50.6985203 101.7029183  40.7263537  51.4716079 101.1558170  40.5876413
  51.0510602 102.5673432  40.9377998  52.5370246 103.0305565  53.9330436
  52.2460112 103.9351196  53.8177103  53.1727230 103.0722093  54.6474506
  53.4626453 100.4082414  50.5231796  54.0590025 100.1838436  49.8088759
  53.5201424  99.6667159  51.1257244  53.0351481  97.8621849  38.3581987
  53.2877002  97.3403371  37.5965450  52.0976040  97.6987995  38.4608671
  58.0794764  96.8657628  46.1656730  58.8657853  96.4477051  45.8147147
  58.3433468  97.7703720  46.3338379  58.2504841 102.3030478  40.8645387
  57.6150674 102.3765104  41.5766292  57.9202248 102.8924077  40.1864466
  63.4803191  96.8032861  47.0689709  64.2128363  96.2332078  47.3027538
  62.7242547  96.4154461  47.5096214  52.7547770  99.7649955  40.5606362
  52.6384028  99.0894859  41.2287446  52.8650030  99.2782329  39.7438515
  55.0979311  99.2260102  44.2653051  54.7337518  98.6990723  44.9765973
  55.9546427  98.8358571  44.0919537  61.0028611  90.5154435  51.5284317
  60.6711936  91.3849846  51.3045532  60.4074225  90.1990719  52.2078348
  54.7384798  94.2550002  39.2614400  54.9059200  95.1230238  39.6284871
  54.5481967  94.4177284  38.3375689  57.4960131 102.7166981  50.9280230
  57.1960854 103.6192020  50.8196037  57.1511190 102.4499164  51.7801383
  50.9472612  99.1680778  46.9616934  50.0223109  99.0356992  47.1694626
  51.1957025  99.9474997  47.4586877  60.8957275  95.2349521  48.6077667
  59.9874152  95.1664930  48.3136428  60.8444870  95.7121466  49.4359493
  54.7174018  96.7107660  40.2461066  54.5973644  97.1564710  41.0846547
  54.0226607  97.0592977  39.6874605  48.3081423  98.8114051  47.7960723
  48.4373804  99.0648530  48.7100135  47.6278875  99.4041759  47.4765379
  52.4780911 109.4811301  43.8951198  52.4004940 110.4319126  43.9739678
  51.8742554 109.1357174  44.5526124  54.9698140  96.6539167  56.5512565
  54.1931474  97.2133087  56.5415429  55.6088703  97.1395950  57.0727435
  62.7618921  93.4365960  50.3855541  62.1193301  93.7298493  49.7395336
  62.2573849  93.3218880  51.1908738  60.4159085  97.1829133  41.0741401
  61.3276941  97.4156519  40.8989098  59.9068732  97.7666177  40.5116479
  53.2244513  99.4624620  56.1130532  53.9659197 100.0009664  55.8365355
  52.5181498 100.0890909  56.2702083  58.6999852 101.6053761  54.7102693
  59.1083208 101.1636171  53.9657325  57.9777114 101.0306388  54.9636886
  55.0530922  96.5426367  52.0836250  55.8992118  96.9665781  52.2270899
  54.9929560  95.8859992  52.7774813  59.0228667 102.1654951  48.4654982
  58.3937529 102.3300665  47.7631050  58.6354329 102.5796561  49.2365946
  62.9017899 103.1009389  45.8199346  62.2168937 103.4808290  45.2696379
  62.9861748 103.7104716  46.5531293  58.2030368  94.2030736  53.7417424
  57.9591300  94.9572796  53.2051699  58.4790298  94.5816083  54.5764671
  60.1568830 100.7469348  52.4194689  60.3685726 101.3901108  51.7429070
  60.1098579  99.9131665  51.9516619  57.7595059  93.3587169  49.3231261
  56.8979538  93.6568422  49.6147999  57.7857494  93.5757568  48.3912294
  54.5756629 101.9029359  45.7305067  55.0394974 102.1817062  44.9409690
  54.3113427 101.0012804  45.5478158  51.4680710 101.4500841  48.6684830
  52.0382067 101.8788109  48.0302315  52.0588822 101.1683425  49.3669016
  53.5125515  98.0252512  42.5394632  54.2149558  98.4773555  43.0068559
  53.1806143  97.3836330  43.1674525  51.9605876  96.6164268  56.9145842
  51.3304537  97.2980549  57.1481238  51.8541964  96.5047350  55.9698980
  47.2550849  96.2836064  47.8411766  46.4649903  96.5393593  47.3651876
  47.7462096  97.0984402  47.9463806  61.2714658 103.6241303  50.5917047
  62.0932102 103.2221491  50.3099728  61.2677061 103.5209538  51.5433162
  49.2065594  96.6480644  44.7995242  48.4096757  96.7599338  45.3178738
  48.9791186  96.9867296  43.9336133  55.0371262 103.1725347  52.7477757
  55.1015694 103.6345754  53.5835929  54.3282186 102.5422712  52.8760067
  45.5388552  96.5366555  50.2726757  45.7896590  97.4213565  50.5384333
  46.0748100  96.3571156  49.5001848  69.3620651  99.9680052  46.9402018
  68.6084360  99.3987450  46.7846022  69.4968193  99.9342716  47.8872653
  54.7519279 104.8393454  42.6156737  54.6164954 105.6844990  43.0441585
  55.2929092 105.0412732  41.8522671  51.2386619  90.9185034  59.2771093
  50.8453565  90.3651233  59.9518737  52.0552759  91.2295613  59.6677610
  48.2048677 102.3568892  43.1884663  48.7173197 103.1512143  43.3390227
  48.8571390 101.6595183  43.1218264  50.0143562 105.4734649  45.2707416
  50.1910190 106.3952613  45.0828400  50.8100395 105.1593068  45.7001795
  54.1554580  92.3342913  56.8691349  54.8964293  92.9350066  56.7895812
  54.3872503  91.5920551  56.3109392  49.2995918  97.5199280  55.1469579
  49.1849433  96.6184538  55.4476678  48.4440436  97.7662977  54.7954395
  56.3787756 105.4617021  56.7457080  55.9351610 104.6753399  56.4277984
  57.0404969 105.6496171  56.0800970  51.1374877 106.9912822  51.2717758
  51.6882302 106.8629886  50.4994752  50.2986353 107.2907711  50.9212651
  58.4768994 105.7419821  54.7738481  58.4587469 106.5628702  54.2818750
  59.3988914 105.6173896  54.9988622  54.9342048 103.2563950  55.6161989
  55.4670385 102.4952238  55.3861297  54.4056129 102.9637602  56.3586144
  58.1011743  88.3624016  51.1455631  57.7576012  89.2525658  51.0694741
  58.4690706  88.1725674  50.2825216  46.1697594 100.6857547  43.9644233
  47.0072816 101.0954555  43.7477941  46.3475861  99.7456989  43.9344427
  58.0662026  98.3532627  39.6528066  57.5508649  99.1237232  39.8916453
  57.7939334  97.6797763  40.2761127  55.6509137  93.1982328  44.7113304
  54.7950733  92.8089178  44.5318943  56.0636089  93.2774289  43.8513090
  57.1808283  90.7328671  49.1104864  56.6773079  90.6958806  48.2972669
  57.4738890  91.6421414  49.1701521  53.4251169  90.8167401  48.1171046
  54.2904166  90.6210210  47.7576935  53.4928678  90.5877753  49.0440403
  63.0396300 101.1064982  41.5881239  62.2625743 100.7676141  41.1436402
  63.7187781 101.1117605  40.9136205  57.8548329  96.2259719  41.4787847
  57.5498465  96.5405868  42.3297990  58.8078771  96.3041139  41.5215180
  56.2994761 102.3849943  43.1280801  55.7716122 101.6502702  42.8154039
  55.7982264 103.1624619  42.8820769  61.2787607 100.5798963  48.2447847
  60.6211281 101.2698225  48.3327976  62.0828006 100.9695395  48.5881834
  51.0313488  93.0469609  45.4887413  51.6057240  92.8244790  44.7560606
  51.6184471  93.1158303  46.2416014  60.0893066  98.9343336  46.2951789
  60.6024947  99.5673328  46.7973499  60.7394290  98.3344531  45.9295149
  51.3583076  95.0774070  39.5083298  50.5220388  95.4148756  39.8292573
  51.2187845  94.9423050  38.5710435  53.3336156  89.9210858  44.2162482
  52.6800568  89.6059875  43.5919097  53.2916630  89.2986598  44.9422305
  54.4447361 100.2030153  36.1315774  53.5374423  99.9719406  36.3306923
  54.9418393  99.4067772  36.3189756  57.3515440 108.9127660  39.0512460
  56.6777139 109.2159357  39.6597418  57.7381262 109.7156740  38.7017917
  56.5673896  96.4092791  48.5410130  55.6496458  96.6307738  48.3831818
  56.9834040  96.4839102  47.6821837  57.3508944  97.8084207  43.6712810
  58.0980763  98.3205604  43.3619932  57.6200534  97.4868260  44.5317204
  55.6235594 100.3042748  40.6539764  54.7146814 100.0201781  40.7512234
  55.6530678 100.7241826  39.7943071  60.8554862 103.9149337  44.4230932
  60.4017189 103.0740247  44.4796122  60.2248829 104.5510736  44.7605712
  59.7987781  94.8441323  45.6531599  59.0610538  94.3318710  45.9841842
  60.0514555  94.4041705  44.8414876  59.2987801 105.7525834  45.3580750
  59.5910775 106.3130891  44.6393116  59.8086422 106.0454395  46.1133909
  59.8999409  87.6217575  46.2473369  60.2058286  86.7614939  45.9599284
  60.6252014  88.2135195  46.0472362  46.1923765  98.0248262  44.6354966
  45.9948165  97.4317623  43.9106033  45.6370429  97.7200472  45.3530905
  54.1720488  97.9171368  46.7549560  54.2269098  96.9645205  46.6792036
  53.3611690  98.0730807  47.2390858  55.3211682 101.8451491  37.9927843
  54.8831112 101.1287350  37.5333480  56.0622123 102.0727606  37.4312934
  52.1112848  96.5348428  44.5139938  51.2980714  96.8342599  44.9205131
  52.6071843  96.1404117  45.2314421  54.2621426 106.5306185  46.4474203
  54.2197605 106.7567031  45.5182735  55.1784125 106.2969560  46.5960004
  57.7087060  96.9990253  53.3454832  58.0636448  97.2261726  54.2049298
  58.3559191  97.3308629  52.7232088  63.4384797 100.1208688  44.0504161
  63.3002696 100.3110284  43.1225351  63.0821016 100.8828071  44.5072213
  51.6026923  94.1066784  50.1301173  52.2426302  93.9655543  49.4324137
  50.7704454  93.8201297  49.7539775  63.4654177 102.1885215  49.0615433
  63.8990683 102.0960505  49.9098487  64.1785757 102.1642716  48.4235449
  52.3787227 103.4069214  46.2436166  53.1727826 102.9119534  46.0418741
  51.6678919 102.8787077  45.8803871  57.1982072 105.7887310  50.5948534
  57.2519094 106.3578246  51.3626249  56.3296853 105.9589195  50.2302571
  48.6869991  97.5512296  42.3195919  47.7567579  97.4896751  42.5365881
  48.7827462  97.0288249  41.5232560  48.6055540  94.0767109  44.9074160
  48.8662357  94.9912442  44.7983321  49.4272712  93.6091551  45.0570773
  50.0780465  95.4904866  52.0772985  50.7503518  95.2822228  51.4285634
  49.2510251  95.2926952  51.6378217  64.3269726 102.2308916  51.5948318
  64.5205616 103.1354727  51.8407593  64.2270344 101.7716335  52.4286903
  55.9806037  92.1166807  54.0938646  55.3333952  92.8156756  54.0003122
  56.7507052  92.5502951  54.4614894  59.3884835 102.3815659  57.1689199
  59.2370341 102.1526211  56.2519283  59.3789514 103.3386260  57.1820544
  56.1570171  99.9547572  52.1535465  57.0862231 100.1058731  51.9804433
  55.7361201 100.0431592  51.2984112  54.9558503 103.9798236  49.9234003
  54.8169589 103.6117020  50.7959941  54.1673099 104.4945875  49.7517961
  55.5506655 109.0807333  41.2659540  55.7258411 108.6095376  42.0805162
  54.8639443 109.7073099  41.4940800  56.5063718 103.3579839  47.3122841
  56.1713551 103.3180609  48.2080491  56.0067664 102.6924555  46.8393251
  50.4807962  98.7647469  52.8375422  50.3427760  98.0327708  53.4386961
  51.3912886  98.6756369  52.5559610  59.4422910 100.7035873  37.5859900
  58.8252080  99.9782701  37.4892953  58.9739398 101.4645233  37.2426975
  53.1090263  98.4767428  52.3259102  53.8189881  97.8360620  52.2845720
  53.0659571  98.7280323  53.2485282  61.0977041 105.4134781  55.2465681
  61.0389588 104.7294002  54.5796264  61.4996560 106.1553771  54.7946307
  51.8219197  95.4632646  54.1454741  51.2856554  95.0123384  54.7976337
  51.2335905  95.5978555  53.4025205  50.1167740 112.2296695  48.0399400
  50.3564339 112.8615219  48.7178418  49.2736937 111.8784735  48.3264759
  51.2321456  94.9221297  36.7081205  50.3550922  94.8010098  36.3443451
  51.7079209  94.1307376  36.4560093  61.0994449 103.3774365  53.4779660
  60.2121228 103.0400287  53.6006059  61.6693000 102.6457397  53.7148426
  42.7523596  99.7098457  46.8022712  43.4394636  99.3960187  46.2143727
  42.5971725 100.6139822  46.5289963  47.5558318  94.5988654  51.2307736
  47.4716507  93.9914323  50.4958145  46.7341024  95.0897672  51.2317232
  54.6295602 108.0375818  50.4440904  54.5565774 108.8430789  50.9560208
  54.1872995 108.2367784  49.6188925  54.4185382 107.2747588  43.9543725
  53.6352904 107.8169268  44.0481950  55.1178127 107.7921567  44.3537966
  57.7282032  93.0842217  46.5977931  58.2250731  92.3312180  46.2779001
  56.9569013  93.1206534  46.0321140  65.5811789  98.7882583  48.2396222
  65.5701666  99.6707298  47.8690155  64.7129169  98.4354134  48.0450759
  57.0894286 107.9362652  52.5999062  57.8022258 108.5710117  52.5274964
  56.5984314 108.0326518  51.7839064  58.8111813 101.8413904  44.1716354
  57.8768091 101.9615367  44.0021058  58.9888481 100.9386371  43.9076364
  54.3117001  95.2259600  46.3249615  53.9414788  94.6730641  47.0130521
  54.8076093  94.6217734  45.7724615  62.1984364  97.6831224  44.7066388
  62.6644816  98.5159215  44.6326691  62.6491864  97.2176205  45.4111647
  52.1406199 105.6857095  53.4204633  52.8415659 106.3193578  53.5734027
  51.6701314 106.0271827  52.6600272  60.2660595 104.0275045  41.7052540
  60.5420439 103.9131640  42.6146414  59.3965094 103.6292530  41.6664713
  60.1701027  90.0511811  48.7457289  59.2564106  90.2816038  48.9139496
  60.5994128  90.1350255  49.5971322  59.9407485  98.2401703  51.2457184
  59.2878935  98.4877610  50.5909636  60.3187865  97.4265841  50.9119661
  56.9014659 108.2761396  45.3485354  57.0837054 107.4583052  45.8113106
  57.7247645 108.4929088  44.9110244  57.2356825 107.2029581  42.6100402
  57.7644591 106.6922036  41.9970564  57.4985044 106.8872111  43.4745935
  55.9895058  98.9821514  57.7323221  55.3135695  98.8815643  58.4025596
  56.8122692  98.8260727  58.1959218  47.7373917 105.2193450  50.3535736
  48.3227354 104.4737138  50.4863640  47.5398756 105.5297407  51.2372400
  50.5912572 108.2544698  45.3698178  49.9222948 108.7390825  44.8862218
  50.4525442 108.5013918  46.2841557  42.3291572  97.7899050  49.0740179
  42.3675672  97.2562641  49.8677297  41.8231865  97.2634256  48.4551156
  54.7317841 110.2888441  51.9680837  55.2836149 110.4520063  52.7329922
  55.0724035 110.8792879  51.2960861  49.7082334  92.6363591  52.5702721
  49.7723661  93.4978422  52.1580119  49.6449455  92.0237593  51.8375080
  49.1834607  94.7086724  56.2175756  49.8106646  94.3263801  56.8313280
  48.3262526  94.4900925  56.5831448  59.5828715 105.1149699  57.8229491
  60.1268619 105.7279657  57.3284446  59.0015560 105.6729277  58.3396504
  45.9600150  96.5163153  42.1494110  46.2553591  95.6073831  42.0961164
  45.0588185  96.4950892  41.8275113  57.8686228 108.2370417  48.9544519
  57.7437368 107.4360157  48.4455464  58.5265319 108.7316610  48.4658489
  49.4894397  94.5919149  48.1321659  48.7680982  95.2055117  47.9929132
  50.2787652  95.1276914  48.0538305  59.9321137 106.0379437  50.5824069
  58.9851472 105.9184788  50.5102396  60.2803910 105.1501935  50.6650330
  52.2920710  91.9273576  54.4062311  52.8155112  92.1735872  55.1688620
  52.0733043  92.7593611  53.9865448  47.6887991  94.1977250  42.2733436
  47.3600697  93.3174629  42.0908541  48.0427362  94.1424919  43.1609825
  56.9367570 105.8332153  46.7828421  56.7892532 104.9048860  46.9635991
  57.7621064 105.8552244  46.2985496  50.8029814  94.4850220  42.6408913
  51.1425887  95.0136141  41.9187522  51.2501935  94.8230626  43.4167480
  60.5401692 106.6560712  47.8693294  61.4648239 106.4503573  47.7317745
  60.3716995 106.4077113  48.7782635  53.4973255  92.8687271  52.0911981
  53.1570076  92.0695084  52.4932661  52.7912261  93.1688982  51.5188814
  54.1489727  89.9536583  50.5439304  54.9715796  89.4797061  50.4218195
  54.3927791  90.7327067  51.0437991  52.7897961  92.9824842  40.8402206
  53.5106324  93.3606094  40.3365923  52.1663266  93.7013718  40.9437184
  56.9329084  93.6869991  41.7760538  57.1492699  94.5694629  41.4749366
  56.4523152  93.2956204  41.0466180  51.6728306  96.6455704  48.3531283
  51.5272886  96.9596007  49.2455564  51.1953509  97.2640604  47.8002182
  53.5324689  93.6358252  48.4012172  53.5186257  92.7399345  48.0644470
  54.2497117  93.6428916  49.0350459  55.3850819  94.0695592  50.4465300
  55.1268597  94.9912663  50.4449630  54.8535860  93.6726027  51.1365764
  60.3297008 107.1746379  43.2255385  60.5033886 106.6092802  42.4729238
  60.8225899 107.9747274  43.0434875  46.1473968  99.1861048  51.2918944
  45.6027436  99.9620856  51.4239218  47.0253318  99.5331853  51.1338066
  52.9361585  92.5172632  43.6699743  53.0577496  91.5889278  43.8690630
  52.6463627  92.5311318  42.7578058  55.8052775  90.2027543  46.8066462
  55.8274472  90.2666876  45.8518442  56.2220834  89.3632051  47.0006969
  66.1836399  99.9382802  44.8445685  66.6267545  99.1890127  44.4464808
  65.3062910  99.9292938  44.4619417  61.3172181 106.4913144  40.3252284
  62.0123085 107.1119836  40.5439598  61.6595331 105.6408495  40.6004661
  46.9339990  98.3130945  54.1849101  46.1921726  98.4613580  54.7713731
  46.6132734  98.5739210  53.3215850  63.2163604 103.9412849  41.8539614
  63.7414928 104.2800122  41.1288934  63.1285956 103.0059864  41.6702749
  54.8783652 107.8546923  53.9829491  55.1870779 107.6096070  54.8552191
  55.6759134 108.0593561  53.4948361  54.9004264 110.0084832  46.2134868
  54.4609255 109.5161211  46.9067724  55.6512381 109.4657800  45.9726943
  47.3796603 106.1996373  46.2159496  48.2054623 105.9000145  45.8358139
  47.0290655 105.4303996  46.6649284  52.3478137 105.5522841  48.2857169
  51.7258146 104.8893547  47.9859397  53.0183004 105.5783973  47.6030817
  45.5805208 104.1182700  47.1748429  44.7437117 103.6904874  46.9932430
  45.5528854 104.3115143  48.1119220  52.4202664  94.0304630  57.8789675
  52.4690820  94.9066752  57.4967445  52.9625178  93.4882023  57.3061318
  62.9057510 104.5745753  57.1590812  62.1153053 104.5569892  56.6195312
  62.6690864 105.1134046  57.9139849  63.0255385 101.4238219  54.4723541
  63.0753390 101.2588227  55.4139064  62.9169308 100.5565478  54.0821422
  51.9091644 104.1026765  41.7615630  52.0579764 104.7862229  41.1082302
  52.7158087 104.0831855  42.2765085  60.3159147  97.4069147  55.7882848
  61.2169010  97.2675612  55.4966845  60.3907122  97.5723602  56.7281025
  54.6501953  94.7836002  54.6336034  53.7805262  95.0769568  54.3618622
  54.8861433  95.3676447  55.3543297  64.5273582 103.8435161  54.7165562
  64.2358390 104.2065141  55.5529023  63.9145713 103.1302169  54.5378894
  65.7269264 101.4088040  47.2368133  66.5616155 101.8477844  47.4005693
  65.8628393 100.9326694  46.4176378  62.7760770  98.9667775  53.1845620
  63.2514891  99.1595422  52.3764472  61.8526335  99.0226961  52.9389004
  49.6644276 100.1291942  42.7676699  49.4190318  99.2254272  42.9656909
  49.8340191 100.1309093  41.8256177  57.3540986  91.0015619  52.1501454
  57.8722930  91.7376646  51.8247943  56.9996119  91.3079612  52.9848213
  48.9339924  95.8620300  40.2662860  48.2409169  95.9364655  39.6102896
  48.6891676  95.0980644  40.7884377  57.6053581  87.4215901  47.6702351
  57.8855334  86.7539090  48.2962777  58.3904187  87.6144997  47.1577015
  55.4087049 106.5974895  39.2327377  54.8361016 107.2165082  38.7797849
  55.9819843 107.1474257  39.7667299  61.4762439  95.8433535  51.4173926
  62.4279862  95.9431633  51.4386150  61.3065889  95.0511804  51.9272010
  59.4976818  92.9289119  51.6033327  58.9026750  93.2094131  50.9079815
  59.2126515  93.4183020  52.3750068  58.6284309 106.8812045  40.3635959
  59.5614982 106.8157607  40.5668835  58.5407522 107.7168312  39.9050492
  61.2572325 106.1977916  37.3239907  61.1785957 105.8637779  38.2175665
  62.0781992 106.6899684  37.3231379  63.9550517  99.0639655  50.5316226
  63.9226837  98.1255656  50.7175909  64.5651140  99.1423692  49.7982050
  55.7933848  97.9335708  36.5743430  56.7392952  97.8041916  36.6431848
  55.4148092  97.1950370  37.0512858  64.1045005  95.8550698  50.5774509
  63.5884054  95.0709155  50.3904438  64.9884954  95.5269415  50.7421028
  61.7655732  89.5991714  46.5370321  61.5680553  89.2906802  47.4213653
  62.3755438  90.3253353  46.6668251  69.7727067 100.1255662  49.6722262
  70.5030455  99.8640950  50.2329966  69.1634012  99.3884384  49.7124330
  67.8542364  98.2663524  50.2696714  67.1275527  98.1319489  49.6613205
  67.4389651  98.5740353  51.0753432  55.6772540 101.9853454  58.0344087
  56.5975550 102.1632053  58.2284133  55.6422123 101.0409500  57.8823786
  53.9776765  95.8585684  36.5098315  53.0708220  95.5618797  36.5861028
  54.2552746  95.5615502  35.6432601  44.8954705  97.1792048  46.9597361
  44.5757489  96.3257356  46.6671735  44.3488133  97.3940626  47.7155329
  48.6734613  99.8954489  50.6766868  48.8920622 100.8271597  50.6954902
  49.0860386  99.5362463  51.4621672  55.5938830  90.4022574  42.6642556
  54.7839559  90.0569659  43.0397802  56.2823247  90.0930118  43.2530168
  57.5229379  89.4800621  44.2866853  58.0760417  89.8996074  44.9456876
  57.7599465  88.5536369  44.3289809  53.5462478  95.4687695  60.0669617
  53.4459205  96.4182052  59.9981708  53.3284020  95.1405933  59.1945687
  52.7475549  92.7172620  36.6510294  53.6094713  93.0427518  36.9106111
  52.9325893  91.9304116  36.1383360  44.7642965 100.7994959  48.9290483
  44.0706436 100.3848912  48.4160437  45.5115956 100.8415496  48.3323902
  60.9008186  91.5901146  43.7945517  60.3206855  92.2485950  43.4123569
  60.6344118  90.7678491  43.3832935  59.3511752  90.9906204  45.9966837
  59.8511531  91.1022738  45.1881156  59.9947360  90.6867257  46.6367646
  53.4093748  98.8984833  58.8834678  52.9260830  99.6985194  59.0898567
  53.4954687  98.9092778  57.9302122  46.6779708 100.7313213  46.8056498
  46.6550396 100.8300900  45.8538381  46.9880344 101.5778364  47.1273664
  49.3367085 102.7889368  50.9203112  50.2910339 102.7573310  50.8533044
  49.1379609 102.3279992  51.7353338  49.9266468 101.3590484  53.4873910
  50.7459357 101.8534563  53.5108747  50.2003275 100.4422452  53.4591477
  59.6833064  93.7501236  42.8501865  58.7958919  94.0350887  42.6322060
  60.0987053  93.5895000  42.0029142  63.0347600  93.7747757  46.5656205
  63.8107990  94.2644210  46.8380821  62.3095734  94.2005812  47.0228074
  65.4720159  94.4875377  47.6230145  66.0664649  94.2471113  46.9123453
  65.5446742  93.7682507  48.2503681  47.6917314 108.3308988  47.9373310
  47.5571782 107.5709388  47.3711308  47.2749377 109.0549887  47.4702099
  58.8276277 103.5145911  36.9449885  59.5312127 103.7195914  37.5607541
  58.1038926 104.0822673  37.2098969  59.6574088  99.2655772  43.0652155
  59.6009289  99.7224324  42.2259788  60.2102430  98.5046457  42.8874998
  63.4678893  95.0545504  43.8902275  63.2115828  94.6542140  44.7210483
  62.8431761  95.7689298  43.7652414  67.7791231  97.7941578  46.3973566
  67.2190789  97.8634767  47.1705128  67.1734735  97.6182562  45.6773063
  50.8486440 109.2278305  48.1491753  50.7318824 110.1723737  48.0470443
  50.0278886 108.9251866  48.5377552  60.7362975 103.9528440  38.9948345
  61.5708579 103.5209639  38.8125820  60.5747318 103.7810454  39.9225240
  60.3908867 100.4560554  40.3604685  60.3357671 100.2904825  39.4193129
  59.7654922 101.1636587  40.5166874  45.1801382  95.6928618  54.1866107
  45.8260245  95.1827572  54.6753332  44.9718533  96.4297300  54.7609532
  57.7054774 102.7609466  59.6858247  58.5745934 102.9350118  59.3244882
  57.2261526 103.5803882  59.5633977  53.7004992  89.9568663  39.9390003
  53.6883662  90.9010503  40.0958274  54.5928414  89.7738808  39.6449464
  51.8740954 109.8806567  51.3647681  52.7768201 109.9130177  51.6814176
  51.6478324 108.9507017  51.3794017  53.6294556 108.6337553  48.0257760
  52.6790187 108.6339415  47.9122132  53.9327042 107.8870288  47.5093794
  57.5157112  86.5511439  44.1935940  56.7489508  85.9969926  44.3392622
  57.9267817  86.6233308  45.0550091  49.5198873  92.8396235  58.2841121
  50.3830334  92.4833040  58.4944446  48.9464283  92.5010130  58.9716525
  69.3647250 114.4698091  49.0903522  70.0025660 114.3504839  48.3866862
  69.2468093 115.4178935  49.1491474  66.1736956 114.4225520  49.0265047
  65.8355468 114.3066584  48.1385582  67.0426724 114.0216685  49.0066053
  62.0323772 116.2760996  45.0161938  61.4688637 116.1850933  44.2478226
  61.9176167 115.4560900  45.4964430  66.6556739 115.5760371  54.9851252
  66.6445380 115.1813170  54.1131756  66.8177379 114.8426444  55.5785024
  59.5788204 117.7712188  47.8546158  60.3709496 117.4303012  47.4392458
  59.8184854 117.8807163  48.7748312  67.6123330 119.9431964  40.3276403
  66.9611310 120.5286044  39.9410416  68.4067693 120.4738159  40.3871440
  61.5378958 117.0321101  40.7263537  62.3109834 116.4850088  40.5876413
  61.8904356 117.8965350  40.9377998  63.3764000 118.3597483  53.9330436
  63.0853866 119.2643114  53.8177103  64.0120985 118.4014011  54.6474506
  64.3020207 115.7374332  50.5231796  64.8983779 115.5130354  49.8088759
  64.3595179 114.9959077  51.1257244  63.8745235 113.1913767  38.3581987
  64.1270756 112.6695288  37.5965450  62.9369795 113.0279912  38.4608671
  68.9188518 112.1949545  46.1656730  69.7051607 111.7768968  45.8147147
  69.1827223 113.0995637  46.3338379  69.0898596 117.6322396  40.8645387
  68.4544429 117.7057022  41.5766292  68.7596002 118.2215994  40.1864466
  74.3196945 112.1324779  47.0689709  75.0522117 111.5623995  47.3027538
  73.5636301 111.7446379  47.5096214  63.5941524 115.0941873  40.5606362
  63.4777782 114.4186776  41.2287446  63.7043784 114.6074247  39.7438515
  65.9373065 114.5552020  44.2653051  65.5731272 114.0282641  44.9765973
  66.7940181 114.1650489  44.0919537  71.8422366 105.8446353  51.5284317
  71.5105691 106.7141764  51.3045532  71.2467979 105.5282637  52.2078348
  65.5778552 109.5841920  39.2614400  65.7452954 110.4522156  39.6284871
  65.3875721 109.7469201  38.3375689  68.3353885 118.0458899  50.9280230
  68.0354608 118.9483937  50.8196037  67.9904945 117.7791082  51.7801383
  61.7866367 114.4972695  46.9616934  60.8616863 114.3648910  47.1694626
  62.0350780 115.2766915  47.4586877  71.7351029 110.5641439  48.6077667
  70.8267906 110.4956847  48.3136428  71.6838625 111.0413384  49.4359493
  65.5567773 112.0399577  40.2461066  65.4367398 112.4856628  41.0846547
  64.8620361 112.3884895  39.6874605  59.1475178 114.1405969  47.7960723
  59.2767559 114.3940448  48.7100135  58.4672629 114.7333677  47.4765379
  63.3174665 124.8103219  43.8951198  63.2398695 125.7611044  43.9739678
  62.7136309 124.4649091  44.5526124  65.8091895 111.9831084  56.5512565
  65.0325229 112.5425005  56.5415429  66.4482458 112.4687867  57.0727435
  73.6012675 108.7657877  50.3855541  72.9587056 109.0590410  49.7395336
  73.0967604 108.6510798  51.1908738  71.2552839 112.5121050  41.0741401
  72.1670695 112.7448437  40.8989098  70.7462486 113.0958095  40.5116479
  64.0638267 114.7916538  56.1130532  64.8052952 115.3301582  55.8365355
  63.3575253 115.4182826  56.2702083  69.5393607 116.9345678  54.7102693
  69.9476963 116.4928089  53.9657325  68.8170868 116.3598306  54.9636886
  65.8924677 111.8718285  52.0836250  66.7385872 112.2957699  52.2270899
  65.8323315 111.2151909  52.7774813  69.8622421 117.4946869  48.4654982
  69.2331284 117.6592583  47.7631050  69.4748084 117.9088478  49.2365946
  73.7411653 118.4301307  45.8199346  73.0562691 118.8100208  45.2696379
  73.8255503 119.0396633  46.5531293  69.0424122 109.5322653  53.7417424
  68.7985054 110.2864714  53.2051699  69.3184053 109.9108001  54.5764671
  70.9962585 116.0761266  52.4194689  71.2079480 116.7193026  51.7429070
  70.9492333 115.2423582  51.9516619  68.5988814 108.6879086  49.3231261
  67.7373293 108.9860340  49.6147999  68.6251249 108.9049485  48.3912294
  65.4150383 117.2321277  45.7305067  65.8788729 117.5108980  44.9409690
  65.1507181 116.3304721  45.5478158  62.3074464 116.7792758  48.6684830
  62.8775821 117.2080027  48.0302315  62.8982576 116.4975343  49.3669016
  64.3519269 113.3544429  42.5394632  65.0543313 113.8065473  43.0068559
  64.0199898 112.7128248  43.1674525  62.7999631 111.9456186  56.9145842
  62.1698291 112.6272467  57.1481238  62.6935719 111.8339268  55.9698980
  58.0944603 111.6127982  47.8411766  57.3043657 111.8685510  47.3651876
  58.5855851 112.4276320  47.9463806  72.1108413 118.9533221  50.5917047
  72.9325857 118.5513408  50.3099728  72.1070816 118.8501455  51.5433162
  60.0459349 111.9772561  44.7995242  59.2490512 112.0891255  45.3178738
  59.8184941 112.3159213  43.9336133  65.8765016 118.5017264  52.7477757
  65.9409449 118.9637672  53.5835929  65.1675940 117.8714629  52.8760067
  56.3782306 111.8658472  50.2726757  56.6290345 112.7505482  50.5384333
  56.9141855 111.6863074  49.5001848  80.2014406 115.2971970  46.9402018
  79.4478114 114.7279368  46.7846022  80.3361947 115.2634634  47.8872653
  65.5913034 120.1685372  42.6156737  65.4558709 121.0136908  43.0441585
  66.1322846 120.3704650  41.8522671  62.0780374 106.2476952  59.2771093
  61.6847319 105.6943150  59.9518737  62.8946514 106.5587530  59.6677610
  59.0442431 117.6860810  43.1884663  59.5566952 118.4804060  43.3390227
  59.6965144 116.9887100  43.1218264  60.8537316 120.8026566  45.2707416
  61.0303944 121.7244531  45.0828400  61.6494150 120.4884985  45.7001795
  64.9948335 107.6634831  56.8691349  65.7358048 108.2641984  56.7895812
  65.2266257 106.9212469  56.3109392  60.1389673 112.8491198  55.1469579
  60.0243188 111.9476455  55.4476678  59.2834190 113.0954895  54.7954395
  67.2181510 120.7908938  56.7457080  66.7745365 120.0045317  56.4277984
  67.8798724 120.9788089  56.0800970  61.9768632 122.3204740  51.2717758
  62.5276057 122.1921803  50.4994752  61.1380107 122.6199629  50.9212651
  69.3162748 121.0711738  54.7738481  69.2981224 121.8920619  54.2818750
  70.2382668 120.9465814  54.9988622  65.7735803 118.5855868  55.6161989
  66.3064139 117.8244156  55.3861297  65.2449884 118.2929520  56.3586144
  68.9405498 103.6915934  51.1455631  68.5969767 104.5817575  51.0694741
  69.3084460 103.5017591  50.2825216  57.0091348 116.0149464  43.9644233
  57.8466570 116.4246473  43.7477941  57.1869616 115.0748906  43.9344427
  68.9055780 113.6824545  39.6528066  68.3902404 114.4529150  39.8916453
  68.6333089 113.0089681  40.2761127  66.4902891 108.5274246  44.7113304
  65.6344488 108.1381096  44.5318943  66.9029843 108.6066206  43.8513090
  68.0202038 106.0620589  49.1104864  67.5166834 106.0250724  48.2972669
  68.3132645 106.9713332  49.1701521  64.2644924 106.1459319  48.1171046
  65.1297921 105.9502127  47.7576935  64.3322433 105.9169670  49.0440403
  73.8790054 116.4356900  41.5881239  73.1019497 116.0968059  41.1436402
  74.5581535 116.4409523  40.9136205  68.6942083 111.5551637  41.4787847
  68.3892219 111.8697786  42.3297990  69.6472526 111.6333057  41.5215180
  67.1388515 117.7141860  43.1280801  66.6109877 116.9794620  42.8154039
  66.6376018 118.4916537  42.8820769  72.1181361 115.9090881  48.2447847
  71.4605036 116.5990142  48.3327976  72.9221761 116.2987313  48.5881834
  61.8707243 108.3761527  45.4887413  62.4450995 108.1536708  44.7560606
  62.4578225 108.4450221  46.2416014  70.9286820 114.2635253  46.2951789
  71.4418702 114.8965245  46.7973499  71.5788044 113.6636449  45.9295149
  62.1976830 110.4065988  39.5083298  61.3614142 110.7440674  39.8292573
  62.0581600 110.2714967  38.5710435  64.1729911 105.2502775  44.2162482
  63.5194323 104.9351793  43.5919097  64.1310385 104.6278516  44.9422305
  65.2841115 115.5322071  36.1315774  64.3768177 115.3011324  36.3306923
  65.7812147 114.7359690  36.3189756  68.1909194 124.2419578  39.0512460
  67.5170893 124.5451275  39.6597418  68.5775016 125.0448658  38.7017917
  67.4067651 111.7384709  48.5410130  66.4890212 111.9599656  48.3831818
  67.8227795 111.8131020  47.6821837  68.1902699 113.1376125  43.6712810
  68.9374518 113.6497522  43.3619932  68.4594288 112.8160177  44.5317204
  66.4629349 115.6334665  40.6539764  65.5540568 115.3493698  40.7512234
  66.4924433 116.0533744  39.7943071  71.6948616 119.2441255  44.4230932
  71.2410943 118.4032165  44.4796122  71.0642583 119.8802653  44.7605712
  70.6381536 110.1733241  45.6531599  69.9004293 109.6610627  45.9841842
  70.8908309 109.7333623  44.8414876  70.1381556 121.0817752  45.3580750
  70.4304530 121.6422809  44.6393116  70.6480176 121.3746313  46.1133909
  70.7393163 102.9509493  46.2473369  71.0452040 102.0906856  45.9599284
  71.4645768 103.5427113  46.0472362  57.0317519 113.3540180  44.6354966
  56.8341919 112.7609540  43.9106033  56.4764183 113.0492390  45.3530905
  65.0114243 113.2463286  46.7549560  65.0662853 112.2937122  46.6792036
  64.2005445 113.4022725  47.2390858  66.1605437 117.1743409  37.9927843
  65.7224867 116.4579268  37.5333480  66.9015878 117.4019524  37.4312934
  62.9506603 111.8640346  44.5139938  62.1374468 112.1634516  44.9205131
  63.4465597 111.4696035  45.2314421  65.1015181 121.8598103  46.4474203
  65.0591360 122.0858949  45.5182735  66.0177880 121.6261477  46.5960004
  68.5480815 112.3282170  53.3454832  68.9030202 112.5553643  54.2049298
  69.1952946 112.6600547  52.7232088  74.2778551 115.4500606  44.0504161
  74.1396450 115.6402202  43.1225351  73.9214770 116.2119989  44.5072213
  62.4420678 109.4358701  50.1301173  63.0820057 109.2947460  49.4324137
  61.6098208 109.1493215  49.7539775  74.3047931 117.5177133  49.0615433
  74.7384438 117.4252422  49.9098487  75.0179512 117.4934634  48.4235449
  63.2180982 118.7361132  46.2436166  64.0121580 118.2411452  46.0418741
  62.5072674 118.2078995  45.8803871  68.0375826 121.1179227  50.5948534
  68.0912848 121.6870164  51.3626249  67.1690607 121.2881112  50.2302571
  59.5263745 112.8804213  42.3195919  58.5961333 112.8188669  42.5365881
  59.6221217 112.3580166  41.5232560  59.4449294 109.4059026  44.9074160
  59.7056111 110.3204360  44.7983321  60.2666466 108.9383469  45.0570773
  60.9174219 110.8196783  52.0772985  61.5897273 110.6114146  51.4285634
  60.0904006 110.6218869  51.6378217  75.1663481 117.5600834  51.5948318
  75.3599371 118.4646644  51.8407593  75.0664099 117.1008253  52.4286903
  66.8199791 107.4458724  54.0938646  66.1727706 108.1448674  54.0003122
  67.5900807 107.8794868  54.4614894  70.2278589 117.7107577  57.1689199
  70.0764096 117.4818128  56.2519283  70.2183269 118.6678178  57.1820544
  66.9963926 115.2839489  52.1535465  67.9255986 115.4350649  51.9804433
  66.5754956 115.3723510  51.2984112  65.7952258 119.3090154  49.9234003
  65.6563343 118.9408938  50.7959941  65.0066854 119.8237793  49.7517961
  66.3900409 124.4099250  41.2659540  66.5652165 123.9387293  42.0805162
  65.7033198 125.0365016  41.4940800  67.3457473 118.6871756  47.3122841
  67.0107305 118.6472526  48.2080491  66.8461418 118.0216472  46.8393251
  61.3201717 114.0939386  52.8375422  61.1821515 113.3619625  53.4386961
  62.2306640 114.0048287  52.5559610  70.2816664 116.0327791  37.5859900
  69.6645835 115.3074619  37.4892953  69.8133153 116.7937151  37.2426975
  63.9484017 113.8059346  52.3259102  64.6583636 113.1652538  52.2845720
  63.9053325 114.0572241  53.2485282  71.9370796 120.7426699  55.2465681
  71.8783342 120.0585919  54.5796264  72.3390314 121.4845689  54.7946307
  62.6612951 110.7924564  54.1454741  62.1250308 110.3415302  54.7976337
  62.0729660 110.9270472  53.4025205  62.0715210 110.2513215  36.7081205
  61.1944677 110.1302016  36.3443451  62.5472963 109.4599293  36.4560093
  71.9388203 118.7066283  53.4779660  71.0514982 118.3692205  53.6006059
  72.5086754 117.9749314  53.7148426  53.5917350 115.0390375  46.8022712
  54.2788390 114.7252105  46.2143727  53.4365479 115.9431739  46.5289963
  58.3952073 109.9280571  51.2307736  58.3110261 109.3206241  50.4958145
  57.5734779 110.4189590  51.2317232  65.4689357 123.3667735  50.4440904
  65.3959528 124.1722707  50.9560208  65.0266750 123.5659701  49.6188925
  65.2579136 122.6039505  43.9543725  64.4746658 123.1461186  44.0481950
  65.9571881 123.1213485  44.3537966  68.5675786 108.4134135  46.5977931
  69.0644486 107.6604097  46.2779001  67.7962768 108.4498452  46.0321140
  76.4205544 114.1174500  48.2396222  76.4095420 114.9999216  47.8690155
  75.5522923 113.7646051  48.0450759  67.9288040 123.2654569  52.5999062
  68.6416012 123.9002034  52.5274964  67.4378069 123.3618435  51.7839064
  69.6505567 117.1705822  44.1716354  68.7161846 117.2907285  44.0021058
  69.8282236 116.2678289  43.9076364  65.1510755 110.5551518  46.3249615
  64.7808543 110.0022558  47.0130521  65.6469848 109.9509651  45.7724615
  73.0378118 113.0123141  44.7066388  73.5038571 113.8451133  44.6326691
  73.4885619 112.5468123  45.4111647  62.9799954 121.0149013  53.4204633
  63.6809413 121.6485496  53.5734027  62.5095069 121.3563744  52.6600272
  71.1054350 119.3566963  41.7052540  71.3814193 119.2423557  42.6146414
  70.2358848 118.9584448  41.6664713  71.0094781 105.3803728  48.7457289
  70.0957861 105.6107955  48.9139496  71.4387883 105.4642172  49.5971322
  70.7801240 113.5693620  51.2457184  70.1272690 113.8169528  50.5909636
  71.1581620 112.7557759  50.9119661  67.7408414 123.6053314  45.3485354
  67.9230808 122.7874969  45.8113106  68.5641400 123.8221006  44.9110244
  68.0750579 122.5321499  42.6100402  68.6038345 122.0213953  41.9970564
  68.3378799 122.2164029  43.4745935  66.8288813 114.3113431  57.7323221
  66.1529450 114.2107561  58.4025596  67.6516447 114.1552645  58.1959218
  58.5767672 120.5485368  50.3535736  59.1621109 119.8029056  50.4863640
  58.3792510 120.8589325  51.2372400  61.4306327 123.5836615  45.3698178
  60.7616702 124.0682743  44.8862218  61.2919197 123.8305836  46.2841557
  53.1685326 113.1190968  49.0740179  53.2069426 112.5854559  49.8677297
  52.6625619 112.5926174  48.4551156  65.5711596 125.6180359  51.9680837
  66.1229904 125.7811980  52.7329922  65.9117789 126.2084797  51.2960861
  60.5476089 107.9655509  52.5702721  60.6117415 108.8270340  52.1580119
  60.4843209 107.3529510  51.8375080  60.0228361 110.0378641  56.2175756
  60.6500400 109.6555719  56.8313280  59.1656280 109.8192843  56.5831448
  70.4222470 120.4441616  57.8229491  70.9662374 121.0571575  57.3284446
  69.8409315 121.0021195  58.3396504  56.7993904 111.8455070  42.1494110
  57.0947345 110.9365749  42.0961164  55.8981940 111.8242810  41.8275113
  68.7079983 123.5662334  48.9544519  68.5831122 122.7652074  48.4455464
  69.3659074 124.0608528  48.4658489  60.3288151 109.9211067  48.1321659
  59.6074737 110.5347035  47.9929132  61.1181407 110.4568832  48.0538305
  70.7714891 121.3671354  50.5824069  69.8245227 121.2476706  50.5102396
  71.1197664 120.4793853  50.6650330  63.1314465 107.2565493  54.4062311
  63.6548866 107.5027790  55.1688620  62.9126798 108.0885528  53.9865448
  58.5281746 109.5269168  42.2733436  58.1994452 108.6466547  42.0908541
  58.8821116 109.4716837  43.1609825  67.7761325 121.1624071  46.7828421
  67.6286287 120.2340778  46.9635991  68.6014818 121.1844161  46.2985496
  61.6423569 109.8142138  42.6408913  61.9819641 110.3428059  41.9187522
  62.0895689 110.1522544  43.4167480  71.3795446 121.9852629  47.8693294
  72.3041994 121.7795491  47.7317745  71.2110750 121.7369031  48.7782635
  64.3367010 108.1979188  52.0911981  63.9963830 107.3987002  52.4932661
  63.6306016 108.4980899  51.5188814  64.9883481 105.2828501  50.5439304
  65.8109551 104.8088979  50.4218195  65.2321545 106.0618985  51.0437991
  63.6291716 108.3116759  40.8402206  64.3500078 108.6898012  40.3365923
  63.0057020 109.0305636  40.9437184  67.7722839 109.0161908  41.7760538
  67.9886453 109.8986546  41.4749366  67.2916906 108.6248122  41.0466180
  62.5122060 111.9747622  48.3531283  62.3666641 112.2887925  49.2455564
  62.0347264 112.5932522  47.8002182  64.3718443 108.9650170  48.4012172
  64.3580012 108.0691263  48.0644470  65.0890871 108.9720833  49.0350459
  66.2244574 109.3987510  50.4465300  65.9662352 110.3204580  50.4449630
  65.6929614 109.0017944  51.1365764  71.1690763 122.5038297  43.2255385
  71.3427640 121.9384719  42.4729238  71.6619654 123.3039192  43.0434875
  56.9867722 114.5152966  51.2918944  56.4421190 115.2912774  51.4239218
  57.8647072 114.8623770  51.1338066  63.7755339 107.8464550  43.6699743
  63.8971250 106.9181196  43.8690630  63.4857381 107.8603236  42.7578058
  66.6446529 105.5319460  46.8066462  66.6668226 105.5958793  45.8518442
  67.0614588 104.6923969  47.0006969  77.0230154 115.2674720  44.8445685
  77.4661300 114.5182045  44.4464808  76.1456664 115.2584856  44.4619417
  72.1565935 121.8205061  40.3252284  72.8516840 122.4411754  40.5439598
  72.4989085 120.9700412  40.6004661  57.7733744 113.6422862  54.1849101
  57.0315480 113.7905498  54.7713731  57.4526489 113.9031128  53.3215850
  74.0557358 119.2704767  41.8539614  74.5808682 119.6092040  41.1288934
  73.9679711 118.3351782  41.6702749  65.7177407 123.1838840  53.9829491
  66.0264533 122.9387987  54.8552191  66.5152889 123.3885479  53.4948361
  65.7398019 125.3376750  46.2134868  65.3003009 124.8453129  46.9067724
  66.4906136 124.7949718  45.9726943  58.2190358 121.5288291  46.2159496
  59.0448378 121.2292063  45.8358139  57.8684410 120.7595913  46.6649284
  63.1871891 120.8814759  48.2857169  62.5651900 120.2185464  47.9859397
  63.8576758 120.9075891  47.6030817  56.4198963 119.4474617  47.1748429
  55.5830871 119.0196792  46.9932430  56.3922608 119.6407061  48.1119220
  63.2596419 109.3596547  57.8789675  63.3084574 110.2358670  57.4967445
  63.8018933 108.8173940  57.3061318  73.7451264 119.9037670  57.1590812
  72.9546808 119.8861809  56.6195312  73.5084619 120.4425964  57.9139849
  73.8649139 116.7530137  54.4723541  73.9147144 116.5880144  55.4139064
  73.7563063 115.8857396  54.0821422  62.7485398 119.4318683  41.7615630
  62.8973518 120.1154147  41.1082302  63.5551841 119.4123773  42.2765085
  71.1552902 112.7361065  55.7882848  72.0562764 112.5967530  55.4966845
  71.2300876 112.9015520  56.7281025  65.4895707 110.1127920  54.6336034
  64.6199016 110.4061486  54.3618622  65.7255187 110.6968365  55.3543297
  75.3667336 119.1727078  54.7165562  75.0752144 119.5357059  55.5529023
  74.7539467 118.4594087  54.5378894  76.5663018 116.7379958  47.2368133
  77.4009910 117.1769762  47.4005693  76.7022147 116.2618611  46.4176378
  73.6154524 114.2959693  53.1845620  74.0908646 114.4887339  52.3764472
  72.6920090 114.3518879  52.9389004  60.5038031 115.4583860  42.7676699
  60.2584073 114.5546190  42.9656909  60.6733946 115.4601011  41.8256177
  68.1934741 106.3307537  52.1501454  68.7116685 107.0668563  51.8247943
  67.8389874 106.6371530  52.9848213  59.7733679 111.1912218  40.2662860
  59.0802923 111.2656573  39.6102896  59.5285430 110.4272561  40.7884377
  68.4447335 102.7507819  47.6702351  68.7249089 102.0831008  48.2962777
  69.2297942 102.9436915  47.1577015  66.2480804 121.9266813  39.2327377
  65.6754771 122.5457000  38.7797849  66.8213597 122.4766175  39.7667299
  72.3156193 111.1725453  51.4173926  73.2673616 111.2723551  51.4386150
  72.1459644 110.3803722  51.9272010  70.3370573 108.2581036  51.6033327
  69.7420505 108.5386049  50.9079815  70.0520270 108.7474937  52.3750068
  69.4678063 122.2103963  40.3635959  70.4008736 122.1449525  40.5668835
  69.3801276 123.0460230  39.9050492  72.0966080 121.5269833  37.3239907
  72.0179712 121.1929697  38.2175665  72.9175747 122.0191601  37.3231379
  74.7944271 114.3931573  50.5316226  74.7620591 113.4547573  50.7175909
  75.4044895 114.4715609  49.7982050  66.6327602 113.2627626  36.5743430
  67.5786707 113.1333834  36.6431848  66.2541847 112.5242288  37.0512858
  74.9438760 111.1842616  50.5774509  74.4277808 110.4001073  50.3904438
  75.8278708 110.8561333  50.7421028  72.6049487 104.9283632  46.5370321
  72.4074308 104.6198720  47.4213653  73.2149192 105.6545271  46.6668251
  80.6120821 115.4547580  49.6722262  81.3424209 115.1932868  50.2329966
  80.0027766 114.7176302  49.7124330  78.6936118 113.5955442  50.2696714
  77.9669282 113.4611407  49.6613205  78.2783405 113.9032271  51.0753432
  66.5166295 117.3145372  58.0344087  67.4369304 117.4923971  58.2284133
  66.4815878 116.3701417  57.8823786  64.8170519 111.1877602  36.5098315
  63.9101975 110.8910715  36.5861028  65.0946500 110.8907420  35.6432601
  55.7348460 112.5083966  46.9597361  55.4151244 111.6549274  46.6671735
  55.1881888 112.7232544  47.7155329  59.5128367 115.2246407  50.6766868
  59.7314377 116.1563514  50.6954902  59.9254141 114.8654381  51.4621672
  66.4332585 105.7314492  42.6642556  65.6233313 105.3861577  43.0397802
  67.1217002 105.4222036  43.2530168  68.3623133 104.8092539  44.2866853
  68.9154172 105.2287992  44.9456876  68.5993220 103.8828287  44.3289809
  64.3856232 110.7979612  60.0669617  64.2852959 111.7473969  59.9981708
  64.1677774 110.4697851  59.1945687  63.5869304 108.0464537  36.6510294
  64.4488468 108.3719436  36.9106111  63.7719648 107.2596033  36.1383360
  55.6036720 116.1286877  48.9290483  54.9100191 115.7140830  48.4160437
  56.3509711 116.1707414  48.3323902  71.7401940 106.9193064  43.7945517
  71.1600609 107.5777868  43.4123569  71.4737873 106.0970408  43.3832935
  70.1905507 106.3198121  45.9966837  70.6905285 106.4314656  45.1881156
  70.8341115 106.0159174  46.6367646  64.2487502 114.2276751  58.8834678
  63.7654584 115.0277111  59.0898567  64.3348442 114.2384696  57.9302122
  57.5173462 116.0605131  46.8056498  57.4944150 116.1592818  45.8538381
  57.8274099 116.9070282  47.1273664  60.1760840 118.1181286  50.9203112
  61.1304094 118.0865228  50.8533044  59.9773364 117.6571910  51.7353338
  60.7660222 116.6882402  53.4873910  61.5853111 117.1826481  53.5108747
  61.0397030 115.7714370  53.4591477  70.5226818 109.0793154  42.8501865
  69.6352673 109.3642805  42.6322060  70.9380807 108.9186918  42.0029142
  73.8741354 109.1039675  46.5656205  74.6501745 109.5936128  46.8380821
  73.1489489 109.5297729  47.0228074  76.3113913 109.8167294  47.6230145
  76.9058404 109.5763030  46.9123453  76.3840497 109.0974425  48.2503681
  69.6670032 118.8437829  36.9449885  70.3705882 119.0487831  37.5607541
  68.9432681 119.4114591  37.2098969  70.4967842 114.5947690  43.0652155
  70.4403043 115.0516242  42.2259788  71.0496185 113.8338375  42.8874998
  74.3072648 110.3837422  43.8902275  74.0509582 109.9834058  44.7210483
  73.6825516 111.0981216  43.7652414  78.6184986 113.1233495  46.3973566
  78.0584544 113.1926685  47.1705128  78.0128489 112.9474480  45.6773063
  71.5756729 119.2820358  38.9948345  72.4102333 118.8501557  38.8125820
  71.4141072 119.1102372  39.9225240  71.2302621 115.7852471  40.3604685
  71.1751425 115.6196743  39.4193129  70.6048677 116.4928504  40.5166874
  56.0195136 111.0220536  54.1866107  56.6654000 110.5119490  54.6753332
  55.8112287 111.7589217  54.7609532  68.5448529 118.0901383  59.6858247
  69.4139688 118.2642035  59.3244882  68.0655280 118.9095800  59.5633977
  64.5398747 105.2860580  39.9390003  64.5277417 106.2302420  40.0958274
  65.4322169 105.1030726  39.6449464  62.7134709 125.2098484  51.3647681
  63.6161955 125.2422094  51.6814176  62.4872079 124.2798935  51.3794017
  64.4688311 123.9629471  48.0257760  63.5183942 123.9631332  47.9122132
  64.7720797 123.2162205  47.5093794  68.3550866 101.8803357  44.1935940
  67.5883262 101.3261844  44.3392622  68.7661571 101.9525226  45.0550091
  60.3592627 108.1688153  58.2841121  61.2224089 107.8124958  58.4944446
  59.7858038 107.8302048  58.9716525  80.2041004 129.7990009  49.0903522
  80.8419414 129.6796756  48.3866862  80.0861847 130.7470853  49.1491474
  77.0130711 129.7517437  49.0265047  76.6749222 129.6358502  48.1385582
  77.8820479 129.3508602  49.0066053  77.4950494 130.9052289  54.9851252
  77.4839134 130.5105087  54.1131756  77.6571133 130.1718362  55.5785024
  74.7138990 128.5205685  38.3581987  74.9664511 127.9987206  37.5965450
  73.7763549 128.3571830  38.4608671  79.7582273 127.5241463  46.1656730
  80.5445362 127.1060886  45.8147147  80.0220977 128.4287555  46.3338379
  85.1590700 127.4616696  47.0689709  85.8915872 126.8915913  47.3027538
  84.4030056 127.0738297  47.5096214  76.7766820 129.8843938  44.2653051
  76.4125027 129.3574559  44.9765973  77.6333936 129.4942407  44.0919537
  82.6816120 121.1738270  51.5284317  82.3499445 122.0433681  51.3045532
  82.0861734 120.8574554  52.2078348  76.4172307 124.9133837  39.2614400
  76.5846709 125.7814074  39.6284871  76.2269476 125.0761119  38.3375689
  82.5744784 125.8933356  48.6077667  81.6661661 125.8248765  48.3136428
  82.5232379 126.3705301  49.4359493  76.3961527 127.3691495  40.2461066
  76.2761153 127.8148546  41.0846547  75.7014116 127.7176813  39.6874605
  76.6485649 127.3123002  56.5512565  75.8718983 127.8716922  56.5415429
  77.2876212 127.7979785  57.0727435  84.4406430 124.0949795  50.3855541
  83.7980810 124.3882328  49.7395336  83.9361358 123.9802715  51.1908738
  82.0946594 127.8412968  41.0741401  83.0064450 128.0740355  40.8989098
  81.5856241 128.4250012  40.5116479  76.7318431 127.2010203  52.0836250
  77.5779627 127.6249616  52.2270899  76.6717069 126.5443827  52.7774813
  79.8817877 124.8614571  53.7417424  79.6378809 125.6156632  53.2051699
  80.1577807 125.2399919  54.5764671  79.4382568 124.0171004  49.3231261
  78.5767047 124.3152258  49.6147999  79.4645003 124.2341403  48.3912294
  75.1913024 128.6836347  42.5394632  75.8937067 129.1357391  43.0068559
  74.8593652 128.0420166  43.1674525  73.6393385 127.2748104  56.9145842
  73.0092046 127.9564384  57.1481238  73.5329473 127.1631185  55.9698980
  68.9338358 126.9419900  47.8411766  68.1437412 127.1977428  47.3651876
  69.4249605 127.7568237  47.9463806  70.8853103 127.3064479  44.7995242
  70.0884266 127.4183173  45.3178738  70.6578695 127.6451131  43.9336133
  72.9174128 121.5768869  59.2771093  72.5241074 121.0235068  59.9518737
  73.7340268 121.8879448  59.6677610  75.8342089 122.9926749  56.8691349
  76.5751802 123.5933902  56.7895812  76.0660012 122.2504386  56.3109392
  79.7799252 119.0207851  51.1455631  79.4363521 119.9109493  51.0694741
  80.1478215 118.8309509  50.2825216  79.7449535 129.0116463  39.6528066
  79.2296158 129.7821067  39.8916453  79.4726843 128.3381599  40.2761127
  77.3296646 123.8566163  44.7113304  76.4738242 123.4673014  44.5318943
  77.7423598 123.9358124  43.8513090  78.8595792 121.3912507  49.1104864
  78.3560588 121.3542642  48.2972669  79.1526399 122.3005249  49.1701521
  75.1038678 121.4751236  48.1171046  75.9691675 121.2794045  47.7576935
  75.1716187 121.2461588  49.0440403  79.5335838 126.8843555  41.4787847
  79.2285974 127.1989704  42.3297990  80.4866280 126.9624975  41.5215180
  72.7100997 123.7053444  45.4887413  73.2844749 123.4828626  44.7560606
  73.2971980 123.7742139  46.2416014  81.7680575 129.5927171  46.2951789
  82.2812456 130.2257163  46.7973499  82.4181798 128.9928367  45.9295149
  73.0370584 125.7357905  39.5083298  72.2007897 126.0732592  39.8292573
  72.8975354 125.6006885  38.5710435  75.0123665 120.5794693  44.2162482
  74.3588077 120.2643710  43.5919097  74.9704139 119.9570434  44.9422305
  78.2461405 127.0676627  48.5410130  77.3283967 127.2891574  48.3831818
  78.6621549 127.1422937  47.6821837  79.0296453 128.4668042  43.6712810
  79.7768272 128.9789440  43.3619932  79.2988043 128.1452095  44.5317204
  81.4775290 125.5025159  45.6531599  80.7398047 124.9902545  45.9841842
  81.7302064 125.0625540  44.8414876  81.5786918 118.2801411  46.2473369
  81.8845795 117.4198774  45.9599284  82.3039523 118.8719031  46.0472362
  75.8507997 128.5755204  46.7549560  75.9056607 127.6229040  46.6792036
  75.0399199 128.7314643  47.2390858  73.7900357 127.1932263  44.5139938
  72.9768223 127.4926434  44.9205131  74.2859352 126.7987952  45.2314421
  79.3874569 127.6574088  53.3454832  79.7423957 127.8845561  54.2049298
  80.0346700 127.9892465  52.7232088  73.2814432 124.7650619  50.1301173
  73.9213811 124.6239378  49.4324137  72.4491963 124.4785132  49.7539775
  70.3657499 128.2096131  42.3195919  69.4355088 128.1480587  42.5365881
  70.4614971 127.6872084  41.5232560  70.2843049 124.7350944  44.9074160
  70.5449866 125.6496277  44.7983321  71.1060221 124.2675387  45.0570773
  71.7567974 126.1488701  52.0772985  72.4291027 125.9406063  51.4285634
  70.9297760 125.9510787  51.6378217  77.6593546 122.7750642  54.0938646
  77.0121461 123.4740592  54.0003122  78.4294561 123.2086786  54.4614894
  77.8357680 130.6131407  52.1535465  78.7649740 130.7642567  51.9804433
  77.4148710 130.7015428  51.2984112  74.7877772 129.1351263  52.3259102
  75.4977390 128.4944456  52.2845720  74.7447080 129.3864158  53.2485282
  73.5006706 126.1216481  54.1454741  72.9644063 125.6707220  54.7976337
  72.9123414 126.2562390  53.4025205  72.9108965 125.5805133  36.7081205
  72.0338431 125.4593934  36.3443451  73.3866718 124.7891211  36.4560093
  69.2345827 125.2572489  51.2307736  69.1504016 124.6498159  50.4958145
  68.4128533 125.7481507  51.2317232  79.4069541 123.7426053  46.5977931
  79.9038240 122.9896015  46.2779001  78.6356522 123.7790369  46.0321140
  75.9904510 125.8843436  46.3249615  75.6202297 125.3314476  47.0130521
  76.4863602 125.2801569  45.7724615  83.8771873 128.3415059  44.7066388
  84.3432325 129.1743051  44.6326691  84.3279373 127.8760041  45.4111647
  81.8488536 120.7095646  48.7457289  80.9351615 120.9399873  48.9139496
  82.2781637 120.7934090  49.5971322  81.6194994 128.8985538  51.2457184
  80.9666444 129.1461445  50.5909636  81.9975374 128.0849676  50.9119661
  77.6682567 129.6405349  57.7323221  76.9923204 129.5399478  58.4025596
  78.4910201 129.4844563  58.1959218  71.3869843 123.2947426  52.5702721
  71.4511170 124.1562257  52.1580119  71.3236964 122.6821428  51.8375080
  70.8622116 125.3670559  56.2175756  71.4894155 124.9847636  56.8313280
  70.0050035 125.1484761  56.5831448  67.6387659 127.1746988  42.1494110
  67.9341100 126.2657666  42.0961164  66.7375694 127.1534727  41.8275113
  71.1681906 125.2502985  48.1321659  70.4468491 125.8638952  47.9929132
  71.9575161 125.7860749  48.0538305  73.9708219 122.5857411  54.4062311
  74.4942621 122.8319708  55.1688620  73.7520552 123.4177446  53.9865448
  69.3675500 124.8561086  42.2733436  69.0388206 123.9758465  42.0908541
  69.7214871 124.8008754  43.1609825  72.4817323 125.1434055  42.6408913
  72.8213396 125.6719977  41.9187522  72.9289444 125.4814462  43.4167480
  75.1760764 123.5271106  52.0911981  74.8357584 122.7278919  52.4932661
  74.4699770 123.8272817  51.5188814  75.8277236 120.6120419  50.5439304
  76.6503305 120.1380897  50.4218195  76.0715299 121.3910902  51.0437991
  74.4685470 123.6408677  40.8402206  75.1893833 124.0189930  40.3365923
  73.8450775 124.3597554  40.9437184  78.6116593 124.3453826  41.7760538
  78.8280208 125.2278464  41.4749366  78.1310660 123.9540039  41.0466180
  73.3515815 127.3039539  48.3531283  73.2060395 127.6179842  49.2455564
  72.8741018 127.9224440  47.8002182  75.2112198 124.2942087  48.4012172
  75.1973766 123.3983181  48.0644470  75.9284626 124.3012751  49.0350459
  77.0638328 124.7279427  50.4465300  76.8056106 125.6496498  50.4449630
  76.5323369 124.3309862  51.1365764  74.6149094 123.1756467  43.6699743
  74.7365005 122.2473114  43.8690630  74.3251136 123.1895153  42.7578058
  77.4840284 120.8611378  46.8066462  77.5061981 120.9250711  45.8518442
  77.9008343 120.0215887  47.0006969  74.0990173 124.6888465  57.8789675
  74.1478329 125.5650588  57.4967445  74.6412687 124.1465858  57.3061318
  81.9946656 128.0652983  55.7882848  82.8956519 127.9259447  55.4966845
  82.0694631 128.2307437  56.7281025  76.3289462 125.4419837  54.6336034
  75.4592771 125.7353403  54.3618622  76.5648942 126.0260282  55.3543297
  79.0328495 121.6599454  52.1501454  79.5510439 122.3960481  51.8247943
  78.6783628 121.9663447  52.9848213  70.6127433 126.5204135  40.2662860
  69.9196678 126.5948490  39.6102896  70.3679185 125.7564479  40.7884377
  79.2841090 118.0799737  47.6702351  79.5642843 117.4122926  48.2962777
  80.0691696 118.2728832  47.1577015  83.1549948 126.5017371  51.4173926
  84.1067371 126.6015468  51.4386150  82.9853398 125.7095639  51.9272010
  81.1764327 123.5872954  51.6033327  80.5814259 123.8677967  50.9079815
  80.8914024 124.0766855  52.3750068  77.4721357 128.5919543  36.5743430
  78.4180461 128.4625751  36.6431848  77.0935601 127.8534205  37.0512858
  85.7832514 126.5134534  50.5774509  85.2671563 125.7292990  50.3904438
  86.6672463 126.1853250  50.7421028  83.4443241 120.2575549  46.5370321
  83.2468062 119.9490638  47.4213653  84.0542947 120.9837188  46.6668251
  75.6564274 126.5169520  36.5098315  74.7495729 126.2202632  36.5861028
  75.9340255 126.2199338  35.6432601  77.2726339 121.0606409  42.6642556
  76.4627068 120.7153494  43.0397802  77.9610756 120.7513953  43.2530168
  79.2016888 120.1384456  44.2866853  79.7547926 120.5579910  44.9456876
  79.4386974 119.2120204  44.3289809  75.2249987 126.1271530  60.0669617
  75.1246714 127.0765887  59.9981708  75.0071529 125.7989769  59.1945687
  74.4263058 123.3756455  36.6510294  75.2882222 123.7011353  36.9106111
  74.6113402 122.5887951  36.1383360  82.5795695 122.2484981  43.7945517
  81.9994364 122.9069785  43.4123569  82.3131627 121.4262326  43.3832935
  81.0299261 121.6490039  45.9966837  81.5299039 121.7606574  45.1881156
  81.6734869 121.3451092  46.6367646  81.3620573 124.4085072  42.8501865
  80.4746428 124.6934722  42.6322060  81.7774562 124.2478835  42.0029142
  84.7135109 124.4331593  46.5656205  85.4895499 124.9228045  46.8380821
  83.9883243 124.8589647  47.0228074  87.1507668 125.1459212  47.6230145
  87.7452158 124.9054948  46.9123453  87.2234251 124.4266343  48.2503681
  81.3361597 129.9239608  43.0652155  81.2796798 130.3808159  42.2259788
  81.8889939 129.1630292  42.8874998  85.1466402 125.7129340  43.8902275
  84.8903337 125.3125975  44.7210483  84.5219270 126.4273134  43.7652414
  82.0696376 131.1144389  40.3604685  82.0145180 130.9488660  39.4193129
  81.4442431 131.8220422  40.5166874  66.8588891 126.3512453  54.1866107
  67.5047754 125.8411407  54.6753332  66.6506042 127.0881135  54.7609532
  75.3792501 120.6152498  39.9390003  75.3671171 121.5594338  40.0958274
  76.2715923 120.4322643  39.6449464  79.1944621 117.2095275  44.1935940
  78.4277017 116.6553761  44.3392622  79.6055326 117.2817143  45.0550091
  71.1986382 123.4980070  58.2841121  72.0617843 123.1416875  58.4944446
  70.6251792 123.1593965  58.9716525  15.1678479  14.8300626  35.8148829
  15.8056889  14.7107373  35.1112169  15.0499321  15.7781470  35.8736781
  11.9768185  14.7828054  35.7510353  11.6386696  14.6669118  34.8630888
  12.8457953  14.3819219  35.7311360  12.4587968  15.9362906  41.7096559
  12.4476609  15.5415704  40.8377063  12.6208607  15.2028978  42.3030330
   5.3819432  18.1314722  34.5791465   6.1740724  17.7905546  34.1637764
   5.6216083  18.2409697  35.4993618   9.1795229  18.7200017  40.6575743
   8.8885095  19.6245648  40.5422409   9.8152213  18.7616545  41.3719813
  10.1051436  16.0976866  37.2477103  10.7015008  15.8732888  36.5334066
  10.1626407  15.3561611  37.8502550  20.1228174  12.4927313  33.7935015
  20.8553346  11.9226530  34.0272845  19.3667530  12.1048913  34.2341521
  14.1385114  18.4061433  37.6525537  13.8385837  19.3086472  37.5441344
  13.7936174  18.1393616  38.5046690  17.5382258  10.9243973  35.3322974
  16.6299135  10.8559381  35.0381735  17.4869854  11.4015918  36.1604799
   9.1205894  25.1705753  30.6196504   9.0429924  26.1213578  30.6984985
   8.5167537  24.8251626  31.2771431  11.6123124  12.3433619  43.2757871
  10.8356458  12.9027539  43.2660736  12.2513687  12.8290402  43.7972741
  19.4043904   9.1260411  37.1100848  18.7618285   9.4192945  36.4640642
  18.8998833   9.0113332  37.9154045   9.8669496  15.1519072  42.8375838
  10.6084180  15.6904116  42.5610662   9.1606481  15.7785361  42.9947390
  15.3424836  17.2948212  41.4348000  15.7508192  16.8530623  40.6902632
  14.6202097  16.7200840  41.6882193  11.6955906  12.2320819  38.8081557
  12.5417101  12.6560233  38.9516206  11.6354543  11.5754444  39.5020120
  15.6653650  17.8549403  35.1900289  15.0362513  18.0195117  34.4876356
  15.2779312  18.2691013  35.9611253  19.5442882  18.7903841  32.5444652
  18.8593920  19.1702742  31.9941686  19.6286731  19.3999168  33.2776600
  14.8455351   9.8925188  40.4662730  14.6016283  10.6467248  39.9297006
  15.1215281  10.2710535  41.3009977  16.7993814  16.4363800  39.1439996
  17.0110709  17.0795560  38.4674377  16.7523562  15.6026116  38.6761926
   8.1105693  17.1395293  35.3930137   8.6807050  17.5682561  34.7547621
   8.7013805  16.8577877  36.0914323  17.9139642  19.3135755  37.3162353
  18.7357085  18.9115943  37.0345035  17.9102045  19.2103990  38.2678469
  11.6796245  18.8619799  39.4723064  11.7440678  19.3240206  40.3081236
  10.9707169  18.2317164  39.6005374  26.0045635  15.6574504  33.6647325
  25.2509343  15.0881902  33.5091329  26.1393176  15.6237168  34.6117959
  13.0212739  21.1511473  43.4702386  12.5776593  20.3647851  43.1523291
  13.6829953  21.3390623  42.8046277   7.7799860  22.6807274  37.9963065
   8.3307285  22.5524338  37.2240059   6.9411336  22.9802163  37.6457957
  15.1193977  21.4314273  41.4983787  15.1012453  22.2523154  41.0064057
  16.0413897  21.3068348  41.7233929  11.5767031  18.9458402  42.3407296
  12.1095368  18.1846690  42.1106604  11.0481112  18.6532054  43.0831450
  17.9212590  16.2693415  34.9693154  17.2636265  16.9592676  35.0573283
  18.7252989  16.6589847  35.3127140  16.7318049  14.6237788  33.0197096
  17.2449931  15.2567780  33.5218806  17.3819273  14.0238983  32.6540456
  13.2098880  12.0987243  35.2655436  12.2921441  12.3202190  35.1077124
  13.6259023  12.1733554  34.4067144  17.4979845  19.6043789  31.1476238
  17.0442172  18.7634699  31.2041429  16.8673812  20.2405188  31.4851019
  15.9412784  21.4420286  32.0826057  16.2335759  22.0025343  31.3638422
  16.4511405  21.7348847  32.8379216  10.9046410  22.2200637  33.1719510
  10.8622588  22.4461483  32.2428042  11.8209108  21.9864012  33.3205311
  14.3512043  12.6884704  40.0700139  14.7061431  12.9156178  40.9294605
  14.9984175  13.0203081  39.4477394  20.0809780  15.8103140  30.7749468
  19.9427679  16.0004736  29.8470657  19.7245999  16.5722523  31.2317519
  20.1079160  17.8779667  35.7860740  20.5415667  17.7854956  36.6343794
  20.8210741  17.8537168  35.1480756  13.8407055  21.4781761  37.3193840
  13.8944077  22.0472698  38.0871556  12.9721836  21.6483647  36.9547877
  20.9694709  17.9203368  38.3193625  21.1630600  18.8249179  38.5652900
  20.8695328  17.4610787  39.1532210  16.0309818  18.0710111  43.8934506
  15.8795325  17.8420662  42.9764589  16.0214498  19.0280712  43.9065851
  12.7995155  15.6442024  38.8780772  13.7287215  15.7953183  38.7049739
  12.3786185  15.7326044  38.0229419  11.5983486  19.6692688  36.6479310
  11.4594572  19.3011472  37.5205248  10.8098083  20.1840327  36.4763267
  12.1931638  24.7701784  27.9904846  12.3683394  24.2989828  28.8050469
  11.5064426  25.3967551  28.2186107  13.1488701  19.0474291  34.0368147
  12.8138534  19.0075061  34.9325797  12.6492647  18.3819007  33.5638558
   7.1232945  14.4541921  39.5620729   6.9852743  13.7222159  40.1632268
   8.0337869  14.3650821  39.2804916   9.7515246  14.1661880  39.0504408
  10.4614865  13.5255072  39.0091027   9.7084554  14.4174775  39.9730589
  17.7402025  21.1029233  41.9710987  17.6814571  20.4188453  41.3041570
  18.1421543  21.8448223  41.5191613   6.7592724  27.9191147  34.7644706
   6.9989322  28.5509671  35.4423725   5.9161920  27.5679187  35.0510066
  17.7419432  19.0668817  40.2024967  16.8546211  18.7294739  40.3251366
  18.3117983  18.3351848  40.4393733  11.2720585  23.7270270  37.1686210
  11.1990757  24.5325241  37.6805515  10.8297979  23.9262235  36.3434232
  11.0610365  22.9642040  30.6789032  10.2777887  23.5063720  30.7727256
  11.7603110  23.4816019  31.0783273  22.2236773  14.4777035  34.9641529
  22.2126649  15.3601750  34.5935462  21.3554152  14.1248585  34.7696066
  13.7319269  23.6257104  39.3244369  14.4447241  24.2604568  39.2520270
  13.2409298  23.7220970  38.5084371   8.7831183  21.3751547  40.1449940
   9.4840642  22.0088030  40.2979334   8.3126298  21.7166279  39.3845579
  16.5832468  13.9296155  37.9702490  15.9303919  14.1772062  37.3154943
  16.9612848  13.1160293  37.6364967  13.5439642  23.9655848  32.0730660
  13.7262037  23.1477504  32.5358413  14.3672628  24.1823540  31.6355550
  13.8781808  22.8924033  29.3345709  14.4069574  22.3816487  28.7215871
  14.1410027  22.5766563  30.1991242  12.6320041  14.6715966  44.4568527
  11.9560679  14.5710095  45.1270902  13.4547675  14.5155179  44.9204524
   4.3798901  20.9087902  37.0781042   4.9652337  20.1631590  37.2108947
   4.1823739  21.2191859  37.9617706   7.2337556  23.9439150  32.0943485
   6.5647931  24.4285277  31.6107525   7.0950425  24.1908370  33.0086863
  11.3742824  25.9782893  38.6926143  11.9261132  26.1414515  39.4575228
  11.7149018  26.5687331  38.0206168  16.2253699  20.8044151  44.5474798
  16.7693603  21.4174109  44.0529752  15.6440544  21.3623729  45.0641811
  14.5111212  23.9264869  35.6789825  14.3862351  23.1254608  35.1700771
  15.1690303  24.4211062  35.1903795  16.5746120  21.7273889  37.3069375
  15.6276456  21.6079240  37.2347702  16.9228893  20.8396387  37.3895637
  13.5792553  21.5226605  33.5073728  13.4317516  20.5943312  33.6881298
  14.4046047  21.5446696  33.0230803  17.1826675  22.3455164  34.5938600
  18.1073223  22.1398025  34.4563052  17.0141979  22.0971565  35.5027942
  16.9721991  22.8640831  29.9500692  17.1458869  22.2987254  29.1974544
  17.4650883  23.6641726  29.7680182  22.8261383  15.6277254  31.5690992
  23.2692529  14.8784579  31.1710115  21.9487893  15.6187390  31.1864724
  17.9597164  22.1807595  27.0497590  18.6548069  22.8014288  27.2684905
  18.3020314  21.3302947  27.3249968  19.8588587  19.6307301  28.5784921
  20.3839911  19.9694574  27.8534241  19.7710940  18.6954316  28.3948056
  11.5208636  23.5441375  40.7074798  11.8295762  23.2990521  41.5797497
  12.3184118  23.7488013  40.2193668  11.5429248  25.6979284  32.9380174
  11.1034238  25.2055663  33.6313031  12.2937365  25.1552252  32.6972249
   4.0221587  21.8890825  32.9404802   4.8479607  21.5894597  32.5603446
   3.6715639  21.1198448  33.3894591   8.9903120  21.2417293  35.0102476
   8.3683129  20.5787998  34.7104704   9.6607987  21.2678425  34.3276124
  19.5482493  20.2640205  43.8836119  18.7578037  20.2464343  43.3440618
  19.3115848  20.8028498  44.6385156  19.6680368  17.1132671  41.1968847
  19.7178373  16.9482678  42.1384370  19.5594291  16.2459930  40.8066728
  16.9584131  13.0963599  42.5128154  17.8593993  12.9570064  42.2212152
  17.0332105  13.2618054  43.4526332  21.1698565  19.5329613  41.4410869
  20.8783373  19.8959593  42.2774330  20.5570696  18.8196621  41.2624201
  22.3694247  17.0982492  33.9613439  23.2041139  17.5372296  34.1251000
  22.5053376  16.6221146  33.1421685  19.4185753  14.6562227  39.9090927
  19.8939875  14.8489873  39.1009778  18.4951319  14.7121413  39.6634311
  18.1187422  11.5327987  38.1419233  19.0704845  11.6326085  38.1631457
  17.9490873  10.7406256  38.6517317  16.1401802   8.6183570  38.3278634
  15.5451734   8.8988583  37.6325122  15.8551498   9.1077471  39.0995375
  20.5975500  14.7534107  37.2561532  20.5651820  13.8150108  37.4421216
  21.2076124  14.8318144  36.5227357  20.7469988  11.5445150  37.3019815
  20.2309037  10.7603607  37.1149744  21.6309937  11.2163867  37.4666335
  26.4152050  15.8150114  36.3967569  27.1455438  15.5535402  36.9575272
  25.8058995  15.0778836  36.4369637  24.4967347  13.9557976  36.9942020
  23.7700511  13.8213941  36.3858512  24.0814634  14.2634805  37.7998738
  12.3197523  17.6747906  44.7589393  13.2400533  17.8526505  44.9529440
  12.2847106  16.7303951  44.6069093   5.3159596  15.5848941  37.4012174
   5.5345606  16.5166049  37.4200208   5.7285370  15.2256915  38.1866978
  10.0518731  14.5879285  45.6079985   9.5685813  15.3879645  45.8143874
  10.1379670  14.5987230  44.6547429   5.9792069  18.4783820  37.6448419
   6.9335322  18.4467762  37.5778350   5.7804592  18.0174444  38.4598645
   6.5691451  17.0484936  40.2119216   7.3884340  17.5429015  40.2354054
   6.8428259  16.1316904  40.1836784  22.1145142  10.1769829  34.3475452
  22.7089633   9.9365565  33.6368760  22.1871726   9.4576959  34.9748988
   4.3342298  24.0203440  34.6618617   4.1996765  23.2603840  34.0956615
   3.9174360  24.7444339  34.1947406  24.4216215  13.4836029  33.1218873
  23.8615773  13.5529219  33.8950435  23.8159718  13.3077014  32.4018369
   7.4911423  24.9172757  34.8737059   7.3743808  25.8618189  34.7715750
   6.6703870  24.6146318  35.2622859  14.3479757  18.4503917  46.4103554
  15.2170917  18.6244570  46.0490189  13.8686509  19.2698334  46.2879283
   8.5165938  25.5701018  38.0892988   9.4193184  25.6024629  38.4059483
   8.2903308  24.6401469  38.1039324  10.2719540  24.3232005  34.7503066
   9.3215171  24.3233867  34.6367439  10.5752026  23.5764740  34.2339101
  26.0072233  30.1592543  35.8148829  26.6450643  30.0399291  35.1112169
  25.8893076  31.1073387  35.8736781  22.8161939  30.1119971  35.7510353
  22.4780451  29.9961036  34.8630888  23.6851708  29.7111137  35.7311360
  18.6748755  31.9655448  31.7407244  18.1113620  31.8745385  30.9723532
  18.5601150  31.1455352  32.2209737  23.2981722  31.2654823  41.7096559
  23.2870363  30.8707621  40.8377063  23.4602362  30.5320896  42.3030330
  16.2213187  33.4606639  34.5791465  17.0134479  33.1197464  34.1637764
  16.4609837  33.5701615  35.4993618  24.2548314  35.6326416  27.0521709
  23.6036294  36.2180496  26.6655723  25.0492677  36.1632610  27.1116747
  18.1803941  32.7215553  27.4508844  18.9534817  32.1744540  27.3121719
  18.5329340  33.5859802  27.6623305  20.0188983  34.0491935  40.6575743
  19.7278849  34.9537566  40.5422409  20.6545968  34.0908463  41.3719813
  20.9445190  31.4268784  37.2477103  21.5408763  31.2024806  36.5334066
  21.0020162  30.6853529  37.8502550  20.5170219  28.8808219  25.0827294
  20.7695739  28.3589740  24.3210757  19.5794778  28.7174364  25.1853977
  25.5613502  27.8843997  32.8902037  26.3476591  27.4663420  32.5392454
  25.8252206  28.7890089  33.0583685  25.7323579  33.3216848  27.5890694
  25.0969412  33.3951474  28.3011598  25.4020985  33.9110446  26.9109773
  30.9621929  27.8219230  33.7935015  31.6947101  27.2518447  34.0272845
  30.2061284  27.4340831  34.2341521  20.2366507  30.7836325  27.2851669
  20.1202766  30.1081228  27.9532753  20.3468767  30.2968699  26.4683822
  22.5798048  30.2446472  30.9898358  22.2156256  29.7177093  31.7011279
  23.4365164  29.8544941  30.8164843  28.4847349  21.5340805  38.2529624
  28.1530674  22.4036215  38.0290839  27.8892962  21.2177089  38.9323654
  22.2203535  25.2736372  25.9859706  22.3877938  26.1416608  26.3530177
  22.0300704  25.4363653  25.0620996  24.9778869  33.7353351  37.6525537
  24.6779592  34.6378389  37.5441344  24.6329928  33.4685534  38.5046690
  18.4291350  30.1867147  33.6862241  17.5041847  30.0543361  33.8939933
  18.6775763  30.9661367  34.1832183  28.3776012  26.2535891  35.3322974
  27.4692890  26.1851299  35.0381735  28.3263608  26.7307836  36.1604799
  22.1992756  27.7294029  26.9706373  22.0792381  28.1751080  27.8091853
  21.5045345  28.0779347  26.4119911  15.7900161  29.8300421  34.5206030
  15.9192542  30.0834900  35.4345442  15.1097612  30.4228129  34.2010685
  19.9599648  40.4997671  30.6196504  19.8823678  41.4505496  30.6984985
  19.3561292  40.1543543  31.2771431  22.4516878  27.6725536  43.2757871
  21.6750212  28.2319456  43.2660736  23.0907441  28.1582319  43.7972741
  30.2437659  24.4552329  37.1100848  29.6012039  24.7484862  36.4640642
  29.7392587  24.3405249  37.9154045  27.8977822  28.2015502  27.7986707
  28.8095679  28.4342889  27.6234405  27.3887469  28.7852546  27.2361786
  20.7063250  30.4810990  42.8375838  21.4477935  31.0196034  42.5610662
  20.0000236  31.1077278  42.9947390  26.1818590  32.6240130  41.4348000
  26.5901946  32.1822541  40.6902632  25.4595852  32.0492758  41.6882193
  22.5349660  27.5612737  38.8081557  23.3810855  27.9852150  38.9516206
  22.4748298  26.9046361  39.5020120  26.5047405  33.1841321  35.1900289
  25.8756267  33.3487035  34.4876356  26.1173067  33.5982930  35.9611253
  30.3836637  34.1195759  32.5444652  29.6987675  34.4994660  31.9941686
  30.4680486  34.7291085  33.2776600  25.6849105  25.2217105  40.4662730
  25.4410037  25.9759166  39.9297006  25.9609036  25.6002453  41.3009977
  27.6387568  31.7655718  39.1439996  27.8504463  32.4087477  38.4674377
  27.5917316  30.9318034  38.6761926  25.2413797  24.3773538  36.0476568
  24.3798276  24.6754792  36.3393306  25.2676232  24.5943937  35.1157601
  22.0575367  32.9215729  32.4550374  22.5213712  33.2003432  31.6654996
  21.7932165  32.0199173  32.2723464  18.9499448  32.4687210  35.3930137
  19.5200805  32.8974479  34.7547621  19.5407560  32.1869795  36.0914323
  20.9944253  29.0438881  29.2639939  21.6968296  29.4959925  29.7313865
  20.6624881  28.4022700  29.8919832  19.4424614  27.6350638  43.6391148
  18.8123275  28.3166919  43.8726545  19.3360702  27.5233719  42.6944286
  14.7369587  27.3022434  34.5657072  13.9468641  27.5579962  34.0897183
  15.2280834  28.1170772  34.6709113  28.7533396  34.6427673  37.3162353
  29.5750840  34.2407860  37.0345035  28.7495799  34.5395907  38.2678469
  16.6884332  27.6667013  31.5240549  15.8915495  27.7785707  32.0424045
  16.4609924  28.0053665  30.6581440  22.5190000  34.1911716  39.4723064
  22.5834432  34.6532124  40.3081236  21.8100924  33.5609081  39.6005374
  13.0207290  27.5552924  36.9972063  13.2715328  28.4399934  37.2629639
  13.5566838  27.3757526  36.2247155  36.8439389  30.9866421  33.6647325
  36.0903098  30.4173820  33.5091329  36.9786930  30.9529086  34.6117959
  22.2338017  35.8579824  29.3402044  22.0983692  36.7031360  29.7686892
  22.7747830  36.0599101  28.5767978  18.7205357  21.9371404  46.0016399
  18.3272302  21.3837602  46.6764044  19.5371497  22.2481982  46.3922917
  15.6867415  33.3755262  29.9129969  16.1991935  34.1698512  30.0635534
  16.3390128  32.6781552  29.8463571  17.4962299  36.4921018  31.9952722
  17.6728928  37.4138983  31.8073706  18.2919133  36.1779437  32.4247102
  21.6373318  23.3529283  43.5936656  22.3783031  23.9536436  43.5141118
  21.8691241  22.6106921  43.0354698  16.7814656  28.5385650  41.8714886
  16.6668171  27.6370907  42.1721984  15.9259174  28.7849347  41.5199702
  23.8606494  36.4803390  43.4702386  23.4170348  35.6939769  43.1523291
  24.5223707  36.6682541  42.8046277  18.6193615  38.0099192  37.9963065
  19.1701040  37.8816255  37.2240059  17.7805091  38.3094081  37.6457957
  25.9587732  36.7606190  41.4983787  25.9406207  37.5815071  41.0064057
  26.8807652  36.6360265  41.7233929  22.4160786  34.2750320  42.3407296
  22.9489123  33.5138608  42.1106604  21.8874867  33.9823972  43.0831450
  25.5830481  19.3810386  37.8700938  25.2394750  20.2712027  37.7940048
  25.9509443  19.1912043  37.0070523  13.6516331  31.7043916  30.6889540
  14.4891553  32.1140925  30.4723247  13.8294599  30.7643358  30.6589734
  25.5480764  29.3718997  26.3773373  25.0327387  30.1423601  26.6161760
  25.2758072  28.6984133  27.0006434  23.1327875  24.2168698  31.4358611
  22.2769471  23.8275548  31.2564250  23.5454826  24.2960658  30.5758397
  24.6627021  21.7515041  35.8350171  24.1591817  21.7145176  35.0217976
  24.9557628  22.6607784  35.8946827  20.9069907  21.8353771  34.8416353
  21.7722904  21.6396579  34.4822242  20.9747416  21.6064122  35.7685709
  30.5215038  32.1251351  28.3126546  29.7444480  31.7862511  27.8681708
  31.2006519  32.1303975  27.6381511  25.3367067  27.2446089  28.2033154
  25.0317202  27.5592238  29.0543297  26.2897509  27.3227509  28.2460487
  23.7813499  33.4036312  29.8526108  23.2534860  32.6689072  29.5399345
  23.2801001  34.1810989  29.6066076  28.7606345  31.5985333  34.9693154
  28.1030019  32.2884594  35.0573283  29.5646744  31.9881765  35.3127140
  18.5132226  24.0655978  32.2132719  19.0875978  23.8431160  31.4805912
  19.1003209  24.1344673  32.9661321  27.5711803  29.9529705  33.0197096
  28.0843685  30.5859697  33.5218806  28.2213027  29.3530901  32.6540456
  18.8401813  26.0960440  26.2328605  18.0039126  26.4335126  26.5537879
  18.7006583  25.9609419  25.2955742  20.8154894  20.9397227  30.9407789
  20.1619306  20.6246245  30.3164404  20.7735368  20.3172968  31.6667612
  21.9266099  31.2216522  22.8561081  21.0193161  30.9905776  23.0552230
  22.4237131  30.4254142  23.0435062  24.8334178  39.9314030  25.7757767
  24.1595876  40.2345726  26.3842725  25.2200000  40.7343110  25.4263224
  24.0492634  27.4279161  35.2655436  23.1315196  27.6494108  35.1077124
  24.4652778  27.5025471  34.4067144  24.8327682  28.8270577  30.3958117
  25.5799501  29.3391974  30.0865239  25.1019272  28.5054629  31.2562510
  23.1054332  31.3229117  27.3785071  22.1965551  31.0388150  27.4757541
  23.1349416  31.7428196  26.5188378  28.3373600  34.9335707  31.1476238
  27.8835927  34.0926617  31.2041429  27.7067566  35.5697105  31.4851019
  27.2806519  25.8627693  32.3776906  26.5429276  25.3505079  32.7087149
  27.5333293  25.4228074  31.5660183  26.7806539  36.7712204  32.0826057
  27.0729513  37.3317261  31.3638422  27.2905159  37.0640765  32.8379216
  27.3818147  18.6403945  32.9718675  27.6877023  17.7801308  32.6844590
  28.1070751  19.2321565  32.7717669  13.6742503  29.0434631  31.3600273
  13.4766902  28.4503992  30.6351340  13.1189167  28.7386842  32.0776212
  21.6539226  28.9357738  33.4794866  21.7087836  27.9831574  33.4037343
  20.8430428  29.0917177  33.9636165  22.8030420  32.8637861  24.7173149
  22.3649850  32.1473720  24.2578787  23.5440861  33.0913976  24.1558241
  19.5931586  27.5534798  31.2385245  18.7799452  27.8528968  31.6450437
  20.0890580  27.1590486  31.9559727  21.7440164  37.5492555  33.1719510
  21.7016343  37.7753401  32.2428042  22.6602863  37.3155929  33.3205311
  25.1905798  28.0176622  40.0700139  25.5455186  28.2448095  40.9294605
  25.8377929  28.3494999  39.4477394  30.9203535  31.1395058  30.7749468
  30.7821433  31.3296654  29.8470657  30.5639754  31.9014441  31.2317519
  19.0845661  25.1253153  36.8546480  19.7245040  24.9841912  36.1569443
  18.2523191  24.8387667  36.4785082  30.9472914  33.2071585  35.7860740
  31.3809421  33.1146874  36.6343794  31.6604495  33.1829086  35.1480756
  19.8605965  34.4255584  32.9681473  20.6546563  33.9305904  32.7664048
  19.1497657  33.8973447  32.6049178  24.6800809  36.8073679  37.3193840
  24.7337832  37.3764615  38.0871556  23.8115591  36.9775564  36.9547877
  16.1688728  28.5698665  29.0441225  15.2386316  28.5083121  29.2611187
  16.2646200  28.0474618  28.2477866  16.0874277  25.0953478  31.6319467
  16.3481095  26.0098811  31.5228627  16.9091450  24.6277921  31.7816080
  17.5599203  26.5091235  38.8018291  18.2322256  26.3008597  38.1530940
  16.7328989  26.3113321  38.3623524  31.8088464  33.2495286  38.3193625
  32.0024354  34.1541096  38.5652900  31.7089082  32.7902705  39.1532210
  23.4624775  23.1353176  40.8183952  22.8152690  23.8343126  40.7248429
  24.2325790  23.5689320  41.1860200  26.8703573  33.4002028  43.8934506
  26.7189079  33.1712580  42.9764589  26.8608252  34.3572630  43.9065851
  23.6388909  30.9733941  38.8780772  24.5680969  31.1245101  38.7049739
  23.2179939  31.0617962  38.0229419  22.4377241  34.9984606  36.6479310
  22.2988327  34.6303390  37.5205248  21.6491837  35.5132245  36.4763267
  23.0325393  40.0993702  27.9904846  23.2077148  39.6281745  28.8050469
  22.3458181  40.7259468  28.2186107  23.9882456  34.3766208  34.0368147
  23.6532289  34.3366978  34.9325797  23.4886402  33.7110924  33.5638558
  17.9626700  29.7833838  39.5620729  17.8246498  29.0514077  40.1632268
  18.8731623  29.6942738  39.2804916  26.9241648  31.7222243  24.3105207
  26.3070818  30.9969071  24.2138260  26.4558136  32.4831603  23.9672281
  20.5909001  29.4953798  39.0504408  21.3008619  28.8546990  39.0091027
  20.5478309  29.7466693  39.9730589  28.5795779  36.4321151  41.9710987
  28.5208325  35.7480371  41.3041570  28.9815298  37.1740141  41.5191613
  19.3037935  26.4819016  40.8700048  18.7675292  26.0309754  41.5221644
  18.7154643  26.6164924  40.1270512  17.5986478  43.2483065  34.7644706
  17.8383076  43.8801589  35.4423725  16.7555675  42.8971105  35.0510066
  28.5813187  34.3960735  40.2024967  27.6939965  34.0586657  40.3251366
  29.1511738  33.6643766  40.4393733  10.2342334  30.7284827  33.5268019
  10.9213374  30.4146557  32.9389034  10.0790462  31.6326191  33.2535270
  15.0377056  25.6175023  37.9553042  14.9535245  25.0100693  37.2203452
  14.2159762  26.1084042  37.9562539  22.1114340  39.0562187  37.1686210
  22.0384511  39.8617159  37.6805515  21.6691733  39.2554153  36.3434232
  21.9004120  38.2933957  30.6789032  21.1171641  38.8355638  30.7727256
  22.5996865  38.8107937  31.0783273  25.2100770  24.1028587  33.3223237
  25.7069469  23.3498549  33.0024307  24.4387751  24.1392903  32.7566447
  33.0630527  29.8068952  34.9641529  33.0520403  30.6893668  34.5935462
  32.1947907  29.4540503  34.7696066  24.5713023  38.9549021  39.3244369
  25.2840996  39.5896486  39.2520270  24.0803052  39.0512887  38.5084371
  26.2930550  32.8600274  30.8961661  25.3586829  32.9801736  30.7266365
  26.4707219  31.9572741  30.6321670  21.7935738  26.2445970  33.0494922
  21.4233526  25.6917010  33.7375827  22.2894831  25.6404103  32.4969922
  29.6803102  28.7017593  31.4311695  30.1463554  29.5345585  31.3571997
  30.1310602  28.2362575  32.1356953  19.6224937  36.7043465  40.1449940
  20.3234396  37.3379948  40.2979334  19.1520052  37.0458196  39.3845579
  27.7479333  35.0461415  28.4297847  28.0239177  34.9318009  29.3391721
  26.8783832  34.6478899  28.3910020  27.6519764  21.0698180  35.4702596
  26.7382844  21.3002407  35.6384803  28.0812866  21.1536624  36.3216628
  27.4226223  29.2588072  37.9702490  26.7697673  29.5063980  37.3154943
  27.8006603  28.4452210  37.6364967  24.3833397  39.2947765  32.0730660
  24.5655791  38.4769421  32.5358413  25.2066383  39.5115458  31.6355550
  24.7175562  38.2215951  29.3345709  25.2463329  37.7108405  28.7215871
  24.9803782  37.9058481  30.1991242  23.4713796  30.0007883  44.4568527
  22.7954433  29.9002013  45.1270902  24.2941430  29.8447097  44.9204524
  15.2192655  36.2379820  37.0781042  15.8046092  35.4923508  37.2108947
  15.0217494  36.5483777  37.9617706  18.0731310  39.2731067  32.0943485
  17.4041686  39.7577195  31.6107525  17.9344180  39.5200288  33.0086863
   9.8110310  28.8085420  35.7985486   9.8494409  28.2749011  36.5922604
   9.3050603  28.2820626  35.1796463  22.2136579  41.3074811  38.6926143
  22.7654887  41.4706432  39.4575228  22.5542772  41.8979249  38.0206168
  17.1901072  23.6549961  39.2948028  17.2542399  24.5164791  38.8825426
  17.1268192  23.0423962  38.5620386  16.6653345  25.7273093  42.9421062
  17.2925383  25.3450170  43.5558587  15.8081263  25.5087295  43.3076755
  27.0647453  36.1336068  44.5474798  27.6087357  36.7466027  44.0529752
  26.4834298  36.6915647  45.0641811  13.4418887  27.5349522  28.8739417
  13.7372328  26.6260201  28.8206471  12.5406923  27.5137262  28.5520419
  25.3504966  39.2556786  35.6789825  25.2256106  38.4546526  35.1700771
  26.0084057  39.7502980  35.1903795  16.9713134  25.6105519  34.8566966
  16.2499720  26.2241486  34.7174439  17.7606390  26.1463284  34.7783612
  27.4139875  37.0565806  37.3069375  26.4670210  36.9371158  37.2347702
  27.7622648  36.1688304  37.3895637  19.7739448  22.9459945  41.1307617
  20.2973850  23.1922242  41.8933927  19.5551781  23.7779980  40.7110755
  15.1706729  25.2163620  28.9978742  14.8419435  24.3360999  28.8153848
  15.5246100  25.1611289  29.8855131  24.4186308  36.8518523  33.5073728
  24.2711270  35.9235230  33.6881298  25.2439801  36.8738613  33.0230803
  18.2848552  25.5036590  29.3654220  18.6244625  26.0322511  28.6432828
  18.7320673  25.8416996  30.1412786  28.0220430  37.6747081  34.5938600
  28.9466977  37.4689943  34.4563052  27.8535733  37.4263482  35.5027942
  20.9791993  23.8873640  38.8157288  20.6388813  23.0881453  39.2177968
  20.2730999  24.1875351  38.2434121  21.6308465  20.9722953  37.2684611
  22.4534534  20.4983431  37.1463501  21.8746528  21.7513437  37.7683297
  20.2716699  24.0011211  27.5647513  20.9925062  24.3792464  27.0611229
  19.6482003  24.7200088  27.6682491  24.4147822  24.7056360  28.5005845
  24.6311437  25.5880998  28.1994673  23.9341889  24.3142574  27.7711487
  19.1547044  27.6642073  35.0776590  19.0091624  27.9782377  35.9700871
  18.6772247  28.2826974  34.5247488  21.0143426  24.6544621  35.1257479
  21.0004995  23.7585715  34.7889777  21.7315855  24.6615285  35.7595765
  22.8669557  25.0881962  37.1710607  22.6087335  26.0099032  37.1694937
  22.3354597  24.6912396  37.8611071  27.8115746  38.1932749  29.9500692
  27.9852623  37.6279171  29.1974544  28.3044637  38.9933644  29.7680182
  13.6292706  30.2047418  38.0164251  13.0846174  30.9807226  38.1484525
  14.5072056  30.5518222  37.8583372  20.4180322  23.5359002  30.3945049
  20.5396234  22.6075648  30.5935937  20.1282365  23.5497688  29.4823365
  23.2871513  21.2213912  33.5311769  23.3093210  21.2853245  32.5763749
  23.7039572  20.3818421  33.7252275  33.6655137  30.9569172  31.5690992
  34.1086283  30.2076497  31.1710115  32.7881647  30.9479308  31.1864724
  28.7990918  37.5099513  27.0497590  29.4941823  38.1306206  27.2684905
  29.1414069  36.6594864  27.3249968  14.4158728  29.3317314  40.9094408
  13.6740464  29.4799949  41.4959038  14.0951472  29.5925580  40.0461157
  30.6982341  34.9599219  28.5784921  31.2233666  35.2986491  27.8534241
  30.6104694  34.0246234  28.3948056  22.3602390  38.8733292  40.7074798
  22.6689517  38.6282439  41.5797497  23.1577872  39.0779931  40.2193668
  22.3823002  41.0271202  32.9380174  21.9427993  40.5347581  33.6313031
  23.1331119  40.4844170  32.6972249  14.8615341  37.2182743  32.9404802
  15.6873361  36.9186515  32.5603446  14.5109393  36.4490365  33.3894591
  19.8296874  36.5709211  35.0102476  19.2076884  35.9079916  34.7104704
  20.5001741  36.5970343  34.3276124  13.0623946  35.1369069  33.8993736
  12.2255855  34.7091244  33.7177737  13.0347592  35.3301513  34.8364527
  19.9021402  25.0490999  44.6034982  19.9509557  25.9253122  44.2212751
  20.4443916  24.5068392  44.0306625  30.3876248  35.5932122  43.8836119
  29.5971791  35.5756261  43.3440618  30.1509602  36.1320416  44.6385156
  30.5074123  32.4424589  41.1968847  30.5572128  32.2774596  42.1384370
  30.3988046  31.5751848  40.8066728  19.3910381  35.1213134  28.4860936
  19.5398502  35.8048599  27.8327609  20.1976825  35.1018224  29.0010392
  27.7977885  28.4255517  42.5128154  28.6987748  28.2861982  42.2212152
  27.8725860  28.5909972  43.4526332  22.1320690  25.8022371  41.3581340
  21.2624000  26.0955938  41.0863929  22.3680171  26.3862816  42.0788604
  32.0092319  34.8621530  41.4410869  31.7177128  35.2251511  42.2774330
  31.3964451  34.1488539  41.2624201  33.2088002  32.4274410  33.9613439
  34.0434893  32.8664214  34.1251000  33.3447131  31.9513063  33.1421685
  30.2579508  29.9854145  39.9090927  30.7333629  30.1781791  39.1009778
  29.3345073  30.0413331  39.6634311  17.1463014  31.1478312  29.4922005
  16.9009056  30.2440642  29.6902215  17.3158929  31.1495462  28.5501483
  24.8359724  22.0201988  38.8746761  25.3541668  22.7563015  38.5493249
  24.4814857  22.3265982  39.7093520  16.4158662  26.8806670  26.9908167
  15.7227907  26.9551025  26.3348203  16.1710414  26.1167013  27.5129684
  25.0872318  18.4402271  34.3947657  25.3674072  17.7725460  35.0208084
  25.8722925  18.6331367  33.8822321  22.8905787  37.6161265  25.9572684
  22.3179754  38.2351452  25.5043156  23.4638580  38.1660627  26.4912606
  28.9581177  26.8619905  38.1419233  29.9098600  26.9618003  38.1631457
  28.7884627  26.0698173  38.6517317  26.9795556  23.9475488  38.3278634
  26.3845488  24.2280501  37.6325122  26.6945253  24.4369389  39.0995375
  26.1103047  37.8998415  27.0881266  27.0433720  37.8343977  27.2914142
  26.0226259  38.7354682  26.6295799  28.7391063  37.2164285  24.0485214
  28.6604695  36.8824149  24.9420972  29.5600730  37.7086053  24.0476686
  31.4369254  30.0826025  37.2561532  31.4045575  29.1442025  37.4421216
  32.0469878  30.1610061  36.5227357  23.2752585  28.9522078  23.2988736
  24.2211690  28.8228286  23.3677154  22.8966830  28.2136740  23.7758164
  31.5863743  26.8737068  37.3019815  31.0702792  26.0895525  37.1149744
  32.4703691  26.5455785  37.4666335  29.2474470  20.6178084  33.2615628
  29.0499291  20.3093172  34.1458960  29.8574175  21.3439723  33.3913558
  37.2545804  31.1442031  36.3967569  37.9849193  30.8827320  36.9575272
  36.6452750  30.4070753  36.4369637  35.3361101  29.2849894  36.9942020
  34.6094265  29.1505859  36.3858512  34.9208388  29.5926723  37.7998738
  23.1591278  33.0039824  44.7589393  24.0794287  33.1818423  44.9529440
  23.1240861  32.0595869  44.6069093  12.3773443  28.1978417  33.6842668
  12.0576227  27.3443726  33.3917042  11.8306871  28.4126996  34.4400635
  16.1553350  30.9140858  37.4012174  16.3739360  31.8457966  37.4200208
  16.5679124  30.5548833  38.1866978  23.0757568  21.4208944  29.3887863
  22.2658297  21.0756029  29.7643109  23.7641985  21.1116487  29.9775474
  25.0048116  20.4986991  31.0112159  25.5579155  20.9182444  31.6702183
  25.2418203  19.5722739  31.0535115  21.0281216  26.4874064  46.7914923
  20.9277943  27.4368421  46.7227014  20.8102758  26.1592303  45.9190993
  12.2461703  31.8181329  35.6535789  11.5525174  31.4035282  35.1405744
  12.9934694  31.8601865  35.0569208  28.3826924  22.6087516  30.5190824
  27.8025593  23.2672320  30.1368876  28.1162856  21.7864860  30.1078241
  26.8330490  22.0092573  32.7212144  27.3330268  22.1209108  31.9126463
  27.4766098  21.7053626  33.3612952  20.8912486  29.9171203  45.6079985
  20.4079567  30.7171563  45.8143874  20.9773425  29.9279148  44.6547429
  14.1598445  31.7499583  33.5301804  14.1369133  31.8487270  32.5783687
  14.4699082  32.5964733  33.8518970  16.8185823  33.8075738  37.6448419
  17.7729077  33.7759680  37.5778350  16.6198347  33.3466361  38.4598645
  17.4085205  32.3776854  40.2119216  18.2278094  32.8720932  40.2354054
  17.6822013  31.4608822  40.1836784  27.1651802  24.7687606  29.5747172
  26.2777657  25.0537257  29.3567367  27.5805791  24.6081369  28.7274449
  30.5166338  24.7934127  33.2901511  31.2926728  25.2830579  33.5626128
  29.7914472  25.2192181  33.7473381  32.9538896  25.5061746  34.3475452
  33.5483387  25.2657482  33.6368760  33.0265480  24.7868877  34.9748988
  15.1736052  39.3495357  34.6618617  15.0390520  38.5895758  34.0956615
  14.7568114  40.0736257  34.1947406  26.3095015  34.5332281  23.6695192
  27.0130865  34.7382283  24.2852848  25.5857664  35.1009043  23.9344275
  27.1392825  30.2842142  29.7897462  27.0828027  30.7410693  28.9505095
  27.6921168  29.5232827  29.6120305  30.9497631  26.0731874  30.6147582
  30.6934565  25.6728510  31.4455789  30.3250499  26.7875668  30.4897721
  35.2609969  28.8127947  33.1218873  34.7009527  28.8821136  33.8950435
  34.6553472  28.6368932  32.4018369  18.3305178  40.2464674  34.8737059
  18.2137562  41.1910107  34.7715750  17.5097624  39.9438236  35.2622859
  28.2181712  34.9714810  25.7193652  29.0527316  34.5396008  25.5371127
  28.0566055  34.7996824  26.6470546  27.8727605  31.4746923  27.0849991
  27.8176408  31.3091195  26.1438435  27.2473660  32.1822956  27.2412181
  12.6620120  26.7114988  40.9111414  13.3078983  26.2013942  41.3998639
  12.4537271  27.4483669  41.4854839  25.1873512  33.7795835  46.4103554
  26.0564671  33.9536487  46.0490189  24.7080263  34.5990252  46.2879283
  21.1823730  20.9755032  26.6635310  21.1702400  21.9196872  26.8203581
  22.0747152  20.7925178  26.3694771  19.3559692  40.8992936  38.0892988
  20.2586939  40.9316546  38.4059483  19.1297062  39.9693387  38.1039324
  21.1113294  39.6523923  34.7503066  20.1608925  39.6525784  34.6367439
  21.4145780  38.9056657  34.2339101  24.9975850  17.5697809  30.9181246
  24.2308245  17.0156296  31.0637929  25.4086555  17.6419678  31.7795398
  17.0017611  23.8582605  45.0086428  17.8649072  23.5019410  45.2189752
  16.4283021  23.5196500  45.6961832  36.8465988  45.4884461  35.8148829
  37.4844398  45.3691208  35.1112169  36.7286830  46.4365305  35.8736781
  33.6555694  45.4411889  35.7510353  33.3174205  45.3252954  34.8630888
  34.5245462  45.0403054  35.7311360  29.5142510  47.2947366  31.7407244
  28.9507375  47.2037302  30.9723532  29.3994905  46.4747270  32.2209737
  34.1375477  46.5946741  41.7096559  34.1264118  46.1999539  40.8377063
  34.2996116  45.8612813  42.3030330  27.0606941  48.7898557  34.5791465
  27.8528233  48.4489382  34.1637764  27.3003592  48.8993532  35.4993618
  35.0942068  50.9618333  27.0521709  34.4430048  51.5472414  26.6655723
  35.8886431  51.4924528  27.1116747  29.0197695  48.0507470  27.4508844
  29.7928571  47.5036457  27.3121719  29.3723094  48.9151720  27.6623305
  30.8582738  49.3783853  40.6575743  30.5672604  50.2829484  40.5422409
  31.4939722  49.4200380  41.3719813  31.7838945  46.7560701  37.2477103
  32.3802517  46.5316724  36.5334066  31.8413916  46.0145447  37.8502550
  31.3563973  44.2100137  25.0827294  31.6089494  43.6881658  24.3210757
  30.4188532  44.0466282  25.1853977  36.4007256  43.2135915  32.8902037
  37.1870345  42.7955338  32.5392454  36.6645960  44.1182007  33.0583685
  36.5717333  48.6508765  27.5890694  35.9363166  48.7243392  28.3011598
  36.2414740  49.2402364  26.9109773  41.8015683  43.1511148  33.7935015
  42.5340855  42.5810365  34.0272845  41.0455039  42.7632749  34.2341521
  31.0760262  46.1128242  27.2851669  30.9596520  45.4373146  27.9532753
  31.1862522  45.6260616  26.4683822  33.4191803  45.5738390  30.9898358
  33.0550010  45.0469011  31.7011279  34.2758919  45.1836859  30.8164843
  39.3241104  36.8632722  38.2529624  38.9924428  37.7328133  38.0290839
  38.7286717  36.5469006  38.9323654  33.0597290  40.6028289  25.9859706
  33.2271692  41.4708526  26.3530177  32.8694459  40.7655571  25.0620996
  35.8172623  49.0645268  37.6525537  35.5173346  49.9670307  37.5441344
  35.4723683  48.7977451  38.5046690  29.2685105  45.5159065  33.6862241
  28.3435601  45.3835279  33.8939933  29.5169518  46.2953284  34.1832183
  39.2169767  41.5827808  35.3322974  38.3086644  41.5143217  35.0381735
  39.1657363  42.0599753  36.1604799  33.0386511  43.0585947  26.9706373
  32.9186136  43.5042998  27.8091853  32.3439099  43.4071264  26.4119911
  26.6293916  45.1592339  34.5206030  26.7586297  45.4126817  35.4345442
  25.9491367  45.7520047  34.2010685  30.7993403  55.8289589  30.6196504
  30.7217433  56.7797414  30.6984985  30.1955046  55.4835461  31.2771431
  33.2910633  43.0017454  43.2757871  32.5143967  43.5611374  43.2660736
  33.9301196  43.4874237  43.7972741  41.0831413  39.7844247  37.1100848
  40.4405793  40.0776780  36.4640642  40.5786342  39.6697167  37.9154045
  38.7371577  43.5307420  27.7986707  39.6489433  43.7634807  27.6234405
  38.2281224  44.1144464  27.2361786  31.5457005  45.8102907  42.8375838
  32.2871689  46.3487951  42.5610662  30.8393990  46.4369196  42.9947390
  37.0212345  47.9532048  41.4348000  37.4295701  47.5114458  40.6902632
  36.2989606  47.3784675  41.6882193  33.3743415  42.8904655  38.8081557
  34.2204610  43.3144068  38.9516206  33.3142052  42.2338279  39.5020120
  37.3441159  48.5133238  35.1900289  36.7150022  48.6778953  34.4876356
  36.9566821  48.9274848  35.9611253  41.2230391  49.4487676  32.5444652
  40.5381429  49.8286578  31.9941686  41.3074240  50.0583003  33.2776600
  36.5242860  40.5509023  40.4662730  36.2803792  41.3051083  39.9297006
  36.8002790  40.9294371  41.3009977  38.4781323  47.0947635  39.1439996
  38.6898218  47.7379395  38.4674377  38.4311071  46.2609952  38.6761926
  36.0807552  39.7065456  36.0476568  35.2192031  40.0046709  36.3393306
  36.1069986  39.9235855  35.1157601  32.8969121  48.2507646  32.4550374
  33.3607467  48.5295349  31.6654996  32.6325919  47.3491091  32.2723464
  29.7893202  47.7979128  35.3930137  30.3594559  48.2266396  34.7547621
  30.3801314  47.5161713  36.0914323  31.8338007  44.3730799  29.2639939
  32.5362050  44.8251843  29.7313865  31.5018636  43.7314618  29.8919832
  30.2818369  42.9642555  43.6391148  29.6517029  43.6458836  43.8726545
  30.1754457  42.8525637  42.6944286  25.5763341  42.6314352  34.5657072
  24.7862395  42.8871880  34.0897183  26.0674588  43.4462689  34.6709113
  39.5927151  49.9719591  37.3162353  40.4144594  49.5699778  37.0345035
  39.5889554  49.8687825  38.2678469  27.5278086  42.9958931  31.5240549
  26.7309250  43.1077625  32.0424045  27.3003679  43.3345583  30.6581440
  33.3583754  49.5203634  39.4723064  33.4228187  49.9824041  40.3081236
  32.6494678  48.8900999  39.6005374  23.8601044  42.8844842  36.9972063
  24.1109083  43.7691852  37.2629639  24.3960592  42.7049443  36.2247155
  47.6833144  46.3158339  33.6647325  46.9296852  45.7465737  33.5091329
  47.8180685  46.2821004  34.6117959  33.0731772  51.1871741  29.3402044
  32.9377447  52.0323277  29.7686892  33.6141584  51.3891019  28.5767978
  29.5599111  37.2663321  46.0016399  29.1666057  36.7129520  46.6764044
  30.3765252  37.5773900  46.3922917  26.5261169  48.7047180  29.9129969
  27.0385690  49.4990430  30.0635534  27.1783882  48.0073470  29.8463571
  28.3356054  51.8212936  31.9952722  28.5122682  52.7430900  31.8073706
  29.1312887  51.5071355  32.4247102  32.4767072  38.6821200  43.5936656
  33.2176786  39.2828354  43.5141118  32.7084995  37.9398838  43.0354698
  27.6208410  43.8677568  41.8714886  27.5061926  42.9662825  42.1721984
  26.7652928  44.1141264  41.5199702  34.7000248  51.8095308  43.4702386
  34.2564102  51.0231687  43.1523291  35.3617462  51.9974458  42.8046277
  29.4587369  53.3391110  37.9963065  30.0094794  53.2108173  37.2240059
  28.6198845  53.6385999  37.6457957  36.7981486  52.0898108  41.4983787
  36.7799962  52.9106989  41.0064057  37.7201406  51.9652183  41.7233929
  33.2554540  49.6042237  42.3407296  33.7882877  48.8430526  42.1106604
  32.7268621  49.3115889  43.0831450  36.4224235  34.7102303  37.8700938
  36.0788505  35.6003945  37.7940048  36.7903198  34.5203961  37.0070523
  24.4910086  47.0335834  30.6889540  25.3285308  47.4432842  30.4723247
  24.6688354  46.0935276  30.6589734  36.3874518  44.7010914  26.3773373
  35.8721141  45.4715519  26.6161760  36.1151827  44.0276051  27.0006434
  33.9721629  39.5460615  31.4358611  33.1163225  39.1567466  31.2564250
  34.3848581  39.6252576  30.5758397  35.5020776  37.0806959  35.8350171
  34.9985571  37.0437094  35.0217976  35.7951383  37.9899701  35.8946827
  31.7463662  37.1645688  34.8416353  32.6116658  36.9688497  34.4822242
  31.8141171  36.9356040  35.7685709  41.3608792  47.4543269  28.3126546
  40.5838235  47.1154429  27.8681708  42.0400273  47.4595892  27.6381511
  36.1760821  42.5738007  28.2033154  35.8710957  42.8884156  29.0543297
  37.1291263  42.6519426  28.2460487  34.6207253  48.7328230  29.8526108
  34.0928615  47.9980989  29.5399345  34.1194756  49.5102906  29.6066076
  39.6000099  46.9277250  34.9693154  38.9423774  47.6176512  35.0573283
  40.4040498  47.3173682  35.3127140  29.3525981  39.3947896  32.2132719
  29.9269733  39.1723078  31.4805912  29.9396963  39.4636591  32.9661321
  38.4105558  45.2821623  33.0197096  38.9237440  45.9151615  33.5218806
  39.0606782  44.6822819  32.6540456  29.6795568  41.4252357  26.2328605
  28.8432880  41.7627044  26.5537879  29.5400337  41.2901337  25.2955742
  31.6548648  36.2689145  30.9407789  31.0013061  35.9538162  30.3164404
  31.6129123  35.6464886  31.6667612  32.7659853  46.5508440  22.8561081
  31.8586915  46.3197694  23.0552230  33.2630885  45.7546059  23.0435062
  35.6727932  55.2605947  25.7757767  34.9989631  55.5637644  26.3842725
  36.0593754  56.0635028  25.4263224  34.8886389  42.7571079  35.2655436
  33.9708950  42.9786026  35.1077124  35.3046532  42.8317389  34.4067144
  35.6721437  44.1562494  30.3958117  36.4193255  44.6683892  30.0865239
  35.9413026  43.8346547  31.2562510  33.9448087  46.6521035  27.3785071
  33.0359306  46.3680068  27.4757541  33.9743171  47.0720114  26.5188378
  39.1767354  50.2627625  31.1476238  38.7229681  49.4218534  31.2041429
  38.5461321  50.8989023  31.4851019  38.1200274  41.1919611  32.3776906
  37.3823030  40.6796997  32.7087149  38.3727047  40.7519992  31.5660183
  37.6200293  52.1004121  32.0826057  37.9123268  52.6609178  31.3638422
  38.1298914  52.3932682  32.8379216  38.2211901  33.9695863  32.9718675
  38.5270778  33.1093226  32.6844590  38.9464506  34.5613483  32.7717669
  24.5136257  44.3726549  31.3600273  24.3160657  43.7795910  30.6351340
  23.9582921  44.0678759  32.0776212  32.4932981  44.2649656  33.4794866
  32.5481591  43.3123492  33.4037343  31.6824183  44.4209095  33.9636165
  33.6424174  48.1929779  24.7173149  33.2043604  47.4765638  24.2578787
  34.3834615  48.4205894  24.1558241  30.4325341  42.8826715  31.2385245
  29.6193206  43.1820886  31.6450437  30.9284335  42.4882404  31.9559727
  32.5833919  52.8784472  33.1719510  32.5410097  53.1045319  32.2428042
  33.4996617  52.6447847  33.3205311  36.0299552  43.3468540  40.0700139
  36.3848940  43.5740013  40.9294605  36.6771684  43.6786917  39.4477394
  41.7597289  46.4686976  30.7749468  41.6215188  46.6588572  29.8470657
  41.4033508  47.2306359  31.2317519  29.9239415  40.4545071  36.8546480
  30.5638795  40.3133830  36.1569443  29.0916946  40.1679584  36.4785082
  41.7866669  48.5363503  35.7860740  42.2203176  48.4438792  36.6343794
  42.4998250  48.5121003  35.1480756  30.6999719  49.7547501  32.9681473
  31.4940318  49.2597821  32.7664048  29.9891412  49.2265364  32.6049178
  35.5194564  52.1365597  37.3193840  35.5731586  52.7056533  38.0871556
  34.6509345  52.3067482  36.9547877  27.0082483  43.8990583  29.0441225
  26.0780071  43.8375039  29.2611187  27.1039955  43.3766536  28.2477866
  26.9268032  40.4245396  31.6319467  27.1874849  41.3390729  31.5228627
  27.7485204  39.9569838  31.7816080  28.3992957  41.8383153  38.8018291
  29.0716011  41.6300515  38.1530940  27.5722744  41.6405239  38.3623524
  42.6482218  48.5787203  38.3193625  42.8418109  49.4833014  38.5652900
  42.5482837  48.1194622  39.1532210  34.3018529  38.4645094  40.8183952
  33.6546444  39.1635044  40.7248429  35.0719545  38.8981238  41.1860200
  37.7097327  48.7293946  43.8934506  37.5582834  48.5004498  42.9764589
  37.7002007  49.6864548  43.9065851  34.4782664  46.3025859  38.8780772
  35.4074724  46.4537018  38.7049739  34.0573694  46.3909880  38.0229419
  33.2770995  50.3276523  36.6479310  33.1382081  49.9595308  37.5205248
  32.4885592  50.8424163  36.4763267  33.8719147  55.4285620  27.9904846
  34.0470903  54.9573663  28.8050469  33.1851935  56.0551386  28.2186107
  34.8276210  49.7058126  34.0368147  34.4926043  49.6658896  34.9325797
  34.3280156  49.0402842  33.5638558  28.8020454  45.1125756  39.5620729
  28.6640252  44.3805995  40.1632268  29.7125378  45.0234656  39.2804916
  37.7635402  47.0514160  24.3105207  37.1464573  46.3260988  24.2138260
  37.2951891  47.8123521  23.9672281  31.4302755  44.8245715  39.0504408
  32.1402374  44.1838908  39.0091027  31.3872063  45.0758610  39.9730589
  39.4189534  51.7613069  41.9710987  39.3602080  51.0772289  41.3041570
  39.8209052  52.5032059  41.5191613  30.1431689  41.8110933  40.8700048
  29.6069046  41.3601672  41.5221644  29.5548398  41.9456842  40.1270512
  28.4380233  58.5774983  34.7644706  28.6776831  59.2093507  35.4423725
  27.5949429  58.2263023  35.0510066  29.5533948  41.2699585  23.4326511
  28.6763414  41.1488385  23.0688758  30.0291701  40.4785663  23.1805400
  39.4206941  49.7252653  40.2024967  38.5333720  49.3878574  40.3251366
  39.9905492  48.9935684  40.4393733  21.0736088  46.0576744  33.5268019
  21.7607128  45.7438474  32.9389034  20.9184217  46.9618109  33.2535270
  25.8770810  40.9466941  37.9553042  25.7928999  40.3392610  37.2203452
  25.0553517  41.4375959  37.9562539  32.9508094  54.3854105  37.1686210
  32.8778266  55.1909076  37.6805515  32.5085488  54.5846071  36.3434232
  32.7397874  53.6225875  30.6789032  31.9565396  54.1647555  30.7727256
  33.4390619  54.1399855  31.0783273  36.0494524  39.4320504  33.3223237
  36.5463224  38.6790467  33.0024307  35.2781506  39.4684821  32.7566447
  43.9024282  45.1360870  34.9641529  43.8914158  46.0185585  34.5935462
  43.0341661  44.7832421  34.7696066  35.4106778  54.2840939  39.3244369
  36.1234750  54.9188404  39.2520270  34.9196807  54.3804805  38.5084371
  37.1324305  48.1892192  30.8961661  36.1980584  48.3093654  30.7266365
  37.3100973  47.2864658  30.6321670  32.6329493  41.5737887  33.0494922
  32.2627280  41.0208928  33.7375827  33.1288585  40.9696021  32.4969922
  40.5196856  44.0309511  31.4311695  40.9857308  44.8637503  31.3571997
  40.9704357  43.5654493  32.1356953  30.4618691  52.0335382  40.1449940
  31.1628151  52.6671865  40.2979334  29.9913806  52.3750114  39.3845579
  38.5873087  50.3753332  28.4297847  38.8632931  50.2609927  29.3391721
  37.7177586  49.9770817  28.3910020  38.4913519  36.3990098  35.4702596
  37.5776599  36.6294325  35.6384803  38.9206620  36.4828542  36.3216628
  38.2619977  44.5879990  37.9702490  37.6091428  44.8355897  37.3154943
  38.6400357  43.7744128  37.6364967  35.2227151  54.6239683  32.0730660
  35.4049546  53.8061339  32.5358413  36.0460137  54.8407375  31.6355550
  35.5569317  53.5507868  29.3345709  36.0857083  53.0400323  28.7215871
  35.8197536  53.2350398  30.1991242  34.3107550  45.3299801  44.4568527
  33.6348187  45.2293930  45.1270902  35.1335184  45.1739015  44.9204524
  26.0586410  51.5671738  37.0781042  26.6439846  50.8215425  37.2108947
  25.8611248  51.8775694  37.9617706  28.9125065  54.6022985  32.0943485
  28.2435440  55.0869113  31.6107525  28.7737934  54.8492205  33.0086863
  20.6504064  44.1377338  35.7985486  20.6888164  43.6040928  36.5922604
  20.1444357  43.6112543  35.1796463  33.0530333  56.6366728  38.6926143
  33.6048641  56.7998350  39.4575228  33.3936527  57.2271166  38.0206168
  28.0294827  38.9841878  39.2948028  28.0936153  39.8456709  38.8825426
  27.9661947  38.3715880  38.5620386  27.5047099  41.0565011  42.9421062
  28.1319138  40.6742088  43.5558587  26.6475018  40.8379213  43.3076755
  37.9041208  51.4627986  44.5474798  38.4481112  52.0757944  44.0529752
  37.3228053  52.0207564  45.0641811  24.2812642  42.8641440  28.8739417
  24.5766083  41.9552118  28.8206471  23.3800678  42.8429179  28.5520419
  36.1898721  54.5848704  35.6789825  36.0649860  53.7838444  35.1700771
  36.8477812  55.0794897  35.1903795  27.8106889  40.9397436  34.8566966
  27.0893475  41.5533404  34.7174439  28.6000145  41.4755201  34.7783612
  38.2533629  52.3857724  37.3069375  37.3063965  52.2663075  37.2347702
  38.6016402  51.4980222  37.3895637  30.6133202  38.2751863  41.1307617
  31.1367604  38.5214159  41.8933927  30.3945536  39.1071898  40.7110755
  26.0100483  40.5455538  28.9978742  25.6813190  39.6652916  28.8153848
  26.3639854  40.4903206  29.8855131  35.2580062  52.1810440  33.5073728
  35.1105025  51.2527148  33.6881298  36.0833556  52.2030531  33.0230803
  29.1242307  40.8328507  29.3654220  29.4638379  41.3614429  28.6432828
  29.5714427  41.1708913  30.1412786  38.8614184  53.0038999  34.5938600
  39.7860732  52.7981860  34.4563052  38.6929488  52.7555400  35.5027942
  31.8185747  39.2165558  38.8157288  31.4782568  38.4173371  39.2177968
  31.1124754  39.5167269  38.2434121  32.4702219  36.3014870  37.2684611
  33.2928289  35.8275349  37.1463501  32.7140283  37.0805354  37.7683297
  31.1110454  39.3303129  27.5647513  31.8318816  39.7084382  27.0611229
  30.4875758  40.0492006  27.6682491  35.2541577  40.0348278  28.5005845
  35.4705191  40.9172916  28.1994673  34.7735644  39.6434491  27.7711487
  29.9940798  42.9933991  35.0776590  29.8485379  43.3074294  35.9700871
  29.5166002  43.6118891  34.5247488  31.8537181  39.9836539  35.1257479
  31.8398750  39.0877632  34.7889777  32.5709609  39.9907203  35.7595765
  33.7063312  40.4173879  37.1710607  33.4481089  41.3390950  37.1694937
  33.1748352  40.0204314  37.8611071  38.6509500  53.5224666  29.9500692
  38.8246378  52.9571089  29.1974544  39.1438392  54.3225561  29.7680182
  24.4686460  45.5339336  38.0164251  23.9239928  46.3099143  38.1484525
  25.3465810  45.8810140  37.8583372  31.2574077  38.8650919  30.3945049
  31.3789988  37.9367566  30.5935937  30.9676119  38.8789605  29.4823365
  34.1265267  36.5505830  33.5311769  34.1486964  36.6145163  32.5763749
  34.5433326  35.7110338  33.7252275  44.5048892  46.2861089  31.5690992
  44.9480038  45.5368415  31.1710115  43.6275402  46.2771226  31.1864724
  39.6384673  52.8391431  27.0497590  40.3335577  53.4598124  27.2684905
  39.9807823  51.9886782  27.3249968  25.2552482  44.6609232  40.9094408
  24.5134218  44.8091867  41.4959038  24.9345226  44.9217497  40.0461157
  41.5376096  50.2891136  28.5784921  42.0627420  50.6278409  27.8534241
  41.4498449  49.3538152  28.3948056  33.1996145  54.2025210  40.7074798
  33.5083271  53.9574357  41.5797497  33.9971627  54.4071848  40.2193668
  33.2216757  56.3563120  32.9380174  32.7821747  55.8639498  33.6313031
  33.9724874  55.8136087  32.6972249  25.7009096  52.5474660  32.9404802
  26.5267116  52.2478432  32.5603446  25.3503148  51.7782283  33.3894591
  30.6690629  51.9001129  35.0102476  30.0470638  51.2371834  34.7104704
  31.3395496  51.9262261  34.3276124  23.9017701  50.4660987  33.8993736
  23.0649609  50.0383161  33.7177737  23.8741346  50.6593430  34.8364527
  30.7415156  40.3782917  44.6034982  30.7903312  41.2545040  44.2212751
  31.2837671  39.8360310  44.0306625  41.3467877  47.7716506  41.1968847
  41.3965882  47.6066514  42.1384370  41.2381800  46.9043765  40.8066728
  30.2304136  50.4505052  28.4860936  30.3792256  51.1340516  27.8327609
  31.0370579  50.4310142  29.0010392  38.6371639  43.7547434  42.5128154
  39.5381502  43.6153899  42.2212152  38.7119614  43.9201889  43.4526332
  32.9714445  41.1314289  41.3581340  32.1017754  41.4247855  41.0863929
  33.2073925  41.7154734  42.0788604  42.8486074  50.1913448  41.4410869
  42.5570882  50.5543428  42.2774330  42.2358205  49.4780456  41.2624201
  44.0481756  47.7566328  33.9613439  44.8828648  48.1956132  34.1251000
  44.1840885  47.2804981  33.1421685  41.0973262  45.3146063  39.9090927
  41.5727384  45.5073709  39.1009778  40.1738828  45.3705248  39.6634311
  27.9856769  46.4770230  29.4922005  27.7402811  45.5732560  29.6902215
  28.1552683  46.4787380  28.5501483  35.6753479  37.3493906  38.8746761
  36.1935423  38.0854933  38.5493249  35.3208611  37.6557899  39.7093520
  27.2552416  42.2098587  26.9908167  26.5621661  42.2842942  26.3348203
  27.0104168  41.4458931  27.5129684  35.9266073  33.7694189  34.3947657
  36.2067827  33.1017378  35.0208084  36.7116680  33.9623284  33.8822321
  33.7299541  52.9453183  25.9572684  33.1573508  53.5643370  25.5043156
  34.3032335  53.4952544  26.4912606  39.7974931  42.1911823  38.1419233
  40.7492354  42.2909920  38.1631457  39.6278382  41.3990091  38.6517317
  37.8189311  39.2767406  38.3278634  37.2239243  39.5572419  37.6325122
  37.5339007  39.7661307  39.0995375  36.9496801  53.2290333  27.0881266
  37.8827474  53.1635894  27.2914142  36.8620014  54.0646599  26.6295799
  39.5784818  52.5456203  24.0485214  39.4998449  52.2116067  24.9420972
  40.3994485  53.0377971  24.0476686  42.2763009  45.4117942  37.2561532
  42.2439329  44.4733943  37.4421216  42.8863633  45.4901979  36.5227357
  34.1146340  44.2813995  23.2988736  35.0605445  44.1520203  23.3677154
  33.7360585  43.5428657  23.7758164  42.4257497  42.2028986  37.3019815
  41.9096546  41.4187442  37.1149744  43.3097446  41.8747702  37.4666335
  40.0868224  35.9470001  33.2615628  39.8893045  35.6385089  34.1458960
  40.6967930  36.6731640  33.3913558  48.0939559  46.4733949  36.3967569
  48.8242947  46.2119237  36.9575272  47.4846504  45.7362671  36.4369637
  46.1754856  44.6141812  36.9942020  45.4488020  44.4797777  36.3858512
  45.7602143  44.9218640  37.7998738  33.9985032  48.3331741  44.7589393
  34.9188042  48.5110340  44.9529440  33.9634615  47.3887787  44.6069093
  32.2989257  42.2063972  23.2343622  31.3920712  41.9097084  23.3106335
  32.5765238  41.9093790  22.3677908  23.2167197  43.5270335  33.6842668
  22.8969982  42.6735643  33.3917042  22.6700626  43.7418913  34.4400635
  26.9947105  46.2432776  37.4012174  27.2133115  47.1749884  37.4200208
  27.4072879  45.8840750  38.1866978  33.9151323  36.7500861  29.3887863
  33.1052051  36.4047946  29.7643109  34.6035740  36.4408405  29.9775474
  35.8441871  35.8278908  31.0112159  36.3972910  36.2474362  31.6702183
  36.0811957  34.9014656  31.0535115  31.8674970  41.8165982  46.7914923
  31.7671697  42.7660339  46.7227014  31.6496512  41.4884221  45.9190993
  31.0688042  39.0650907  23.3755601  31.9307206  39.3905805  23.6351418
  31.2538386  38.2782403  22.8628666  23.0855457  47.1473247  35.6535789
  22.3918929  46.7327199  35.1405744  23.8328448  47.1893783  35.0569208
  39.2220678  37.9379433  30.5190824  38.6419347  38.5964237  30.1368876
  38.9556611  37.1156778  30.1078241  37.6724244  37.3384491  32.7212144
  38.1724023  37.4501026  31.9126463  38.3159852  37.0345544  33.3612952
  31.7306240  45.2463121  45.6079985  31.2473322  46.0463481  45.8143874
  31.8167179  45.2571066  44.6547429  24.9992200  47.0791500  33.5301804
  24.9762888  47.1779188  32.5783687  25.3092836  47.9256651  33.8518970
  27.6579578  49.1367655  37.6448419  28.6122831  49.1051598  37.5778350
  27.4592101  48.6758279  38.4598645  28.2478960  47.7068771  40.2119216
  29.0671849  48.2012850  40.2354054  28.5215768  46.7900740  40.1836784
  38.0045556  40.0979524  29.5747172  37.1171411  40.3829174  29.3567367
  38.4199545  39.9373287  28.7274449  41.3560092  40.1226045  33.2901511
  42.1320482  40.6122497  33.5626128  40.6308226  40.5484099  33.7473381
  43.7932651  40.8353664  34.3475452  44.3877142  40.5949400  33.6368760
  43.8659235  40.1160794  34.9748988  26.0129807  54.6787275  34.6618617
  25.8784274  53.9187676  34.0956615  25.5961869  55.4028175  34.1947406
  37.1488770  49.8624198  23.6695192  37.8524620  50.0674201  24.2852848
  36.4251418  50.4300960  23.9344275  37.9786580  45.6134060  29.7897462
  37.9221781  46.0702611  28.9505095  38.5314922  44.8524744  29.6120305
  41.7891386  41.4023792  30.6147582  41.5328320  41.0020427  31.4455789
  41.1644254  42.1167585  30.4897721  46.1003724  44.1419865  33.1218873
  45.5403282  44.2113054  33.8950435  45.4947227  43.9660849  32.4018369
  29.1698932  55.5756592  34.8737059  29.0531317  56.5202024  34.7715750
  28.3491379  55.2730153  35.2622859  39.0575467  50.3006728  25.7193652
  39.8921071  49.8687926  25.5371127  38.8959810  50.1288741  26.6470546
  38.7121359  46.8038841  27.0849991  38.6570163  46.6383112  26.1438435
  38.0867414  47.5114874  27.2412181  23.5013874  42.0406905  40.9111414
  24.1472738  41.5305859  41.3998639  23.2931025  42.7775587  41.4854839
  36.0267266  49.1087753  46.4103554  36.8958426  49.2828405  46.0490189
  35.5474018  49.9282170  46.2879283  32.0217485  36.3046950  26.6635310
  32.0096154  37.2488790  26.8203581  32.9140906  36.1217095  26.3694771
  30.1953447  56.2284854  38.0892988  31.0980693  56.2608464  38.4059483
  29.9690817  55.2985305  38.1039324  31.9507049  54.9815840  34.7503066
  31.0002680  54.9817702  34.6367439  32.2539535  54.2348575  34.2339101
  35.8369604  32.8989727  30.9181246  35.0702000  32.3448213  31.0637929
  36.2480309  32.9711595  31.7795398  27.8411365  39.1874522  45.0086428
  28.7042827  38.8311327  45.2189752  27.2676776  38.8488417  45.6961832
  44.4949448  60.7703807  35.7510353  44.1567960  60.6544872  34.8630888
  45.3639217  60.3694972  35.7311360  40.3536264  62.6239283  31.7407244
  39.7901129  62.5329220  30.9723532  40.2388659  61.8039188  32.2209737
  37.9000696  64.1190475  34.5791465  38.6921988  63.7781299  34.1637764
  38.1397346  64.2285450  35.4993618  45.9335823  66.2910251  27.0521709
  45.2823803  66.8764331  26.6655723  46.7280186  66.8216446  27.1116747
  39.8591450  63.3799388  27.4508844  40.6322326  62.8328375  27.3121719
  40.2116849  64.2443637  27.6623305  42.6232699  62.0852619  37.2477103
  43.2196272  61.8608641  36.5334066  42.6807671  61.3437364  37.8502550
  42.1957728  59.5392054  25.0827294  42.4483248  59.0173575  24.3210757
  41.2582287  59.3758200  25.1853977  47.2401011  58.5427833  32.8902037
  48.0264100  58.1247256  32.5392454  47.5039715  59.4473925  33.0583685
  47.4111088  63.9800683  27.5890694  46.7756921  64.0535309  28.3011598
  47.0808494  64.5694282  26.9109773  41.9154016  61.4420160  27.2851669
  41.7990275  60.7665064  27.9532753  42.0256276  60.9552534  26.4683822
  44.2585557  60.9030307  30.9898358  43.8943765  60.3760928  31.7011279
  45.1152673  60.5128776  30.8164843  50.1634858  52.1924640  38.2529624
  49.8318183  53.0620051  38.0290839  49.5680471  51.8760924  38.9323654
  43.8991044  55.9320207  25.9859706  44.0665447  56.8000443  26.3530177
  43.7088213  56.0947489  25.0620996  40.1078859  60.8450983  33.6862241
  39.1829355  60.7127197  33.8939933  40.3563272  61.6245202  34.1832183
  43.8780265  58.3877864  26.9706373  43.7579890  58.8334915  27.8091853
  43.1832854  58.7363182  26.4119911  37.4687670  60.4884256  34.5206030
  37.5980051  60.7418735  35.4345442  36.7885121  61.0811964  34.2010685
  41.6387157  71.1581506  30.6196504  41.5611187  72.1089331  30.6984985
  41.0348801  70.8127379  31.2771431  49.5765331  58.8599338  27.7986707
  50.4883188  59.0926724  27.6234405  49.0674978  59.4436382  27.2361786
  44.2137169  58.2196572  38.8081557  45.0598364  58.6435986  38.9516206
  44.1535807  57.5630197  39.5020120  46.9201306  55.0357374  36.0476568
  46.0585785  55.3338627  36.3393306  46.9463741  55.2527772  35.1157601
  43.7362876  63.5799564  32.4550374  44.2001221  63.8587267  31.6654996
  43.4719674  62.6783009  32.2723464  40.6286957  63.1271046  35.3930137
  41.1988314  63.5558314  34.7547621  41.2195068  62.8453630  36.0914323
  42.6731762  59.7022717  29.2639939  43.3755805  60.1543760  29.7313865
  42.3412390  59.0606535  29.8919832  36.4157096  57.9606269  34.5657072
  35.6256150  58.2163798  34.0897183  36.9068343  58.7754607  34.6709113
  38.3671841  58.3250848  31.5240549  37.5703004  58.4369543  32.0424045
  38.1397433  58.6637501  30.6581440  44.1977509  64.8495552  39.4723064
  44.2621941  65.3115959  40.3081236  43.4888432  64.2192917  39.6005374
  34.6994799  58.2136760  36.9972063  34.9502837  59.0983770  37.2629639
  35.2354347  58.0341361  36.2247155  43.9125526  66.5163659  29.3402044
  43.7771201  67.3615195  29.7686892  44.4535339  66.7182937  28.5767978
  37.3654924  64.0339097  29.9129969  37.8779444  64.8282347  30.0635534
  38.0177636  63.3365388  29.8463571  39.1749808  67.1504853  31.9952722
  39.3516437  68.0722818  31.8073706  39.9706642  66.8363273  32.4247102
  40.2981124  68.6683027  37.9963065  40.8488549  68.5400091  37.2240059
  39.4592600  68.9677916  37.6457957  47.6375241  67.4190026  41.4983787
  47.6193716  68.2398907  41.0064057  48.5595161  67.2944101  41.7233929
  47.2617990  50.0394221  37.8700938  46.9182259  50.9295863  37.7940048
  47.6296952  49.8495879  37.0070523  35.3303840  62.3627751  30.6889540
  36.1679062  62.7724760  30.4723247  35.5082108  61.4227194  30.6589734
  47.2268273  60.0302832  26.3773373  46.7114896  60.8007437  26.6161760
  46.9545581  59.3567968  27.0006434  44.8115384  54.8752533  31.4358611
  43.9556980  54.4859383  31.2564250  45.2242335  54.9544494  30.5758397
  46.3414530  52.4098876  35.8350171  45.8379326  52.3729011  35.0217976
  46.6345137  53.3191619  35.8946827  42.5857416  52.4937606  34.8416353
  43.4510413  52.2980415  34.4822242  42.6534925  52.2647958  35.7685709
  47.0154576  57.9029924  28.2033154  46.7104711  58.2176073  29.0543297
  47.9685018  57.9811344  28.2460487  45.4601008  64.0620148  29.8526108
  44.9322369  63.3272907  29.5399345  44.9588510  64.8394824  29.6066076
  40.1919735  54.7239814  32.2132719  40.7663487  54.5014995  31.4805912
  40.7790718  54.7928508  32.9661321  40.5189322  56.7544275  26.2328605
  39.6826635  57.0918961  26.5537879  40.3794092  56.6193255  25.2955742
  42.4942403  51.5981063  30.9407789  41.8406815  51.2830080  30.3164404
  42.4522877  50.9756803  31.6667612  43.6053608  61.8800358  22.8561081
  42.6980669  61.6489611  23.0552230  44.1024640  61.0837977  23.0435062
  46.5121687  70.5897865  25.7757767  45.8383385  70.8929562  26.3842725
  46.8987509  71.3926945  25.4263224  45.7280143  58.0862996  35.2655436
  44.8102705  58.3077943  35.1077124  46.1440287  58.1609307  34.4067144
  46.5115191  59.4854412  30.3958117  47.2587010  59.9975809  30.0865239
  46.7806781  59.1638465  31.2562510  44.7841841  61.9812953  27.3785071
  43.8753060  61.6971986  27.4757541  44.8136925  62.4012031  26.5188378
  48.4594048  67.4296039  32.0826057  48.7517022  67.9901096  31.3638422
  48.9692668  67.7224600  32.8379216  49.0605655  49.2987780  32.9718675
  49.3664532  48.4385144  32.6844590  49.7858260  49.8905400  32.7717669
  35.3530012  59.7018467  31.3600273  35.1554411  59.1087828  30.6351340
  34.7976676  59.3970677  32.0776212  43.3326735  59.5941573  33.4794866
  43.3875345  58.6415410  33.4037343  42.5217937  59.7501012  33.9636165
  44.4817929  63.5221696  24.7173149  44.0437359  62.8057555  24.2578787
  45.2228370  63.7497811  24.1558241  41.2719095  58.2118633  31.2385245
  40.4586961  58.5112804  31.6450437  41.7678089  57.8174322  31.9559727
  43.4227673  68.2076390  33.1719510  43.3803852  68.4337236  32.2428042
  44.3390372  67.9739765  33.3205311  40.7633170  55.7836989  36.8546480
  41.4032549  55.6425748  36.1569443  39.9310700  55.4971502  36.4785082
  41.5393474  65.0839419  32.9681473  42.3334072  64.5889739  32.7664048
  40.8285166  64.5557282  32.6049178  46.3588318  67.4657515  37.3193840
  46.4125341  68.0348451  38.0871556  45.4903100  67.6359400  36.9547877
  37.8476237  59.2282501  29.0441225  36.9173825  59.1666956  29.2611187
  37.9433709  58.7058453  28.2477866  37.7661786  55.7537314  31.6319467
  38.0268604  56.6682647  31.5228627  38.5878959  55.2861756  31.7816080
  39.2386712  57.1675071  38.8018291  39.9109765  56.9592433  38.1530940
  38.4116498  56.9697157  38.3623524  44.1164750  65.6568441  36.6479310
  43.9775836  65.2887225  37.5205248  43.3279346  66.1716080  36.4763267
  44.7112902  70.7577537  27.9904846  44.8864657  70.2865581  28.8050469
  44.0245690  71.3843304  28.2186107  45.6669965  65.0350044  34.0368147
  45.3319798  64.9950814  34.9325797  45.1673911  64.3694760  33.5638558
  39.6414209  60.4417674  39.5620729  39.5034007  59.7097913  40.1632268
  40.5519132  60.3526574  39.2804916  48.6029157  62.3806078  24.3105207
  47.9858327  61.6552906  24.2138260  48.1345645  63.1415438  23.9672281
  42.2696510  60.1537633  39.0504408  42.9796128  59.5130825  39.0091027
  42.2265818  60.4050528  39.9730589  50.2583288  67.0904986  41.9710987
  50.1995834  66.4064206  41.3041570  50.6602807  67.8323976  41.5191613
  39.2773987  73.9066900  34.7644706  39.5170585  74.5385424  35.4423725
  38.4343184  73.5554940  35.0510066  40.3927703  56.5991502  23.4326511
  39.5157169  56.4780303  23.0688758  40.8685456  55.8077581  23.1805400
  31.9129843  61.3868662  33.5268019  32.6000882  61.0730392  32.9389034
  31.7577971  62.2910027  33.2535270  36.7164565  56.2758859  37.9553042
  36.6322754  55.6684528  37.2203452  35.8947271  56.7667877  37.9562539
  43.7901849  69.7146023  37.1686210  43.7172020  70.5200994  37.6805515
  43.3479242  69.9137988  36.3434232  43.5791629  68.9517793  30.6789032
  42.7959150  69.4939473  30.7727256  44.2784374  69.4691772  31.0783273
  46.8888279  54.7612422  33.3223237  47.3856978  54.0082384  33.0024307
  46.1175260  54.7976739  32.7566447  46.2500532  69.6132857  39.3244369
  46.9628505  70.2480321  39.2520270  45.7590561  69.7096723  38.5084371
  43.4723247  56.9029805  33.0494922  43.1021035  56.3500846  33.7375827
  43.9682340  56.2987939  32.4969922  41.3012446  67.3627300  40.1449940
  42.0021905  67.9963783  40.2979334  40.8307561  67.7042032  39.3845579
  49.4266842  65.7045250  28.4297847  49.7026686  65.5901845  29.3391721
  48.5571341  65.3062735  28.3910020  49.3307273  51.7282016  35.4702596
  48.4170353  51.9586242  35.6384803  49.7600375  51.8120460  36.3216628
  46.0620906  69.9531601  32.0730660  46.2443300  69.1353257  32.5358413
  46.8853892  70.1699293  31.6355550  46.3963071  68.8799786  29.3345709
  46.9250838  68.3692240  28.7215871  46.6591291  68.5642316  30.1991242
  36.8980164  66.8963655  37.0781042  37.4833601  66.1507343  37.2108947
  36.7005002  67.2067612  37.9617706  39.7518819  69.9314903  32.0943485
  39.0829195  70.4161030  31.6107525  39.6131689  70.1784123  33.0086863
  31.4897819  59.4669255  35.7985486  31.5281918  58.9332846  36.5922604
  30.9838112  58.9404461  35.1796463  43.8924088  71.9658646  38.6926143
  44.4442396  72.1290268  39.4575228  44.2330281  72.5563084  38.0206168
  38.8688581  54.3133796  39.2948028  38.9329908  55.1748627  38.8825426
  38.8055701  53.7007798  38.5620386  48.7434962  66.7919904  44.5474798
  49.2874866  67.4049862  44.0529752  48.1621807  67.3499482  45.0641811
  35.1206396  58.1933358  28.8739417  35.4159837  57.2844036  28.8206471
  34.2194432  58.1721097  28.5520419  47.0292475  69.9140622  35.6789825
  46.9043615  69.1130361  35.1700771  47.6871566  70.4086815  35.1903795
  38.6500643  56.2689354  34.8566966  37.9287229  56.8825322  34.7174439
  39.4393899  56.8047119  34.7783612  41.4526957  53.6043781  41.1307617
  41.9761359  53.8506077  41.8933927  41.2339290  54.4363815  40.7110755
  36.8494238  55.8747455  28.9978742  36.5206944  54.9944834  28.8153848
  37.2033609  55.8195124  29.8855131  46.0973817  67.5102358  33.5073728
  45.9498779  66.5819065  33.6881298  46.9227310  67.5322449  33.0230803
  39.9636061  56.1620425  29.3654220  40.3032134  56.6906346  28.6432828
  40.4108182  56.5000831  30.1412786  49.7007939  68.3330917  34.5938600
  50.6254486  68.1273778  34.4563052  49.5323242  68.0847318  35.5027942
  42.6579502  54.5457476  38.8157288  42.3176322  53.7465289  39.2177968
  41.9518508  54.8459187  38.2434121  43.3095974  51.6306788  37.2684611
  44.1322043  51.1567266  37.1463501  43.5534037  52.4097272  37.7683297
  41.9504208  54.6595047  27.5647513  42.6712571  55.0376299  27.0611229
  41.3269512  55.3783923  27.6682491  46.0935331  55.3640196  28.5005845
  46.3098946  56.2464833  28.1994673  45.6129398  54.9726409  27.7711487
  40.8334553  58.3225909  35.0776590  40.6879133  58.6366212  35.9700871
  40.3559756  58.9410809  34.5247488  42.6930935  55.3128457  35.1257479
  42.6792504  54.4169550  34.7889777  43.4103363  55.3199121  35.7595765
  44.5457066  55.7465797  37.1710607  44.2874844  56.6682868  37.1694937
  44.0142106  55.3496232  37.8611071  49.4903255  68.8516584  29.9500692
  49.6640132  68.2863007  29.1974544  49.9832146  69.6517479  29.7680182
  35.3080215  60.8631253  38.0164251  34.7633683  61.6391061  38.1484525
  36.1859565  61.2102058  37.8583372  42.0967831  54.1942837  30.3945049
  42.2183743  53.2659483  30.5935937  41.8069874  54.2081523  29.4823365
  44.9659022  51.8797747  33.5311769  44.9880719  51.9437081  32.5763749
  45.3827081  51.0402256  33.7252275  50.4778427  68.1683349  27.0497590
  51.1729332  68.7890041  27.2684905  50.8201577  67.3178700  27.3249968
  36.0946237  59.9901149  40.9094408  35.3527973  60.1383785  41.4959038
  35.7738981  60.2509415  40.0461157  52.3769850  65.6183054  28.5784921
  52.9021175  65.9570327  27.8534241  52.2892203  64.6830069  28.3948056
  44.0389899  69.5317128  40.7074798  44.3477026  69.2866274  41.5797497
  44.8365381  69.7363766  40.2193668  44.0610511  71.6855037  32.9380174
  43.6215502  71.1931416  33.6313031  44.8118628  71.1428005  32.6972249
  36.5402850  67.8766578  32.9404802  37.3660870  67.5770350  32.5603446
  36.1896902  67.1074201  33.3894591  41.5084383  67.2293046  35.0102476
  40.8864393  66.5663751  34.7104704  42.1789250  67.2554178  34.3276124
  34.7411455  65.7952905  33.8993736  33.9043364  65.3675079  33.7177737
  34.7135101  65.9885348  34.8364527  52.0663757  66.2515958  43.8836119
  51.2759300  66.2340097  43.3440618  51.8297111  66.7904251  44.6385156
  41.0697890  65.7796970  28.4860936  41.2186011  66.4632434  27.8327609
  41.8764334  65.7602060  29.0010392  38.8250523  61.8062147  29.4922005
  38.5796565  60.9024477  29.6902215  38.9946438  61.8079298  28.5501483
  46.5147233  52.6785824  38.8746761  47.0329177  53.4146851  38.5493249
  46.1602366  52.9849817  39.7093520  38.0946171  57.5390505  26.9908167
  37.4015416  57.6134860  26.3348203  37.8497923  56.7750849  27.5129684
  46.7659827  49.0986106  34.3947657  47.0461581  48.4309295  35.0208084
  47.5510434  49.2915202  33.8822321  44.5693296  68.2745100  25.9572684
  43.9967263  68.8935287  25.5043156  45.1426089  68.8244462  26.4912606
  48.6583065  54.6059323  38.3278634  48.0632997  54.8864336  37.6325122
  48.3732762  55.0953224  39.0995375  47.7890556  68.5582250  27.0881266
  48.7221229  68.4927812  27.2914142  47.7013768  69.3938517  26.6295799
  50.4178572  67.8748121  24.0485214  50.3392204  67.5407984  24.9420972
  51.2388239  68.3669889  24.0476686  44.9540094  59.6105913  23.2988736
  45.8999199  59.4812121  23.3677154  44.5754339  58.8720575  23.7758164
  50.9261979  51.2761919  33.2615628  50.7286800  50.9677007  34.1458960
  51.5361684  52.0023558  33.3913558  43.1383011  57.5355889  23.2343622
  42.2314467  57.2389002  23.3106335  43.4158992  57.2385707  22.3677908
  34.0560952  58.8562253  33.6842668  33.7363736  58.0027561  33.3917042
  33.5094380  59.0710831  34.4400635  37.8340859  61.5724694  37.4012174
  38.0526869  62.5041802  37.4200208  38.2466633  61.2132668  38.1866978
  44.7545077  52.0792779  29.3887863  43.9445806  51.7339864  29.7643109
  45.4429494  51.7700323  29.9775474  46.6835625  51.1570826  31.0112159
  47.2366664  51.5766279  31.6702183  46.9205712  50.2306574  31.0535115
  41.9081796  54.3942825  23.3755601  42.7700960  54.7197723  23.6351418
  42.0932140  53.6074320  22.8628666  33.9249212  62.4765164  35.6535789
  33.2312683  62.0619117  35.1405744  34.6722203  62.5185701  35.0569208
  50.0614433  53.2671351  30.5190824  49.4813102  53.9256155  30.1368876
  49.7950365  52.4448696  30.1078241  48.5117999  52.6676409  32.7212144
  49.0117777  52.7792943  31.9126463  49.1553607  52.3637462  33.3612952
  35.8385954  62.4083418  33.5301804  35.8156642  62.5071105  32.5783687
  36.1486591  63.2548569  33.8518970  38.4973332  64.4659573  37.6448419
  39.4516586  64.4343515  37.5778350  38.2985856  64.0050197  38.4598645
  39.0872714  63.0360689  40.2119216  39.9065603  63.5304768  40.2354054
  39.3609522  62.1192657  40.1836784  48.8439311  55.4271441  29.5747172
  47.9565166  55.7121092  29.3567367  49.2593300  55.2665205  28.7274449
  52.1953847  55.4517962  33.2901511  52.9714237  55.9414415  33.5626128
  51.4701981  55.8776017  33.7473381  36.8523561  70.0079193  34.6618617
  36.7178029  69.2479593  34.0956615  36.4355623  70.7320092  34.1947406
  47.9882524  65.1916116  23.6695192  48.6918374  65.3966119  24.2852848
  47.2645173  65.7592878  23.9344275  40.0092687  70.9048510  34.8737059
  39.8925071  71.8493942  34.7715750  39.1885133  70.6022071  35.2622859
  49.8969221  65.6298645  25.7193652  50.7314825  65.1979844  25.5371127
  49.7353564  65.4580659  26.6470546  49.5515114  62.1330759  27.0849991
  49.4963917  61.9675030  26.1438435  48.9261169  62.8406791  27.2412181
  34.3407629  57.3698823  40.9111414  34.9866492  56.8597777  41.3998639
  34.1324780  58.1067505  41.4854839  42.8611239  51.6338868  26.6635310
  42.8489909  52.5780707  26.8203581  43.7534661  51.4509013  26.3694771
  41.0347201  71.5576771  38.0892988  41.9374448  71.5900382  38.4059483
  40.8084571  70.6277222  38.1039324  42.7900803  70.3107758  34.7503066
  41.8396434  70.3109620  34.6367439  43.0933289  69.5640493  34.2339101
  46.6763359  48.2281644  30.9181246  45.9095754  47.6740131  31.0637929
  47.0874064  48.3003513  31.7795398  58.5253497  76.1468296  35.8148829
  59.1631906  76.0275044  35.1112169  58.4074339  77.0949140  35.8736781
  55.3343203  76.0995724  35.7510353  54.9961714  75.9836789  34.8630888
  56.2032971  75.6986890  35.7311360  51.1930019  77.9531201  31.7407244
  50.6294884  77.8621138  30.9723532  51.0782414  77.1331105  32.2209737
  55.8162986  77.2530576  41.7096559  55.8051627  76.8583374  40.8377063
  55.9783625  76.5196649  42.3030330  48.7394450  79.4482392  34.5791465
  49.5315742  79.1073217  34.1637764  48.9791101  79.5577368  35.4993618
  56.7729577  81.6202169  27.0521709  56.1217557  82.2056249  26.6655723
  57.5673940  82.1508364  27.1116747  50.6985204  78.7091306  27.4508844
  51.4716080  78.1620293  27.3121719  51.0510603  79.5735555  27.6623305
  52.5370247  80.0367688  40.6575743  52.2460113  80.9413319  40.5422409
  53.1727231  80.0784216  41.3719813  53.4626454  77.4144537  37.2477103
  54.0590026  77.1900559  36.5334066  53.5201425  76.6729282  37.8502550
  53.0351482  74.8683972  25.0827294  53.2877003  74.3465493  24.3210757
  52.0976041  74.7050117  25.1853977  58.0794765  73.8719750  32.8902037
  58.8657854  73.4539173  32.5392454  58.3433469  74.7765842  33.0583685
  58.2504842  79.3092601  27.5890694  57.6150675  79.3827227  28.3011598
  57.9202249  79.8986199  26.9109773  52.7547771  76.7712078  27.2851669
  52.6384029  76.0956981  27.9532753  52.8650031  76.2844452  26.4683822
  55.0979312  76.2322225  30.9898358  54.7337519  75.7052846  31.7011279
  55.9546428  75.8420694  30.8164843  54.7384799  71.2612125  25.9859706
  54.9059201  72.1292361  26.3530177  54.5481968  71.4239406  25.0620996
  57.4960132  79.7229104  37.6525537  57.1960855  80.6254142  37.5441344
  57.1511192  79.4561287  38.5046690  50.9472614  76.1742900  33.6862241
  50.0223110  76.0419114  33.8939933  51.1957027  76.9537120  34.1832183
  54.7174020  73.7169782  26.9706373  54.5973645  74.1626833  27.8091853
  54.0226608  74.0655100  26.4119911  48.3081425  75.8176174  34.5206030
  48.4373806  76.0710653  35.4345442  47.6278876  76.4103882  34.2010685
  52.4780912  86.4873424  30.6196504  52.4004942  87.4381249  30.6984985
  51.8742555  86.1419296  31.2771431  54.9698142  73.6601289  43.2757871
  54.1931476  74.2195209  43.2660736  55.6088705  74.1458072  43.7972741
  60.4159086  74.1891255  27.7986707  61.3276942  74.4218642  27.6234405
  59.9068733  74.7728300  27.2361786  53.2244514  76.4686743  42.8375838
  53.9659198  77.0071787  42.5610662  52.5181499  77.0953031  42.9947390
  58.6999854  78.6115883  41.4348000  59.1083210  78.1698294  40.6902632
  57.9777115  78.0368511  41.6882193  55.0530924  73.5488490  38.8081557
  55.8992119  73.9727903  38.9516206  54.9929561  72.8922114  39.5020120
  59.0228668  79.1717074  35.1900289  58.3937531  79.3362788  34.4876356
  58.6354330  79.5858683  35.9611253  62.9017900  80.1071512  32.5444652
  62.2168938  80.4870413  31.9941686  62.9861749  80.7166838  33.2776600
  58.2030369  71.2092858  40.4662730  57.9591301  71.9634919  39.9297006
  58.4790299  71.5878206  41.3009977  60.1568832  77.7531471  39.1439996
  60.3685727  78.3963231  38.4674377  60.1098580  76.9193787  38.6761926
  57.7595061  70.3649291  36.0476568  56.8979540  70.6630545  36.3393306
  57.7857495  70.5819690  35.1157601  54.5756630  78.9091482  32.4550374
  55.0394976  79.1879185  31.6654996  54.3113428  78.0074926  32.2723464
  51.4680711  78.4562963  35.3930137  52.0382068  78.8850232  34.7547621
  52.0588823  78.1745548  36.0914323  53.5125516  75.0314634  29.2639939
  54.2149559  75.4835678  29.7313865  53.1806145  74.3898453  29.8919832
  51.9605878  73.6226391  43.6391148  51.3304538  74.3042672  43.8726545
  51.8541966  73.5109472  42.6944286  47.2550850  73.2898187  34.5657072
  46.4649904  73.5455715  34.0897183  47.7462097  74.1046525  34.6709113
  61.2714660  80.6303426  37.3162353  62.0932103  80.2283613  37.0345035
  61.2677063  80.5271660  38.2678469  49.2065595  73.6542766  31.5240549
  48.4096759  73.7661460  32.0424045  48.9791188  73.9929418  30.6581440
  55.0371263  80.1787469  39.4723064  55.1015696  80.6407877  40.3081236
  54.3282187  79.5484834  39.6005374  45.5388553  73.5428677  36.9972063
  45.7896591  74.4275687  37.2629639  46.0748101  73.3633279  36.2247155
  69.3620653  76.9742175  33.6647325  68.6084361  76.4049573  33.5091329
  69.4968194  76.9404839  34.6117959  54.7519281  81.8455577  29.3402044
  54.6164956  82.6907113  29.7686892  55.2929093  82.0474854  28.5767978
  51.2386620  67.9247157  46.0016399  50.8453566  67.3713355  46.6764044
  52.0552761  68.2357735  46.3922917  48.2048678  79.3631015  29.9129969
  48.7173199  80.1574265  30.0635534  48.8571391  78.6657305  29.8463571
  50.0143563  82.4796771  31.9952722  50.1910191  83.4014736  31.8073706
  50.8100396  82.1655190  32.4247102  54.1554581  69.3405036  43.5936656
  54.8964295  69.9412189  43.5141118  54.3872504  68.5982674  43.0354698
  49.2995919  74.5261403  41.8714886  49.1849435  73.6246660  42.1721984
  48.4440437  74.7725100  41.5199702  56.3787757  82.4679143  43.4702386
  55.9351611  81.6815522  43.1523291  57.0404971  82.6558294  42.8046277
  51.1374878  83.9974945  37.9963065  51.6882303  83.8692008  37.2240059
  50.2986354  84.2969834  37.6457957  58.4768995  82.7481943  41.4983787
  58.4587471  83.5690824  41.0064057  59.3988915  82.6236018  41.7233929
  54.9342049  80.2626073  42.3407296  55.4670386  79.5014361  42.1106604
  54.4056130  79.9699725  43.0831450  46.1697595  77.6919669  30.6889540
  47.0072817  78.1016678  30.4723247  46.3475863  76.7519111  30.6589734
  58.0662027  75.3594750  26.3773373  57.5508650  76.1299354  26.6161760
  57.7939335  74.6859886  27.0006434  55.6509138  70.2044451  31.4358611
  54.7950734  69.8151301  31.2564250  56.0636090  70.2836411  30.5758397
  57.1808285  67.7390794  35.8350171  56.6773080  67.7020929  35.0217976
  57.4738892  68.6483537  35.8946827  53.4251171  67.8229524  34.8416353
  54.2904167  67.6272332  34.4822242  53.4928679  67.5939875  35.7685709
  63.0396301  78.1127104  28.3126546  62.2625744  77.7738264  27.8681708
  63.7187782  78.1179728  27.6381511  57.8548330  73.2321842  28.2033154
  57.5498466  73.5467991  29.0543297  58.8078772  73.3103262  28.2460487
  56.2994762  79.3912065  29.8526108  55.7716124  78.6564825  29.5399345
  55.7982265  80.1686742  29.6066076  61.2787608  77.5861086  34.9693154
  60.6211283  78.2760347  35.0573283  62.0828007  77.9757518  35.3127140
  51.0313490  70.0531732  32.2132719  51.6057242  69.8306913  31.4805912
  51.6184472  70.1220426  32.9661321  60.0893067  75.9405458  33.0197096
  60.6024949  76.5735450  33.5218806  60.7394291  75.3406654  32.6540456
  51.3583077  72.0836193  26.2328605  50.5220389  72.4210879  26.5537879
  51.2187846  71.9485172  25.2955742  53.3336157  66.9272980  30.9407789
  52.6800570  66.6121998  30.3164404  53.2916632  66.3048721  31.6667612
  54.4447362  77.2092275  22.8561081  53.5374424  76.9781529  23.0552230
  54.9418394  76.4129895  23.0435062  57.3515441  85.9189783  25.7757767
  56.6777140  86.2221479  26.3842725  57.7381263  86.7218863  25.4263224
  56.5673898  73.4154914  35.2655436  55.6496459  73.6369861  35.1077124
  56.9834041  73.4901224  34.4067144  57.3508945  74.8146330  30.3958117
  58.0980764  75.3267727  30.0865239  57.6200535  74.4930382  31.2562510
  55.6235596  77.3104870  27.3785071  54.7146815  77.0263903  27.4757541
  55.6530679  77.7303949  26.5188378  60.8554863  80.9211460  31.1476238
  60.4017190  80.0802370  31.2041429  60.2248830  81.5572858  31.4851019
  59.2987802  82.7587957  32.0826057  59.5910777  83.3193014  31.3638422
  59.8086423  83.0516518  32.8379216  46.1923766  75.0310384  31.3600273
  45.9948166  74.4379745  30.6351340  45.6370430  74.7262595  32.0776212
  54.1720490  74.9233491  33.4794866  54.2269099  73.9707327  33.4037343
  53.3611692  75.0792930  33.9636165  55.3211683  78.8513614  24.7173149
  54.8831113  78.1349473  24.2578787  56.0622124  79.0789729  24.1558241
  52.1112850  73.5410551  31.2385245  51.2980715  73.8404721  31.6450437
  52.6071844  73.1466239  31.9559727  54.2621428  83.5368308  33.1719510
  54.2197606  83.7629154  32.2428042  55.1784126  83.3031682  33.3205311
  57.7087061  74.0052375  40.0700139  58.0636449  74.2323848  40.9294605
  58.3559193  74.3370752  39.4477394  63.4384798  77.1270811  30.7749468
  63.3002697  77.3172407  29.8470657  63.0821017  77.8890194  31.2317519
  51.6026924  71.1128906  36.8546480  52.2426304  70.9717665  36.1569443
  50.7704455  70.8263420  36.4785082  63.4654178  79.1947338  35.7860740
  63.8990685  79.1022627  36.6343794  64.1785759  79.1704839  35.1480756
  52.3787228  80.4131337  32.9681473  53.1727827  79.9181657  32.7664048
  51.6678921  79.8849200  32.6049178  57.1982073  82.7949432  37.3193840
  57.2519095  83.3640369  38.0871556  56.3296854  82.9651317  36.9547877
  48.6869992  74.5574418  29.0441225  47.7567580  74.4958874  29.2611187
  48.7827464  74.0350371  28.2477866  48.6055541  71.0829231  31.6319467
  48.8662358  71.9974564  31.5228627  49.4272713  70.6153674  31.7816080
  50.0780466  72.4966988  38.8018291  50.7503520  72.2884351  38.1530940
  49.2510253  72.2989074  38.3623524  64.3269727  79.2371039  38.3193625
  64.5205618  80.1416849  38.5652900  64.2270346  78.7778458  39.1532210
  55.9806038  69.1228929  40.8183952  55.3333953  69.8218879  40.7248429
  56.7507054  69.5565073  41.1860200  59.3884836  79.3877781  43.8934506
  59.2370343  79.1588333  42.9764589  59.3789516  80.3448383  43.9065851
  56.1570173  76.9609694  38.8780772  57.0862233  77.1120854  38.7049739
  55.7361203  77.0493715  38.0229419  54.9558504  80.9860359  36.6479310
  54.8169590  80.6179143  37.5205248  54.1673101  81.5007998  36.4763267
  55.5506656  86.0869455  27.9904846  55.7258412  85.6157498  28.8050469
  54.8639444  86.7135221  28.2186107  56.5063719  80.3641961  34.0368147
  56.1713552  80.3242731  34.9325797  56.0067665  79.6986677  33.5638558
  50.4807963  75.7709591  39.5620729  50.3427761  75.0389830  40.1632268
  51.3912887  75.6818491  39.2804916  59.4422911  77.7097996  24.3105207
  58.8252082  76.9844824  24.2138260  58.9739400  78.4707356  23.9672281
  53.1090264  75.4829551  39.0504408  53.8189883  74.8422743  39.0091027
  53.0659572  75.7342446  39.9730589  61.0977043  82.4196904  41.9710987
  61.0389589  81.7356124  41.3041570  61.4996561  83.1615894  41.5191613
  51.8219198  72.4694769  40.8700048  51.2856555  72.0185507  41.5221644
  51.2335906  72.6040677  40.1270512  50.1167742  89.2358818  34.7644706
  50.3564340  89.8677342  35.4423725  49.2736938  88.8846858  35.0510066
  51.2321457  71.9283420  23.4326511  50.3550923  71.8072221  23.0688758
  51.7079210  71.1369498  23.1805400  61.0994450  80.3836488  40.2024967
  60.2121229  80.0462410  40.3251366  61.6693001  79.6519519  40.4393733
  42.7523597  76.7160580  33.5268019  43.4394637  76.4022310  32.9389034
  42.5971726  77.6201944  33.2535270  47.5558319  71.6050776  37.9553042
  47.4716508  70.9976446  37.2203452  46.7341026  72.0959795  37.9562539
  54.6295603  85.0437940  37.1686210  54.5565775  85.8492912  37.6805515
  54.1872997  85.2429906  36.3434232  54.4185383  84.2809710  30.6789032
  53.6352905  84.8231391  30.7727256  55.1178128  84.7983690  31.0783273
  65.5811791  75.7944705  34.9641529  65.5701667  76.6769421  34.5935462
  64.7129170  75.4416256  34.7696066  57.0894287  84.9424774  39.3244369
  57.8022259  85.5772239  39.2520270  56.5984316  85.0388640  38.5084371
  58.8111814  78.8476027  30.8961661  57.8768093  78.9677489  30.7266365
  58.9888482  77.9448494  30.6321670  54.3117002  72.2321723  33.0494922
  53.9414789  71.6792763  33.7375827  54.8076094  71.6279856  32.4969922
  62.1984365  74.6893346  31.4311695  62.6644817  75.5221338  31.3571997
  62.6491866  74.2238328  32.1356953  52.1406200  82.6919218  40.1449940
  52.8415660  83.3255701  40.2979334  51.6701315  83.0333949  39.3845579
  60.2660596  81.0337168  28.4297847  60.5420440  80.9193762  29.3391721
  59.3965095  80.6354652  28.3910020  59.9407486  75.2463825  37.9702490
  59.2878937  75.4939733  37.3154943  60.3187866  74.4327963  37.6364967
  56.9014660  85.2823518  32.0730660  57.0837055  84.4645174  32.5358413
  57.7247646  85.4991211  31.6355550  57.2356826  84.2091704  29.3345709
  57.7644592  83.6984158  28.7215871  57.4985045  83.8934234  30.1991242
  55.9895059  75.9883636  44.4568527  55.3135696  75.8877766  45.1270902
  56.8122693  75.8322850  44.9204524  47.7373919  82.2255573  37.0781042
  48.3227355  81.4799261  37.2108947  47.5398757  82.5359530  37.9617706
  50.5912574  85.2606820  32.0943485  49.9222949  85.7452948  31.6107525
  50.4525443  85.5076041  33.0086863  42.3291573  74.7961173  35.7985486
  42.3675673  74.2624764  36.5922604  41.8231866  74.2696379  35.1796463
  54.7317842  87.2950564  38.6926143  55.2836150  87.4582185  39.4575228
  55.0724036  87.8855002  38.0206168  49.7082336  69.6425714  39.2948028
  49.7723662  70.5040544  38.8825426  49.6449456  69.0299715  38.5620386
  49.1834608  71.7148846  42.9421062  49.8106647  71.3325923  43.5558587
  48.3262527  71.4963048  43.3076755  59.5828717  82.1211821  44.5474798
  60.1268621  82.7341780  44.0529752  59.0015562  82.6791400  45.0641811
  45.9600151  73.5225275  28.8739417  46.2553592  72.6135954  28.8206471
  45.0588187  73.5013015  28.5520419  57.8686230  85.2432539  35.6789825
  57.7437369  84.4422279  35.1700771  58.5265321  85.7378733  35.1903795
  49.4894398  71.5981272  34.8566966  48.7680984  72.2117240  34.7174439
  50.2787654  72.1339037  34.7783612  59.9321138  83.0441559  37.3069375
  58.9851474  82.9246911  37.2347702  60.2803911  82.1564057  37.3895637
  52.2920711  68.9335698  41.1307617  52.8155113  69.1797995  41.8933927
  52.0733045  69.7655733  40.7110755  47.6887992  71.2039373  28.9978742
  47.3600699  70.3236752  28.8153848  48.0427363  71.1487042  29.8855131
  56.9367571  82.8394276  33.5073728  56.7892534  81.9110983  33.6881298
  57.7621065  82.8614366  33.0230803  50.8029816  71.4912343  29.3654220
  51.1425888  72.0198264  28.6432828  51.2501936  71.8292749  30.1412786
  60.5401693  83.6622834  34.5938600  61.4648241  83.4565696  34.4563052
  60.3716997  83.4139235  35.5027942  53.4973256  69.8749393  38.8157288
  53.1570077  69.0757206  39.2177968  52.7912263  70.1751104  38.2434121
  54.1489728  66.9598706  37.2684611  54.9715798  66.4859184  37.1463501
  54.3927792  67.7389190  37.7683297  52.7897963  69.9886964  27.5647513
  53.5106325  70.3668217  27.0611229  52.1663267  70.7075841  27.6682491
  56.9329086  70.6932113  28.5005845  57.1492700  71.5756751  28.1994673
  56.4523153  70.3018327  27.7711487  51.6728307  73.6517826  35.0776590
  51.5272888  73.9658130  35.9700871  51.1953511  74.2702727  34.5247488
  53.5324690  70.6420374  35.1257479  53.5186259  69.7461468  34.7889777
  54.2497118  70.6491038  35.7595765  55.3850821  71.0757715  37.1710607
  55.1268598  71.9974785  37.1694937  54.8535861  70.6788149  37.8611071
  60.3297009  84.1808502  29.9500692  60.5033887  83.6154924  29.1974544
  60.8225901  84.9809397  29.7680182  46.1473969  76.1923171  38.0164251
  45.6027437  76.9682979  38.1484525  47.0253319  76.5393975  37.8583372
  52.9361586  69.5234755  30.3945049  53.0577497  68.5951401  30.5935937
  52.6463628  69.5373441  29.4823365  55.8052776  67.2089665  33.5311769
  55.8274473  67.2728998  32.5763749  56.2220835  66.3694174  33.7252275
  66.1836401  76.9444925  31.5690992  66.6267547  76.1952250  31.1710115
  65.3062911  76.9355061  31.1864724  61.3172182  83.4975266  27.0497590
  62.0123086  84.1181959  27.2684905  61.6595332  82.6470617  27.3249968
  46.9339991  75.3193067  40.9094408  46.1921727  75.4675702  41.4959038
  46.6132735  75.5801333  40.0461157  63.2163605  80.9474972  28.5784921
  63.7414929  81.2862244  27.8534241  63.1285958  80.0121987  28.3948056
  54.8783654  84.8609045  40.7074798  55.1870780  84.6158192  41.5797497
  55.6759136  85.0655684  40.2193668  54.9004266  87.0146955  32.9380174
  54.4609256  86.5223334  33.6313031  55.6512383  86.4719923  32.6972249
  47.3796605  83.2058496  32.9404802  48.2054625  82.9062268  32.5603446
  47.0290657  82.4366118  33.3894591  52.3478138  82.5584964  35.0102476
  51.7258147  81.8955669  34.7104704  53.0183005  82.5846096  34.3276124
  45.5805210  81.1244822  33.8993736  44.7437118  80.6966997  33.7177737
  45.5528855  81.3177266  34.8364527  52.4202665  71.0366752  44.6034982
  52.4690821  71.9128875  44.2212751  52.9625180  70.4944145  44.0306625
  62.9057511  81.5807875  43.8836119  62.1153055  81.5632014  43.3440618
  62.6690866  82.1196169  44.6385156  63.0255386  78.4300342  41.1968847
  63.0753391  78.2650349  42.1384370  62.9169309  77.5627601  40.8066728
  51.9091645  81.1088887  28.4860936  52.0579765  81.7924352  27.8327609
  52.7158088  81.0893977  29.0010392  60.3159148  74.4131270  42.5128154
  61.2169011  74.2737735  42.2212152  60.3907123  74.5785725  43.4526332
  54.6501954  71.7898125  41.3581340  53.7805263  72.0831691  41.0863929
  54.8861434  72.3738570  42.0788604  64.5273583  80.8497283  41.4410869
  64.2358391  81.2127264  42.2774330  63.9145714  80.1364292  41.2624201
  65.7269265  78.4150163  33.9613439  66.5616157  78.8539967  34.1251000
  65.8628394  77.9388816  33.1421685  62.7760771  75.9729898  39.9090927
  63.2514893  76.1657544  39.1009778  61.8526337  76.0289084  39.6634311
  49.6644278  77.1354065  29.4922005  49.4190320  76.2316395  29.6902215
  49.8340192  77.1371216  28.5501483  48.9339925  72.8682423  26.9908167
  48.2409170  72.9426778  26.3348203  48.6891677  72.1042766  27.5129684
  55.4087050  83.6037018  25.9572684  54.8361017  84.2227205  25.5043156
  55.9819844  84.1536380  26.4912606  58.6284310  83.8874168  27.0881266
  59.5614983  83.8219730  27.2914142  58.5407523  84.7230435  26.6295799
  61.2572327  83.2040038  24.0485214  61.1785958  82.8699902  24.9420972
  62.0781994  83.6961806  24.0476686  63.9550518  76.0701778  37.2561532
  63.9226838  75.1317778  37.4421216  64.5651142  76.1485814  36.5227357
  55.7933849  74.9397831  23.2988736  56.7392954  74.8104039  23.3677154
  55.4148094  74.2012493  23.7758164  69.7727068  77.1317784  36.3967569
  70.5030456  76.8703073  36.9575272  69.1634013  76.3946506  36.4369637
  55.6772541  78.9915577  44.7589393  56.5975551  79.1694176  44.9529440
  55.6422124  78.0471622  44.6069093  53.9776766  72.8647807  23.2343622
  53.0708221  72.5680920  23.3106335  54.2552747  72.5677625  22.3677908
  44.8954706  74.1854170  33.6842668  44.5757491  73.3319479  33.3917042
  44.3488135  74.4002749  34.4400635  48.6734614  76.9016611  37.4012174
  48.8920624  77.8333719  37.4200208  49.0860388  76.5424586  38.1866978
  55.5938832  67.4084697  29.3887863  54.7839560  67.0631782  29.7643109
  56.2823249  67.0992240  29.9775474  53.5462479  72.4749817  46.7914923
  53.4459206  73.4244174  46.7227014  53.3284021  72.1468056  45.9190993
  52.7475551  69.7234742  23.3755601  53.6094715  70.0489641  23.6351418
  52.9325895  68.9366238  22.8628666  44.7642966  77.8057082  35.6535789
  44.0706438  77.3911035  35.1405744  45.5115957  77.8477618  35.0569208
  53.4093749  75.9046956  45.6079985  52.9260831  76.7047316  45.8143874
  53.4954688  75.9154901  44.6547429  46.6779709  77.7375336  33.5301804
  46.6550397  77.8363023  32.5783687  46.9880345  78.5840486  33.8518970
  49.3367087  79.7951491  37.6448419  50.2910340  79.7635433  37.5778350
  49.1379610  79.3342114  38.4598645  49.9266469  78.3652607  40.2119216
  50.7459358  78.8596685  40.2354054  50.2003277  77.4484575  40.1836784
  47.6917316  85.3371110  34.6618617  47.5571783  84.5771511  34.0956615
  47.2749378  86.0612010  34.1947406  58.8276279  80.5208034  23.6695192
  59.5312129  80.7258036  24.2852848  58.1038927  81.0884796  23.9344275
  59.6574089  76.2717895  29.7897462  59.6009290  76.7286446  28.9505095
  60.2102431  75.5108580  29.6120305  50.8486441  86.2340427  34.8737059
  50.7318826  87.1785860  34.7715750  50.0278888  85.9313989  35.2622859
  60.7362976  80.9590563  25.7193652  61.5708580  80.5271761  25.5371127
  60.5747319  80.7872577  26.6470546  60.3908868  77.4622676  27.0849991
  60.3357672  77.2966948  26.1438435  59.7654923  78.1698709  27.2412181
  45.1801383  72.6990741  40.9111414  45.8260247  72.1889695  41.3998639
  44.9718534  73.4359422  41.4854839  57.7054775  79.7671588  46.4103554
  58.5745935  79.9412240  46.0490189  57.2261527  80.5866005  46.2879283
  53.7004994  66.9630785  26.6635310  53.6883663  67.9072625  26.8203581
  54.5928415  66.7800931  26.3694771  51.8740956  86.8868689  38.0892988
  52.7768202  86.9192299  38.4059483  51.6478326  85.9569140  38.1039324
  53.6294558  85.6399676  34.7503066  52.6790189  85.6401537  34.6367439
  53.9327044  84.8932410  34.2339101  49.5198874  69.8458358  45.0086428
  50.3830336  69.4895163  45.2189752  48.9464285  69.5072253  45.6961832
  69.3647251  91.4760214  35.8148829  70.0025661  91.3566961  35.1112169
  69.2468094  92.4241058  35.8736781  66.1736957  91.4287642  35.7510353
  65.8355469  91.3128707  34.8630888  67.0426726  91.0278807  35.7311360
  62.0323773  93.2823119  31.7407244  61.4688638  93.1913056  30.9723532
  61.9176168  92.4623023  32.2209737  66.6556740  92.5822494  41.7096559
  66.6445381  92.1875292  40.8377063  66.8177380  91.8488567  42.3030330
  59.5788205  94.7774310  34.5791465  60.3709497  94.4365135  34.1637764
  59.8184855  94.8869285  35.4993618  67.6123332  96.9494086  27.0521709
  66.9611311  97.5348167  26.6655723  68.4067695  97.4800281  27.1116747
  61.5378959  94.0383223  27.4508844  62.3109835  93.4912211  27.3121719
  61.8904358  94.9027473  27.6623305  63.3764001  95.3659606  40.6575743
  63.0853867  96.2705237  40.5422409  64.0120986  95.4076133  41.3719813
  64.3020208  92.7436454  37.2477103  64.8983781  92.5192477  36.5334066
  64.3595180  92.0021200  37.8502550  63.8745237  90.1975890  25.0827294
  64.1270757  89.6757411  24.3210757  62.9369796  90.0342035  25.1853977
  68.9188520  89.2011668  32.8902037  69.7051609  88.7831091  32.5392454
  69.1827224  90.1057760  33.0583685  69.0898597  94.6384518  27.5890694
  68.4544430  94.7119145  28.3011598  68.7596003  95.2278117  26.9109773
  74.3196947  89.1386901  33.7935015  75.0522119  88.5686118  34.0272845
  73.5636302  88.7508502  34.2341521  63.5941525  92.1003996  27.2851669
  63.4777784  91.4248899  27.9532753  63.7043785  91.6136369  26.4683822
  65.9373066  91.5614143  30.9898358  65.5731274  91.0344764  31.7011279
  66.7940182  91.1712612  30.8164843  71.8422367  82.8508475  38.2529624
  71.5105692  83.7203886  38.0290839  71.2467980  82.5344759  38.9323654
  65.5778553  86.5904042  25.9859706  65.7452956  87.4584279  26.3530177
  65.3875722  86.7531324  25.0620996  68.3353887  95.0521021  37.6525537
  68.0354610  95.9546060  37.5441344  67.9904946  94.7853204  38.5046690
  61.7866368  91.5034818  33.6862241  60.8616864  91.3711032  33.8939933
  62.0350781  92.2829037  34.1832183  71.7351030  87.5703561  35.3322974
  70.8267908  87.5018970  35.0381735  71.6838626  88.0475506  36.1604799
  65.5567774  89.0461700  26.9706373  65.4367399  89.4918751  27.8091853
  64.8620363  89.3947017  26.4119911  59.1475179  91.1468092  34.5206030
  59.2767560  91.4002571  35.4345442  58.4672630  91.7395800  34.2010685
  63.3174666 101.8165342  30.6196504  63.2398696 102.7673167  30.6984985
  62.7136310 101.4711214  31.2771431  65.8091896  88.9893207  43.2757871
  65.0325230  89.5487127  43.2660736  66.4482459  89.4749990  43.7972741
  73.6012677  85.7720000  37.1100848  72.9587057  86.0652533  36.4640642
  73.0967605  85.6572920  37.9154045  71.2552840  89.5183173  27.7986707
  72.1670696  89.7510560  27.6234405  70.7462487  90.1020217  27.2361786
  64.0638268  91.7978660  42.8375838  64.8052953  92.3363704  42.5610662
  63.3575254  92.4244949  42.9947390  69.5393608  93.9407801  41.4348000
  69.9476964  93.4990211  40.6902632  68.8170870  93.3660428  41.6882193
  65.8924678  88.8780408  38.8081557  66.7385873  89.3019821  38.9516206
  65.8323316  88.2214032  39.5020120  69.8622423  94.5008991  35.1900289
  69.2331285  94.6654706  34.4876356  69.4748085  94.9150601  35.9611253
  73.7411655  95.4363429  32.5444652  73.0562693  95.8162331  31.9941686
  73.8255504  96.0458756  33.2776600  69.0424123  86.5384776  40.4662730
  68.7985055  87.2926836  39.9297006  69.3184054  86.9170124  41.3009977
  70.9962586  93.0823388  39.1439996  71.2079481  93.7255148  38.4674377
  70.9492334  92.2485705  38.6761926  68.5988815  85.6941209  36.0476568
  67.7373294  85.9922463  36.3393306  68.6251250  85.9111608  35.1157601
  65.4150385  94.2383400  32.4550374  65.8788730  94.5171103  31.6654996
  65.1507183  93.3366844  32.2723464  62.3074466  93.7854881  35.3930137
  62.8775823  94.2142149  34.7547621  62.8982577  93.5037466  36.0914323
  64.3519271  90.3606552  29.2639939  65.0543314  90.8127596  29.7313865
  64.0199899  89.7190371  29.8919832  62.7999632  88.9518309  43.6391148
  62.1698293  89.6334589  43.8726545  62.6935720  88.8401390  42.6944286
  58.0944605  88.6190105  34.5657072  57.3043659  88.8747633  34.0897183
  58.5855852  89.4338442  34.6709113  72.1108414  95.9595344  37.3162353
  72.9325858  95.5575531  37.0345035  72.1070817  95.8563578  38.2678469
  60.0459350  88.9834684  31.5240549  59.2490513  89.0953378  32.0424045
  59.8184942  89.3221336  30.6581440  65.8765018  95.5079387  39.4723064
  65.9409450  95.9699794  40.3081236  65.1675941  94.8776752  39.6005374
  56.3782308  88.8720595  36.9972063  56.6290346  89.7567605  37.2629639
  56.9141856  88.6925197  36.2247155  80.2014407  92.3034092  33.6647325
  79.4478116  91.7341490  33.5091329  80.3361948  92.2696757  34.6117959
  65.5913035  97.1747495  29.3402044  65.4558710  98.0199030  29.7686892
  66.1322848  97.3766772  28.5767978  62.0780375  83.2539074  46.0016399
  61.6847320  82.7005273  46.6764044  62.8946515  83.5649653  46.3922917
  59.0442433  94.6922933  29.9129969  59.5566953  95.4866183  30.0635534
  59.6965145  93.9949223  29.8463571  60.8537317  97.8088689  31.9952722
  61.0303946  98.7306654  31.8073706  61.6494151  97.4947108  32.4247102
  64.9948336  84.6696953  43.5936656  65.7358049  85.2704107  43.5141118
  65.2266259  83.9274591  43.0354698  60.1389674  89.8553321  41.8714886
  60.0243189  88.9538578  42.1721984  59.2834192  90.1017017  41.5199702
  67.2181512  97.7971061  43.4702386  66.7745366  97.0107440  43.1523291
  67.8798725  97.9850212  42.8046277  61.9768633  99.3266863  37.9963065
  62.5276058  99.1983926  37.2240059  61.1380109  99.6261752  37.6457957
  69.3162750  98.0773861  41.4983787  69.2981225  98.8982742  41.0064057
  70.2382670  97.9527936  41.7233929  65.7735804  95.5917990  42.3407296
  66.3064141  94.8306279  42.1106604  65.2449885  95.2991642  43.0831450
  68.9405499  80.6978056  37.8700938  68.5969768  81.5879698  37.7940048
  69.3084461  80.5079714  37.0070523  57.0091349  93.0211587  30.6889540
  57.8466571  93.4308595  30.4723247  57.1869617  92.0811029  30.6589734
  68.9055782  90.6886667  26.3773373  68.3902405  91.4591272  26.6161760
  68.6333090  90.0151804  27.0006434  66.4902893  85.5336368  31.4358611
  65.6344489  85.1443219  31.2564250  66.9029844  85.6128329  30.5758397
  68.0202039  83.0682712  35.8350171  67.5166835  83.0312847  35.0217976
  68.3132646  83.9775454  35.8946827  64.2644925  83.1521441  34.8416353
  65.1297922  82.9564250  34.4822242  64.3322434  82.9231793  35.7685709
  73.8790056  93.4419022  28.3126546  73.1019498  93.1030182  27.8681708
  74.5581537  93.4471645  27.6381511  68.6942085  88.5613760  28.2033154
  68.3892220  88.8759909  29.0543297  69.6472527  88.6395179  28.2460487
  67.1388517  94.7203983  29.8526108  66.6109878  93.9856742  29.5399345
  66.6376019  95.4978659  29.6066076  72.1181363  92.9153003  34.9693154
  71.4605037  93.6052265  35.0573283  72.9221762  93.3049435  35.3127140
  61.8707244  85.3823649  32.2132719  62.4450996  85.1598831  31.4805912
  62.4578227  85.4512344  32.9661321  70.9286821  91.2697376  33.0197096
  71.4418703  91.9027368  33.5218806  71.5788045  90.6698572  32.6540456
  62.1976831  87.4128110  26.2328605  61.3614144  87.7502797  26.5537879
  62.0581601  87.2777090  25.2955742  64.1729912  82.2564898  30.9407789
  63.5194324  81.9413915  30.3164404  64.1310386  81.6340639  31.6667612
  65.2841117  92.5384193  22.8561081  64.3768178  92.3073447  23.0552230
  65.7812149  91.7421812  23.0435062  68.1909196 101.2481700  25.7757767
  67.5170894 101.5513397  26.3842725  68.5775018 102.0510781  25.4263224
  67.4067652  88.7446832  35.2655436  66.4890214  88.9661779  35.1077124
  67.8227796  88.8193142  34.4067144  68.1902700  90.1438247  30.3958117
  68.9374519  90.6559645  30.0865239  68.4594290  89.8222300  31.2562510
  66.4629350  92.6396788  27.3785071  65.5540569  92.3555821  27.4757541
  66.4924434  93.0595867  26.5188378  71.6948618  96.2503378  31.1476238
  71.2410945  95.4094287  31.2041429  71.0642584  96.8864776  31.4851019
  70.6381537  87.1795364  32.3776906  69.9004294  86.6672750  32.7087149
  70.8908311  86.7395745  31.5660183  70.1381557  98.0879874  32.0826057
  70.4304531  98.6484931  31.3638422  70.6480177  98.3808435  32.8379216
  70.7393164  79.9571616  32.9718675  71.0452041  79.0968979  32.6844590
  71.4645769  80.5489236  32.7717669  57.0317521  90.3602302  31.3600273
  56.8341920  89.7671663  30.6351340  56.4764185  90.0554512  32.0776212
  65.0114244  90.2525409  33.4794866  65.0662854  89.2999245  33.4037343
  64.2005446  90.4084848  33.9636165  66.1605438  94.1805532  24.7173149
  65.7224868  93.4641391  24.2578787  66.9015879  94.4081647  24.1558241
  62.9506604  88.8702468  31.2385245  62.1374470  89.1696639  31.6450437
  63.4465598  88.4758157  31.9559727  65.1015182  98.8660225  33.1719510
  65.0591361  99.0921072  32.2428042  66.0177881  98.6323600  33.3205311
  68.5480816  89.3344293  40.0700139  68.9030204  89.5615766  40.9294605
  69.1952947  89.6662670  39.4477394  74.2778553  92.4562729  30.7749468
  74.1396451  92.6464325  29.8470657  73.9214772  93.2182112  31.2317519
  62.4420679  86.4420824  36.8546480  63.0820058  86.3009583  36.1569443
  61.6098209  86.1555337  36.4785082  74.3047932  94.5239256  35.7860740
  74.7384439  94.4314545  36.6343794  75.0179513  94.4996756  35.1480756
  63.2180983  95.7423254  32.9681473  64.0121581  95.2473574  32.7664048
  62.5072675  95.2141117  32.6049178  68.0375827  98.1241350  37.3193840
  68.0912850  98.6932286  38.0871556  67.1690609  98.2943235  36.9547877
  59.5263746  89.8866336  29.0441225  58.5961334  89.8250792  29.2611187
  59.6221218  89.3642289  28.2477866  59.4449295  86.4121149  31.6319467
  59.7056113  87.3266482  31.5228627  60.2666468  85.9445591  31.7816080
  60.9174221  87.8258906  38.8018291  61.5897274  87.6176268  38.1530940
  60.0904007  87.6280992  38.3623524  75.1663482  94.5662956  38.3193625
  75.3599372  95.4708767  38.5652900  75.0664100  94.1070375  39.1532210
  66.8199793  84.4520847  40.8183952  66.1727708  85.1510797  40.7248429
  67.5900808  84.8856991  41.1860200  70.2278591  94.7169699  43.8934506
  70.0764097  94.4880251  42.9764589  70.2183270  95.6740301  43.9065851
  66.9963927  92.2901612  38.8780772  67.9255987  92.4412772  38.7049739
  66.5754957  92.3785633  38.0229419  65.7952259  96.3152276  36.6479310
  65.6563344  95.9471061  37.5205248  65.0066855  96.8299916  36.4763267
  66.3900411 101.4161373  27.9904846  66.5652166 100.9449416  28.8050469
  65.7033199 102.0427139  28.2186107  67.3457474  95.6933879  34.0368147
  67.0107307  95.6534649  34.9325797  66.8461420  95.0278595  33.5638558
  61.3201718  91.1001509  39.5620729  61.1821516  90.3681748  40.1632268
  62.2306641  91.0110409  39.2804916  70.2816666  93.0389913  24.3105207
  69.6645836  92.3136742  24.2138260  69.8133154  93.7999274  23.9672281
  63.9484019  90.8121468  39.0504408  64.6583637  90.1714661  39.0091027
  63.9053327  91.0634363  39.9730589  71.9370797  97.7488822  41.9710987
  71.8783343  97.0648042  41.3041570  72.3390316  98.4907812  41.5191613
  62.6612953  87.7986686  40.8700048  62.1250310  87.3477425  41.5221644
  62.0729661  87.9332595  40.1270512  60.9561496 104.5650736  34.7644706
  61.1958094 105.1969260  35.4423725  60.1130693 104.2138776  35.0510066
  62.0715211  87.2575338  23.4326511  61.1944678  87.1364138  23.0688758
  62.5472965  86.4661416  23.1805400  71.9388205  95.7128406  40.2024967
  71.0514983  95.3754327  40.3251366  72.5086756  94.9811437  40.4393733
  53.5917352  92.0452497  33.5268019  54.2788391  91.7314227  32.9389034
  53.4365480  92.9493862  33.2535270  58.3952074  86.9342694  37.9553042
  58.3110263  86.3268364  37.2203452  57.5734780  87.4251712  37.9562539
  65.4689358 100.3729858  37.1686210  65.3959529 101.1784829  37.6805515
  65.0266751 100.5721824  36.3434232  65.2579138  99.6101628  30.6789032
  64.4746659 100.1523308  30.7727256  65.9571883 100.1275608  31.0783273
  68.5675788  85.4196257  33.3223237  69.0644487  84.6666220  33.0024307
  67.7962769  85.4560574  32.7566447  76.4205545  91.1236623  34.9641529
  76.4095421  92.0061338  34.5935462  75.5522924  90.7708174  34.7696066
  67.9288041 100.2716692  39.3244369  68.6416014 100.9064157  39.2520270
  67.4378070 100.3680558  38.5084371  69.6505568  94.1767945  30.8961661
  68.7161847  94.2969407  30.7266365  69.8282237  93.2740411  30.6321670
  65.1510756  87.5613640  33.0494922  64.7808544  87.0084681  33.7375827
  65.6469849  86.9571774  32.4969922  73.0378120  90.0185264  31.4311695
  73.5038572  90.8513256  31.3571997  73.4885620  89.5530246  32.1356953
  62.9799955  98.0211135  40.1449940  63.6809414  98.6547618  40.2979334
  62.5095070  98.3625867  39.3845579  71.1054351  96.3629085  28.4297847
  71.3814195  96.2485680  29.3391721  70.2358850  95.9646570  28.3910020
  71.0094782  82.3865851  35.4702596  70.0957862  82.6170078  35.6384803
  71.4387884  82.4704295  36.3216628  70.7801241  90.5755743  37.9702490
  70.1272691  90.8231650  37.3154943  71.1581621  89.7619881  37.6364967
  67.7408415 100.6115436  32.0730660  67.9230809  99.7937092  32.5358413
  68.5641401 100.8283128  31.6355550  68.0750580  99.5383621  29.3345709
  68.6038347  99.0276076  28.7215871  68.3378800  99.2226151  30.1991242
  66.8288814  91.3175554  44.4568527  66.1529451  91.2169683  45.1270902
  67.6516448  91.1614768  44.9204524  58.5767673  97.5547491  37.0781042
  59.1621110  96.8091178  37.2108947  58.3792511  97.8651447  37.9617706
  61.4306328 100.5898738  32.0943485  60.7616704 101.0744866  31.6107525
  61.2919198 100.8367958  33.0086863  53.1685328  90.1253091  35.7985486
  53.2069427  89.5916681  36.5922604  52.6625621  89.5988296  35.1796463
  65.5711597 102.6242481  38.6926143  66.1229905 102.7874103  39.4575228
  65.9117790 103.2146919  38.0206168  60.5476090  84.9717631  39.2948028
  60.6117417  85.8332462  38.8825426  60.4843210  84.3591633  38.5620386
  60.0228363  87.0440764  42.9421062  60.6500401  86.6617841  43.5558587
  59.1656281  86.8254966  43.3076755  70.4222471  97.4503739  44.5474798
  70.9662375  98.0633697  44.0529752  69.8409316  98.0083317  45.0641811
  56.7993905  88.8517193  28.8739417  57.0947346  87.9427871  28.8206471
  55.8981941  88.8304932  28.5520419  68.7079984 100.5724457  35.6789825
  68.5831124  99.7714197  35.1700771  69.3659075 101.0670650  35.1903795
  60.3288152  86.9273189  34.8566966  59.6074738  87.5409157  34.7174439
  61.1181408  87.4630954  34.7783612  70.7714892  98.3733477  37.3069375
  69.8245228  98.2538828  37.2347702  71.1197666  97.4855975  37.3895637
  63.1314466  84.2627616  41.1307617  63.6548868  84.5089913  41.8933927
  62.9126799  85.0947651  40.7110755  58.5281747  86.5331291  28.9978742
  58.1994453  85.6528669  28.8153848  58.8821118  86.4778959  29.8855131
  67.7761326  98.1686193  33.5073728  67.6286288  97.2402901  33.6881298
  68.6014819  98.1906284  33.0230803  61.6423570  86.8204260  29.3654220
  61.9819643  87.3490182  28.6432828  62.0895691  87.1584666  30.1412786
  71.3795448  98.9914752  34.5938600  72.3041995  98.7857613  34.4563052
  71.2110751  98.7431153  35.5027942  64.3367011  85.2041311  38.8157288
  63.9963831  84.4049124  39.2177968  63.6306017  85.5043022  38.2434121
  64.9883483  82.2890623  37.2684611  65.8109552  81.8151102  37.1463501
  65.2321546  83.0681107  37.7683297  63.6291717  85.3178882  27.5647513
  64.3500080  85.6960135  27.0611229  63.0057021  86.0367759  27.6682491
  67.7722840  86.0224031  28.5005845  67.9886454  86.9048669  28.1994673
  67.2916907  85.6310244  27.7711487  62.5122061  88.9809744  35.0776590
  62.3666642  89.2950047  35.9700871  62.0347265  89.5994644  34.5247488
  64.3718444  85.9712292  35.1257479  64.3580013  85.0753385  34.7889777
  65.0890872  85.9782956  35.7595765  66.2244575  86.4049632  37.1710607
  65.9662353  87.3266703  37.1694937  65.6929615  86.0080067  37.8611071
  71.1690764  99.5100419  29.9500692  71.3427641  98.9446842  29.1974544
  71.6619655 100.3101314  29.7680182  56.9867724  91.5215089  38.0164251
  56.4421192  92.2974897  38.1484525  57.8647074  91.8685893  37.8583372
  63.7755340  84.8526672  30.3945049  63.8971251  83.9243319  30.5935937
  63.4857383  84.8665358  29.4823365  66.6446531  82.5381583  33.5311769
  66.6668228  82.6020916  32.5763749  67.0614590  81.6986091  33.7252275
  77.0230155  92.2736842  31.5690992  77.4661301  91.5244168  31.1710115
  76.1456665  92.2646979  31.1864724  72.1565936  98.8267184  27.0497590
  72.8516841  99.4473877  27.2684905  72.4989086  97.9762535  27.3249968
  57.7733746  90.6484985  40.9094408  57.0315482  90.7967620  41.4959038
  57.4526490  90.9093250  40.0461157  74.0557359  96.2766889  28.5784921
  74.5808684  96.6154162  27.8534241  73.9679712  95.3413905  28.3948056
  65.7177408 100.1900963  40.7074798  66.0264535  99.9450110  41.5797497
  66.5152890 100.3947602  40.2193668  65.7398020 102.3438873  32.9380174
  65.3003010 101.8515251  33.6313031  66.4906137 101.8011840  32.6972249
  58.2190359  98.5350414  32.9404802  59.0448379  98.2354185  32.5603446
  57.8684411  97.7658036  33.3894591  63.1871892  97.8876882  35.0102476
  62.5651902  97.2247587  34.7104704  63.8576759  97.9138014  34.3276124
  56.4198964  96.4536740  33.8993736  55.5830873  96.0258914  33.7177737
  56.3922610  96.6469183  34.8364527  63.2596420  86.3658670  44.6034982
  63.3084575  87.2420793  44.2212751  63.8018934  85.8236063  44.0306625
  73.7451266  96.9099793  43.8836119  72.9546809  96.8923932  43.3440618
  73.5084620  97.4488087  44.6385156  73.8649141  93.7592259  41.1968847
  73.9147145  93.5942267  42.1384370  73.7563064  92.8919518  40.8066728
  62.7485399  96.4380805  28.4860936  62.8973520  97.1216269  27.8327609
  63.5551843  96.4185895  29.0010392  71.1552903  89.7423187  42.5128154
  72.0562766  89.6029652  42.2212152  71.2300877  89.9077642  43.4526332
  65.4895708  87.1190042  41.3581340  64.6199018  87.4123608  41.0863929
  65.7255189  87.7030487  42.0788604  75.3667337  96.1789201  41.4410869
  75.0752146  96.5419181  42.2774330  74.7539469  95.4656209  41.2624201
  76.5663020  93.7442081  33.9613439  77.4009911  94.1831885  34.1251000
  76.7022149  93.2680734  33.1421685  73.6154526  91.3021816  39.9090927
  74.0908647  91.4949462  39.1009778  72.6920091  91.3581001  39.6634311
  60.5038032  92.4645983  29.4922005  60.2584074  91.5608313  29.6902215
  60.6733947  92.4663133  28.5501483  68.1934742  83.3369659  38.8746761
  68.7116686  84.0730686  38.5493249  67.8389875  83.6433652  39.7093520
  59.7733680  88.1974340  26.9908167  59.0802925  88.2718695  26.3348203
  59.5285432  87.4334684  27.5129684  68.4447336  79.7569942  34.3947657
  68.7249090  79.0893131  35.0208084  69.2297943  79.9499037  33.8822321
  66.2480805  98.9328936  25.9572684  65.6754772  99.5519123  25.5043156
  66.8213598  99.4828297  26.4912606  72.3156195  88.1787576  38.1419233
  73.2673618  88.2785673  38.1631457  72.1459645  87.3865844  38.6517317
  70.3370574  85.2643159  38.3278634  69.7420506  85.5448172  37.6325122
  70.0520271  85.7537060  39.0995375  69.4678065  99.2166086  27.0881266
  70.4008738  99.1511647  27.2914142  69.3801277 100.0522353  26.6295799
  72.0966081  98.5331956  24.0485214  72.0179713  98.1991820  24.9420972
  72.9175748  99.0253724  24.0476686  74.7944272  91.3993695  37.2561532
  74.7620593  90.4609696  37.4421216  75.4044896  91.4777732  36.5227357
  66.6327603  90.2689748  23.2988736  67.5786708  90.1395956  23.3677154
  66.2541848  89.5304410  23.7758164  74.9438761  88.1904739  37.3019815
  74.4277810  87.4063195  37.1149744  75.8278709  87.8623455  37.4666335
  72.6049488  81.9345754  33.2615628  72.4074309  81.6260843  34.1458960
  73.2149193  82.6607393  33.3913558  80.6120822  92.4609702  36.3967569
  81.3424211  92.1994990  36.9575272  80.0027768  91.7238424  36.4369637
  78.6936119  90.6017565  36.9942020  77.9669283  90.4673530  36.3858512
  78.2783406  90.9094393  37.7998738  66.5166296  94.3207494  44.7589393
  67.4369305  94.4986093  44.9529440  66.4815879  93.3763540  44.6069093
  64.8170520  88.1939725  23.2343622  63.9101976  87.8972837  23.3106335
  65.0946501  87.8969543  22.3677908  55.7348461  89.5146088  33.6842668
  55.4151245  88.6611396  33.3917042  55.1881889  89.7294666  34.4400635
  59.5128368  92.2308529  37.4012174  59.7314378  93.1625637  37.4200208
  59.9254142  91.8716503  38.1866978  66.4332586  82.7376614  29.3887863
  65.6233314  82.3923699  29.7643109  67.1217003  82.4284158  29.9775474
  68.3623134  81.8154661  31.0112159  68.9154173  82.2350115  31.6702183
  68.5993221  80.8890409  31.0535115  64.3856234  87.8041735  46.7914923
  64.2852961  88.7536092  46.7227014  64.1677776  87.4759974  45.9190993
  63.5869305  85.0526660  23.3755601  64.4488469  85.3781558  23.6351418
  63.7719649  84.2658156  22.8628666  55.6036721  93.1349000  35.6535789
  54.9100192  92.7202952  35.1405744  56.3509712  93.1769536  35.0569208
  71.7401942  83.9255186  30.5190824  71.1600611  84.5839990  30.1368876
  71.4737874  83.1032531  30.1078241  70.1905508  83.3260244  32.7212144
  70.6905286  83.4376779  31.9126463  70.8341116  83.0221297  33.3612952
  64.2487504  91.2338874  45.6079985  63.7654585  92.0339234  45.8143874
  64.3348443  91.2446819  44.6547429  57.5173463  93.0667253  33.5301804
  57.4944151  93.1654941  32.5783687  57.8274100  93.9132404  33.8518970
  60.1760841  95.1243408  37.6448419  61.1304095  95.0927351  37.5778350
  59.9773365  94.6634032  38.4598645  60.7660223  93.6944524  40.2119216
  61.5853112  94.1888603  40.2354054  61.0397031  92.7776493  40.1836784
  70.5226820  86.0855277  29.5747172  69.6352675  86.3704927  29.3567367
  70.9380809  85.9249040  28.7274449  73.8741356  86.1101798  33.2901511
  74.6501746  86.5998250  33.5626128  73.1489490  86.5359852  33.7473381
  76.3113914  86.8229417  34.3475452  76.9058405  86.5825153  33.6368760
  76.3840498  86.1036548  34.9748988  58.5311070 100.6663028  34.6618617
  58.3965538  99.9063429  34.0956615  58.1143132 101.3903928  34.1947406
  69.6670033  95.8499951  23.6695192  70.3705883  96.0549954  24.2852848
  68.9432682  96.4176713  23.9344275  70.4967843  91.6009813  29.7897462
  70.4403045  92.0578364  28.9505095  71.0496186  90.8400497  29.6120305
  74.3072649  87.3899545  30.6147582  74.0509583  86.9896180  31.4455789
  73.6825517  88.1043338  30.4897721  78.6184987  90.1295618  33.1218873
  78.0584545  90.1988807  33.8950435  78.0128490  89.9536602  32.4018369
  61.6880196 101.5632345  34.8737059  61.5712580 102.5077777  34.7715750
  60.8672642 101.2605906  35.2622859  71.5756730  96.2882481  25.7193652
  72.4102334  95.8563679  25.5371127  71.4141073  96.1164494  26.6470546
  71.2302623  92.7914594  27.0849991  71.1751426  92.6258865  26.1438435
  70.6048678  93.4990627  27.2412181  56.0195138  88.0282658  40.9111414
  56.6654001  87.5181612  41.3998639  55.8112289  88.7651340  41.4854839
  68.5448530  95.0963506  46.4103554  69.4139689  95.2704158  46.0490189
  68.0655281  95.9157923  46.2879283  64.5398748  82.2922703  26.6635310
  64.5277418  83.2364543  26.8203581  65.4322170  82.1092848  26.3694771
  62.7134710 102.2160607  38.0892988  63.6161957 102.2484217  38.4059483
  62.4872080 101.2861058  38.1039324  64.4688312 100.9691593  34.7503066
  63.5183943 100.9693455  34.6367439  64.7720798 100.2224328  34.2339101
  68.3550868  78.8865480  30.9181246  67.5883263  78.3323966  31.0637929
  68.7661572  78.9587348  31.7795398  60.3592629  85.1750275  45.0086428
  61.2224090  84.8187080  45.2189752  59.7858039  84.8364170  45.6961832
  80.2041006 106.8052132  35.8148829  80.8419415 106.6858879  35.1112169
  80.0861848 107.7532976  35.8736781  77.0130712 106.7579560  35.7510353
  76.6749223 106.6420625  34.8630888  77.8820480 106.3570725  35.7311360
  72.8717527 108.6115036  31.7407244  72.3082393 108.5204973  30.9723532
  72.7569923 107.7914941  32.2209737  77.4950495 107.9114412  41.7096559
  77.4839136 107.5167210  40.8377063  77.6571134 107.1780484  42.3030330
  70.4181959 110.1066228  34.5791465  71.2103251 109.7657052  34.1637764
  70.6578610 110.2161203  35.4993618  78.4517086 112.2786004  27.0521709
  77.8005066 112.8640084  26.6655723  79.2461449 112.8092199  27.1116747
  72.3772713 109.3675141  27.4508844  73.1503589 108.8204128  27.3121719
  72.7298112 110.2319390  27.6623305  74.2157756 110.6951523  40.6575743
  73.9247622 111.5997154  40.5422409  74.8514740 110.7368051  41.3719813
  75.1413963 108.0728372  37.2477103  75.7377535 107.8484394  36.5334066
  75.1988934 107.3313117  37.8502550  74.7138991 105.5267807  25.0827294
  74.9664512 105.0049328  24.3210757  73.7763550 105.3633953  25.1853977
  79.7582274 104.5303586  32.8902037  80.5445363 104.1123009  32.5392454
  80.0220978 105.4349678  33.0583685  79.9292351 109.9676436  27.5890694
  79.2938184 110.0411062  28.3011598  79.5989758 110.5570035  26.9109773
  85.1590701 104.4678819  33.7935015  85.8915873 103.8978036  34.0272845
  84.4030057 104.0800419  34.2341521  74.4335280 107.4295913  27.2851669
  74.3171538 106.7540817  27.9532753  74.5437540 106.9428287  26.4683822
  76.7766821 106.8906060  30.9898358  76.4125028 106.3636681  31.7011279
  77.6333937 106.5004529  30.8164843  82.6816121  98.1800393  38.2529624
  82.3499446  99.0495804  38.0290839  82.0861735  97.8636677  38.9323654
  76.4172308 101.9195960  25.9859706  76.5846710 102.7876196  26.3530177
  76.2269477 102.0823242  25.0620996  79.1747641 110.3812939  37.6525537
  78.8748364 111.2837978  37.5441344  78.8298701 110.1145122  38.5046690
  72.6260122 106.8326736  33.6862241  71.7010619 106.7002950  33.8939933
  72.8744536 107.6120955  34.1832183  82.5744785 102.8995479  35.3322974
  81.6661662 102.8310887  35.0381735  82.5232381 103.3767424  36.1604799
  76.3961529 104.3753617  26.9706373  76.2761154 104.8210668  27.8091853
  75.7014117 104.7238935  26.4119911  69.9868934 106.4760009  34.5206030
  70.1161315 106.7294488  35.4345442  69.3066385 107.0687717  34.2010685
  74.1568421 117.1457259  30.6196504  74.0792451 118.0965084  30.6984985
  73.5530064 116.8003132  31.2771431  76.6485651 104.3185125  43.2757871
  75.8718985 104.8779045  43.2660736  77.2876214 104.8041908  43.7972741
  84.4406431 101.1011917  37.1100848  83.7980811 101.3944451  36.4640642
  83.9361360 100.9864838  37.9154045  82.0946595 104.8475091  27.7986707
  83.0064451 105.0802477  27.6234405  81.5856242 105.4312135  27.2361786
  74.9032023 107.1270578  42.8375838  75.6446707 107.6655622  42.5610662
  74.1969008 107.7536867  42.9947390  80.3787363 109.2699718  41.4348000
  80.7870719 108.8282129  40.6902632  79.6564624 108.6952346  41.6882193
  76.7318433 104.2072325  38.8081557  77.5779628 104.6311739  38.9516206
  76.6717070 103.5505950  39.5020120  80.7016177 109.8300909  35.1900289
  80.0725040 109.9946623  34.4876356  80.3141839 110.2442519  35.9611253
  84.5805409 110.7655347  32.5444652  83.8956447 111.1454248  31.9941686
  84.6649258 111.3750674  33.2776600  79.8817878 101.8676694  40.4662730
  79.6378810 102.6218754  39.9297006  80.1577808 102.2462041  41.3009977
  81.8356341 108.4115306  39.1439996  82.0473236 109.0547066  38.4674377
  81.7886089 107.5777623  38.6761926  79.4382570 101.0233127  36.0476568
  78.5767049 101.3214380  36.3393306  79.4645004 101.2403526  35.1157601
  76.2544139 109.5675317  32.4550374  76.7182485 109.8463020  31.6654996
  75.9900937 108.6658762  32.2723464  73.1468220 109.1146799  35.3930137
  73.7169577 109.5434067  34.7547621  73.7376332 108.8329383  36.0914323
  75.1913025 105.6898470  29.2639939  75.8937068 106.1419513  29.7313865
  74.8593654 105.0482288  29.8919832  73.6393387 104.2810226  43.6391148
  73.0092047 104.9626507  43.8726545  73.5329475 104.1693308  42.6944286
  68.9338359 103.9482022  34.5657072  68.1437413 104.2039551  34.0897183
  69.4249606 104.7630360  34.6709113  82.9502169 111.2887261  37.3162353
  83.7719612 110.8867449  37.0345035  82.9464571 111.1855496  38.2678469
  70.8853104 104.3126601  31.5240549  70.0884268 104.4245296  32.0424045
  70.6578697 104.6513254  30.6581440  76.7158772 110.8371305  39.4723064
  76.7803205 111.2991712  40.3081236  76.0069696 110.2068670  39.6005374
  67.2176062 104.2012513  36.9972063  67.4684100 105.0859523  37.2629639
  67.7535610 104.0217114  36.2247155  91.0408162 107.6326010  33.6647325
  90.2871870 107.0633408  33.5091329  91.1755703 107.5988674  34.6117959
  76.4306790 112.5039412  29.3402044  76.2952465 113.3490948  29.7686892
  76.9716602 112.7058690  28.5767978  72.9174129  98.5830992  46.0016399
  72.5241075  98.0297191  46.6764044  73.7340270  98.8941571  46.3922917
  69.8836187 110.0214850  29.9129969  70.3960708 110.8158100  30.0635534
  70.5358900 109.3241141  29.8463571  71.6931072 113.1380607  31.9952722
  71.8697700 114.0598571  31.8073706  72.4887905 112.8239026  32.4247102
  75.8342090  99.9988871  43.5936656  76.5751804 100.5996024  43.5141118
  76.0660013  99.2566509  43.0354698  70.9783428 105.1845238  41.8714886
  70.8636944 104.2830496  42.1721984  70.1227946 105.4308935  41.5199702
  78.0575266 113.1262979  43.4702386  77.6139120 112.3399357  43.1523291
  78.7192480 113.3142129  42.8046277  72.8162387 114.6558780  37.9963065
  73.3669812 114.5275844  37.2240059  71.9773863 114.9553669  37.6457957
  80.1556504 113.4065779  41.4983787  80.1374980 114.2274660  41.0064057
  81.0776424 113.2819854  41.7233929  76.6129558 110.9209908  42.3407296
  77.1457895 110.1598196  42.1106604  76.0843639 110.6283560  43.0831450
  79.7799253  96.0269974  37.8700938  79.4363523  96.9171616  37.7940048
  80.1478216  95.8371632  37.0070523  67.8485104 108.3503505  30.6889540
  68.6860326 108.7600513  30.4723247  68.0263372 107.4102947  30.6589734
  79.7449536 106.0178585  26.3773373  79.2296159 106.7883190  26.6161760
  79.4726844 105.3443721  27.0006434  77.3296647 100.8628286  31.4358611
  76.4738243 100.4735136  31.2564250  77.7423599 100.9420247  30.5758397
  78.8595794  98.3974629  35.8350171  78.3560589  98.3604764  35.0217976
  79.1526401  99.3067372  35.8946827  75.1038680  98.4813359  34.8416353
  75.9691676  98.2856168  34.4822242  75.1716188  98.2523711  35.7685709
  84.7183810 108.7710940  28.3126546  83.9413253 108.4322099  27.8681708
  85.3975291 108.7763563  27.6381511  79.5335839 103.8905677  28.2033154
  79.2285975 104.2051826  29.0543297  80.4866281 103.9687097  28.2460487
  77.9782271 110.0495901  29.8526108  77.4503633 109.3148660  29.5399345
  77.4769774 110.8270577  29.6066076  82.9575117 108.2444921  34.9693154
  82.2998791 108.9344182  35.0573283  83.7615516 108.6341353  35.3127140
  72.7100999 100.7115567  32.2132719  73.2844751 100.4890748  31.4805912
  73.2971981 100.7804261  32.9661321  81.7680576 106.5989294  33.0197096
  82.2812458 107.2319286  33.5218806  82.4181800 105.9990489  32.6540456
  73.0370586 102.7420028  26.2328605  72.2007898 103.0794714  26.5537879
  72.8975355 102.6069008  25.2955742  75.0123666  97.5856816  30.9407789
  74.3588079  97.2705833  30.3164404  74.9704140  96.9632556  31.6667612
  76.1234871 107.8676111  22.8561081  75.2161933 107.6365364  23.0552230
  76.6205903 107.0713730  23.0435062  78.2461407 104.0738749  35.2655436
  77.3283968 104.2953696  35.1077124  78.6621550 104.1485060  34.4067144
  79.0296454 105.4730165  30.3958117  79.7768273 105.9851562  30.0865239
  79.2988044 105.1514218  31.2562510  77.3023105 107.9688706  27.3785071
  76.3934324 107.6847739  27.4757541  77.3318188 108.3887784  26.5188378
  82.5342372 111.5795295  31.1476238  82.0804699 110.7386205  31.2041429
  81.9036339 112.2156694  31.4851019  81.4775292 102.5087281  32.3776906
  80.7398048 101.9964667  32.7087149  81.7302065 102.0687663  31.5660183
  80.9775311 113.4171792  32.0826057  81.2698286 113.9776849  31.3638422
  81.4873932 113.7100353  32.8379216  81.5786919  95.2863533  32.9718675
  81.8845796  94.4260897  32.6844590  82.3039524  95.8781153  32.7717669
  67.8711275 105.6894220  31.3600273  67.6735675 105.0963581  30.6351340
  67.3157939 105.3846430  32.0776212  75.8507999 105.5817326  33.4794866
  75.9056608 104.6291163  33.4037343  75.0399201 105.7376765  33.9636165
  76.9999192 109.5097449  24.7173149  76.5618622 108.7933308  24.2578787
  77.7409633 109.7373564  24.1558241  73.7900359 104.1994386  31.2385245
  72.9768224 104.4988557  31.6450437  74.2859353 103.8050075  31.9559727
  75.9408937 114.1952143  33.1719510  75.8985115 114.4212989  32.2428042
  76.8571635 113.9615518  33.3205311  79.3874570 104.6636211  40.0700139
  79.7423958 104.8907684  40.9294605  80.0346702 104.9954587  39.4477394
  85.1172307 107.7854646  30.7749468  84.9790206 107.9756242  29.8470657
  84.7608526 108.5474029  31.2317519  73.2814433 101.7712742  36.8546480
  73.9213813 101.6301501  36.1569443  72.4491964 101.4847255  36.4785082
  85.1441687 109.8531173  35.7860740  85.5778194 109.7606463  36.6343794
  85.8573268 109.8288674  35.1480756  74.0574737 111.0715172  32.9681473
  74.8515336 110.5765492  32.7664048  73.3466430 110.5433035  32.6049178
  78.8769582 113.4533268  37.3193840  78.9306604 114.0224204  38.0871556
  78.0084363 113.6235153  36.9547877  70.3657501 105.2158254  29.0441225
  69.4355089 105.1542709  29.2611187  70.4614973 104.6934207  28.2477866
  70.2843050 101.7413067  31.6319467  70.5449867 102.6558400  31.5228627
  71.1060222 101.2737509  31.7816080  71.7567975 103.1550824  38.8018291
  72.4291029 102.9468186  38.1530940  70.9297762 102.9572910  38.3623524
  86.0057236 109.8954874  38.3193625  86.1993126 110.8000685  38.5652900
  85.9057855 109.4362293  39.1532210  77.6593547  99.7812765  40.8183952
  77.0121462 100.4802714  40.7248429  78.4294563 100.2148909  41.1860200
  81.0672345 110.0461617  43.8934506  80.9157851 109.8172169  42.9764589
  81.0577025 111.0032218  43.9065851  77.8357681 107.6193530  38.8780772
  78.7649741 107.7704689  38.7049739  77.4148712 107.7077550  38.0229419
  76.6346013 111.6444194  36.6479310  76.4957099 111.2762978  37.5205248
  75.8460610 112.1591833  36.4763267  77.2294165 116.7453290  27.9904846
  77.4045921 116.2741334  28.8050469  76.5426953 117.3719057  28.2186107
  78.1851228 111.0225797  34.0368147  77.8501061 110.9826567  34.9325797
  77.6855174 110.3570513  33.5638558  72.1595472 106.4293427  39.5620729
  72.0215270 105.6973666  40.1632268  73.0700396 106.3402327  39.2804916
  81.1210420 108.3681831  24.3105207  80.5039591 107.6428659  24.2138260
  80.6526909 109.1291191  23.9672281  74.7877773 106.1413386  39.0504408
  75.4977392 105.5006578  39.0091027  74.7447081 106.3926281  39.9730589
  82.7764552 113.0780739  41.9710987  82.7177098 112.3939960  41.3041570
  83.1784070 113.8199729  41.5191613  73.5006707 103.1278604  40.8700048
  72.9644064 102.6769342  41.5221644  72.9123415 103.2624513  40.1270512
  71.7955251 119.8942653  34.7644706  72.0351849 120.5261177  35.4423725
  70.9524447 119.5430693  35.0510066  72.9108966 102.5867255  23.4326511
  72.0338432 102.4656056  23.0688758  73.3866719 101.7953334  23.1805400
  82.7781959 111.0420323  40.2024967  81.8908738 110.7046245  40.3251366
  83.3480510 110.3103355  40.4393733  64.4311106 107.3744415  33.5268019
  65.1182146 107.0606145  32.9389034  64.2759235 108.2785780  33.2535270
  69.2345828 102.2634612  37.9553042  69.1504017 101.6560281  37.2203452
  68.4128535 102.7543630  37.9562539  76.3083112 115.7021776  37.1686210
  76.2353284 116.5076747  37.6805515  75.8660505 115.9013741  36.3434232
  76.0972892 114.9393546  30.6789032  75.3140414 115.4815226  30.7727256
  76.7965637 115.4567525  31.0783273  79.4069542 100.7488175  33.3223237
  79.9038242  99.9958137  33.0024307  78.6356524 100.7852492  32.7566447
  87.2599300 106.4528541  34.9641529  87.2489176 107.3353256  34.5935462
  86.3916679 106.1000092  34.7696066  78.7681796 115.6008610  39.3244369
  79.4809768 116.2356075  39.2520270  78.2771825 115.6972476  38.5084371
  80.4899323 109.5059862  30.8961661  79.5555602 109.6261325  30.7266365
  80.6675991 108.6032329  30.6321670  75.9904511 102.8905558  33.0494922
  75.6202298 102.3376599  33.7375827  76.4863603 102.2863692  32.4969922
  83.8771874 105.3477182  31.4311695  84.3432326 106.1805173  31.3571997
  84.3279375 104.8822163  32.1356953  73.8193709 113.3503053  40.1449940
  74.5203169 113.9839536  40.2979334  73.3488824 113.6917785  39.3845579
  81.9448105 111.6921003  28.4297847  82.2207949 111.5777598  29.3391721
  81.0752604 111.2938488  28.3910020  81.8488537  97.7157769  35.4702596
  80.9351617  97.9461995  35.6384803  82.2781638  97.7996213  36.3216628
  81.6194995 105.9047661  37.9702490  80.9666446 106.1523568  37.3154943
  81.9975375 105.0911799  37.6364967  78.5802169 115.9407354  32.0730660
  78.7624564 115.1229010  32.5358413  79.4035155 116.1575046  31.6355550
  78.9144335 114.8675539  29.3345709  79.4432101 114.3567994  28.7215871
  79.1772554 114.5518069  30.1991242  77.6682568 106.6467472  44.4568527
  76.9923205 106.5461601  45.1270902  78.4910202 106.4906685  44.9204524
  69.4161428 112.8839408  37.0781042  70.0014864 112.1383096  37.2108947
  69.2186266 113.1943365  37.9617706  72.2700083 115.9190656  32.0943485
  71.6010458 116.4036783  31.6107525  72.1312952 116.1659876  33.0086863
  64.0079082 105.4545008  35.7985486  64.0463182 104.9208599  36.5922604
  63.5019375 104.9280214  35.1796463  76.4105351 117.9534399  38.6926143
  76.9623659 118.1166021  39.4575228  76.7511545 118.5438837  38.0206168
  71.3869845 100.3009549  39.2948028  71.4511171 101.1624380  38.8825426
  71.3236965  99.6883551  38.5620386  70.8622117 102.3732681  42.9421062
  71.4894156 101.9909759  43.5558587  70.0050036 102.1546883  43.3076755
  81.2616226 112.7795657  44.5474798  81.8056130 113.3925615  44.0529752
  80.6803070 113.3375235  45.0641811  67.6387660 104.1809111  28.8739417
  67.9341101 103.2719789  28.8206471  66.7375696 104.1596850  28.5520419
  79.5473739 115.9016375  35.6789825  79.4224878 115.1006114  35.1700771
  80.2052830 116.3962568  35.1903795  71.1681907 102.2565107  34.8566966
  70.4468493 102.8701075  34.7174439  71.9575163 102.7922872  34.7783612
  81.6108647 113.7025395  37.3069375  80.6638983 113.5830746  37.2347702
  81.9591420 112.8147893  37.3895637  73.9708220  99.5919534  41.1307617
  74.4942622  99.8381830  41.8933927  73.7520554 100.4239568  40.7110755
  69.3675501 101.8623208  28.9978742  69.0388208 100.9820587  28.8153848
  69.7214872 101.8070877  29.8855131  78.6155080 113.4978111  33.5073728
  78.4680043 112.5694818  33.6881298  79.4408574 113.5198202  33.0230803
  72.4817325 102.1496178  29.3654220  72.8213397 102.6782099  28.6432828
  72.9289445 102.4876584  30.1412786  82.2189202 114.3206670  34.5938600
  83.1435750 114.1149531  34.4563052  82.0504505 114.0723071  35.5027942
  75.1760765 100.5333229  38.8157288  74.8357586  99.7341042  39.2177968
  74.4699772 100.8334940  38.2434121  75.8277237  97.6182541  37.2684611
  76.6503307  97.1443019  37.1463501  76.0715301  98.3973025  37.7683297
  74.4685472 100.6470800  27.5647513  75.1893834 101.0252052  27.0611229
  73.8450776 101.3659676  27.6682491  78.6116595 101.3515949  28.5005845
  78.8280209 102.2340586  28.1994673  78.1310662 100.9602162  27.7711487
  73.3515816 104.3101662  35.0776590  73.2060397 104.6241965  35.9700871
  72.8741020 104.9286562  34.5247488  75.2112199 101.3004210  35.1257479
  75.1973768 100.4045303  34.7889777  75.9284627 101.3074874  35.7595765
  77.0638330 101.7341550  37.1710607  76.8056107 102.6558621  37.1694937
  76.5323370 101.3371985  37.8611071  82.0084518 114.8392337  29.9500692
  82.1821396 114.2738760  29.1974544  82.5013410 115.6393232  29.7680182
  67.8261478 106.8507006  38.0164251  67.2814946 107.6266814  38.1484525
  68.7040828 107.1977811  37.8583372  74.6149095 100.1818590  30.3945049
  74.7365006  99.2535236  30.5935937  74.3251137 100.1957276  29.4823365
  77.4840285  97.8673501  33.5311769  77.5061982  97.9312834  32.5763749
  77.9008344  97.0278009  33.7252275  87.8623910 107.6028760  31.5690992
  88.3055056 106.8536085  31.1710115  86.9850420 107.5938896  31.1864724
  82.9959691 114.1559102  27.0497590  83.6910595 114.7765794  27.2684905
  83.3382841 113.3054453  27.3249968  68.6127500 105.9776902  40.9094408
  67.8709236 106.1259538  41.4959038  68.2920244 106.2385168  40.0461157
  84.8951114 111.6058807  28.5784921  85.4202438 111.9446080  27.8534241
  84.8073466 110.6705822  28.3948056  76.5571163 115.5192881  40.7074798
  76.8658289 115.2742027  41.5797497  77.3546645 115.7239519  40.2193668
  76.5791775 117.6730790  32.9380174  76.1396765 117.1807169  33.6313031
  77.3299892 117.1303758  32.6972249  69.0584114 113.8642331  32.9404802
  69.8842134 113.5646103  32.5603446  68.7078166 113.0949954  33.3894591
  74.0265647 113.2168799  35.0102476  73.4045656 112.5539504  34.7104704
  74.6970514 113.2429931  34.3276124  67.2592719 111.7828658  33.8993736
  66.4224627 111.3550832  33.7177737  67.2316364 111.9761101  34.8364527
  74.0990174 101.6950587  44.6034982  74.1478330 102.5712710  44.2212751
  74.6412689 101.1527981  44.0306625  84.5845020 112.2391711  43.8836119
  83.7940564 112.2215850  43.3440618  84.3478375 112.7780004  44.6385156
  84.7042895 109.0884177  41.1968847  84.7540900 108.9234185  42.1384370
  84.5956818 108.2211436  40.8066728  73.5879154 111.7672723  28.4860936
  73.7367274 112.4508187  27.8327609  74.3945597 111.7477813  29.0010392
  81.9946657 105.0715105  42.5128154  82.8956520 104.9321570  42.2212152
  82.0694632 105.2369560  43.4526332  76.3289463 102.4481960  41.3581340
  75.4592772 102.7415526  41.0863929  76.5648943 103.0322405  42.0788604
  86.2061092 111.5081119  41.4410869  85.9145900 111.8711099  42.2774330
  85.5933223 110.7948127  41.2624201  87.4056774 109.0733998  33.9613439
  88.2403666 109.5123802  34.1251000  87.5415903 108.5972652  33.1421685
  84.4548280 106.6313733  39.9090927  84.9302402 106.8241380  39.1009778
  83.5313846 106.6872919  39.6634311  71.3431787 107.7937900  29.4922005
  71.0977829 106.8900230  29.6902215  71.5127701 107.7955051  28.5501483
  79.0328497  98.6661577  38.8746761  79.5510440  99.4022604  38.5493249
  78.6783629  98.9725570  39.7093520  70.6127434 103.5266258  26.9908167
  69.9196679 103.6010613  26.3348203  70.3679186 102.7626602  27.5129684
  79.2841091  95.0861859  34.3947657  79.5642845  94.4185048  35.0208084
  80.0691698  95.2790955  33.8822321  77.0874559 114.2620853  25.9572684
  76.5148526 114.8811040  25.5043156  77.6607353 114.8120215  26.4912606
  83.1549949 103.5079493  38.1419233  84.1067372 103.6077591  38.1631457
  82.9853400 102.7157762  38.6517317  81.1764329 100.5935077  38.3278634
  80.5814261 100.8740089  37.6325122  80.8914025 101.0828977  39.0995375
  80.3071819 114.5458003  27.0881266  81.2402492 114.4803565  27.2914142
  80.2195032 115.3814270  26.6295799  85.6338027 106.7285613  37.2561532
  85.6014347 105.7901614  37.4421216  86.2438651 106.8069650  36.5227357
  77.4721358 105.5981666  23.2988736  78.4180462 105.4687874  23.3677154
  77.0935603 104.8596328  23.7758164  85.7832515 103.5196656  37.3019815
  85.2671564 102.7355113  37.1149744  86.6672464 103.1915373  37.4666335
  83.4443242  97.2637672  33.2615628  83.2468063  96.9552760  34.1458960
  84.0542948  97.9899311  33.3913558  91.4514577 107.7901620  36.3967569
  92.1817965 107.5286908  36.9575272  90.8421522 107.0530342  36.4369637
  89.5329874 105.9309482  36.9942020  88.8063037 105.7965447  36.3858512
  89.1177161 106.2386311  37.7998738  77.3560050 109.6499412  44.7589393
  78.2763060 109.8278011  44.9529440  77.3209633 108.7055457  44.6069093
  75.6564275 103.5231642  23.2343622  74.7495730 103.2264755  23.3106335
  75.9340256 103.2261460  22.3677908  66.5742215 104.8438006  33.6842668
  66.2545000 103.9903314  33.3917042  66.0275643 105.0586584  34.4400635
  70.3522123 107.5600447  37.4012174  70.5708133 108.4917555  37.4200208
  70.7647897 107.2008421  38.1866978  77.2726341  98.0668532  29.3887863
  76.4627069  97.7215617  29.7643109  77.9610758  97.7576076  29.9775474
  79.2016889  97.1446579  31.0112159  79.7547928  97.5642032  31.6702183
  79.4386975  96.2182327  31.0535115  75.2249988 103.1333653  46.7914923
  75.1246715 104.0828009  46.7227014  75.0071530 102.8051891  45.9190993
  74.4263060 100.3818578  23.3755601  75.2882224 100.7073476  23.6351418
  74.6113404  99.5950073  22.8628666  66.4430475 108.4640917  35.6535789
  65.7493947 108.0494870  35.1405744  67.1903466 108.5061454  35.0569208
  82.5795696  99.2547104  30.5190824  81.9994365  99.9131908  30.1368876
  82.3131629  98.4324449  30.1078241  81.0299262  98.6552162  32.7212144
  81.5299041  98.7668696  31.9126463  81.6734870  98.3513215  33.3612952
  75.0881258 106.5630791  45.6079985  74.6048340 107.3631151  45.8143874
  75.1742197 106.5738736  44.6547429  68.3567218 108.3959171  33.5301804
  68.3337906 108.4946858  32.5783687  68.6667854 109.2424322  33.8518970
  71.0154596 110.4535326  37.6448419  71.9697849 110.4219268  37.5778350
  70.8167119 109.9925950  38.4598645  71.6053978 109.0236442  40.2119216
  72.4246867 109.5180521  40.2354054  71.8790786 108.1068410  40.1836784
  81.3620574 101.4147194  29.5747172  80.4746429 101.6996845  29.3567367
  81.7774563 101.2540958  28.7274449  84.7135110 101.4393715  33.2901511
  85.4895500 101.9290168  33.5626128  83.9883244 101.8651770  33.7473381
  87.1507669 102.1521335  34.3475452  87.7452160 101.9117071  33.6368760
  87.2234253 101.4328465  34.9748988  69.3704825 115.9954946  34.6618617
  69.2359292 115.2355346  34.0956615  68.9536887 116.7195845  34.1947406
  81.3361598 106.9301730  29.7897462  81.2796799 107.3870282  28.9505095
  81.8889940 106.1692415  29.6120305  85.1466404 102.7191462  30.6147582
  84.8903338 102.3188098  31.4455789  84.5219272 103.4335256  30.4897721
  89.4578742 105.4587535  33.1218873  88.8978300 105.5280725  33.8950435
  88.8522245 105.2828520  32.4018369  72.5273950 116.8924263  34.8737059
  72.4106335 117.8369695  34.7715750  71.7066397 116.5897824  35.2622859
  82.4150485 111.6174398  25.7193652  83.2496089 111.1855597  25.5371127
  82.2534828 111.4456412  26.6470546  82.0696377 108.1206512  27.0849991
  82.0145181 107.9550783  26.1438435  81.4442432 108.8282545  27.2412181
  66.8588892 103.3574576  40.9111414  67.5047756 102.8473530  41.3998639
  66.6506043 104.0943258  41.4854839  79.3842284 110.4255423  46.4103554
  80.2533444 110.5996076  46.0490189  78.9049036 111.2449840  46.2879283
  75.3792503  97.6214621  26.6635310  75.3671172  98.5656461  26.8203581
  76.2715924  97.4384766  26.3694771  73.5528465 117.5452524  38.0892988
  74.4555711 117.5776135  38.4059483  73.3265835 116.6152975  38.1039324
  75.3082067 116.2983511  34.7503066  74.3577698 116.2985373  34.6367439
  75.6114553 115.5516246  34.2339101  79.1944622  94.2157397  30.9181246
  78.4277018  93.6615884  31.0637929  79.6055327  94.2879266  31.7795398
  71.1986383 100.5042193  45.0086428  72.0617845 100.1478998  45.2189752
  70.6251794 100.1656088  45.6961832  91.0434760 122.1344049  35.8148829
  91.6813170 122.0150797  35.1112169  90.9255603 123.0824893  35.8736781
  87.8524466 122.0871478  35.7510353  87.5142978 121.9712542  34.8630888
  88.7214234 121.6862643  35.7311360  88.3344249 123.2406329  41.7096559
  88.3232890 122.8459128  40.8377063  88.4964889 122.5072402  42.3030330
  81.2575714 125.4358146  34.5791465  82.0497006 125.0948970  34.1637764
  81.4972364 125.5453121  35.4993618  85.0551510 126.0243441  40.6575743
  84.7641376 126.9289072  40.5422409  85.6908495 126.0659969  41.3719813
  85.9807717 123.4020290  37.2477103  86.5771290 123.1776312  36.5334066
  86.0382689 122.6605035  37.8502550  93.5209876 113.5092311  38.2529624
  93.1893201 114.3787722  38.0290839  92.9255489 113.1928595  38.9323654
  83.4653877 122.1618653  33.6862241  82.5404373 122.0294868  33.8939933
  83.7138290 122.9412873  34.1832183  93.4138539 118.2287397  35.3322974
  92.5055417 118.1602805  35.0381735  93.3626135 118.7059342  36.1604799
  80.8262688 121.8051927  34.5206030  80.9555069 122.0586406  35.4345442
  80.1460139 122.3979635  34.2010685  87.4879405 119.6477042  43.2757871
  86.7112739 120.2070962  43.2660736  88.1269968 120.1333825  43.7972741
  95.2800186 116.4303835  37.1100848  94.6374566 116.7236368  36.4640642
  94.7755114 116.3156755  37.9154045  85.7425777 122.4562496  42.8375838
  86.4840462 122.9947540  42.5610662  85.0362763 123.0828784  42.9947390
  91.2181117 124.5991636  41.4348000  91.6264473 124.1574047  40.6902632
  90.4958379 124.0244264  41.6882193  87.5712187 119.5364243  38.8081557
  88.4173382 119.9603656  38.9516206  87.5110825 118.8797867  39.5020120
  90.7211632 117.1968611  40.4662730  90.4772564 117.9510672  39.9297006
  90.9971563 117.5753959  41.3009977  90.2776324 116.3525044  36.0476568
  89.4160803 116.6506298  36.3393306  90.3038759 116.5695443  35.1157601
  83.9861975 124.4438716  35.3930137  84.5563332 124.8725985  34.7547621
  84.5770086 124.1621301  36.0914323  84.4787141 119.6102144  43.6391148
  83.8485802 120.2918425  43.8726545  84.3723229 119.4985225  42.6944286
  79.7732114 119.2773940  34.5657072  78.9831168 119.5331468  34.0897183
  80.2643361 120.0922278  34.6709113  81.7246859 119.6418519  31.5240549
  80.9278022 119.7537213  32.0424045  81.4972451 119.9805171  30.6581440
  87.5552527 126.1663222  39.4723064  87.6196959 126.6283630  40.3081236
  86.8463450 125.5360587  39.6005374  78.0569817 119.5304430  36.9972063
  78.3077855 120.4151440  37.2629639  78.5929365 119.3509032  36.2247155
  83.7567884 113.9122910  46.0016399  83.3634829 113.3589108  46.6764044
  84.5734024 114.2233488  46.3922917  86.6735845 115.3280789  43.5936656
  87.4145558 115.9287942  43.5141118  86.9053768 114.5858427  43.0354698
  81.8177183 120.5137156  41.8714886  81.7030698 119.6122413  42.1721984
  80.9621701 120.7600853  41.5199702  83.6556142 129.9850698  37.9963065
  84.2063567 129.8567761  37.2240059  82.8167618 130.2845587  37.6457957
  87.4523313 126.2501826  42.3407296  87.9851650 125.4890114  42.1106604
  86.9237394 125.9575478  43.0831450  90.6193008 111.3561892  37.8700938
  90.2757277 112.2463533  37.7940048  90.9871970 111.1663549  37.0070523
  88.1690402 116.1920204  31.4358611  87.3131998 115.8027054  31.2564250
  88.5817353 116.2712164  30.5758397  89.6989548 113.7266547  35.8350171
  89.1954344 113.6896682  35.0217976  89.9920155 114.6359290  35.8946827
  85.9432434 113.8105277  34.8416353  86.8085431 113.6148085  34.4822242
  86.0109943 113.5815628  35.7685709  83.5494753 116.0407485  32.2132719
  84.1238505 115.8182666  31.4805912  84.1365736 116.1096179  32.9661321
  85.8517421 112.9148733  30.9407789  85.1981833 112.5997751  30.3164404
  85.8097895 112.2924474  31.6667612  89.0855161 119.4030667  35.2655436
  88.1677723 119.6245614  35.1077124  89.5015305 119.4776977  34.4067144
  92.4180673 110.6155451  32.9718675  92.7239550 109.7552814  32.6844590
  93.1433278 111.2073071  32.7717669  78.7105030 121.0186138  31.3600273
  78.5129429 120.4255498  30.6351340  78.1551694 120.7138348  32.0776212
  86.6901753 120.9109244  33.4794866  86.7450363 119.9583080  33.4037343
  85.8792955 121.0668683  33.9636165  84.6294113 119.5286304  31.2385245
  83.8161979 119.8280474  31.6450437  85.1253107 119.1341993  31.9559727
  90.2268325 119.9928128  40.0700139  90.5817713 120.2199601  40.9294605
  90.8740456 120.3246505  39.4477394  84.1208188 117.1004659  36.8546480
  84.7607567 116.9593418  36.1569443  83.2885718 116.8139173  36.4785082
  81.1236804 117.0704984  31.6319467  81.3843622 117.9850318  31.5228627
  81.9453977 116.6029427  31.7816080  82.5961730 118.4842741  38.8018291
  83.2684783 118.2760104  38.1530940  81.7691516 118.2864827  38.3623524
  88.4987302 115.1104682  40.8183952  87.8515217 115.8094632  40.7248429
  89.2688317 115.5440826  41.1860200  88.6751436 122.9485447  38.8780772
  89.6043496 123.0996607  38.7049739  88.2542466 123.0369468  38.0229419
  87.4739768 126.9736112  36.6479310  87.3350853 126.6054896  37.5205248
  86.6854364 127.4883751  36.4763267  82.9989227 121.7585344  39.5620729
  82.8609025 121.0265583  40.1632268  83.9094150 121.6694245  39.2804916
  85.6271528 121.4705304  39.0504408  86.3371146 120.8298496  39.0091027
  85.5840836 121.7218199  39.9730589  84.3400462 118.4570522  40.8700048
  83.8037819 118.0061260  41.5221644  83.7517170 118.5916430  40.1270512
  75.2704861 122.7036333  33.5268019  75.9575900 122.3898063  32.9389034
  75.1152989 123.6077697  33.2535270  80.0739583 117.5926529  37.9553042
  79.9897771 116.9852199  37.2203452  79.2522289 118.0835548  37.9562539
  90.2463297 116.0780093  33.3223237  90.7431996 115.3250055  33.0024307
  89.4750278 116.1144409  32.7566447  86.8298265 118.2197476  33.0494922
  86.4596053 117.6668516  33.7375827  87.3257358 117.6155609  32.4969922
  84.6587464 128.6794971  40.1449940  85.3596923 129.3131454  40.2979334
  84.1882579 129.0209702  39.3845579  92.6882291 113.0449686  35.4702596
  91.7745371 113.2753913  35.6384803  93.1175393 113.1288130  36.3216628
  92.4588750 121.2339578  37.9702490  91.8060200 121.4815486  37.3154943
  92.8369130 120.4203716  37.6364967  88.5076323 121.9759389  44.4568527
  87.8316960 121.8753519  45.1270902  89.3303957 121.8198603  44.9204524
  80.2555182 128.2131326  37.0781042  80.8408619 127.4675014  37.2108947
  80.0580020 128.5235283  37.9617706  74.8472837 120.7836926  35.7985486
  74.8856936 120.2500517  36.5922604  74.3413130 120.2572132  35.1796463
  82.2263599 115.6301467  39.2948028  82.2904926 116.4916298  38.8825426
  82.1630719 115.0175468  38.5620386  81.7015872 117.7024599  42.9421062
  82.3287910 117.3201676  43.5558587  80.8443790 117.4838801  43.3076755
  78.4781414 119.5101028  28.8739417  78.7734855 118.6011707  28.8206471
  77.5769450 119.4888768  28.5520419  82.0075661 117.5857025  34.8566966
  81.2862247 118.1992993  34.7174439  82.7968917 118.1214790  34.7783612
  84.8101975 114.9211451  41.1307617  85.3336377 115.1673748  41.8933927
  84.5914308 115.7531486  40.7110755  80.2069256 117.1915126  28.9978742
  79.8781962 116.3112505  28.8153848  80.5608627 117.1362795  29.8855131
  86.0154520 115.8625146  38.8157288  85.6751340 115.0632959  39.2177968
  85.3093526 116.1626857  38.2434121  86.6670992 112.9474459  37.2684611
  87.4897061 112.4734937  37.1463501  86.9109055 113.7264943  37.7683297
  84.1909570 119.6393580  35.0776590  84.0454151 119.9533883  35.9700871
  83.7134774 120.2578480  34.5247488  86.0505953 116.6296127  35.1257479
  86.0367522 115.7337221  34.7889777  86.7678381 116.6366791  35.7595765
  87.9032084 117.0633468  37.1710607  87.6449862 117.9850538  37.1694937
  87.3717124 116.6663902  37.8611071  78.6655233 122.1798924  38.0164251
  78.1208701 122.9558732  38.1484525  79.5434582 122.5269728  37.8583372
  85.4542849 115.5110508  30.3945049  85.5758760 114.5827154  30.5935937
  85.1644892 115.5249194  29.4823365  88.3234040 113.1965418  33.5311769
  88.3455736 113.2604751  32.5763749  88.7402099 112.3569927  33.7252275
  79.4521254 121.3068820  40.9094408  78.7102991 121.4551456  41.4959038
  79.1313999 121.5677086  40.0461157  78.0986473 127.1120575  33.8993736
  77.2618382 126.6842750  33.7177737  78.0710119 127.3053019  34.8364527
  84.9383929 117.0242505  44.6034982  84.9872084 117.9004628  44.2212751
  85.4806443 116.4819898  44.0306625  92.8340412 120.4007023  42.5128154
  93.7350275 120.2613488  42.2212152  92.9088386 120.5661478  43.4526332
  87.1683217 117.7773878  41.3581340  86.2986527 118.0707444  41.0863929
  87.4042698 118.3614323  42.0788604  89.8722251 113.9953494  38.8746761
  90.3904195 114.7314521  38.5493249  89.5177384 114.3017488  39.7093520
  90.1234845 110.4153777  34.3947657  90.4036599 109.7476966  35.0208084
  90.9085452 110.6082873  33.8822321  93.9943704 118.8371411  38.1419233
  94.9461127 118.9369509  38.1631457  93.8247154 118.0449680  38.6517317
  92.0158083 115.9226994  38.3278634  91.4208015 116.2032007  37.6325122
  91.7307780 116.4120895  39.0995375  96.6226270 118.8488574  37.3019815
  96.1065319 118.0647031  37.1149744  97.5066218 118.5207291  37.4666335
  94.2836997 112.5929590  33.2615628  94.0861818 112.2844678  34.1458960
  94.8936702 113.3191229  33.3913558  88.1953805 124.9791330  44.7589393
  89.1156814 125.1569929  44.9529440  88.1603388 124.0347375  44.6069093
  77.4135970 120.1729923  33.6842668  77.0938754 119.3195232  33.3917042
  76.8669398 120.3878502  34.4400635  81.1915877 122.8892364  37.4012174
  81.4101887 123.8209472  37.4200208  81.6041651 122.5300339  38.1866978
  88.1120095 113.3960450  29.3887863  87.3020823 113.0507535  29.7643109
  88.8004512 113.0867993  29.9775474  90.0410643 112.4738497  31.0112159
  90.5941682 112.8933950  31.6702183  90.2780730 111.5474245  31.0535115
  86.0643743 118.4625570  46.7914923  85.9640470 119.4119927  46.7227014
  85.8465285 118.1343809  45.9190993  77.2824230 123.7932835  35.6535789
  76.5887701 123.3786788  35.1405744  78.0297221 123.8353371  35.0569208
  91.8693017 113.9844079  32.7212144  92.3692795 114.0960614  31.9126463
  92.5128625 113.6805132  33.3612952  85.9275013 121.8922709  45.6079985
  85.4442094 122.6923069  45.8143874  86.0135952 121.9030654  44.6547429
  79.1960972 123.7251089  33.5301804  79.1731660 123.8238776  32.5783687
  79.5061609 124.5716240  33.8518970  81.8548350 125.7827244  37.6448419
  82.8091604 125.7511186  37.5778350  81.6560874 125.3217867  38.4598645
  82.4447732 124.3528360  40.2119216  83.2640621 124.8472438  40.2354054
  82.7184540 123.4360328  40.1836784  77.6982647 118.6866494  40.9111414
  78.3441510 118.1765448  41.3998639  77.4899798 119.4235175  41.4854839
  90.0338377 109.5449315  30.9181246  89.2670772 108.9907802  31.0637929
  90.4449081 109.6171184  31.7795398  82.0380138 115.8334111  45.0086428
  82.9011599 115.4770916  45.2189752  81.4645548 115.4948006  45.6961832
  28.5795781  13.4383274  28.6956294  28.5208327  12.7542494  28.0286877
  28.9815299  14.1802264  28.2436920  27.0647454  13.1398191  31.2720104
  27.6087358  13.7528149  30.7775059  26.4834299  13.6977769  31.7887117
  30.3876249  12.5994245  30.6081426  29.5971793  12.5818384  30.0685925
  30.1509603  13.1382539  31.3630462  32.0092321  11.8683653  28.1656176
  31.7177129  12.2313633  29.0019637  31.3964452  11.1550661  27.9869508
  25.1873513  10.7857958  33.1348861  26.0564673  10.9598610  32.7735496
  24.7080265  11.6052375  33.0124590  36.8465989  22.4946584  22.5394135
  37.4844399  22.3753331  21.8357475  36.7286832  23.4427428  22.5982088
  33.6555695  22.4474012  22.4755660  33.3174207  22.3315076  21.5876195
  34.5245463  22.0465177  22.4556666  34.1375478  23.6008863  28.4341866
  34.1264119  23.2061662  27.5622369  34.2996118  22.8674936  29.0275637
  27.0606943  25.7960680  21.3036771  27.8528235  25.4551504  20.8883071
  27.3003593  25.9055655  22.2238925  30.8582739  26.3845975  27.3821050
  30.5672605  27.2891606  27.2667716  31.4939724  26.4262503  28.0965119
  31.7838946  23.7622824  23.9722409  32.3802518  23.5378846  23.2579372
  31.8413918  23.0207569  24.5747857  41.8015684  20.1573271  20.5180322
  42.5340856  19.5872487  20.7518151  41.0455040  19.7694871  20.9586828
  39.3241105  13.8694845  24.9774931  38.9924430  14.7390256  24.7536146
  38.7286718  13.5531129  25.6568961  35.8172624  26.0707391  24.3770843
  35.5173347  26.9732430  24.2686650  35.4723684  25.8039574  25.2291996
  39.2169768  18.5889931  22.0568281  38.3086645  18.5205339  21.7627042
  39.1657364  19.0661876  22.8850106  30.7993404  32.8351711  17.3441811
  30.7217434  33.7859536  17.4230292  30.1955048  32.4897584  18.0016737
  33.2910634  20.0079577  30.0003178  32.5143968  20.5673497  29.9906043
  33.9301197  20.4936360  30.5218048  41.0831415  16.7906369  23.8346155
  40.4405795  17.0838903  23.1885949  40.5786343  16.6759290  24.6399351
  31.5457006  22.8165030  29.5621145  32.2871691  23.3550074  29.2855968
  30.8393992  23.4431319  29.7192697  37.0212346  24.9594170  28.1593306
  37.4295702  24.5176581  27.4147939  36.2989607  24.3846798  28.4127499
  33.3743416  19.8966777  25.5326863  34.2204611  20.3206191  25.6761512
  33.3142054  19.2400401  26.2265426  37.3441160  25.5195361  21.9145595
  36.7150023  25.6841075  21.2121663  36.9566823  25.9336971  22.6856559
  41.2230392  26.4549799  19.2689959  40.5381431  26.8348700  18.7186992
  41.3074242  27.0645126  20.0021907  36.5242861  17.5571145  27.1908037
  36.2803793  18.3113206  26.6542313  36.8002792  17.9356493  28.0255284
  38.4781324  24.1009758  25.8685303  38.6898219  24.7441518  25.1919684
  38.4311072  23.2672074  25.4007233  29.7893203  24.8041251  22.1175444
  30.3594560  25.2328519  21.4792928  30.3801315  24.5223835  22.8159629
  30.2818370  19.9704678  30.3636455  29.6517031  20.6520959  30.5971852
  30.1754458  19.8587760  29.4189593  39.5927152  26.9781713  24.0407660
  40.4144596  26.5761901  23.7590341  39.5889555  26.8749947  24.9923776
  33.3583755  26.5265757  26.1968370  33.4228188  26.9886164  27.0326542
  32.6494679  25.8963122  26.3250680  47.6833145  23.3220462  20.3892631
  46.9296853  22.7527860  20.2336636  47.8180686  23.2883126  21.3363266
  29.5599113  14.2725444  32.7261706  29.1666058  13.7191642  33.4009350
  30.3765253  14.5836022  33.1168223  32.4767074  15.6883323  30.3181962
  33.2176787  16.2890476  30.2386425  32.7084996  14.9460961  29.7600005
  27.6208412  20.8739690  28.5960192  27.5061927  19.9724948  28.8967291
  26.7652929  21.1203387  28.2445009  34.7000249  28.8157431  30.1947693
  34.2564104  28.0293809  29.8768597  35.3617463  29.0036581  29.5291584
  29.4587371  30.3453232  24.7208371  30.0094796  30.2170296  23.9485365
  28.6198846  30.6448121  24.3703264  36.7981487  29.0960231  28.2229094
  36.7799963  29.9169112  27.7309363  37.7201408  28.9714306  28.4479235
  33.2554542  26.6104360  29.0652602  33.7882878  25.8492648  28.8351910
  32.7268623  26.3178012  29.8076757  39.6000100  23.9339373  21.6938461
  38.9423775  24.6238634  21.7818589  40.4040500  24.3235805  22.0372447
  38.4105559  22.2883746  19.7442402  38.9237441  22.9213737  20.2464112
  39.0606783  21.6884941  19.3785762  34.8886390  19.7633201  21.9900743
  33.9708951  19.9848148  21.8322431  35.3046534  19.8379512  21.1312450
  39.1767355  27.2689747  17.8721545  38.7229682  26.4280657  17.9286736
  38.5461322  27.9051145  18.2096325  37.6200295  29.1066244  18.8071363
  37.9123269  29.6671301  18.0883729  38.1298915  29.3994805  19.5624522
  32.5833920  29.8846595  19.8964816  32.5410099  30.1107441  18.9673348
  33.4996619  29.6509969  20.0450618  36.0299554  20.3530662  26.7945446
  36.3848941  20.5802136  27.6539911  36.6771685  20.6849039  26.1722701
  41.7597291  23.4749098  17.4994775  41.6215189  23.6650694  16.5715964
  41.4033509  24.2368481  17.9562826  41.7866670  25.5425625  22.5106046
  42.2203177  25.4500914  23.3589100  42.4998251  25.5183126  21.8726062
  35.5194565  29.1427719  24.0439147  35.5731587  29.7118656  24.8116863
  34.6509346  29.3129604  23.6793184  28.3992958  18.8445276  25.5263598
  29.0716012  18.6362638  24.8776247  27.5722745  18.6467362  25.0868830
  42.6482220  25.5849326  25.0438932  42.8418110  26.4895136  25.2898207
  42.5482838  25.1256745  25.8777517  34.3018530  15.4707217  27.5429259
  33.6546445  16.1697166  27.4493735  35.0719546  15.9043360  27.9105507
  37.7097328  25.7356069  30.6179812  37.5582835  25.5066620  29.7009896
  37.7002008  26.6926670  30.6311157  34.4782665  23.3087981  25.6026079
  35.4074725  23.4599141  25.4295046  34.0573695  23.3972002  24.7474725
  33.2770997  27.3338646  23.3724616  33.1382082  26.9657430  24.2450554
  32.4885593  27.8486285  23.2008574  33.8719149  32.4347742  14.7150153
  34.0470904  31.9635786  15.5295775  33.1851937  33.0613509  14.9431414
  34.8276212  26.7120249  20.7613454  34.4926044  26.6721019  21.6571104
  34.3280157  26.0464964  20.2883864  28.8020456  22.1187879  26.2866035
  28.6640254  21.3868117  26.8877574  29.7125379  22.0296779  26.0050223
  31.4302756  21.8307838  25.7749715  32.1402375  21.1901030  25.7336333
  31.3872065  22.0820733  26.6975896  39.4189535  28.7675191  28.6956294
  39.3602081  28.0834411  28.0286877  39.8209053  29.5094181  28.2436920
  30.1431690  18.8173056  27.5945354  29.6069047  18.3663794  28.2466951
  29.5548399  18.9518965  26.8515819  28.4380234  35.5837105  21.4890013
  28.6776832  36.2155629  22.1669032  27.5949430  35.2325145  21.7755372
  39.4206942  26.7314775  26.9270274  38.5333721  26.3940697  27.0496673
  39.9905493  25.9997806  27.1639039  32.9508096  31.3916228  23.8931517
  32.8778267  32.1971199  24.4050822  32.5085489  31.5908193  23.0679538
  32.7397875  30.6287998  17.4034338  31.9565397  31.1709678  17.4972563
  33.4390620  31.1461977  17.8028580  43.9024283  22.1422993  21.6886835
  43.8914159  23.0247708  21.3180768  43.0341662  21.7894543  21.4941372
  35.4106779  31.2903062  26.0489676  36.1234751  31.9250526  25.9765577
  34.9196808  31.3866928  25.2329677  30.4618693  29.0397505  26.8695246
  31.1628152  29.6733988  27.0224641  29.9913808  29.3812237  26.1090886
  38.2619979  21.5942113  24.6947797  37.6091429  21.8418020  24.0400250
  38.6400359  20.7806251  24.3610274  35.2227153  31.6301806  18.7975967
  35.4049547  30.8123462  19.2603719  36.0460139  31.8469498  18.3600857
  35.5569318  30.5569991  16.0591016  36.0857085  30.0462445  15.4461178
  35.8197538  30.2412521  16.9236549  34.3107552  22.3361924  31.1813834
  33.6348189  22.2356053  31.8516209  35.1335186  22.1801137  31.6449831
  26.0586411  28.5733860  23.8026349  26.6439848  27.8277548  23.9354253
  25.8611249  28.8837817  24.6863013  28.9125066  31.6085107  18.8188791
  28.2435441  32.0931235  18.3352832  28.7737936  31.8554328  19.7332170
  33.0530335  33.6428851  25.4171450  33.6048643  33.8060473  26.1820535
  33.3936528  34.2333289  24.7451475  27.5047100  18.0627133  29.6666369
  28.1319139  17.6804211  30.2803893  26.6475019  17.8441335  30.0322061
  37.9041209  28.4690109  31.2720104  38.4481113  29.0820067  30.7775059
  37.3228054  29.0269687  31.7887117  36.1898722  31.5910827  22.4035132
  36.0649861  30.7900566  21.8946078  36.8477813  32.0857020  21.9149102
  38.2533630  29.3919847  24.0314682  37.3063966  29.2725198  23.9593009
  38.6016403  28.5042345  24.1140944  30.6133204  15.2813986  27.8552924
  31.1367605  15.5276282  28.6179233  30.3945537  16.1134020  27.4356061
  35.2580064  29.1872563  20.2319034  35.1105026  28.2589270  20.4126604
  36.0833557  29.2092654  19.7476110  38.8614185  30.0101122  21.3183907
  39.7860733  29.8043983  21.1808358  38.6929489  29.7617523  22.2273249
  31.8185749  16.2227681  25.5402595  31.4782569  15.4235494  25.9423274
  31.1124755  16.5229391  24.9679428  33.7063313  17.4236002  23.8955913
  33.4481091  18.3453073  23.8940244  33.1748353  17.0266436  24.5856377
  38.6509502  30.5286789  16.6745999  38.8246379  29.9633212  15.9219851
  39.1438393  31.3287684  16.4925488  24.4686461  22.5401458  24.7409557
  23.9239930  23.3161266  24.8729832  25.3465811  22.8872263  24.5828679
  44.5048893  23.2923212  18.2936298  44.9480039  22.5430537  17.8955422
  43.6275403  23.2833348  17.9110030  39.6384674  29.8453553  13.7742897
  40.3335579  30.4660246  13.9930211  39.9807824  28.9948905  14.0495275
  25.2552483  21.6671354  27.6339714  24.5134219  21.8153990  28.2204345
  24.9345228  21.9279620  26.7706464  41.5376097  27.2953259  15.3030228
  42.0627421  27.6340532  14.5779548  41.4498450  26.3600274  15.1193362
  33.1996146  31.2087333  27.4320104  33.5083272  30.9636479  28.3042804
  33.9971628  31.4133971  26.9438974  33.2216758  33.3625242  19.6625481
  32.7821748  32.8701621  20.3558337  33.9724875  32.8198210  19.4217556
  25.7009097  29.5536783  19.6650109  26.5267117  29.2540555  19.2848752
  25.3503149  28.7844406  20.1139898  30.6690630  28.9063251  21.7347782
  30.0470639  28.2433956  21.4350010  31.3395497  28.9324383  21.0521430
  30.7415158  17.3845039  31.3280288  30.7903313  18.2607162  30.9458058
  31.2837672  16.8422432  30.7551932  41.2270003  27.9286163  30.6081426
  40.4365547  27.9110301  30.0685925  40.9903358  28.4674456  31.3630462
  41.3467878  24.7778629  27.9214154  41.3965883  24.6128636  28.8629677
  41.2381802  23.9105888  27.5312035  38.6371641  20.7609557  29.2373461
  39.5381503  20.6216022  28.9457459  38.7119615  20.9264012  30.1771638
  32.9714446  18.1376412  28.0826647  32.1017755  18.4309978  27.8109236
  33.2073926  18.7216857  28.8033911  42.8486075  27.1975570  28.1656176
  42.5570883  27.5605551  29.0019637  42.2358206  26.4842579  27.9869508
  44.0481757  24.7628450  20.6858746  44.8828649  25.2018254  20.8496306
  44.1840886  24.2867103  19.8666992  41.0973263  22.3208185  26.6336234
  41.5727385  22.5135831  25.8255085  40.1738829  22.3767371  26.3879617
  35.6753480  14.3556029  25.5992068  36.1935424  15.0917056  25.2738556
  35.3208613  14.6620022  26.4338827  39.7974932  19.1973945  24.8664539
  40.7492355  19.2972043  24.8876763  39.6278383  18.4052214  25.3762624
  37.8189312  16.2829528  25.0523940  37.2239244  16.5634541  24.3570429
  37.5339009  16.7723429  25.8240681  42.2763010  22.4180065  23.9806839
  42.2439330  21.4796066  24.1666523  42.8863634  22.4964102  23.2472664
  42.4257499  19.2091108  24.0265122  41.9096547  18.4249565  23.8395051
  43.3097447  18.8809825  24.1911642  48.0939560  23.4796072  23.1212876
  48.8242949  23.2181360  23.6820579  47.4846506  22.7424794  23.1614944
  46.1754857  21.6203934  23.7187327  45.4488021  21.4859899  23.1103818
  45.7602144  21.9280763  24.5244045  33.9985034  25.3393864  31.4834700
  34.9188043  25.5172463  31.6774746  33.9634617  24.3949909  31.3314399
  26.9947106  23.2494899  24.1257481  27.2133116  24.1812006  24.1445515
  27.4072880  22.8902873  24.9112285  31.8674971  18.8228104  33.5160230
  31.7671698  19.7722461  33.4472321  31.6496514  18.4946343  32.6436300
  31.7306242  22.2525243  32.3325292  31.2473323  23.0525603  32.5389181
  31.8167181  22.2633188  31.3792736  27.6579579  26.1429778  24.3693725
  28.6122833  26.1113720  24.3023657  27.4592103  25.6820402  25.1843951
  28.2478961  24.7130894  26.9364523  29.0671850  25.2074973  26.9599360
  28.5215769  23.7962862  26.9082091  43.7932652  17.8415787  21.0720758
  44.3877143  17.6011522  20.3614067  43.8659236  17.1222917  21.6994295
  26.0129808  31.6849397  21.3863923  25.8784276  30.9249798  20.8201921
  25.5961870  32.4090297  20.9192712  46.1003725  21.1481987  19.8464180
  45.5403283  21.2175177  20.6195742  45.4947228  20.9722972  19.1263676
  29.1698934  32.5818714  21.5982366  29.0531318  33.5264147  21.4961056
  28.3491380  32.2792276  21.9868165  23.5013875  19.0469028  27.6356720
  24.1472739  18.5367982  28.1243945  23.2931026  19.7837710  28.2100145
  36.0267268  26.1149875  33.1348861  36.8958427  26.2890528  32.7735496
  35.5474019  26.9344292  33.0124590  30.1953448  33.2346976  24.8138294
  31.0980695  33.2670587  25.1304789  29.9690818  32.3047427  24.8284630
  31.9507050  31.9877963  21.4748373  31.0002681  31.9879825  21.3612745
  32.2539536  31.2410697  20.9584408  27.8411366  16.1936645  31.7331734
  28.7042828  15.8373450  31.9435059  27.2676777  15.8550540  32.4207139
  47.6859743  37.8238501  22.5394135  48.3238153  37.7045249  21.8357475
  47.5680586  38.7719345  22.5982088  44.4949450  37.7765929  22.4755660
  44.1567961  37.6606994  21.5876195  45.3639218  37.3757094  22.4556666
  40.3536265  39.6301406  18.4652551  39.7901130  39.5391343  17.6968839
  40.2388660  38.8101310  18.9455044  44.9769233  38.9300781  28.4341866
  44.9657873  38.5353579  27.5622369  45.1389872  38.1966854  29.0275637
  37.9000697  41.1252597  21.3036771  38.6921989  40.7843422  20.8883071
  38.1397347  41.2347572  22.2238925  45.9335824  43.2972374  13.7767016
  45.2823804  43.8826454  13.3901030  46.7280187  43.8278568  13.8362053
  39.8591451  40.3861511  14.1754150  40.6322327  39.8390498  14.0367026
  40.2116850  41.2505760  14.3868612  41.6976494  41.7137893  27.3821050
  41.4066360  42.6183524  27.2667716  42.3333478  41.7554421  28.0965119
  42.6232701  39.0914741  23.9722409  43.2196273  38.8670764  23.2579372
  42.6807672  38.3499487  24.5747857  42.1957729  36.5454177  11.8072600
  42.4483250  36.0235698  11.0456063  41.2582288  36.3820322  11.9099284
  47.2401012  35.5489955  19.6147343  48.0264101  35.1309378  19.2637760
  47.5039716  36.4536047  19.7828992  47.4111089  40.9862805  14.3136000
  46.7756922  41.0597432  15.0256905  47.0808496  41.5756404  13.6355079
  52.6409439  35.4865188  20.5180322  53.3734611  34.9164405  20.7518151
  51.8848795  35.0986789  20.9586828  41.9154018  38.4482283  14.0096975
  41.7990276  37.7727186  14.6778059  42.0256278  37.9614657  13.1929128
  44.2585559  37.9092430  17.7143664  43.8943766  37.3823051  18.4256586
  45.1152675  37.5190899  17.5410150  50.1634859  29.1986762  24.9774931
  49.8318184  30.0682173  24.7536146  49.5680473  28.8823046  25.6568961
  43.8991046  32.9382330  12.7105013  44.0665448  33.8062566  13.0775484
  43.7088215  33.1009611  11.7866302  46.6566379  41.3999308  24.3770843
  46.3567102  42.3024347  24.2686650  46.3117438  41.1331492  25.2291996
  40.1078860  37.8513105  20.4107548  39.1829357  37.7189319  20.6185239
  40.3563273  38.6307325  20.9077490  50.0563523  33.9181849  22.0568281
  49.1480400  33.8497257  21.7627042  50.0051118  34.3953794  22.8850106
  43.8780267  35.3939987  13.6951680  43.7579892  35.8397038  14.5337160
  43.1832855  35.7425305  13.1365218  37.4687671  37.4946379  21.2451337
  37.5980052  37.7480858  22.1590748  36.7885123  38.0874087  20.9255992
  41.6387159  48.1643629  17.3441811  41.5611188  49.1151454  17.4230292
  41.0348802  47.8189501  18.0016737  44.1304388  35.3371494  30.0003178
  43.3537722  35.8965414  29.9906043  44.7694951  35.8228277  30.5218048
  51.9225169  32.1198287  23.8346155  51.2799549  32.4130820  23.1885949
  51.4180098  32.0051207  24.6399351  49.5765333  35.8661460  14.5232014
  50.4883189  36.0988847  14.3479711  49.0674980  36.4498504  13.9607092
  42.3850761  38.1456948  29.5621145  43.1265445  38.6841992  29.2855968
  41.6787746  38.7723236  29.7192697  47.8606100  40.2886088  28.1593306
  48.2689456  39.8468499  27.4147939  47.1383362  39.7138716  28.4127499
  44.2137170  35.2258695  25.5326863  45.0598366  35.6498108  25.6761512
  44.1535808  34.5692319  26.2265426  48.1834915  40.8487279  21.9145595
  47.5543777  41.0132993  21.2121663  47.7960577  41.2628888  22.6856559
  52.0624147  41.7841717  19.2689959  51.3775185  42.1640618  18.7186992
  52.1467996  42.3937043  20.0021907  47.3636616  32.8863063  27.1908037
  47.1197548  33.6405124  26.6542313  47.6396546  33.2648411  28.0255284
  49.3175078  39.4301676  25.8685303  49.5291974  40.0733435  25.1919684
  49.2704827  38.5963992  25.4007233  46.9201307  32.0419496  22.7721875
  46.0585786  32.3400750  23.0638612  46.9463742  32.2589895  21.8402907
  43.7362877  40.5861687  19.1795680  44.2001222  40.8649390  18.3900303
  43.4719675  39.6845131  18.9968771  40.6286958  40.1333168  22.1175444
  41.1988315  40.5620437  21.4792928  41.2195070  39.8515753  22.8159629
  42.6731763  36.7084839  15.9885245  43.3755806  37.1605883  16.4559172
  42.3412391  36.0668658  16.6165139  41.1212124  35.2996596  30.3636455
  40.4910785  35.9812877  30.5971852  41.0148212  35.1879677  29.4189593
  36.4157097  34.9668392  21.2902379  35.6256151  35.2225920  20.8142490
  36.9068344  35.7816730  21.3954420  50.4320906  42.3073631  24.0407660
  51.2538350  41.9053818  23.7590341  50.4283309  42.2041865  24.9923776
  38.3671842  35.3312971  18.2485856  37.5703006  35.4431665  18.7669351
  38.1397434  35.6699623  17.3826746  44.1977510  41.8557674  26.1968370
  44.2621942  42.3178081  27.0326542  43.4888434  41.2255039  26.3250680
  34.6994800  35.2198882  23.7217370  34.9502838  36.1045892  23.9874946
  35.2354348  35.0403484  22.9492462  58.5226899  38.6512379  20.3892631
  57.7690608  38.0819778  20.2336636  58.6574441  38.6175044  21.3363266
  43.9125528  43.5225782  16.0647351  43.7771202  44.3677317  16.4932199
  44.4535340  43.7245059  15.3013284  40.3992867  29.6017362  32.7261706
  40.0059813  29.0483560  33.4009350  41.2159007  29.9127940  33.1168223
  37.3654925  41.0401220  16.6375276  37.8779445  41.8344470  16.7880840
  38.0177638  40.3427510  16.5708877  39.1749810  44.1566976  18.7198029
  39.3516438  45.0784941  18.5319013  39.9706643  43.8425395  19.1492409
  43.3160828  31.0175241  30.3181962  44.0570542  31.6182394  30.2386425
  43.5478751  30.2752878  29.7600005  38.4602166  36.2031608  28.5960192
  38.3455681  35.3016865  28.8967291  37.6046684  36.4495305  28.2445009
  45.5394004  44.1449348  30.1947693  45.0957858  43.3585727  29.8768597
  46.2011217  44.3328499  29.5291584  40.2981125  45.6745150  24.7208371
  40.8488550  45.5462213  23.9485365  39.4592601  45.9740039  24.3703264
  47.6375242  44.4252148  28.2229094  47.6193717  45.2461029  27.7309363
  48.5595162  44.3006223  28.4479235  44.0948296  41.9396278  29.0652602
  44.6276633  41.1784566  28.8351910  43.5662377  41.6469929  29.8076757
  47.2617991  27.0456344  24.5946244  46.9182260  27.9357985  24.5185355
  47.6296954  26.8558001  23.7315829  35.3303842  39.3689874  17.4134846
  36.1679064  39.7786882  17.1968554  35.5082109  38.4289316  17.3835040
  47.2268274  37.0364955  13.1018679  46.7114897  37.8069559  13.3407067
  46.9545582  36.3630091  13.7251741  44.8115385  31.8814656  18.1603918
  43.9556981  31.4921506  17.9809556  45.2242337  31.9606616  17.3003703
  46.3414531  29.4160999  22.5595477  45.8379327  29.3791134  21.7463283
  46.6345138  30.3253742  22.6192134  42.5857417  29.4999729  21.5661659
  43.4510414  29.3042537  21.2067549  42.6534926  29.2710080  22.4931016
  52.2002548  39.7897309  15.0371853  51.4231991  39.4508469  14.5927015
  52.8794029  39.7949933  14.3626818  47.0154577  34.9092047  14.9278460
  46.7104713  35.2238196  15.7788604  47.9685019  34.9873467  14.9705793
  45.4601009  41.0682270  16.5771414  44.9322370  40.3335030  16.2644652
  44.9588512  41.8456946  16.3311383  50.4393855  39.2631291  21.6938461
  49.7817529  39.9530552  21.7818589  51.2434254  39.6527723  22.0372447
  40.1919736  31.7301936  18.9378026  40.7663488  31.5077118  18.2051219
  40.7790719  31.7990631  19.6906627  49.2499314  37.6175663  19.7442402
  49.7631195  38.2505655  20.2464112  49.9000538  37.0176859  19.3785762
  40.5189324  33.7606397  12.9573911  39.6826636  34.0981084  13.2783186
  40.3794093  33.6255377  12.0201048  42.4942404  28.6043185  17.6653095
  41.8406816  28.2892203  17.0409710  42.4522878  27.9818926  18.3912918
  43.6053609  38.8862480   9.5806387  42.6980671  38.6551734   9.7797536
  44.1024641  38.0900100   9.7680369  46.5121688  47.5959988  12.5003074
  45.8383387  47.8991684  13.1088031  46.8987510  48.3989068  12.1508531
  45.7280145  35.0925119  21.9900743  44.8102706  35.3140066  21.8322431
  46.1440288  35.1671429  21.1312450  46.5115192  36.4916535  17.1203423
  47.2587011  37.0037932  16.8110545  46.7806782  36.1700587  17.9807817
  44.7841842  38.9875075  14.1030378  43.8753062  38.7034108  14.2002847
  44.8136926  39.4074154  13.2433684  50.0161110  42.5981665  17.8721545
  49.5623437  41.7572575  17.9286736  49.3855077  43.2343063  18.2096325
  48.9594029  33.5273651  19.1022213  48.2216786  33.0151037  19.4332455
  49.2120803  33.0874032  18.2905489  48.4594049  44.4358161  18.8071363
  48.7517023  44.9963219  18.0883729  48.9692670  44.7286722  19.5624522
  49.0605657  26.3049903  19.6963982  49.3664534  25.4447266  19.4089897
  49.7858262  26.8967523  19.4962976  35.3530013  36.7080589  18.0845580
  35.1554413  36.1149950  17.3596646  34.7976677  36.4032800  18.8021519
  43.3326736  36.6003696  20.2040173  43.3875346  35.6477532  20.1282649
  42.5217939  36.7563135  20.6881471  44.4817930  40.5283819  11.4418456
  44.0437360  39.8119678  10.9824093  45.2228371  40.7559934  10.8803548
  41.2719096  35.2180756  17.9630552  40.4586962  35.5174926  18.3695744
  41.7678091  34.8236444  18.6805034  43.4227674  45.2138513  19.8964816
  43.3803853  45.4399359  18.9673348  44.3390373  44.9801887  20.0450618
  46.8693308  35.6822580  26.7945446  47.2242696  35.9094053  27.6539911
  47.5165439  36.0140957  26.1722701  52.5991045  38.8041016  17.4994775
  52.4608944  38.9942612  16.5715964  52.2427264  39.5660399  17.9562826
  40.7633171  32.7899111  23.5791787  41.4032550  32.6487870  22.8814750
  39.9310702  32.5033625  23.2030389  52.6260425  40.8717543  22.5106046
  53.0596931  40.7792832  23.3589100  53.3392005  40.8475043  21.8726062
  41.5393475  42.0901542  19.6926779  42.3334074  41.5951862  19.4909354
  40.8285167  41.5619405  19.3294485  46.3588320  44.4719637  24.0439147
  46.4125342  45.0410573  24.8116863  45.4903101  44.6421522  23.6793184
  37.8476239  36.2344623  15.7686532  36.9173827  36.1729079  15.9856494
  37.9433711  35.7120576  14.9723173  37.7661788  32.7599436  18.3564774
  38.0268605  33.6744769  18.2473934  38.5878960  32.2923879  18.5061386
  39.2386713  34.1737193  25.5263598  39.9109766  33.9654555  24.8776247
  38.4116499  33.9759279  25.0868830  53.4875974  40.9141244  25.0438932
  53.6811864  41.8187054  25.2898207  53.3876592  40.4548663  25.8777517
  45.1412285  30.7999134  27.5429259  44.4940200  31.4989084  27.4493735
  45.9113300  31.2335278  27.9105507  48.5491083  41.0647986  30.6179812
  48.3976589  40.8358538  29.7009896  48.5395762  42.0218588  30.6311157
  45.3176419  38.6379899  25.6026079  46.2468479  38.7891059  25.4295046
  44.8967449  38.7263920  24.7474725  44.1164751  42.6630564  23.3724616
  43.9775837  42.2949348  24.2450554  43.3279347  43.1778203  23.2008574
  44.7112903  47.7639660  14.7150153  44.8864659  47.2927703  15.5295775
  44.0245691  48.3905426  14.9431414  45.6669966  42.0412166  20.7613454
  45.3319799  42.0012936  21.6571104  45.1673912  41.3756882  20.2883864
  39.6414210  37.4479796  26.2866035  39.5034008  36.7160035  26.8877574
  40.5519134  37.3588696  26.0050223  48.6029158  39.3868201  11.0350514
  47.9858328  38.6615029  10.9383566  48.1345646  40.1477561  10.6917588
  42.2696511  37.1599756  25.7749715  42.9796129  36.5192948  25.7336333
  42.2265819  37.4112650  26.6975896  50.2583290  44.0967109  28.6956294
  50.1995836  43.4126329  28.0286877  50.6602808  44.8386099  28.2436920
  40.9825445  34.1464973  27.5945354  40.4462802  33.6955712  28.2466951
  40.3942153  34.2810882  26.8515819  39.2773988  50.9129023  21.4890013
  39.5170587  51.5447547  22.1669032  38.4343185  50.5617063  21.7755372
  50.2600697  42.0606693  26.9270274  49.3727476  41.7232615  27.0496673
  50.8299248  41.3289724  27.1639039  31.9129844  38.3930785  20.2513325
  32.6000884  38.0792515  19.6634340  31.7577973  39.2972149  19.9780577
  36.7164566  33.2820981  24.6798349  36.6322755  32.6746651  23.9448759
  35.8947272  33.7730000  24.6807845  43.7901850  46.7208145  23.8931517
  43.7172022  47.5263117  24.4050822  43.3479243  46.9200111  23.0679538
  43.5791630  45.9579915  17.4034338  42.7959152  46.5001595  17.4972563
  44.2784375  46.4753895  17.8028580  46.8888280  31.7674545  20.0468544
  47.3856979  31.0144507  19.7269614  46.1175261  31.8038861  19.4811753
  54.7418037  37.4714910  21.6886835  54.7307914  38.3539626  21.3180768
  53.8735417  37.1186461  21.4941372  46.2500534  46.6194979  26.0489676
  46.9628506  47.2542444  25.9765577  45.7590562  46.7158845  25.2329677
  47.9718061  40.5246232  17.6206967  47.0374339  40.6447694  17.4511672
  48.1494729  39.6218699  17.3566977  43.4723249  33.9091928  19.7740228
  43.1021036  33.3562968  20.4621134  43.9682341  33.3050061  19.2215229
  51.3590612  36.3663551  18.1557001  51.8251064  37.1991543  18.0817304
  51.8098112  35.9008533  18.8602260  41.3012447  44.3689423  26.8695246
  42.0021907  45.0025906  27.0224641  40.8307562  44.7104154  26.1090886
  49.4266843  42.7107373  15.1543153  49.7026687  42.5963967  16.0637028
  48.5571342  42.3124857  15.1155327  49.3307275  28.7344138  22.1947903
  48.4170355  28.9648365  22.3630110  49.7600376  28.8182582  23.0461935
  49.1013733  36.9234030  24.6947797  48.4485183  37.1709938  24.0400250
  49.4794113  36.1098168  24.3610274  46.0620907  46.9593723  18.7975967
  46.2443302  46.1415379  19.2603719  46.8853893  47.1761416  18.3600857
  46.3963073  45.8861908  16.0591016  46.9250839  45.3754363  15.4461178
  46.6591292  45.5704439  16.9236549  45.1501306  37.6653841  31.1813834
  44.4741943  37.5647971  31.8516209  45.9728940  37.5093055  31.6449831
  36.8980165  43.9025778  23.8026349  37.4833602  43.1569466  23.9354253
  36.7005004  44.2129734  24.6863013  39.7518821  46.9377025  18.8188791
  39.0829196  47.4223153  18.3352832  39.6131690  47.1846246  19.7332170
  31.4897820  36.4731378  22.5230792  31.5281920  35.9394969  23.3167910
  30.9838113  35.9466584  21.9041769  43.8924089  48.9720769  25.4171450
  44.4442397  49.1352390  26.1820535  44.2330283  49.5625207  24.7451475
  38.8688582  31.3195918  26.0193335  38.9329909  32.1810749  25.6070732
  38.8055703  30.7069920  25.2865693  38.3440855  33.3919051  29.6666369
  38.9712894  33.0096128  30.2803893  37.4868774  33.1733253  30.0322061
  48.7434963  43.7982026  31.2720104  49.2874867  44.4111984  30.7775059
  48.1621808  44.3561605  31.7887117  35.1206398  35.1995480  15.5984724
  35.4159839  34.2906159  15.5451777  34.2194433  35.1783220  15.2765726
  47.0292476  46.9202744  22.4035132  46.9043616  46.1192484  21.8946078
  47.6871567  47.4148938  21.9149102  38.6500645  33.2751477  21.5812272
  37.9287230  33.8887444  21.4419746  39.4393900  33.8109242  21.5028918
  49.0927385  44.7211764  24.0314682  48.1457720  44.6017115  23.9593009
  49.4410158  43.8334262  24.1140944  41.4526958  30.6105903  27.8552924
  41.9761360  30.8568200  28.6179233  41.2339291  31.4425938  27.4356061
  36.8494239  32.8809578  15.7224049  36.5206945  32.0006957  15.5399155
  37.2033610  32.8257246  16.6100438  46.0973818  44.5164481  20.2319034
  45.9498780  43.5881188  20.4126604  46.9227312  44.5384571  19.7476110
  39.9636062  33.1682548  16.0899526  40.3032135  33.6968469  15.3678135
  40.4108183  33.5062954  16.8658093  49.7007940  45.3393039  21.3183907
  50.6254487  45.1335901  21.1808358  49.5323243  45.0909440  22.2273249
  42.6579503  31.5519598  25.5402595  42.3176324  30.7527411  25.9423274
  41.9518509  31.8521309  24.9679428  43.3095975  28.6368911  23.9929918
  44.1322044  28.1629389  23.8708808  43.5534039  29.4159395  24.4928604
  41.9504209  31.6657169  14.2892819  42.6712572  32.0438422  13.7856536
  41.3269514  32.3846046  14.3927797  46.0935332  32.3702318  15.2251152
  46.3098947  33.2526956  14.9239980  45.6129400  31.9788532  14.4956794
  40.8334554  35.3288031  21.8021896  40.6879134  35.6428334  22.6946178
  40.3559757  35.9472932  21.2492795  42.6930937  32.3190579  21.8502786
  42.6792505  31.4231673  21.5135084  43.4103365  32.3261243  22.4841072
  44.5457067  32.7527920  23.8955913  44.2874845  33.6744990  23.8940244
  44.0142108  32.3558354  24.5856377  49.4903256  45.8578707  16.6745999
  49.6640134  45.2925129  15.9219851  49.9832147  46.6579602  16.4925488
  35.3080216  37.8693376  24.7409557  34.7633684  38.6453184  24.8729832
  36.1859566  38.2164180  24.5828679  42.0967833  31.2004960  17.1190356
  42.2183744  30.2721606  17.3181243  41.8069875  31.2143646  16.2068671
  44.9659023  28.8859870  20.2557076  44.9880720  28.9499203  19.3009055
  45.3827082  28.0464379  20.4497582  55.3442647  38.6215130  18.2936298
  55.7873793  37.8722455  17.8955422  54.4669158  38.6125266  17.9110030
  50.4778429  45.1745471  13.7742897  51.1729333  45.7952164  13.9930211
  50.8201579  44.3240822  14.0495275  36.0946238  36.9963272  27.6339714
  35.3527974  37.1445907  28.2204345  35.7738982  37.2571538  26.7706464
  52.3769852  42.6245177  15.3030228  52.9021176  42.9632449  14.5779548
  52.2892204  41.6892192  15.1193362  44.0389900  46.5379250  27.4320104
  44.3477027  46.2928397  28.3042804  44.8365382  46.7425889  26.9438974
  44.0610512  48.6917160  19.6625481  43.6215503  48.1993539  20.3558337
  44.8118629  48.1490128  19.4217556  36.5402851  44.8828701  19.6650109
  37.3660871  44.5832473  19.2848752  36.1896903  44.1136323  20.1139898
  41.5084385  44.2355169  21.7347782  40.8864394  43.5725874  21.4350010
  42.1789252  44.2616301  21.0521430  34.7411457  42.8015027  20.6239042
  33.9043365  42.3737202  20.4423044  34.7135102  42.9947471  21.5609834
  41.5808912  32.7136957  31.3280288  41.6297068  33.5899080  30.9458058
  42.1231426  32.1714350  30.7551932  52.0663758  43.2578080  30.6081426
  51.2759301  43.2402219  30.0685925  51.8297112  43.7966374  31.3630462
  52.1861633  40.1070547  27.9214154  52.2359638  39.9420554  28.8629677
  52.0775556  39.2397806  27.5312035  41.0697892  42.7859092  15.2106243
  41.2186012  43.4694557  14.5572916  41.8764335  42.7664182  15.7255699
  49.4765395  36.0901475  29.2373461  50.3775258  35.9507940  28.9457459
  49.5513370  36.2555930  30.1771638  43.8108201  33.4668329  28.0826647
  42.9411510  33.7601895  27.8109236  44.0467681  34.0508774  28.8033911
  53.6879830  42.5267488  28.1656176  53.3964638  42.8897469  29.0019637
  53.0751961  41.8134496  27.9869508  54.8875512  40.0920368  20.6858746
  55.7222403  40.5310172  20.8496306  55.0234641  39.6159021  19.8666992
  51.9367018  37.6500103  26.6336234  52.4121140  37.8427749  25.8255085
  51.0132583  37.7059289  26.3879617  38.8250525  38.8124270  16.2167312
  38.5796566  37.9086600  16.4147522  38.9946439  38.8141420  15.2746790
  46.5147234  29.6847946  25.5992068  47.0329178  30.4208973  25.2738556
  46.1602367  29.9911940  26.4338827  38.0946172  34.5452628  13.7153473
  37.4015417  34.6196983  13.0593509  37.8497924  33.7812971  14.2374990
  46.7659829  26.1048229  21.1192964  47.0461582  25.4371418  21.7453391
  47.5510435  26.2977325  20.6067628  44.5693297  45.2807223  12.6817990
  43.9967264  45.8997410  12.2288462  45.1426091  45.8306584  13.2157912
  50.6368687  34.5265863  24.8664539  51.5886110  34.6263961  24.8876763
  50.4672137  33.7344131  25.3762624  48.6583066  31.6121446  25.0523940
  48.0632998  31.8926459  24.3570429  48.3732763  32.1015347  25.8240681
  47.7890557  45.5644373  13.8126573  48.7221230  45.4989935  14.0159448
  47.7013770  46.4000640  13.3541105  50.4178574  44.8810243  10.7730520
  50.3392205  44.5470107  11.6666278  51.2388240  45.3732011  10.7721993
  53.1156765  37.7471983  23.9806839  53.0833085  36.8087983  24.1666523
  53.7257388  37.8256019  23.2472664  44.9540096  36.6168036  10.0234043
  45.8999200  36.4874244  10.0922461  44.5754341  35.8782697  10.5003471
  53.2651253  34.5383026  24.0265122  52.7490302  33.7541483  23.8395051
  54.1491202  34.2101743  24.1911642  50.9261980  28.2824042  19.9860935
  50.7286801  27.9739130  20.8704267  51.5361686  29.0085680  20.1158865
  58.9333315  38.8087989  23.1212876  59.6636703  38.5473278  23.6820579
  58.3240260  38.0716711  23.1614944  57.0148612  36.9495852  23.7187327
  56.2881775  36.8151817  23.1103818  56.5995899  37.2572681  24.5244045
  44.8378788  40.6685782  31.4834700  45.7581798  40.8464381  31.6774746
  44.8028371  39.7241827  31.3314399  34.0560953  35.8624375  20.4087975
  33.7363737  35.0089684  20.1162349  33.5094381  36.0772953  21.1645942
  37.8340861  38.5786816  24.1257481  38.0526870  39.5103924  24.1445515
  38.2466634  38.2194791  24.9112285  44.7545078  29.0854902  16.1133169
  43.9445807  28.7401987  16.4888416  45.4429495  28.7762445  16.7020781
  46.6835627  28.1632948  17.7357466  47.2366665  28.5828402  18.3947489
  46.9205713  27.2368697  17.7780422  42.7068726  34.1520022  33.5160230
  42.6065453  35.1014379  33.4472321  42.4890268  33.8238261  32.6436300
  33.9249213  39.4827287  22.3781096  33.2312685  39.0681240  21.8651051
  34.6722204  39.5247823  21.7814515  50.0614434  30.2733474  17.2436130
  49.4813103  30.9318278  16.8614183  49.7950366  29.4510818  16.8323548
  48.5118000  29.6738531  19.4457451  49.0117779  29.7855066  18.6371770
  49.1553608  29.3699584  20.0858259  42.5699996  37.5817161  32.3325292
  42.0867078  38.3817521  32.5389181  42.6560935  37.5925106  31.3792736
  35.8385956  39.4145541  20.2547111  35.8156644  39.5133228  19.3028994
  36.1486592  40.2610691  20.5764277  38.4973334  41.4721696  24.3693725
  39.4516587  41.4405638  24.3023657  38.2985857  41.0112319  25.1843951
  39.0872716  40.0422812  26.9364523  39.9065605  40.5366890  26.9599360
  39.3609523  39.1254780  26.9082091  48.8439312  32.4333564  16.2992479
  47.9565167  32.7183215  16.0812673  49.2593301  32.2727327  15.4519755
  52.1953848  32.4580085  20.0146818  52.9714238  32.9476537  20.2871435
  51.4701982  32.8838139  20.4718687  54.6326407  33.1707704  21.0720758
  55.2270897  32.9303440  20.3614067  54.7052990  32.4514835  21.6994295
  36.8523562  47.0141315  21.3863923  36.7178030  46.2541716  20.8201921
  36.4355625  47.7382215  20.9192712  47.9882525  42.1978239  10.3940499
  48.6918375  42.4028241  11.0098154  47.2645174  42.7655001  10.6589582
  48.8180336  37.9488100  16.5142769  48.7615537  38.4056651  15.6750401
  49.3708678  37.1878785  16.3365612  52.6285141  33.7377832  17.3392888
  52.3722076  33.3374467  18.1701096  52.0038010  34.4521626  17.2143027
  56.9397479  36.4773905  19.8464180  56.3797037  36.5467094  20.6195742
  56.3340983  36.3014890  19.1263676  40.0092688  47.9110632  21.5982366
  39.8925072  48.8556065  21.4961056  39.1885134  47.6084194  21.9868165
  49.8969223  42.6360768  12.4438959  50.7314827  42.2041966  12.2616433
  49.7353566  42.4642782  13.3715853  49.5515115  39.1392881  13.8095298
  49.4963919  38.9737153  12.8683742  48.9261170  39.8468914  13.9657488
  34.3407630  34.3760946  27.6356720  34.9866493  33.8659900  28.1243945
  34.1324781  35.1129627  28.2100145  46.8661022  41.4441793  33.1348861
  47.7352182  41.6182445  32.7735496  46.3867774  42.2636210  33.0124590
  42.8611240  28.6400990  13.3880616  42.8489910  29.5842830  13.5448887
  43.7534662  28.4571136  13.0940078  41.0347202  48.5638894  24.8138294
  41.9374449  48.5962504  25.1304789  40.8084572  47.6339345  24.8284630
  42.7900804  47.3169881  21.4748373  41.8396435  47.3171742  21.3612745
  43.0933290  46.5702615  20.9584408  46.6763360  25.2343767  17.6426553
  45.9095756  24.6802254  17.7883235  47.0874065  25.3065636  18.5040705
  38.6805121  31.5228563  31.7331734  39.5436582  31.1665367  31.9435059
  38.1070532  31.1842457  32.4207139  58.5253498  53.1530419  22.5394135
  59.1631908  53.0337166  21.8357475  58.4074341  54.1011263  22.5982088
  55.3343204  53.1057847  22.4755660  54.9961716  52.9898912  21.5876195
  56.2032972  52.7049012  22.4556666  51.1930020  54.9593323  18.4652551
  50.6294885  54.8683260  17.6968839  51.0782415  54.1393228  18.9455044
  48.7394452  56.4544515  21.3036771  49.5315744  56.1135340  20.8883071
  48.9791102  56.5639490  22.2238925  56.7729579  58.6264291  13.7767016
  56.1217558  59.2118372  13.3901030  57.5673941  59.1570486  13.8362053
  50.6985206  55.7153428  14.1754150  51.4716082  55.1682415  14.0367026
  51.0510605  56.5797678  14.3868612  53.4626455  54.4206659  23.9722409
  54.0590027  54.1962682  23.2579372  53.5201427  53.6791405  24.5747857
  53.0351483  51.8746094  11.8072600  53.2877004  51.3527616  11.0456063
  52.0976043  51.7112240  11.9099284  58.0794766  50.8781873  19.6147343
  58.8657856  50.4601296  19.2637760  58.3433471  51.7827965  19.7828992
  58.2504844  56.3154723  14.3136000  57.6150677  56.3889350  15.0256905
  57.9202250  56.9048322  13.6355079  63.4803193  50.8157106  20.5180322
  64.2128365  50.2456323  20.7518151  62.7242549  50.4278706  20.9586828
  52.7547772  53.7774200  14.0096975  52.6384030  53.1019104  14.6778059
  52.8650032  53.2906574  13.1929128  55.0979313  53.2384348  17.7143664
  54.7337520  52.7114968  18.4256586  55.9546429  52.8482817  17.5410150
  61.0028614  44.5278680  24.9774931  60.6711939  45.3974091  24.7536146
  60.4074227  44.2114964  25.6568961  54.7384800  48.2674247  12.7105013
  54.9059202  49.1354484  13.0775484  54.5481969  48.4301529  11.7866302
  57.4960133  56.7291226  24.3770843  57.1960856  57.6316265  24.2686650
  57.1511193  56.4623409  25.2291996  50.9472615  53.1805023  20.4107548
  50.0223111  53.0481237  20.6185239  51.1957028  53.9599242  20.9077490
  60.8957277  49.2473766  22.0568281  59.9874154  49.1789175  21.7627042
  60.8444873  49.7245711  22.8850106  54.7174021  50.7231905  13.6951680
  54.5973646  51.1688955  14.5337160  54.0226609  51.0717222  13.1365218
  48.3081426  52.8238297  21.2451337  48.4373807  53.0772775  22.1590748
  47.6278877  53.4166005  20.9255992  52.4780913  63.4935546  17.3441811
  52.4004943  64.4443372  17.4230292  51.8742557  63.1481419  18.0016737
  54.9698143  50.6663412  30.0003178  54.1931477  51.2257332  29.9906043
  55.6088706  51.1520195  30.5218048  62.7618923  47.4490205  23.8346155
  62.1193304  47.7422738  23.1885949  62.2573852  47.3343125  24.6399351
  60.4159087  51.1953378  14.5232014  61.3276943  51.4280765  14.3479711
  59.9068734  51.7790422  13.9607092  53.2244515  53.4748865  29.5621145
  53.9659200  54.0133909  29.2855968  52.5181501  54.1015154  29.7192697
  55.0530925  50.5550612  25.5326863  55.8992120  50.9790026  25.6761512
  54.9929563  49.8984237  26.2265426  59.0228669  56.1779196  21.9145595
  58.3937532  56.3424910  21.2121663  58.6354332  56.5920806  22.6856559
  62.9017901  57.1133634  19.2689959  62.2168940  57.4932536  18.7186992
  62.9861751  57.7228961  20.0021907  58.2030370  48.2154981  27.1908037
  57.9591302  48.9697041  26.6542313  58.4790301  48.5940328  28.0255284
  57.7595062  47.3711414  22.7721875  56.8979541  47.6692667  23.0638612
  57.7857497  47.5881813  21.8402907  54.5756631  55.9153604  19.1795680
  55.0394977  56.1941307  18.3900303  54.3113429  55.0137049  18.9968771
  51.4680712  55.4625086  22.1175444  52.0382069  55.8912354  21.4792928
  52.0588824  55.1807671  22.8159629  53.5125517  52.0376757  15.9885245
  54.2149561  52.4897800  16.4559172  53.1806146  51.3960576  16.6165139
  51.9605879  50.6288513  30.3636455  51.3304539  51.3104794  30.5971852
  51.8541967  50.5171595  29.4189593  47.2550851  50.2960309  21.2902379
  46.4649905  50.5517838  20.8142490  47.7462099  51.1108647  21.3954420
  61.2714661  57.6365549  24.0407660  62.0932105  57.2345736  23.7590341
  61.2677064  57.5333783  24.9923776  49.2065597  50.6604889  18.2485856
  48.4096760  50.7723583  18.7669351  48.9791189  50.9991541  17.3826746
  45.5388554  50.5490800  23.7217370  45.7896593  51.4337810  23.9874946
  46.0748103  50.3695401  22.9492462  69.3620654  53.9804297  20.3892631
  68.6084362  53.4111695  20.2336636  69.4968195  53.9466962  21.3363266
  54.7519282  58.8517699  16.0647351  54.6164957  59.6969235  16.4932199
  55.2929095  59.0536977  15.3013284  51.2386622  44.9309279  32.7261706
  50.8453567  44.3775478  33.4009350  52.0552762  45.2419858  33.1168223
  48.2048679  56.3693137  16.6375276  48.7173200  57.1636388  16.7880840
  48.8571392  55.6719428  16.5708877  50.0143564  59.4858894  18.7198029
  50.1910192  60.4076858  18.5319013  50.8100398  59.1717313  19.1492409
  54.1554583  46.3467158  30.3181962  54.8964296  46.9474312  30.2386425
  54.3872505  45.6044796  29.7600005  49.2995921  51.5323526  28.5960192
  49.1849436  50.6308783  28.8967291  48.4440438  51.7787222  28.2445009
  51.1374880  61.0037068  24.7208371  51.6882305  60.8754131  23.9485365
  50.2986355  61.3031957  24.3703264  58.1011746  42.3748261  24.5946244
  57.7576015  43.2649903  24.5185355  58.4690708  42.1849919  23.7315829
  46.1697596  54.6981792  17.4134846  47.0072818  55.1078800  17.1968554
  46.3475864  53.7581234  17.3835040  58.0662028  52.3656872  13.1018679
  57.5508652  53.1361477  13.3407067  57.7939337  51.6922009  13.7251741
  55.6509139  47.2106573  18.1603918  54.7950736  46.8213424  17.9809556
  56.0636091  47.2898534  17.3003703  57.1808286  44.7452916  22.5595477
  56.6773082  44.7083052  21.7463283  57.4738893  45.6545659  22.6192134
  53.4251172  44.8291646  21.5661659  54.2904169  44.6334455  21.2067549
  53.4928681  44.6001998  22.4931016  63.0396302  55.1189227  15.0371853
  62.2625745  54.7800387  14.5927015  63.7187783  55.1241850  14.3626818
  57.8548331  50.2383965  14.9278460  57.5498467  50.5530114  15.7788604
  58.8078774  50.3165384  14.9705793  56.2994763  56.3974188  16.5771414
  55.7716125  55.6626947  16.2644652  55.7982266  57.1748864  16.3311383
  61.2787609  54.5923208  21.6938461  60.6211284  55.2822470  21.7818589
  62.0828009  54.9819640  22.0372447  51.0313491  47.0593854  18.9378026
  51.6057243  46.8369036  18.2051219  51.6184473  47.1282549  19.6906627
  60.0893068  52.9467581  19.7442402  60.6024950  53.5797573  20.2464112
  60.7394292  52.3468777  19.3785762  51.3583078  49.0898315  12.9573911
  50.5220390  49.4273002  13.2783186  51.2187848  48.9547295  12.0201048
  53.3336159  43.9335103  17.6653095  52.6800571  43.6184120  17.0409710
  53.2916633  43.3110843  18.3912918  54.4447363  54.2154398   9.5806387
  53.5374425  53.9843652   9.7797536  54.9418395  53.4192017   9.7680369
  57.3515442  62.9251905  12.5003074  56.6777141  63.2283602  13.1088031
  57.7381264  63.7280986  12.1508531  56.5673899  50.4217037  21.9900743
  55.6496460  50.6431984  21.8322431  56.9834043  50.4963347  21.1312450
  57.3508947  51.8208452  17.1203423  58.0980766  52.3329849  16.8110545
  57.6200536  51.4992505  17.9807817  55.6235597  54.3166993  14.1030378
  54.7146816  54.0326026  14.2002847  55.6530681  54.7366072  13.2433684
  60.8554864  57.9273582  17.8721545  60.4017191  57.0864492  17.9286736
  60.2248831  58.5634981  18.2096325  59.7987784  48.8565568  19.1022213
  59.0610541  48.3442955  19.4332455  60.0514557  48.4165950  18.2905489
  59.2987804  59.7650079  18.8071363  59.5910778  60.3255136  18.0883729
  59.8086424  60.0578640  19.5624522  59.8999411  41.6341820  19.6963982
  60.2058288  40.7739184  19.4089897  60.6252016  42.2259441  19.4962976
  46.1923767  52.0372507  18.0845580  45.9948167  51.4441868  17.3596646
  45.6370431  51.7324717  18.8021519  54.1720491  51.9295614  20.2040173
  54.2269101  50.9769450  20.1282649  53.3611693  52.0855053  20.6881471
  55.3211685  55.8575737  11.4418456  54.8831115  55.1411596  10.9824093
  56.0622126  56.0851851  10.8803548  52.1112851  50.5472673  17.9630552
  51.2980716  50.8466844  18.3695744  52.6071845  50.1528362  18.6805034
  54.2621429  60.5430430  19.8964816  54.2197608  60.7691277  18.9673348
  55.1784128  60.3093805  20.0450618  57.7087063  51.0114498  26.7945446
  58.0636450  51.2385971  27.6539911  58.3559194  51.3432875  26.1722701
  63.4384800  54.1332934  17.4994775  63.3002698  54.3234530  16.5715964
  63.0821018  54.8952316  17.9562826  51.6026926  48.1191029  23.5791787
  52.2426305  47.9779788  22.8814750  50.7704456  47.8325542  23.2030389
  63.4654179  56.2009461  22.5106046  63.8990686  56.1084750  23.3589100
  64.1785760  56.1766961  21.8726062  52.3787230  57.4193459  19.6926779
  53.1727828  56.9243779  19.4909354  51.6678922  56.8911322  19.3294485
  57.1982074  59.8011555  24.0439147  57.2519096  60.3702491  24.8116863
  56.3296855  59.9713440  23.6793184  48.6869993  51.5636541  15.7686532
  47.7567581  51.5020996  15.9856494  48.7827465  51.0412494  14.9723173
  48.6055542  48.0891354  18.3564774  48.8662359  49.0036687  18.2473934
  49.4272714  47.6215796  18.5061386  50.0780467  49.5029111  25.5263598
  50.7503521  49.2946473  24.8776247  49.2510254  49.3051197  25.0868830
  55.9806039  46.1291052  27.5429259  55.3333954  46.8281002  27.4493735
  56.7507055  46.5627196  27.9105507  56.1570174  53.9671817  25.6026079
  57.0862234  54.1182976  25.4295046  55.7361204  54.0555838  24.7474725
  54.9558506  57.9922481  23.3724616  54.8169591  57.6241266  24.2450554
  54.1673102  58.5070121  23.2008574  55.5506658  63.0931578  14.7150153
  55.7258413  62.6219621  15.5295775  54.8639446  63.7197344  14.9431414
  56.5063721  57.3704084  20.7613454  56.1713553  57.3304854  21.6571104
  56.0067666  56.7048800  20.2883864  50.4807965  52.7771714  26.2866035
  50.3427763  52.0451953  26.8877574  51.3912888  52.6880614  26.0050223
  59.4422912  54.7160118  11.0350514  58.8252083  53.9906946  10.9383566
  58.9739401  55.4769479  10.6917588  53.1090265  52.4891673  25.7749715
  53.8189884  51.8484865  25.7336333  53.0659573  52.7404568  26.6975896
  51.8219199  49.4756891  27.5945354  51.2856556  49.0247630  28.2466951
  51.2335908  49.6102800  26.8515819  50.1167743  66.2420940  21.4890013
  50.3564341  66.8739465  22.1669032  49.2736939  65.8908980  21.7755372
  51.2321458  48.9345543  10.1571818  50.3550925  48.8134343   9.7934065
  51.7079211  48.1431621   9.9050707  42.7523598  53.7222702  20.2513325
  43.4394638  53.4084432  19.6634340  42.5971727  54.6264067  19.9780577
  47.5558321  48.6112899  24.6798349  47.4716509  48.0038568  23.9448759
  46.7341027  49.1021917  24.6807845  54.6295605  62.0500063  23.8931517
  54.5565776  62.8555034  24.4050822  54.1872998  62.2492029  23.0679538
  54.4185384  61.2871833  17.4034338  53.6352906  61.8293513  17.4972563
  55.1178129  61.8045813  17.8028580  57.7282034  47.0966462  20.0468544
  58.2250734  46.3436425  19.7269614  56.9569016  47.1330779  19.4811753
  65.5811792  52.8006828  21.6886835  65.5701668  53.6831543  21.3180768
  64.7129171  52.4478379  21.4941372  57.0894288  61.9486897  26.0489676
  57.8022260  62.5834362  25.9765577  56.5984317  62.0450763  25.2329677
  58.8111815  55.8538150  17.6206967  57.8768094  55.9739612  17.4511672
  58.9888484  54.9510616  17.3566977  54.3117003  49.2383845  19.7740228
  53.9414791  48.6854886  20.4621134  54.8076096  48.6341979  19.2215229
  62.1984366  51.6955469  18.1557001  62.6644819  52.5283460  18.0817304
  62.6491867  51.2300450  18.8602260  52.1406202  59.6981340  26.8695246
  52.8415661  60.3317823  27.0224641  51.6701317  60.0396072  26.1090886
  60.2660598  58.0399290  15.1543153  60.5420441  57.9255885  16.0637028
  59.3965096  57.6416775  15.1155327  60.1701029  44.0636056  22.1947903
  59.2564109  44.2940283  22.3630110  60.5994131  44.1474500  23.0461935
  59.9407488  52.2525948  24.6947797  59.2878938  52.5001855  24.0400250
  60.3187868  51.4390086  24.3610274  56.9014662  62.2885641  18.7975967
  57.0837056  61.4707297  19.2603719  57.7247648  62.5053333  18.3600857
  57.2356827  61.2153826  16.0591016  57.7644593  60.7046281  15.4461178
  57.4985047  60.8996356  16.9236549  47.7373920  59.2317695  23.8026349
  48.3227357  58.4861383  23.9354253  47.5398758  59.5421652  24.6863013
  50.5912575  62.2668943  18.8188791  49.9222950  62.7515070  18.3352832
  50.4525445  62.5138163  19.7332170  42.3291575  51.8023296  22.5230792
  42.3675674  51.2686886  23.3167910  41.8231867  51.2758501  21.9041769
  54.7317844  64.3012686  25.4171450  55.2836152  64.4644308  26.1820535
  55.0724037  64.8917124  24.7451475  49.7082337  46.6487836  26.0193335
  49.7723663  47.5102667  25.6070732  49.6449457  46.0361838  25.2865693
  49.1834609  48.7210969  29.6666369  49.8106648  48.3388046  30.2803893
  48.3262528  48.5025171  30.0322061  45.9600152  50.5287398  15.5984724
  46.2553593  49.6198076  15.5451777  45.0588188  50.5075137  15.2765726
  57.8686231  62.2494662  22.4035132  57.7437370  61.4484402  21.8946078
  58.5265322  62.7440855  21.9149102  49.4894399  48.6043394  21.5812272
  48.7680985  49.2179362  21.4419746  50.2787655  49.1401159  21.5028918
  59.9321139  60.0503682  24.0314682  58.9851475  59.9309033  23.9593009
  60.2803912  59.1626180  24.1140944  52.2920713  45.9397821  27.8552924
  52.8155114  46.1860117  28.6179233  52.0733046  46.7717856  27.4356061
  47.6887994  48.2101495  15.7224049  47.3600700  47.3298874  15.5399155
  48.0427364  48.1549164  16.6100438  56.9367573  59.8456398  20.2319034
  56.7892535  58.9173106  20.4126604  57.7621066  59.8676489  19.7476110
  50.8029817  48.4974465  16.0899526  51.1425889  49.0260387  15.3678135
  51.2501937  48.8354871  16.8658093  60.5401694  60.6684957  21.3183907
  61.4648242  60.4627818  21.1808358  60.3716998  60.4201358  22.2273249
  53.4973258  46.8811516  25.5402595  53.1570078  46.0819329  25.9423274
  52.7912264  47.1813227  24.9679428  54.1489729  43.9660828  23.9929918
  54.9715799  43.4921307  23.8708808  54.3927793  44.7451312  24.4928604
  52.7897964  46.9949087  14.2892819  53.5106326  47.3730340  13.7856536
  52.1663268  47.7137964  14.3927797  56.9329087  47.6994236  15.2251152
  57.1492701  48.5818874  14.9239980  56.4523154  47.3080449  14.4956794
  51.6728308  50.6579949  21.8021896  51.5272889  50.9720252  22.6946178
  51.1953512  51.2764849  21.2492795  53.5324691  47.6482497  21.8502786
  53.5186260  46.7523590  21.5135084  54.2497119  47.6553161  22.4841072
  55.3850822  48.0819837  23.8955913  55.1268600  49.0036908  23.8940244
  54.8535862  47.6850272  24.5856377  60.3297011  61.1870624  16.6745999
  60.5033888  60.6217047  15.9219851  60.8225902  61.9871519  16.4925488
  46.1473970  53.1985293  24.7409557  45.6027438  53.9745101  24.8729832
  47.0253320  53.5456098  24.5828679  52.9361587  46.5296877  17.1190356
  53.0577498  45.6013524  17.3181243  52.6463629  46.5435563  16.2068671
  55.8052777  44.2151788  20.2557076  55.8274474  44.2791121  19.3009055
  56.2220836  43.3756296  20.4497582  66.1836402  53.9507047  18.2936298
  66.6267548  53.2014373  17.8955422  65.3062912  53.9417184  17.9110030
  61.3172183  60.5037389  13.7742897  62.0123088  61.1244081  13.9930211
  61.6595333  59.6532740  14.0495275  46.9339992  52.3255190  27.6339714
  46.1921728  52.4737825  28.2204345  46.6132737  52.5863455  26.7706464
  63.2163606  57.9537094  15.3030228  63.7414930  58.2924367  14.5779548
  63.1285959  57.0184110  15.1193362  54.9004267  64.0209078  19.6625481
  54.4609257  63.5285456  20.3558337  55.6512384  63.4782045  19.4217556
  47.3796606  60.2120618  19.6650109  48.2054626  59.9124390  19.2848752
  47.0290658  59.4428241  20.1139898  52.3478139  59.5647087  21.7347782
  51.7258148  58.9017792  21.4350010  53.0183006  59.5908219  21.0521430
  45.5805211  58.1306945  20.6239042  44.7437119  57.7029119  20.4423044
  45.5528856  58.3239388  21.5609834  52.4202667  48.0428875  31.3280288
  52.4690822  48.9190998  30.9458058  52.9625181  47.5006268  30.7551932
  51.9091646  58.1151010  15.2106243  52.0579766  58.7986474  14.5572916
  52.7158089  58.0956100  15.7255699  54.6501955  48.7960247  28.0826647
  53.7805264  49.0893813  27.8109236  54.8861435  49.3800692  28.8033911
  65.7269266  55.4212286  20.6858746  66.5616158  55.8602090  20.8496306
  65.8628395  54.9450939  19.8666992  49.6644279  54.1416188  16.2167312
  49.4190321  53.2378518  16.4147522  49.8340194  54.1433338  15.2746790
  57.3540989  45.0139864  25.5992068  57.8722933  45.7500891  25.2738556
  56.9996122  45.3203857  26.4338827  48.9339927  49.8744545  13.7153473
  48.2409171  49.9488900  13.0593509  48.6891678  49.1104889  14.2374990
  57.6053583  41.4340147  21.1192964  57.8855337  40.7663336  21.7453391
  58.3904190  41.6269242  20.6067628  55.4087052  60.6099140  12.6817990
  54.8361019  61.2289328  12.2288462  55.9819845  61.1598502  13.2157912
  61.4762441  49.8557781  24.8664539  62.4279864  49.9555878  24.8876763
  61.3065892  49.0636049  25.3762624  59.4976821  46.9413364  25.0523940
  58.9026753  47.2218376  24.3570429  59.2126518  47.4307265  25.8240681
  58.6284311  60.8936291  13.8126573  59.5614984  60.8281852  14.0159448
  58.5407524  61.7292557  13.3541105  61.2572328  60.2102161  10.7730520
  61.1785960  59.8762025  11.6666278  62.0781995  60.7023929  10.7721993
  63.9550519  53.0763900  23.9806839  63.9226839  52.1379901  24.1666523
  64.5651143  53.1547937  23.2472664  55.7933850  51.9459953  10.0234043
  56.7392955  51.8166161  10.0922461  55.4148095  51.2074615  10.5003471
  64.1045008  49.8674944  24.0265122  63.5884056  49.0833400  23.8395051
  64.9884956  49.5393660  24.1911642  61.7655735  43.6115959  19.9860935
  61.5680556  43.3031047  20.8704267  62.3755440  44.3377598  20.1158865
  53.9776767  49.8709930   9.9588928  53.0708223  49.5743042  10.0351642
  54.2552748  49.5739748   9.0923214  44.8954708  51.1916293  20.4087975
  44.5757492  50.3381601  20.1162349  44.3488136  51.4064871  21.1645942
  48.6734615  53.9078734  24.1257481  48.8920625  54.8395842  24.1445515
  49.0860389  53.5486708  24.9112285  55.5938833  44.4146819  16.1133169
  54.7839561  44.0693904  16.4888416  56.2823250  44.1054363  16.7020781
  57.5229381  43.4924866  17.7357466  58.0760420  43.9120320  18.3947489
  57.7599468  42.5660614  17.7780422  53.5462480  49.4811940  33.5160230
  53.4459207  50.4306297  33.4472321  53.3284022  49.1530179  32.6436300
  52.7475552  46.7296865  10.1000907  53.6094716  47.0551763  10.3596725
  52.9325896  45.9428361   9.5873973  44.7642968  54.8119204  22.3781096
  44.0706439  54.3973157  21.8651051  45.5115959  54.8539741  21.7814515
  60.9008188  45.6025391  17.2436130  60.3206857  46.2610195  16.8614183
  60.6344121  44.7802736  16.8323548  59.3511755  45.0030449  19.4457451
  59.8511533  45.1146984  18.6371770  59.9947363  44.6991502  20.0858259
  53.4093751  52.9109079  32.3325292  52.9260832  53.7109439  32.5389181
  53.4954690  52.9217023  31.3792736  46.6779710  54.7437458  20.2547111
  46.6550398  54.8425146  19.3028994  46.9880347  55.5902609  20.5764277
  49.3367088  56.8013613  24.3693725  50.2910342  56.7697556  24.3023657
  49.1379612  56.3404237  25.1843951  49.9266470  55.3714729  26.9364523
  50.7459359  55.8658808  26.9599360  50.2003278  54.4546697  26.9082091
  59.6833066  47.7625482  16.2992479  58.7958921  48.0475132  16.0812673
  60.0987055  47.6019245  15.4519755  63.0347602  47.7872003  20.0146818
  63.8107993  48.2768455  20.2871435  62.3095737  48.2130057  20.4718687
  65.4720161  48.4999622  21.0720758  66.0664652  48.2595358  20.3614067
  65.5446745  47.7806752  21.6994295  47.6917317  62.3433233  21.3863923
  47.5571785  61.5833634  20.8201921  47.2749379  63.0674133  20.9192712
  58.8276280  57.5270156  10.3940499  59.5312130  57.7320159  11.0098154
  58.1038929  58.0946918  10.6589582  59.6574090  53.2780018  16.5142769
  59.6009291  53.7348569  15.6750401  60.2102433  52.5170702  16.3365612
  63.4678896  49.0669749  17.3392888  63.2115830  48.6666385  18.1701096
  62.8431764  49.7813543  17.2143027  67.7791234  51.8065823  19.8464180
  67.2190792  51.8759012  20.6195742  67.1734737  51.6306807  19.1263676
  50.8486443  63.2402550  21.5982366  50.7318827  64.1847982  21.4961056
  50.0278889  62.9376111  21.9868165  60.7362977  57.9652686  12.4438959
  61.5708581  57.5333884  12.2616433  60.5747320  57.7934699  13.3715853
  60.3908869  54.4684799  13.8095298  60.3357673  54.3029070  12.8683742
  59.7654925  55.1760832  13.9657488  45.1801384  49.7052863  27.6356720
  45.8260248  49.1951817  28.1243945  44.9718535  50.4421545  28.2100145
  53.7004995  43.9692908  13.3880616  53.6883665  44.9134748  13.5448887
  54.5928417  43.7863053  13.0940078  51.8740957  63.8930812  24.8138294
  52.7768203  63.9254422  25.1304789  51.6478327  62.9631263  24.8284630
  53.6294559  62.6461798  21.4748373  52.6790190  62.6463660  21.3612745
  53.9327045  61.8994533  20.9584408  57.5157114  40.5635684  17.6426553
  56.7489510  40.0094171  17.7883235  57.9267819  40.6357553  18.5040705
  49.5198875  46.8520480  31.7331734  50.3830337  46.4957285  31.9435059
  48.9464286  46.5134375  32.4207139  69.3647252  68.4822337  22.5394135
  70.0025662  68.3629084  21.8357475  69.2468095  69.4303181  22.5982088
  66.1736959  68.4349765  22.4755660  65.8355470  68.3190829  21.5876195
  67.0426727  68.0340930  22.4556666  62.0323774  70.2885241  18.4652551
  61.4688639  70.1975178  17.6968839  61.9176169  69.4685146  18.9455044
  59.5788206  71.7836433  21.3036771  60.3709498  71.4427257  20.8883071
  59.8184856  71.8931408  22.2238925  67.6123333  73.9556209  13.7767016
  66.9611313  74.5410289  13.3901030  68.4067696  74.4862404  13.8362053
  61.5378960  71.0445346  14.1754150  62.3109836  70.4974333  14.0367026
  61.8904359  71.9089595  14.3868612  64.3020210  69.7498577  23.9722409
  64.8983782  69.5254599  23.2579372  64.3595181  69.0083322  24.5747857
  63.8745238  67.2038012  11.8072600  64.1270759  66.6819533  11.0456063
  62.9369797  67.0404158  11.9099284  68.9188521  66.2073790  19.6147343
  69.7051610  65.7893214  19.2637760  69.1827225  67.1119883  19.7828992
  69.0898598  71.6446641  14.3136000  68.4544431  71.7181267  15.0256905
  68.7596005  72.2340240  13.6355079  74.3196948  66.1449024  20.5180322
  75.0522120  65.5748241  20.7518151  73.5636304  65.7570624  20.9586828
  63.5941527  69.1066118  14.0096975  63.4777785  68.4311021  14.6778059
  63.7043787  68.6198492  13.1929128  65.9373068  68.5676265  17.7143664
  65.5731275  68.0406886  18.4256586  66.7940184  68.1774734  17.5410150
  65.5778555  63.5966165  12.7105013  65.7452957  64.4646401  13.0775484
  65.3875724  63.7593447  11.7866302  68.3353888  72.0583144  24.3770843
  68.0354611  72.9608183  24.2686650  67.9904947  71.7915327  25.2291996
  71.7351032  64.5765684  22.0568281  70.8267909  64.5081092  21.7627042
  71.6838627  65.0537629  22.8850106  65.5567775  66.0523822  13.6951680
  65.4367401  66.4980873  14.5337160  64.8620364  66.4009140  13.1365218
  63.3174668  78.8227464  17.3441811  63.2398697  79.7735289  17.4230292
  62.7136311  78.4773337  18.0016737  73.6012678  62.7782122  23.8346155
  72.9587058  63.0714656  23.1885949  73.0967606  62.6635043  24.6399351
  71.2552842  66.5245296  14.5232014  72.1670698  66.7572682  14.3479711
  70.7462489  67.1082340  13.9607092  69.8622424  71.5071114  21.9145595
  69.2331286  71.6716828  21.2121663  69.4748086  71.9212724  22.6856559
  73.7411656  72.4425552  19.2689959  73.0562694  72.8224453  18.7186992
  73.8255505  73.0520879  20.0021907  70.9962587  70.0885511  25.8685303
  71.2079483  70.7317271  25.1919684  70.9492336  69.2547827  25.4007233
  68.5988816  62.7003332  22.7721875  67.7373295  62.9984585  23.0638612
  68.6251251  62.9173730  21.8402907  65.4150386  71.2445522  19.1795680
  65.8788731  71.5233225  18.3900303  65.1507184  70.3428967  18.9968771
  64.3519272  67.3668674  15.9885245  65.0543315  67.8189718  16.4559172
  64.0199900  66.7252493  16.6165139  58.0944606  65.6252227  21.2902379
  57.3043660  65.8809756  20.8142490  58.5855853  66.4400565  21.3954420
  72.1108415  72.9657466  24.0407660  72.9325859  72.5637654  23.7590341
  72.1070818  72.8625700  24.9923776  60.0459351  65.9896806  18.2485856
  59.2490514  66.1015501  18.7669351  59.8184943  66.3283459  17.3826746
  56.3782309  65.8782718  23.7217370  56.6290347  66.7629728  23.9874946
  56.9141857  65.6987319  22.9492462  80.2014408  69.3096215  20.3892631
  79.4478117  68.7403613  20.2336636  80.3361950  69.2758879  21.3363266
  65.5913036  74.1809617  16.0647351  65.4558711  75.0261153  16.4932199
  66.1322849  74.3828895  15.3013284  59.0442434  71.6985055  16.6375276
  59.5566954  72.4928305  16.7880840  59.6965147  71.0011346  16.5708877
  60.8537319  74.8150811  18.7198029  61.0303947  75.7368776  18.5319013
  61.6494152  74.5009231  19.1492409  61.9768634  76.3328985  24.7208371
  62.5276059  76.2046049  23.9485365  61.1380110  76.6323874  24.3703264
  69.3162751  75.0835984  28.2229094  69.2981226  75.9044865  27.7309363
  70.2382671  74.9590059  28.4479235  57.0091351  70.0273709  17.4134846
  57.8466573  70.4370718  17.1968554  57.1869618  69.0873152  17.3835040
  68.9055783  67.6948790  13.1018679  68.3902406  68.4653395  13.3407067
  68.6333091  67.0213926  13.7251741  66.4902894  62.5398491  18.1603918
  65.6344490  62.1505341  17.9809556  66.9029846  62.6190452  17.3003703
  64.2644926  60.1583564  21.5661659  65.1297923  59.9626373  21.2067549
  64.3322435  59.9293916  22.4931016  73.8790057  70.4481145  15.0371853
  73.1019500  70.1092304  14.5927015  74.5581538  70.4533768  14.3626818
  68.6942086  65.5675882  14.9278460  68.3892222  65.8822031  15.7788604
  69.6472528  65.6457302  14.9705793  67.1388518  71.7266106  16.5771414
  66.6109879  70.9918865  16.2644652  66.6376021  72.5040782  16.3311383
  72.1181364  69.9215126  21.6938461  71.4605038  70.6114387  21.7818589
  72.9221763  70.3111558  22.0372447  61.8707245  62.3885772  18.9378026
  62.4450997  62.1660953  18.2051219  62.4578228  62.4574466  19.6906627
  70.9286823  68.2759499  19.7442402  71.4418704  68.9089491  20.2464112
  71.5788047  67.6760694  19.3785762  62.1976833  64.4190233  12.9573911
  61.3614145  64.7564919  13.2783186  62.0581602  64.2839213  12.0201048
  64.1729913  59.2627021  17.6653095  63.5194325  58.9476038  17.0409710
  64.1310387  58.6402761  18.3912918  65.2841118  69.5446316   9.5806387
  64.3768180  69.3135569   9.7797536  65.7812150  68.7483935   9.7680369
  68.1909197  78.2543823  12.5003074  67.5170896  78.5575520  13.1088031
  68.5775019  79.0572903  12.1508531  67.4067653  65.7508954  21.9900743
  66.4890215  65.9723901  21.8322431  67.8227797  65.8255265  21.1312450
  68.1902701  67.1500370  17.1203423  68.9374520  67.6621767  16.8110545
  68.4594291  66.8284423  17.9807817  66.4629351  69.6458911  14.1030378
  65.5540571  69.3617943  14.2002847  66.4924435  70.0657989  13.2433684
  71.6948619  73.2565500  17.8721545  71.2410946  72.4156410  17.9286736
  71.0642586  73.8926899  18.2096325  70.6381538  64.1857486  19.1022213
  69.9004295  63.6734872  19.4332455  70.8908312  63.7457868  18.2905489
  70.1381558  75.0941997  18.8071363  70.4304532  75.6547054  18.0883729
  70.6480179  75.3870558  19.5624522  70.7393166  56.9633738  19.6963982
  71.0452043  56.1031102  19.4089897  71.4645771  57.5551358  19.4962976
  57.0317522  67.3664425  18.0845580  56.8341922  66.7733785  17.3596646
  56.4764186  67.0616635  18.8021519  65.0114245  67.2587531  20.2040173
  65.0662855  66.3061368  20.1282649  64.2005447  67.4146970  20.6881471
  66.1605439  71.1867654  11.4418456  65.7224869  70.4703513  10.9824093
  66.9015880  71.4143769  10.8803548  62.9506605  65.8764591  17.9630552
  62.1374471  66.1758762  18.3695744  63.4465600  65.4820280  18.6805034
  65.1015183  75.8722348  19.8964816  65.0591362  76.0983194  18.9673348
  66.0177882  75.6385723  20.0450618  74.2778554  69.4624851  17.4994775
  74.1396453  69.6526447  16.5715964  73.9214773  70.2244234  17.9562826
  62.4420680  63.4482947  23.5791787  63.0820059  63.3071706  22.8814750
  61.6098211  63.1617460  23.2030389  74.3047934  71.5301378  22.5106046
  74.7384440  71.4376667  23.3589100  75.0179514  71.5058879  21.8726062
  63.2180984  72.7485377  19.6926779  64.0121583  72.2535697  19.4909354
  62.5072676  72.2203240  19.3294485  68.0375829  75.1303472  24.0439147
  68.0912851  75.6994409  24.8116863  67.1690610  75.3005357  23.6793184
  59.5263748  66.8928459  15.7686532  58.5961336  66.8312914  15.9856494
  59.6221220  66.3704411  14.9723173  59.4449297  63.4183271  18.3564774
  59.7056114  64.3328605  18.2473934  60.2666469  62.9507714  18.5061386
  75.1663483  71.5725079  25.0438932  75.3599373  72.4770890  25.2898207
  75.0664101  71.1132498  25.8777517  66.9963928  69.2963734  25.6026079
  67.9255988  69.4474894  25.4295046  66.5754958  69.3847755  24.7474725
  65.7952260  73.3214399  23.3724616  65.6563346  72.9533183  24.2450554
  65.0066856  73.8362038  23.2008574  66.3900412  78.4223495  14.7150153
  66.5652168  77.9511539  15.5295775  65.7033200  79.0489262  14.9431414
  67.3457475  72.6996002  20.7613454  67.0107308  72.6596772  21.6571104
  66.8461421  72.0340718  20.2883864  70.2816667  70.0452036  11.0350514
  69.6645837  69.3198864  10.9383566  69.8133155  70.8061396  10.6917588
  71.9370798  74.7550944  28.6956294  71.8783345  74.0710164  28.0286877
  72.3390317  75.4969934  28.2436920  60.9561497  81.5712858  21.4890013
  61.1958096  82.2031382  22.1669032  60.1130694  81.2200898  21.7755372
  62.0715213  64.2637460  10.1571818  61.1944679  64.1426261   9.7934065
  62.5472966  63.4723539   9.9050707  71.9388206  72.7190528  26.9270274
  71.0514985  72.3816450  27.0496673  72.5086757  71.9873559  27.1639039
  53.5917353  69.0514620  20.2513325  54.2788393  68.7376350  19.6634340
  53.4365482  69.9555985  19.9780577  65.4689359  77.3791981  23.8931517
  65.3959531  78.1846952  24.4050822  65.0266752  77.5783946  23.0679538
  65.2579139  76.6163751  17.4034338  64.4746661  77.1585431  17.4972563
  65.9571884  77.1337730  17.8028580  68.5675789  62.4258380  20.0468544
  69.0644488  61.6728342  19.7269614  67.7962770  62.4622697  19.4811753
  76.4205546  68.1298746  21.6886835  76.4095423  69.0123461  21.3180768
  75.5522926  67.7770296  21.4941372  67.9288043  77.2778815  26.0489676
  68.6416015  77.9126279  25.9765577  67.4378071  77.3742681  25.2329677
  69.6505570  71.1830067  17.6206967  68.7161848  71.3031530  17.4511672
  69.8282238  70.2802534  17.3566977  65.1510758  64.5675763  19.7740228
  64.7808545  64.0146803  20.4621134  65.6469850  63.9633897  19.2215229
  73.0378121  67.0247387  18.1557001  73.5038573  67.8575378  18.0817304
  73.4885621  66.5592368  18.8602260  62.9799956  75.0273258  26.8695246
  63.6809416  75.6609741  27.0224641  62.5095071  75.3687990  26.1090886
  71.1054352  73.3691208  15.1543153  71.3814196  73.2547802  16.0637028
  70.2358851  72.9708693  15.1155327  71.0094784  59.3927974  22.1947903
  70.0957863  59.6232200  22.3630110  71.4387885  59.4766418  23.0461935
  70.7801242  67.5817866  24.6947797  70.1272692  67.8293773  24.0400250
  71.1581622  66.7682004  24.3610274  67.7408416  77.6177559  18.7975967
  67.9230811  76.7999215  19.2603719  68.5641402  77.8345251  18.3600857
  68.0750582  76.5445744  16.0591016  68.6038348  76.0338198  15.4461178
  68.3378801  76.2288274  16.9236549  58.5767674  74.5609613  23.8026349
  59.1621111  73.8153301  23.9354253  58.3792513  74.8713570  24.6863013
  61.4306329  77.5960861  18.8188791  60.7616705  78.0806988  18.3352832
  61.2919199  77.8430081  19.7332170  53.1685329  67.1315213  22.5230792
  53.2069429  66.5978804  23.3167910  52.6625622  66.6050419  21.9041769
  65.5711598  79.6304604  25.4171450  66.1229906  79.7936226  26.1820535
  65.9117792  80.2209042  24.7451475  56.7993907  65.8579315  15.5984724
  57.0947348  64.9489994  15.5451777  55.8981942  65.8367055  15.2765726
  68.7079985  77.5786580  22.4035132  68.5831125  76.7776319  21.8946078
  69.3659076  78.0732773  21.9149102  60.3288154  63.9335312  21.5812272
  59.6074739  64.5471280  21.4419746  61.1181409  64.4693077  21.5028918
  70.7714894  75.3795600  24.0314682  69.8245229  75.2600951  23.9593009
  71.1197667  74.4918098  24.1140944  58.5281748  63.5393413  15.7224049
  58.1994454  62.6590792  15.5399155  58.8821119  63.4841082  16.6100438
  67.7761327  75.1748316  20.2319034  67.6286289  74.2465023  20.4126604
  68.6014821  75.1968407  19.7476110  61.6423571  63.8266383  16.0899526
  61.9819644  64.3552304  15.3678135  62.0895692  64.1646789  16.8658093
  71.3795449  75.9976875  21.3183907  72.3041996  75.7919736  21.1808358
  71.2110752  75.7493276  22.2273249  63.6291718  62.3241005  14.2892819
  64.3500081  62.7022257  13.7856536  63.0057023  63.0429881  14.3927797
  67.7722841  63.0286154  15.2251152  67.9886456  63.9110791  14.9239980
  67.2916909  62.6372367  14.4956794  64.3718446  62.9774415  21.8502786
  64.3580014  62.0815508  21.5135084  65.0890874  62.9845078  22.4841072
  71.1690765  76.5162542  16.6745999  71.3427643  75.9508965  15.9219851
  71.6619656  77.3163437  16.4925488  63.7755342  61.8588795  17.1190356
  63.8971253  60.9305441  17.3181243  63.4857384  61.8727481  16.2068671
  66.6446532  59.5443705  20.2557076  66.6668229  59.6083039  19.3009055
  67.0614591  58.7048214  20.4497582  77.0230156  69.2798965  18.2936298
  77.4661302  68.5306290  17.8955422  76.1456667  69.2709101  17.9110030
  72.1565938  75.8329306  13.7742897  72.8516842  76.4535999  13.9930211
  72.4989088  74.9824658  14.0495275  74.0557361  73.2829012  15.3030228
  74.5808685  73.6216285  14.5779548  73.9679713  72.3476027  15.1193362
  65.7177409  77.1963086  27.4320104  66.0264536  76.9512232  28.3042804
  66.5152891  77.4009724  26.9438974  65.7398021  79.3500995  19.6625481
  65.3003012  78.8577374  20.3558337  66.4906138  78.8073963  19.4217556
  58.2190360  75.5412536  19.6650109  59.0448380  75.2416308  19.2848752
  57.8684412  74.7720159  20.1139898  63.1871894  74.8939004  21.7347782
  62.5651903  74.2309709  21.4350010  63.8576761  74.9200136  21.0521430
  56.4198965  73.4598863  20.6239042  55.5830874  73.0321037  20.4423044
  56.3922611  73.6531306  21.5609834  73.8649142  70.7654382  27.9214154
  73.9147147  70.6004389  28.8629677  73.7563065  69.8981641  27.5312035
  62.7485401  73.4442928  15.2106243  62.8973521  74.1278392  14.5572916
  63.5551844  73.4248018  15.7255699  75.3667339  73.1851324  28.1656176
  75.0752147  73.5481304  29.0019637  74.7539470  72.4718332  27.9869508
  76.5663021  70.7504203  20.6858746  77.4009912  71.1894007  20.8496306
  76.7022150  70.2742857  19.8666992  73.6154527  68.3083938  26.6336234
  74.0908648  68.5011584  25.8255085  72.6920092  68.3643124  26.3879617
  60.5038033  69.4708105  16.2167312  60.2584075  68.5670435  16.4147522
  60.6733948  69.4725256  15.2746790  59.7733681  65.2036463  13.7153473
  59.0802926  65.2780818  13.0593509  59.5285433  64.4396807  14.2374990
  68.4447338  56.7632064  21.1192964  68.7249091  56.0955253  21.7453391
  69.2297944  56.9561160  20.6067628  66.2480806  75.9391058  12.6817990
  65.6754773  76.5581245  12.2288462  66.8213600  76.4890420  13.2157912
  72.3156196  65.1849698  24.8664539  73.2673619  65.2847796  24.8876763
  72.1459646  64.3927967  25.3762624  69.4678066  76.2228208  13.8126573
  70.4008739  76.1573770  14.0159448  69.3801279  77.0584475  13.3541105
  72.0966082  75.5394079  10.7730520  72.0179714  75.2053942  11.6666278
  72.9175749  76.0315847  10.7721993  74.7944274  68.4055818  23.9806839
  74.7620594  67.4671819  24.1666523  75.4044897  68.4839855  23.2472664
  66.6327605  67.2751871  10.0234043  67.5786709  67.1458079  10.0922461
  66.2541849  66.5366533  10.5003471  74.9438762  65.1966861  24.0265122
  74.4277811  64.4125318  23.8395051  75.8278711  64.8685578  24.1911642
  72.6049489  58.9407877  19.9860935  72.4074310  58.6322965  20.8704267
  73.2149195  59.6669516  20.1158865  80.6120824  69.4671825  23.1212876
  81.3424212  69.2057113  23.6820579  80.0027769  68.7300547  23.1614944
  78.6936121  67.6079687  23.7187327  77.9669284  67.4735652  23.1103818
  78.2783408  67.9156516  24.5244045  64.8170522  65.2001847   9.9588928
  63.9101977  64.9034960  10.0351642  65.0946503  64.9031665   9.0923214
  55.7348462  66.5208211  20.4087975  55.4151246  65.6673519  20.1162349
  55.1881890  66.7356789  21.1645942  66.4332587  59.7438737  16.1133169
  65.6233316  59.3985822  16.4888416  67.1217004  59.4346281  16.7020781
  68.3623136  58.8216784  17.7357466  68.9154174  59.2412237  18.3947489
  68.5993222  57.8952532  17.7780422  63.5869306  62.0588783  10.1000907
  64.4488470  62.3843681  10.3596725  63.7719650  61.2720278   9.5873973
  55.6036722  70.1411122  22.3781096  54.9100194  69.7265075  21.8651051
  56.3509713  70.1831659  21.7814515  71.7401943  60.9317309  17.2436130
  71.1600612  61.5902113  16.8614183  71.4737875  60.1094654  16.8323548
  70.1905509  60.3322367  19.4457451  70.6905288  60.4438901  18.6371770
  70.8341117  60.0283420  20.0858259  57.5173465  70.0729376  20.2547111
  57.4944153  70.1717063  19.3028994  57.8274101  70.9194527  20.5764277
  70.5226821  63.0917399  16.2992479  69.6352676  63.3767050  16.0812673
  70.9380810  62.9311163  15.4519755  73.8741357  63.1163920  20.0146818
  74.6501747  63.6060373  20.2871435  73.1489491  63.5421975  20.4718687
  76.3113916  63.8291540  21.0720758  76.9058406  63.5887276  20.3614067
  76.3840499  63.1098670  21.6994295  58.5311071  77.6725150  21.3863923
  58.3965539  76.9125551  20.8201921  58.1143134  78.3966050  20.9192712
  69.6670034  72.8562074  10.3940499  70.3705884  73.0612077  11.0098154
  68.9432683  73.4238836  10.6589582  70.4967845  68.6071935  16.5142769
  70.4403046  69.0640487  15.6750401  71.0496187  67.8462620  16.3365612
  74.3072650  64.3961667  17.3392888  74.0509585  63.9958303  18.1701096
  73.6825519  65.1105461  17.2143027  78.6184988  67.1357740  19.8464180
  78.0584546  67.2050930  20.6195742  78.0128492  66.9598725  19.1263676
  61.6880197  78.5694468  21.5982366  61.5712581  79.5139900  21.4961056
  60.8672643  78.2668029  21.9868165  71.5756732  73.2944603  12.4438959
  72.4102336  72.8625802  12.2616433  71.4141075  73.1226617  13.3715853
  71.2302624  69.7976717  13.8095298  71.1751428  69.6320988  12.8683742
  70.6048679  70.5052749  13.9657488  64.5398749  59.2984826  13.3880616
  64.5277419  60.2426665  13.5448887  65.4322171  59.1154971  13.0940078
  62.7134711  79.2222729  24.8138294  63.6161958  79.2546340  25.1304789
  62.4872081  78.2923180  24.8284630  64.4688313  77.9753716  21.4748373
  63.5183944  77.9755578  21.3612745  64.7720799  77.2286451  20.9584408
  68.3550869  55.8927602  17.6426553  67.5883265  55.3386089  17.7883235
  68.7661574  55.9649471  18.5040705  80.2041007  83.8114254  22.5394135
  80.8419417  83.6921002  21.8357475  80.0861850  84.7595098  22.5982088
  77.0130713  83.7641682  22.4755660  76.6749225  83.6482747  21.5876195
  77.8820481  83.3632848  22.4556666  72.8717529  85.6177159  18.4652551
  72.3082394  85.5267096  17.6968839  72.7569924  84.7977063  18.9455044
  77.4950496  84.9176534  28.4341866  77.4839137  84.5229332  27.5622369
  77.6571136  84.1842607  29.0275637  70.4181961  87.1128350  21.3036771
  71.2103253  86.7719175  20.8883071  70.6578611  87.2223325  22.2238925
  78.4517087  89.2848127  13.7767016  77.8005067  89.8702207  13.3901030
  79.2461450  89.8154321  13.8362053  72.3772715  86.3737264  14.1754150
  73.1503591  85.8266251  14.0367026  72.7298113  87.2381513  14.3868612
  74.2157757  87.7013646  27.3821050  73.9247623  88.6059277  27.2667716
  74.8514742  87.7430174  28.0965119  75.1413964  85.0790494  23.9722409
  75.7377536  84.8546517  23.2579372  75.1988936  84.3375240  24.5747857
  74.7138992  82.5329930  11.8072600  74.9664513  82.0111451  11.0456063
  73.7763552  82.3696075  11.9099284  79.7582275  81.5365708  19.6147343
  80.5445364  81.1185131  19.2637760  80.0220980  82.4411800  19.7828992
  79.9292353  86.9738558  14.3136000  79.2938186  87.0473185  15.0256905
  79.5989759  87.5632157  13.6355079  85.1590702  81.4740941  20.5180322
  85.8915874  80.9040158  20.7518151  84.4030058  81.0862542  20.9586828
  74.4335281  84.4358036  14.0096975  74.3171539  83.7602939  14.6778059
  74.5437541  83.9490410  13.1929128  76.7766822  83.8968183  17.7143664
  76.4125029  83.3698804  18.4256586  77.6333938  83.5066652  17.5410150
  82.6816123  75.1862515  24.9774931  82.3499448  76.0557926  24.7536146
  82.0861736  74.8698799  25.6568961  76.4172309  78.9258083  12.7105013
  76.5846711  79.7938319  13.0775484  76.2269478  79.0885364  11.7866302
  79.1747642  87.3875061  24.3770843  78.8748365  88.2900100  24.2686650
  78.8298702  87.1207245  25.2291996  72.6260124  83.8388858  20.4107548
  71.7010620  83.7065072  20.6185239  72.8744537  84.6183078  20.9077490
  82.5744786  79.9057602  22.0568281  81.6661663  79.8373010  21.7627042
  82.5232382  80.3829547  22.8850106  76.3961530  81.3815740  13.6951680
  76.2761155  81.8272791  14.5337160  75.7014118  81.7301058  13.1365218
  69.9868935  83.4822132  21.2451337  70.1161316  83.7356611  22.1590748
  69.3066386  84.0749840  20.9255992  74.1568422  94.1519382  17.3441811
  74.0792452  95.1027207  17.4230292  73.5530066  93.8065254  18.0016737
  76.6485652  81.3247247  30.0003178  75.8718986  81.8841167  29.9906043
  77.2876215  81.8104030  30.5218048  84.4406432  78.1074040  23.8346155
  83.7980813  78.4006573  23.1885949  83.9361361  77.9926960  24.6399351
  82.0946596  81.8537213  14.5232014  83.0064452  82.0864600  14.3479711
  81.5856243  82.4374257  13.9607092  74.9032024  84.1332701  29.5621145
  75.6446709  84.6717745  29.2855968  74.1969010  84.7598989  29.7192697
  80.3787364  86.2761841  28.1593306  80.7870720  85.8344252  27.4147939
  79.6564625  85.7014469  28.4127499  76.7318434  81.2134448  25.5326863
  77.5779629  81.6373861  25.6761512  76.6717072  80.5568072  26.2265426
  80.7016178  86.8363032  21.9145595  80.0725041  87.0008746  21.2121663
  80.3141841  87.2504641  22.6856559  84.5805410  87.7717470  19.2689959
  83.8956448  88.1516371  18.7186992  84.6649260  88.3812796  20.0021907
  79.8817879  78.8738816  27.1908037  79.6378811  79.6280877  26.6542313
  80.1577810  79.2524164  28.0255284  81.8356342  85.4177429  25.8685303
  82.0473237  86.0609188  25.1919684  81.7886090  84.5839745  25.4007233
  79.4382571  78.0295249  22.7721875  78.5767050  78.3276503  23.0638612
  79.4645006  78.2465648  21.8402907  76.2544140  86.5737440  19.1795680
  76.7182486  86.8525143  18.3900303  75.9900938  85.6720884  18.9968771
  73.1468221  86.1208921  22.1175444  73.7169578  86.5496190  21.4792928
  73.7376333  85.8391506  22.8159629  75.1913026  82.6960592  15.9885245
  75.8937070  83.1481636  16.4559172  74.8593655  82.0544411  16.6165139
  73.6393388  81.2872349  30.3636455  73.0092048  81.9688630  30.5971852
  73.5329476  81.1755430  29.4189593  68.9338360  80.9544145  21.2902379
  68.1437414  81.2101673  20.8142490  69.4249608  81.7692483  21.3954420
  82.9502170  88.2949384  24.0407660  83.7719614  87.8929571  23.7590341
  82.9464573  88.1917618  24.9923776  70.8853106  81.3188724  18.2485856
  70.0884269  81.4307418  18.7669351  70.6578698  81.6575376  17.3826746
  76.7158773  87.8433427  26.1968370  76.7803206  88.3053835  27.0326542
  76.0069697  87.2130792  26.3250680  67.2176063  81.2074635  23.7217370
  67.4684102  82.0921645  23.9874946  67.7535612  81.0279237  22.9492462
  91.0408163  84.6388132  20.3892631  90.2871871  84.0695531  20.2336636
  91.1755704  84.6050797  21.3363266  76.4306791  89.5101535  16.0647351
  76.2952466  90.3553071  16.4932199  76.9716603  89.7120812  15.3013284
  69.8836188  87.0276973  16.6375276  70.3960709  87.8220223  16.7880840
  70.5358901  86.3303263  16.5708877  71.6931073  90.1442729  18.7198029
  71.8697701  91.0660694  18.5319013  72.4887907  89.8301148  19.1492409
  70.9783430  82.1907361  28.5960192  70.8636945  81.2892618  28.8967291
  70.1227947  82.4371058  28.2445009  78.0575267  90.1325101  30.1947693
  77.6139122  89.3461480  29.8768597  78.7192481  90.3204252  29.5291584
  72.8162389  91.6620903  24.7208371  73.3669814  91.5337966  23.9485365
  71.9773864  91.9615792  24.3703264  80.1556505  90.4127901  28.2229094
  80.1374981  91.2336782  27.7309363  81.0776425  90.2881976  28.4479235
  76.6129560  87.9272031  29.0652602  77.1457896  87.1660319  28.8351910
  76.0843641  87.6345683  29.8076757  79.7799255  73.0332097  24.5946244
  79.4363524  73.9233738  24.5185355  80.1478217  72.8433754  23.7315829
  67.8485105  85.3565627  17.4134846  68.6860327  85.7662635  17.1968554
  68.0263373  84.4165069  17.3835040  79.7449537  83.0240708  13.1018679
  79.2296161  83.7945312  13.3407067  79.4726846  82.3505844  13.7251741
  77.3296648  77.8690409  18.1603918  76.4738245  77.4797259  17.9809556
  77.7423600  77.9482369  17.3003703  78.8595795  75.4036752  22.5595477
  78.3560591  75.3666887  21.7463283  79.1526402  76.3129495  22.6192134
  75.1038681  75.4875482  21.5661659  75.9691678  75.2918290  21.2067549
  75.1716190  75.2585833  22.4931016  84.7183811  85.7773062  15.0371853
  83.9413254  85.4384222  14.5927015  85.3975292  85.7825686  14.3626818
  79.5335840  80.8967800  14.9278460  79.2285976  81.2113949  15.7788604
  80.4866283  80.9749220  14.9705793  77.9782272  87.0558023  16.5771414
  77.4503634  86.3210783  16.2644652  77.4769775  87.8332700  16.3311383
  82.9575118  85.2507044  21.6938461  82.2998793  85.9406305  21.7818589
  83.7615518  85.6403476  22.0372447  72.7101000  77.7177689  18.9378026
  73.2844752  77.4952871  18.2051219  73.2971982  77.7866384  19.6906627
  81.7680577  83.6051416  19.7442402  82.2812459  84.2381408  20.2464112
  82.4181801  83.0052612  19.3785762  73.0370587  79.7482150  12.9573911
  72.2007899  80.0856837  13.2783186  72.8975357  79.6131130  12.0201048
  75.0123668  74.5918938  17.6653095  74.3588080  74.2767956  17.0409710
  74.9704142  73.9694679  18.3912918  76.1234872  84.8738233   9.5806387
  75.2161934  84.6427487   9.7797536  76.6205904  84.0775853   9.7680369
  78.2461408  81.0800872  21.9900743  77.3283969  81.3015819  21.8322431
  78.6621552  81.1547182  21.1312450  79.0296456  82.4792288  17.1203423
  79.7768275  82.9913685  16.8110545  79.2988045  82.1576340  17.9807817
  77.3023106  84.9750828  14.1030378  76.3934325  84.6909861  14.2002847
  77.3318190  85.3949907  13.2433684  82.5342373  88.5857418  17.8721545
  82.0804700  87.7448328  17.9286736  81.9036340  89.2218816  18.2096325
  81.4775293  79.5149404  19.1022213  80.7398050  79.0026790  19.4332455
  81.7302066  79.0749785  18.2905489  80.9775313  90.4233915  18.8071363
  81.2698287  90.9838972  18.0883729  81.4873933  90.7162476  19.5624522
  81.5786920  72.2925656  19.6963982  81.8845797  71.4323019  19.4089897
  82.3039525  72.8843276  19.4962976  67.8711276  82.6956342  18.0845580
  67.6735676  82.1025703  17.3596646  67.3157940  82.3908553  18.8021519
  75.8508000  82.5879449  20.2040173  75.9056610  81.6353285  20.1282649
  75.0399202  82.7438888  20.6881471  76.9999194  86.5159572  11.4418456
  76.5618624  85.7995431  10.9824093  77.7409635  86.7435687  10.8803548
  73.7900360  81.2056509  17.9630552  72.9768225  81.5050679  18.3695744
  74.2859354  80.8112197  18.6805034  75.9408938  91.2014266  19.8964816
  75.8985117  91.4275112  18.9673348  76.8571637  90.9677640  20.0450618
  79.3874572  81.6698333  26.7945446  79.7423959  81.8969806  27.6539911
  80.0346703  82.0016710  26.1722701  85.1172308  84.7916769  17.4994775
  84.9790207  84.9818365  16.5715964  84.7608527  85.5536152  17.9562826
  73.2814435  78.7774864  23.5791787  73.9213814  78.6363623  22.8814750
  72.4491965  78.4909378  23.2030389  85.1441688  86.8593296  22.5106046
  85.5778195  86.7668585  23.3589100  85.8573269  86.8350796  21.8726062
  74.0574739  88.0777295  19.6926779  74.8515337  87.5827615  19.4909354
  73.3466431  87.5495158  19.3294485  78.8769583  90.4595390  24.0439147
  78.9306605  91.0286326  24.8116863  78.0084364  90.6297275  23.6793184
  70.3657502  82.2220376  15.7686532  69.4355090  82.1604832  15.9856494
  70.4614974  81.6996329  14.9723173  70.2843051  78.7475189  18.3564774
  70.5449868  79.6620522  18.2473934  71.1060223  78.2799632  18.5061386
  71.7567976  80.1612946  25.5263598  72.4291030  79.9530308  24.8776247
  70.9297763  79.9635032  25.0868830  86.0057238  86.9016997  25.0438932
  86.1993128  87.8062807  25.2898207  85.9057856  86.4424416  25.8777517
  77.6593548  76.7874887  27.5429259  77.0121463  77.4864837  27.4493735
  78.4294564  77.2211031  27.9105507  81.0672346  87.0523739  30.6179812
  80.9157853  86.8234291  29.7009896  81.0577026  88.0094341  30.6311157
  77.8357683  84.6255652  25.6026079  78.7649743  84.7766812  25.4295046
  77.4148713  84.7139673  24.7474725  76.6346015  88.6506317  23.3724616
  76.4957100  88.2825101  24.2450554  75.8460611  89.1653956  23.2008574
  77.2294167  93.7515413  14.7150153  77.4045922  93.2803456  15.5295775
  76.5426955  94.3781179  14.9431414  78.1851230  88.0287919  20.7613454
  77.8501062  87.9888689  21.6571104  77.6855175  87.3632635  20.2883864
  72.1595474  83.4355549  26.2866035  72.0215272  82.7035788  26.8877574
  73.0700397  83.3464449  26.0050223  81.1210421  85.3743954  11.0350514
  80.5039592  84.6490782  10.9383566  80.6526910  86.1353314  10.6917588
  74.7877774  83.1475509  25.7749715  75.4977393  82.5068701  25.7336333
  74.7447082  83.3988403  26.6975896  82.7764553  90.0842862  28.6956294
  82.7177099  89.4002082  28.0286877  83.1784071  90.8261852  28.2436920
  73.5006708  80.1340727  27.5945354  72.9644065  79.6831465  28.2466951
  72.9123417  80.2686635  26.8515819  71.7955252  96.9004776  21.4890013
  72.0351850  97.5323300  22.1669032  70.9524448  96.5492816  21.7755372
  72.9108967  79.5929378  10.1571818  72.0338434  79.4718179   9.7934065
  73.3866720  78.8015456   9.9050707  82.7781960  88.0482446  26.9270274
  81.8908739  87.7108368  27.0496673  83.3480511  87.3165477  27.1639039
  64.4311107  84.3806538  20.2513325  65.1182147  84.0668268  19.6634340
  64.2759236  85.2847902  19.9780577  69.2345830  79.2696734  24.6798349
  69.1504018  78.6622404  23.9448759  68.4128536  79.7605753  24.6807845
  76.3083114  92.7083898  23.8931517  76.2353285  93.5138870  24.4050822
  75.8660507  92.9075864  23.0679538  76.0972893  91.9455668  17.4034338
  75.3140415  92.4877348  17.4972563  76.7965638  92.4629648  17.8028580
  79.4069543  77.7550298  20.0468544  79.9038243  77.0020260  19.7269614
  78.6356525  77.7914614  19.4811753  87.2599301  83.4590663  21.6886835
  87.2489177  84.3415379  21.3180768  86.3916680  83.1062214  21.4941372
  78.7681797  92.6070732  26.0489676  79.4809769  93.2418197  25.9765577
  78.2771826  92.7034598  25.2329677  80.4899324  86.5121985  17.6206967
  79.5555603  86.6323447  17.4511672  80.6675993  85.6094452  17.3566977
  75.9904512  79.8967681  19.7740228  75.6202300  79.3438721  20.4621134
  76.4863605  79.2925814  19.2215229  83.8771875  82.3539304  18.1557001
  84.3432328  83.1867296  18.0817304  84.3279376  81.8884286  18.8602260
  73.8193711  90.3565176  26.8695246  74.5203170  90.9901659  27.0224641
  73.3488826  90.6979907  26.1090886  81.9448107  88.6983126  15.1543153
  82.2207950  88.5839720  16.0637028  81.0752605  88.3000610  15.1155327
  81.8488538  74.7219891  22.1947903  80.9351618  74.9524118  22.3630110
  82.2781640  74.8058335  23.0461935  81.6194997  82.9109783  24.6947797
  80.9666447  83.1585691  24.0400250  81.9975377  82.0973921  24.3610274
  78.5802171  92.9469476  18.7975967  78.7624565  92.1291132  19.2603719
  79.4035157  93.1637169  18.3600857  78.9144336  91.8737662  16.0591016
  79.4432102  91.3630116  15.4461178  79.1772556  91.5580192  16.9236549
  77.6682570  83.6529594  31.1813834  76.9923207  83.5523724  31.8516209
  78.4910204  83.4968808  31.6449831  69.4161429  89.8901531  23.8026349
  70.0014866  89.1445219  23.9354253  69.2186267  90.2005488  24.6863013
  72.2700084  92.9252778  18.8188791  71.6010459  93.4098906  18.3352832
  72.1312954  93.1721999  19.7332170  64.0079084  82.4607131  22.5230792
  64.0463183  81.9270722  23.3167910  63.5019376  81.9342337  21.9041769
  76.4105353  94.9596522  25.4171450  76.9623661  95.1228143  26.1820535
  76.7511546  95.5500960  24.7451475  71.3869846  77.3071672  26.0193335
  71.4511172  78.1686502  25.6070732  71.3236966  76.6945673  25.2865693
  70.8622118  79.3794804  29.6666369  71.4894157  78.9971881  30.2803893
  70.0050037  79.1609006  30.0322061  81.2616227  89.7857779  31.2720104
  81.8056131  90.3987738  30.7775059  80.6803072  90.3437358  31.7887117
  67.6387661  81.1871233  15.5984724  67.9341102  80.2781912  15.5451777
  66.7375697  81.1658973  15.2765726  79.5473740  92.9078497  22.4035132
  79.4224879  92.1068237  21.8946078  80.2052831  93.4024691  21.9149102
  71.1681908  79.2627230  21.5812272  70.4468494  79.8763197  21.4419746
  71.9575164  79.7984995  21.5028918  81.6108648  90.7087517  24.0314682
  80.6638984  90.5892869  23.9593009  81.9591421  89.8210015  24.1140944
  73.9708222  76.5981656  27.8552924  74.4942623  76.8443953  28.6179233
  73.7520555  77.4301691  27.4356061  69.3675503  78.8685331  15.7224049
  69.0388209  77.9882710  15.5399155  69.7214873  78.8133000  16.6100438
  78.6155082  90.5040234  20.2319034  78.4680044  89.5756941  20.4126604
  79.4408575  90.5260324  19.7476110  72.4817326  79.1558301  16.0899526
  72.8213398  79.6844222  15.3678135  72.9289446  79.4938707  16.8658093
  82.2189203  91.3268792  21.3183907  83.1435751  91.1211654  21.1808358
  82.0504507  91.0785193  22.2273249  75.1760767  77.5395351  25.5402595
  74.8357587  76.7403164  25.9423274  74.4699773  77.8397062  24.9679428
  75.8277238  74.6244664  23.9929918  76.6503308  74.1505142  23.8708808
  76.0715302  75.4035148  24.4928604  74.4685473  77.6532922  14.2892819
  75.1893835  78.0314175  13.7856536  73.8450777  78.3721799  14.3927797
  78.6116596  78.3578071  15.2251152  78.8280210  79.2402709  14.9239980
  78.1310663  77.9664285  14.4956794  73.3515817  81.3163784  21.8021896
  73.2060398  81.6304087  22.6946178  72.8741021  81.9348685  21.2492795
  75.2112200  78.3066332  21.8502786  75.1973769  77.4107426  21.5135084
  75.9284628  78.3136996  22.4841072  77.0638331  78.7403673  23.8955913
  76.8056109  79.6620743  23.8940244  76.5323371  78.3434107  24.5856377
  82.0084520  91.8454460  16.6745999  82.1821397  91.2800882  15.9219851
  82.5013411  92.6455355  16.4925488  67.8261479  83.8569129  24.7409557
  67.2814947  84.6328937  24.8729832  68.7040829  84.2039933  24.5828679
  74.6149096  77.1880713  17.1190356  74.7365007  76.2597359  17.3181243
  74.3251138  77.2019399  16.2068671  77.4840286  74.8735623  20.2557076
  77.5061983  74.9374956  19.3009055  77.9008345  74.0340132  20.4497582
  87.8623911  84.6090883  18.2936298  88.3055057  83.8598208  17.8955422
  86.9850421  84.6001019  17.9110030  82.9959692  91.1621224  13.7742897
  83.6910597  91.7827917  13.9930211  83.3382842  90.3116575  14.0495275
  68.6127501  82.9839025  27.6339714  67.8709237  83.1321660  28.2204345
  68.2920246  83.2447291  26.7706464  84.8951115  88.6120930  15.3030228
  85.4202439  88.9508202  14.5779548  84.8073468  87.6767945  15.1193362
  76.5571164  92.5255003  27.4320104  76.8658290  92.2804150  28.3042804
  77.3546646  92.7301642  26.9438974  76.5791776  94.6792913  19.6625481
  76.1396766  94.1869292  20.3558337  77.3299893  94.1365881  19.4217556
  69.0584115  90.8704454  19.6650109  69.8842135  90.5708226  19.2848752
  68.7078167  90.1012076  20.1139898  74.0265648  90.2230922  21.7347782
  73.4045657  89.5601627  21.4350010  74.6970515  90.2492054  21.0521430
  67.2592720  88.7890780  20.6239042  66.4224628  88.3612955  20.4423044
  67.2316365  88.9823224  21.5609834  84.5845021  89.2453833  30.6081426
  83.7940565  89.2277972  30.0685925  84.3478376  89.7842127  31.3630462
  84.7042896  86.0946300  27.9214154  84.7540901  85.9296307  28.8629677
  84.5956820  85.2273559  27.5312035  73.5879155  88.7734845  15.2106243
  73.7367275  89.4570310  14.5572916  74.3945598  88.7539935  15.7255699
  81.9946659  82.0777228  29.2373461  82.8956521  81.9383693  28.9457459
  82.0694633  82.2431683  30.1771638  76.3289464  79.4544082  28.0826647
  75.4592773  79.7477649  27.8109236  76.5648944  80.0384527  28.8033911
  86.2061093  88.5143241  28.1656176  85.9145901  88.8773222  29.0019637
  85.5933224  87.8010249  27.9869508  87.4056775  86.0796121  20.6858746
  88.2403667  86.5185925  20.8496306  87.5415904  85.6034774  19.8666992
  84.4548281  83.6375856  26.6336234  84.9302403  83.8303502  25.8255085
  83.5313847  83.6935042  26.3879617  71.3431788  84.8000023  16.2167312
  71.0977830  83.8962353  16.4147522  71.5127703  84.8017173  15.2746790
  79.0328498  75.6723699  25.5992068  79.5510442  76.4084726  25.2738556
  78.6783631  75.9787693  26.4338827  70.6127436  80.5328381  13.7153473
  69.9196680  80.6072736  13.0593509  70.3679187  79.7688724  14.2374990
  79.2841092  72.0923982  21.1192964  79.5642846  71.4247171  21.7453391
  80.0691699  72.2853078  20.6067628  77.0874561  91.2682976  12.6817990
  76.5148528  91.8873163  12.2288462  77.6607354  91.8182338  13.2157912
  83.1549950  80.5141616  24.8664539  84.1067373  80.6139714  24.8876763
  82.9853401  79.7219884  25.3762624  81.1764330  77.5997199  25.0523940
  80.5814262  77.8802212  24.3570429  80.8914027  78.0891100  25.8240681
  80.3071820  91.5520126  13.8126573  81.2402493  91.4865688  14.0159448
  80.2195033  92.3876393  13.3541105  85.6338028  83.7347736  23.9806839
  85.6014348  82.7963736  24.1666523  86.2438652  83.8131772  23.2472664
  77.4721359  82.6043789  10.0234043  78.4180464  82.4749997  10.0922461
  77.0935604  81.8658450  10.5003471  85.7832517  80.5258779  24.0265122
  85.2671565  79.7417236  23.8395051  86.6672465  80.1977496  24.1911642
  83.4443244  74.2699795  19.9860935  83.2468065  73.9614883  20.8704267
  84.0542949  74.9961434  20.1158865  91.4514578  84.7963742  23.1212876
  92.1817966  84.5349031  23.6820579  90.8421523  84.0592464  23.1614944
  89.5329875  82.9371605  23.7187327  88.8063039  82.8027570  23.1103818
  89.1177162  83.2448434  24.5244045  77.3560052  86.6561535  31.4834700
  78.2763061  86.8340134  31.6774746  77.3209635  85.7117580  31.3314399
  75.6564276  80.5293765   9.9588928  74.7495732  80.2326878  10.0351642
  75.9340257  80.2323583   9.0923214  66.5742217  81.8500128  20.4087975
  66.2545001  80.9965437  20.1162349  66.0275645  82.0648707  21.1645942
  70.3522124  84.5662569  24.1257481  70.5708134  85.4979677  24.1445515
  70.7647898  84.2070544  24.9112285  77.2726342  75.0730655  16.1133169
  76.4627070  74.7277740  16.4888416  77.9610759  74.7638198  16.7020781
  79.2016890  74.1508701  17.7357466  79.7547929  74.5704155  18.3947489
  79.4386977  73.2244450  17.7780422  74.4263061  77.3880700  10.1000907
  75.2882225  77.7135598  10.3596725  74.6113405  76.6012196   9.5873973
  66.4430477  85.4703040  22.3781096  65.7493948  85.0556993  21.8651051
  67.1903468  85.5123576  21.7814515  82.5795697  76.2609227  17.2436130
  81.9994366  76.9194031  16.8614183  82.3131630  75.4386571  16.8323548
  81.0299264  75.6614284  19.4457451  81.5299042  75.7730819  18.6371770
  81.6734872  75.3575337  20.0858259  75.0881259  83.5692914  32.3325292
  74.6048341  84.3693274  32.5389181  75.1742199  83.5800859  31.3792736
  68.3567219  85.4021294  20.2547111  68.3337907  85.5008981  19.3028994
  68.6667856  86.2486444  20.5764277  71.0154597  87.4597449  24.3693725
  71.9697851  87.4281391  24.3023657  70.8167121  86.9988072  25.1843951
  71.6053979  86.0298565  26.9364523  72.4246868  86.5242643  26.9599360
  71.8790787  85.1130533  26.9082091  81.3620575  78.4209317  16.2992479
  80.4746430  78.7058968  16.0812673  81.7774564  78.2603080  15.4519755
  84.7135111  78.4455838  20.0146818  85.4895502  78.9352290  20.2871435
  83.9883246  78.8713892  20.4718687  87.1507670  79.1583457  21.0720758
  87.7452161  78.9179193  20.3614067  87.2234254  78.4390588  21.6994295
  69.3704826  93.0017068  21.3863923  69.2359294  92.2417469  20.8201921
  68.9536888  93.7257968  20.9192712  81.3361599  83.9363853  16.5142769
  81.2796800  84.3932404  15.6750401  81.8889942  83.1754538  16.3365612
  85.1466405  79.7253585  17.3392888  84.8903339  79.3250220  18.1701096
  84.5219273  80.4397379  17.2143027  89.4578743  82.4649658  19.8464180
  88.8978301  82.5342847  20.6195742  88.8522246  82.2890643  19.1263676
  72.5273952  93.8986385  21.5982366  72.4106336  94.8431818  21.4961056
  71.7066398  93.5959947  21.9868165  82.4150486  88.6236521  12.4438959
  83.2496090  88.1917719  12.2616433  82.2534829  88.4518535  13.3715853
  82.0696378  85.1268634  13.8095298  82.0145182  84.9612906  12.8683742
  81.4442434  85.8344667  13.9657488  66.8588893  80.3636699  27.6356720
  67.5047757  79.8535653  28.1243945  66.6506044  81.1005380  28.2100145
  79.3842286  87.4317546  33.1348861  80.2533445  87.6058198  32.7735496
  78.9049037  88.2511963  33.0124590  75.3792504  74.6276743  13.3880616
  75.3671174  75.5718583  13.5448887  76.2715926  74.4446889  13.0940078
  73.5528466  94.5514647  24.8138294  74.4555712  94.5838257  25.1304789
  73.3265836  93.6215098  24.8284630  75.3082068  93.3045634  21.4748373
  74.3577699  93.3047495  21.3612745  75.6114554  92.5578368  20.9584408
  79.1944623  71.2219520  17.6426553  78.4277019  70.6678007  17.7883235
  79.6055328  71.2941389  18.5040705  71.1986384  77.5104316  31.7331734
  72.0617846  77.1541121  31.9435059  70.6251795  77.1718210  32.4207139
  91.0434761  99.1406172  22.5394135  91.6813171  99.0212919  21.8357475
  90.9255604 100.0887016  22.5982088  87.8524468  99.0933600  22.4755660
  87.5142979  98.9774665  21.5876195  88.7214236  98.6924765  22.4556666
  88.3344251 100.2468452  28.4341866  88.3232891  99.8521250  27.5622369
  88.4964890  99.5134524  29.0275637  81.2575715 102.4420268  21.3036771
  82.0497007 102.1011093  20.8883071  81.4972365 102.5515243  22.2238925
  85.0551512 103.0305564  27.3821050  84.7641378 103.9351194  27.2667716
  85.6908496 103.0722091  28.0965119  85.9807719 100.4082412  23.9722409
  86.5771291 100.1838435  23.2579372  86.0382690  99.6667158  24.5747857
  93.5209877  90.5154433  24.9774931  93.1893202  91.3849844  24.7536146
  92.9255491  90.1990717  25.6568961  90.0141397 102.7166979  24.3770843
  89.7142120 103.6192018  24.2686650  89.6692456 102.4499162  25.2291996
  83.4653878  99.1680776  20.4107548  82.5404375  99.0356990  20.6185239
  83.7138291  99.9474995  20.9077490  93.4138541  95.2349519  22.0568281
  92.5055418  95.1664928  21.7627042  93.3626136  95.7121464  22.8850106
  80.8262689  98.8114050  21.2451337  80.9555070  99.0648528  22.1590748
  80.1460141  99.4041758  20.9255992  87.4879406  96.6539165  30.0003178
  86.7112740  97.2133085  29.9906043  88.1269969  97.1395948  30.5218048
  95.2800187  93.4365958  23.8346155  94.6374567  93.7298491  23.1885949
  94.7755115  93.3218878  24.6399351  85.7425779  99.4624618  29.5621145
  86.4840463 100.0009662  29.2855968  85.0362764 100.0890907  29.7192697
  91.2181118 101.6053759  28.1593306  91.6264474 101.1636169  27.4147939
  90.4958380 101.0306386  28.4127499  87.5712188  96.5426366  25.5326863
  88.4173384  96.9665779  25.6761512  87.5110826  95.8859990  26.2265426
  90.7211634  94.2030734  27.1908037  90.4772566  94.9572794  26.6542313
  90.9971564  94.5816081  28.0255284  92.6750096 100.7469346  25.8685303
  92.8866992 101.3901106  25.1919684  92.6279845  99.9131663  25.4007233
  90.2776325  93.3587167  22.7721875  89.4160804  93.6568420  23.0638612
  90.3038760  93.5757566  21.8402907  83.9861976 101.4500839  22.1175444
  84.5563333 101.8788107  21.4792928  84.5770088 101.1683424  22.8159629
  84.4787142  96.6164266  30.3636455  83.8485803  97.2980547  30.5971852
  84.3723230  96.5047348  29.4189593  79.7732115  96.2836062  21.2902379
  78.9831169  96.5393591  20.8142490  80.2643362  97.0984400  21.3954420
  81.7246860  96.6480642  18.2485856  80.9278023  96.7599336  18.7669351
  81.4972452  96.9867294  17.3826746  87.5552528 103.1725345  26.1968370
  87.6196960 103.6345752  27.0326542  86.8463452 102.5422710  26.3250680
  78.0569818  96.5366553  23.7217370  78.3077856  97.4213563  23.9874946
  78.5929366  96.3571154  22.9492462  83.7567885  90.9185032  32.7261706
  83.3634831  90.3651231  33.4009350  84.5734025  91.2295611  33.1168223
  86.6735846  92.3342911  30.3181962  87.4145559  92.9350065  30.2386425
  86.9053769  91.5920549  29.7600005  81.8177184  97.5199279  28.5960192
  81.7030699  96.6184536  28.8967291  80.9621702  97.7662975  28.2445009
  88.8969022 105.4617019  30.1947693  88.4532876 104.6753398  29.8768597
  89.5586235 105.6496169  29.5291584  83.6556143 106.9912821  24.7208371
  84.2063568 106.8629884  23.9485365  82.8167619 107.2907710  24.3703264
  90.9950260 105.7419819  28.2229094  90.9768735 106.5628700  27.7309363
  91.9170180 105.6173894  28.4479235  87.4523314 103.2563948  29.0652602
  87.9851651 102.4952237  28.8351910  86.9237395 102.9637600  29.8076757
  90.6193009  88.3624014  24.5946244  90.2757278  89.2525656  24.5185355
  90.9871972  88.1725672  23.7315829  88.1690403  93.1982326  18.1603918
  87.3131999  92.8089177  17.9809556  88.5817355  93.2774287  17.3003703
  89.6989549  90.7328669  22.5595477  89.1954345  90.6958805  21.7463283
  89.9920156  91.6421412  22.6192134  85.9432435  90.8167399  21.5661659
  86.8085432  90.6210208  21.2067549  86.0109944  90.5877751  22.4931016
  83.5494754  93.0469607  18.9378026  84.1238506  92.8244789  18.2051219
  84.1365737  93.1158302  19.6906627  85.8517422  89.9210856  17.6653095
  85.1981834  89.6059873  17.0409710  85.8097896  89.2986597  18.3912918
  89.0855162  96.4092790  21.9900743  88.1677724  96.6307737  21.8322431
  89.5015306  96.4839100  21.1312450  92.4180675  87.6217574  19.6963982
  92.7239552  86.7614937  19.4089897  93.1433280  88.2135194  19.4962976
  78.7105031  98.0248260  18.0845580  78.5129431  97.4317621  17.3596646
  78.1551695  97.7200470  18.8021519  86.6901754  97.9171367  20.2040173
  86.7450364  96.9645203  20.1282649  85.8792956  98.0730806  20.6881471
  84.6294114  96.5348426  17.9630552  83.8161980  96.8342597  18.3695744
  85.1253109  96.1404115  18.6805034  90.2268326  96.9990251  26.7945446
  90.5817714  97.2261724  27.6539911  90.8740457  97.3308628  26.1722701
  84.1208189  94.1066782  23.5791787  84.7607568  93.9655541  22.8814750
  83.2885720  93.8201295  23.2030389  81.1236806  94.0767107  18.3564774
  81.3843623  94.9912440  18.2473934  81.9453978  93.6091549  18.5061386
  82.5961731  95.4904864  25.5263598  83.2684784  95.2822226  24.8776247
  81.7691517  95.2926950  25.0868830  88.4987303  92.1166805  27.5429259
  87.8515218  92.8156755  27.4493735  89.2688318  92.5502949  27.9105507
  91.9066101 102.3815657  30.6179812  91.7551607 102.1526209  29.7009896
  91.8970780 103.3386259  30.6311157  88.6751437  99.9547570  25.6026079
  89.6043497 100.1058729  25.4295046  88.2542467 100.0431591  24.7474725
  87.4739769 103.9798234  23.3724616  87.3350855 103.6117019  24.2450554
  86.6854365 104.4945874  23.2008574  82.9989228  98.7647467  26.2866035
  82.8609026  98.0327706  26.8877574  83.9094152  98.6756367  26.0050223
  85.6271529  98.4767426  25.7749715  86.3371147  97.8360619  25.7336333
  85.5840837  98.7280321  26.6975896  93.6158307 105.4134780  28.6956294
  93.5570854 104.7294000  28.0286877  94.0177826 106.1553770  28.2436920
  84.3400463  95.4632644  27.5945354  83.8037820  95.0123383  28.2466951
  83.7517171  95.5978553  26.8515819  93.6175715 103.3774364  26.9270274
  92.7302494 103.0400285  27.0496673  94.1874266 102.6457395  27.1639039
  75.2704862  99.7098455  20.2513325  75.9575902  99.3960185  19.6634340
  75.1152991 100.6139820  19.9780577  80.0739584  94.5988652  24.6798349
  79.9897773  93.9914321  23.9448759  79.2522290  95.0897670  24.6807845
  90.2463298  93.0842215  20.0468544  90.7431997  92.3312178  19.7269614
  89.4750279  93.1206532  19.4811753  86.8298267  95.2259598  19.7740228
  86.4596054  94.6730639  20.4621134  87.3257359  94.6217732  19.2215229
  84.6587465 105.6857093  26.8695246  85.3596925 106.3193576  27.0224641
  84.1882580 106.0271825  26.1090886  92.6882293  90.0511809  22.1947903
  91.7745372  90.2816036  22.3630110  93.1175394  90.1350253  23.0461935
  92.4588751  98.2401701  24.6947797  91.8060201  98.4877608  24.0400250
  92.8369131  97.4265839  24.3610274  88.5076324  98.9821512  31.1813834
  87.8316961  98.8815641  31.8516209  89.3303958  98.8260726  31.6449831
  80.2555183 105.2193448  23.8026349  80.8408620 104.4737136  23.9354253
  80.0580022 105.5297405  24.6863013  74.8472838  97.7899049  22.5230792
  74.8856938  97.2562639  23.3167910  74.3413131  97.2634254  21.9041769
  82.2263600  92.6363589  26.0193335  82.2904927  93.4978420  25.6070732
  82.1630721  92.0237591  25.2865693  81.7015873  94.7086722  29.6666369
  82.3287912  94.3263799  30.2803893  80.8443792  94.4900924  30.0322061
  92.1009981 105.1149697  31.2720104  92.6449885 105.7279655  30.7775059
  91.5196826 105.6729275  31.7887117  78.4781416  96.5163151  15.5984724
  78.7734857  95.6073829  15.5451777  77.5769451  96.4950890  15.2765726
  82.0075663  94.5919147  21.5812272  81.2862248  95.2055115  21.4419746
  82.7968918  95.1276912  21.5028918  84.8101976  91.9273574  27.8552924
  85.3336378  92.1735870  28.6179233  84.5914309  92.7593609  27.4356061
  80.2069257  94.1977249  15.7224049  79.8781963  93.3174627  15.5399155
  80.5608628  94.1424917  16.6100438  86.0154521  92.8687269  25.5402595
  85.6751341  92.0695082  25.9423274  85.3093527  93.1688980  24.9679428
  86.6670993  89.9536581  23.9929918  87.4897062  89.4797060  23.8708808
  86.9109056  90.7327065  24.4928604  84.1909572  96.6455702  21.8021896
  84.0454152  96.9596005  22.6946178  83.7134775  97.2640602  21.2492795
  86.0505955  93.6358250  21.8502786  86.0367523  92.7399343  21.5135084
  86.7678383  93.6428914  22.4841072  87.9032085  94.0695590  23.8955913
  87.6449863  94.9912661  23.8940244  87.3717126  93.6726025  24.5856377
  78.6655234  99.1861046  24.7409557  78.1208702  99.9620854  24.8729832
  79.5434584  99.5331851  24.5828679  85.4542851  92.5172630  17.1190356
  85.5758762  91.5889277  17.3181243  85.1644893  92.5311316  16.2068671
  88.3234041  90.2027541  20.2557076  88.3455738  90.2666874  19.3009055
  88.7402100  89.3632049  20.4497582  79.4521256  98.3130943  27.6339714
  78.7102992  98.4613578  28.2204345  79.1314000  98.5739208  26.7706464
  87.3964918 107.8546921  27.4320104  87.7052045 107.6096068  28.3042804
  88.1940400 108.0593559  26.9438974  78.0986474 104.1182698  20.6239042
  77.2618383 103.6904872  20.4423044  78.0710120 104.3115141  21.5609834
  84.9383930  94.0304628  31.3280288  84.9872086  94.9066751  30.9458058
  85.4806444  93.4882021  30.7551932  95.4238776 104.5745751  30.6081426
  94.6334319 104.5569890  30.0685925  95.1872130 105.1134045  31.3630462
  95.5436651 101.4238217  27.9214154  95.5934656 101.2588225  28.8629677
  95.4350574 100.5565476  27.5312035  92.8340413  97.4069145  29.2373461
  93.7350276  97.2675610  28.9457459  92.9088388  97.5723600  30.1771638
  87.1683219  94.7836000  28.0826647  86.2986528  95.0769566  27.8109236
  87.4042699  95.3676445  28.8033911  97.0454848 103.8435159  28.1656176
  96.7539656 104.2065139  29.0019637  96.4326979 103.1302167  27.9869508
  95.2942036  98.9667773  26.6336234  95.7696157  99.1595420  25.8255085
  94.3707601  99.0226959  26.3879617  89.8722252  91.0015617  25.5992068
  90.3904196  91.7376644  25.2738556  89.5177385  91.3079610  26.4338827
  90.1234847  87.4215900  21.1192964  90.4036600  86.7539089  21.7453391
  90.9085453  87.6144995  20.6067628  93.9943705  95.8433534  24.8664539
  94.9461128  95.9431631  24.8876763  93.8247155  95.0511802  25.3762624
  92.0158084  92.9289117  25.0523940  91.4208016  93.2094130  24.3570429
  91.7307781  93.4183018  25.8240681  96.6226271  95.8550697  24.0265122
  96.1065320  95.0709153  23.8395051  97.5066220  95.5269413  24.1911642
  94.2836998  89.5991712  19.9860935  94.0861819  89.2906800  20.8704267
  94.8936704  90.3253351  20.1158865  88.1953806 101.9853452  31.4834700
  89.1156816 102.1632051  31.6774746  88.1603389 101.0409498  31.3314399
  77.4135971  97.1792046  20.4087975  77.0938755  96.3257354  20.1162349
  76.8669399  97.3940624  21.1645942  81.1915879  99.8954487  24.1257481
  81.4101888 100.8271595  24.1445515  81.6041652  99.5362461  24.9112285
  88.1120096  90.4022572  16.1133169  87.3020825  90.0569657  16.4888416
  88.8004513  90.0930116  16.7020781  90.0410645  89.4800619  17.7357466
  90.5941683  89.8996073  18.3947489  90.2780731  88.5536367  17.7780422
  86.0643744  95.4687693  33.5160230  85.9640471  96.4182050  33.4472321
  85.8465286  95.1405932  32.6436300  77.2824231 100.7994958  22.3781096
  76.5887702 100.3848910  21.8651051  78.0297222 100.8415494  21.7814515
  91.8693018  90.9906202  19.4457451  92.3692797  91.1022737  18.6371770
  92.5128626  90.6867255  20.0858259  85.9275014  98.8984832  32.3325292
  85.4442096  99.6985192  32.5389181  86.0135953  98.9092777  31.3792736
  79.1960974 100.7313211  20.2547111  79.1731662 100.8300899  19.3028994
  79.5061610 101.5778362  20.5764277  81.8548351 102.7889366  24.3693725
  82.8091605 102.7573309  24.3023657  81.6560875 102.3279990  25.1843951
  82.4447734 101.3590482  26.9364523  83.2640623 101.8534561  26.9599360
  82.7184541 100.4422451  26.9082091  77.6982648  95.6928616  27.6356720
  78.3441511  95.1827570  28.1243945  77.4899799  96.4297298  28.2100145
  90.2236040 102.7609464  33.1348861  91.0927200 102.9350116  32.7735496
  89.7442792 103.5803881  33.0124590  84.3922220 109.8806565  24.8138294
  85.2949467 109.9130175  25.1304789  84.1659590 108.9507016  24.8284630
  90.0338378  86.5511438  17.6426553  89.2670774  85.9969924  17.7883235
  90.4449083  86.6233306  18.5040705  82.0380139  92.8396233  31.7331734
  82.9011600  92.4833038  31.9435059  81.4645549  92.5010128  32.4207139
  94.5961640 106.2476950  32.7261706  94.2028585 105.6943149  33.4009350
  95.4127780 106.5587528  33.1168223  97.5129601 107.6634829  30.3181962
  98.2539314 108.2641982  30.2386425  97.7447523 106.9212467  29.7600005
  92.5409627 110.0378639  29.6666369  93.1681666 109.6555717  30.2803893
  91.6837546 109.8192841  30.0322061  95.7777685 109.3596545  31.3280288
  95.8265840 110.2358668  30.9458058  96.3200199 108.8173938  30.7551932
  96.9037498 110.7979610  33.5160230  96.8034225 111.7473967  33.4472321
  96.6859040 110.4697849  32.6436300  88.5376402 111.0220534  27.6356720
  89.1835266 110.5119488  28.1243945  88.3293553 111.7589216  28.2100145
  92.8773893 108.1688151  31.7331734  93.7405355 107.8124956  31.9435059
  92.3039304 107.8302046  32.4207139  50.2583291  21.1029232  15.4201601
  50.1995837  20.4188452  14.7532184  50.6602809  21.8448222  14.9682227
  48.7434965  20.8044149  17.9965411  49.2874869  21.4174107  17.5020366
  48.1621810  21.3623727  18.5132424  52.0663759  20.2640203  17.3326732
  51.2759303  20.2464342  16.7931232  51.8297114  20.8028497  18.0875769
  53.6879831  19.5329611  14.8901482  53.3964639  19.8959591  15.7264943
  53.0751962  18.8196619  14.7114814  46.8661023  18.4503916  19.8594167
  47.7352183  18.6244568  19.4980802  46.3867775  19.2698332  19.7369897
  58.5253499  30.1592542   9.2639442  59.1631909  30.0399289   8.5602782
  58.4074342  31.1073386   9.3227394  55.3343205  30.1119970   9.2000967
  54.9961717  29.9961034   8.3121502  56.2032974  29.7111135   9.1801973
  55.8162988  31.2654821  15.1587172  55.8051629  30.8707620  14.2867676
  55.9783628  30.5320894  15.7520944  48.7394453  33.4606638   8.0282078
  49.5315745  33.1197462   7.6128377  48.9791103  33.5701613   8.9484231
  52.5370249  34.0491933  14.1066356  52.2460115  34.9537564  13.9913023
  53.1727234  34.0908461  14.8210426  53.4626456  31.4268782  10.6967716
  54.0590029  31.2024804   9.9824679  53.5201428  30.6853527  11.2993164
  63.4803195  27.8219229   7.2425629  64.2128367  27.2518445   7.4763458
  62.7242550  27.4340829   7.6832134  61.0028615  21.5340803  11.7020237
  60.6711940  22.4036214  11.4781452  60.4074228  21.2177087  12.3814268
  57.4960135  33.7353349  11.1016150  57.1960858  34.6378388  10.9931957
  57.1511194  33.4685532  11.9537303  60.8957278  26.2535889   8.7813587
  59.9874156  26.1851297   8.4872348  60.8444874  26.7307834   9.6095413
  52.4780914  40.4997669   4.0687118  52.4004944  41.4505494   4.1475598
  51.8742558  40.1543542   4.7262044  54.9698144  27.6725534  16.7248485
  54.1931478  28.2319455  16.7151349  55.6088707  28.1582317  17.2463355
  62.7618925  24.4552327  10.5591461  62.1193305  24.7484860   9.9131256
  62.2573853  24.3405248  11.3644658  53.2244516  30.4810988  16.2866452
  53.9659201  31.0196032  16.0101275  52.5181502  31.1077277  16.4438003
  58.6999856  32.6240128  14.8838613  59.1083212  32.1822539  14.1393245
  57.9777118  32.0492756  15.1372806  55.0530926  27.5612735  12.2572170
  55.8992121  27.9852149  12.4006819  54.9929564  26.9046359  12.9510733
  59.0228671  33.1841319   8.6390902  58.3937533  33.3487033   7.9366970
  58.6354333  33.5982928   9.4101866  62.9017903  34.1195757   5.9935266
  62.2168941  34.4994658   5.4432299  62.9861752  34.7291083   6.7267213
  58.2030371  25.2217103  13.9153344  57.9591303  25.9759164  13.3787619
  58.4790302  25.6002451  14.7500591  60.1568834  31.7655716  12.5930609
  60.3685729  32.4087476  11.9164990  60.1098582  30.9318032  12.1252539
  51.4680714  32.4687209   8.8420750  52.0382071  32.8974477   8.2038235
  52.0588825  32.1869793   9.5404936  51.9605880  27.6350636  17.0881762
  51.3304541  28.3166917  17.3217158  51.8541968  27.5233718  16.1434900
  61.2714662  34.6427671  10.7652967  62.0932106  34.2407859  10.4835648
  61.2677065  34.5395905  11.7169082  55.0371266  34.1911715  12.9213677
  55.1015698  34.6532122  13.7571849  54.3282189  33.5609079  13.0495987
  69.3620655  30.9866420   7.1137938  68.6084364  30.4173818   6.9581942
  69.4968196  30.9529084   8.0608573  51.2386623  21.9371402  19.4507013
  50.8453568  21.3837600  20.1254657  52.0552763  22.2481980  19.8413530
  54.1554584  23.3529281  17.0427269  54.8964297  23.9536434  16.9631732
  54.3872507  22.6106919  16.4845312  49.2995922  28.5385648  15.3205499
  49.1849437  27.6370905  15.6212598  48.4440440  28.7849345  14.9690315
  56.3787760  36.4803389  16.9192999  55.9351614  35.6939767  16.6013904
  57.0404973  36.6682539  16.2536890  51.1374881  38.0099190  11.4453678
  51.6882306  37.8816253  10.6730672  50.2986357  38.3094079  11.0948571
  58.4768998  36.7606188  14.9474401  58.4587473  37.5815070  14.4554670
  59.3988918  36.6360264  15.1724542  54.9342052  34.2750318  15.7897909
  55.4670389  33.5138606  15.5597217  54.4056133  33.9823970  16.5322064
  61.2787611  31.5985331   8.4183767  60.6211285  32.2884592   8.5063896
  62.0828010  31.9881763   8.7617754  60.0893069  29.9529704   6.4687709
  60.6024951  30.5859695   6.9709419  60.7394293  29.3530899   6.1031069
  56.5673900  27.4279159   8.7146050  55.6496462  27.6494106   8.5567738
  56.9834044  27.5025470   7.8557757  60.8554866  34.9335705   4.5966852
  60.4017193  34.0926615   4.6532042  60.2248832  35.5697103   4.9341632
  59.2987805  36.7712202   5.5316670  59.5910779  37.3317259   4.8129036
  59.8086425  37.0640763   6.2869829  54.2621430  37.5492553   6.6210123
  54.2197609  37.7753399   5.6918655  55.1784129  37.3155927   6.7695924
  57.7087064  28.0176620  13.5190752  58.0636452  28.2448094  14.3785218
  58.3559195  28.3494997  12.8968008  63.4384801  31.1395056   4.2240081
  63.3002699  31.3296652   3.2961271  63.0821020  31.9014439   4.6808132
  63.4654180  33.2071583   9.2351353  63.8990687  33.1146872  10.0834407
  64.1785761  33.1829084   8.5971369  57.1982075  36.8073677  10.7684453
  57.2519098  37.3764614  11.5362169  56.3296857  36.9775562  10.4038491
  50.0780469  26.5091234  12.2508905  50.7503522  26.3008596  11.6021554
  49.2510255  26.3113320  11.8114137  64.3269730  33.2495284  11.7684238
  64.5205620  34.1541094  12.0143513  64.2270348  32.7902703  12.6022823
  55.9806041  23.1353175  14.2674566  55.3333956  23.8343124  14.1739042
  56.7507056  23.5689318  14.6350814  59.3884839  33.4002027  17.3425119
  59.2370345  33.1712578  16.4255203  59.3789518  34.3572628  17.3556464
  56.1570175  30.9733939  12.3271385  57.0862235  31.1245099  12.1540353
  55.7361205  31.0617960  11.4720032  54.9558507  34.9984604  10.0969923
  54.8169593  34.6303388  10.9695861  54.1673103  35.5132243   9.9253881
  55.5506659  40.0993700   1.4395459  55.7258414  39.6281743   2.2541082
  54.8639447  40.7259466   1.6676720  56.5063722  34.3766207   7.4858761
  56.1713555  34.3366976   8.3816411  56.0067668  33.7110922   7.0129171
  50.4807966  29.7833837  13.0111342  50.3427764  29.0514075  13.6122881
  51.3912889  29.6942737  12.7295530  53.1090267  29.4953796  12.4995022
  53.8189885  28.8546988  12.4581640  53.0659575  29.7466691  13.4221202
  61.0977045  36.4321149  15.4201601  61.0389591  35.7480369  14.7532184
  61.4996564  37.1740139  14.9682227  51.8219201  26.4819014  14.3190661
  51.2856558  26.0309752  14.9712257  51.2335909  26.6164923  13.5761125
  50.1167744  43.2483063   8.2135320  50.3564342  43.8801587   8.8914338
  49.2736941  42.8971103   8.5000679  61.0994453  34.3960733  13.6515580
  60.2121231  34.0586655  13.7741979  61.6693004  33.6643764  13.8884346
  54.6295606  39.0562186  10.6176824  54.5565777  39.8617157  11.1296128
  54.1872999  39.2554151   9.7924845  54.4185386  38.2933956   4.1279645
  53.6352907  38.8355636   4.2217870  55.1178131  38.8107935   4.5273886
  65.5811793  29.8068951   8.4132142  65.5701669  30.6893666   8.0426075
  64.7129173  29.4540501   8.2186679  57.0894289  38.9549020  12.7734982
  57.8022262  39.5896484  12.7010884  56.5984318  39.0512886  11.9574984
  52.1406203  36.7043463  13.5940553  52.8415662  37.3379946  13.7469947
  51.6701318  37.0458195  12.8336192  59.9407489  29.2588070  11.4193103
  59.2878939  29.5063978  10.7645556  60.3187869  28.4452209  11.0855581
  56.9014663  39.2947764   5.5221274  57.0837057  38.4769420   5.9849026
  57.7247649  39.5115456   5.0846164  57.2356828  38.2215949   2.7836322
  57.7644595  37.7108403   2.1706484  57.4985048  37.9058479   3.6481855
  55.9895062  30.0007882  17.9059141  55.3135699  29.9002011  18.5761516
  56.8122696  29.8447095  18.3695138  47.7373921  36.2379818  10.5271656
  48.3227358  35.4923506  10.6599560  47.5398760  36.5483775  11.4108320
  50.5912576  39.2731065   5.5434098  49.9222952  39.7577193   5.0598138
  50.4525446  39.5200286   6.4577477  54.7317845  41.3074809  12.1416757
  55.2836153  41.4706430  12.9065842  55.0724038  41.8979247  11.4696781
  49.1834611  25.7273091  16.3911675  49.8106649  25.3450169  17.0049200
  48.3262529  25.5087293  16.7567368  59.5828719  36.1336066  17.9965411
  60.1268623  36.7466025  17.5020366  59.0015564  36.6915645  18.5132424
  57.8686232  39.2556784   9.1280439  57.7437372  38.4546524   8.6191384
  58.5265323  39.7502978   8.6394409  59.9321141  37.0565805  10.7559989
  58.9851476  36.9371156  10.6838315  60.2803914  36.1688303  10.8386250
  52.2920714  22.9459943  14.5798231  52.8155116  23.1922240  15.3424540
  52.0733047  23.7779978  14.1601368  56.9367574  36.8518521   6.9564341
  56.7892536  35.9235228   7.1371911  57.7621067  36.8738611   6.4721416
  60.5401696  37.6747080   8.0429214  61.4648243  37.4689941   7.9053665
  60.3716999  37.4263481   8.9518555  53.4973259  23.8873639  12.2647901
  53.1570079  23.0881452  12.6668581  52.7912265  24.1875349  11.6924734
  55.3850823  25.0881960  10.6201220  55.1268601  26.0099030  10.6185550
  54.8535863  24.6912394  11.3101684  60.3297012  38.1932747   3.3991305
  60.5033889  37.6279169   2.6465158  60.8225903  38.9933642   3.2170795
  46.1473972  30.2047416  11.4654864  45.6027440  30.9807224  11.5975138
  47.0253322  30.5518221  11.3073985  66.1836403  30.9569170   5.0181605
  66.6267549  30.2076495   4.6200728  65.3062913  30.9479306   4.6355337
  61.3172184  37.5099511   0.4988203  62.0123089  38.1306204   0.7175518
  61.6595334  36.6594863   0.7740581  46.9339994  29.3317312  14.3585021
  46.1921730  29.4799948  14.9449651  46.6132738  29.5925578  13.4951770
  63.2163607  34.9599217   2.0275534  63.7414932  35.2986490   1.3024854
  63.1285960  34.0246232   1.8438669  54.8783656  38.8733291  14.1565411
  55.1870783  38.6282437  15.0288110  55.6759138  39.0779929  13.6684281
  54.9004268  41.0271200   6.3870787  54.4609259  40.5347579   7.0803644
  55.6512385  40.4844168   6.1462863  47.3796607  37.2182741   6.3895415
  48.2054627  36.9186513   6.0094059  47.0290659  36.4490363   6.8385204
  52.3478140  36.5709209   8.4593089  51.7258150  35.9079914   8.1595317
  53.0183007  36.5970341   7.7766737  52.4202668  25.0490997  18.0525595
  52.4690823  25.9253120  17.6703365  52.9625182  24.5068390  17.4797238
  62.9057514  35.5932121  17.3326732  62.1153057  35.5756259  16.7931232
  62.6690868  36.1320414  18.0875769  63.0255389  32.4424587  14.6459461
  63.0753394  32.2774594  15.5874984  62.9169312  31.5751846  14.2557342
  60.3159151  28.4255515  15.9618767  61.2169014  28.2861980  15.6702765
  60.3907125  28.5909970  16.9016945  54.6501956  25.8022370  14.8071954
  53.7805266  26.0955936  14.5354542  54.8861437  26.3862815  15.5279217
  64.5273585  34.8621528  14.8901482  64.2358394  35.2251509  15.7264943
  63.9145717  34.1488537  14.7114814  65.7269268  32.4274408   7.4104052
  66.5616159  32.8664212   7.5741613  65.8628397  31.9513061   6.5912298
  62.7760774  29.9854143  13.3581540  63.2514895  30.1781789  12.5500392
  61.8526339  30.0413329  13.1124924  57.3540990  22.0201987  12.3237374
  57.8722934  22.7563014  11.9983863  56.9996123  22.3265980  13.1584133
  61.4762443  26.8619903  11.5909846  62.4279866  26.9618001  11.6122070
  61.3065893  26.0698172  12.1007930  59.4976822  23.9475486  11.7769247
  58.9026754  24.2280499  11.0815735  59.2126519  24.4369387  12.5485988
  63.9550520  30.0826023  10.7052146  63.9226841  29.1442024  10.8911829
  64.5651144  30.1610060   9.9717970  64.1045009  26.8737066  10.7510429
  63.5884058  26.0895523  10.5640358  64.9884957  26.5455783  10.9156948
  69.7727070  31.1442030   9.8458182  70.5030459  30.8827318  10.4065886
  69.1634016  30.4070752   9.8860250  67.8542367  29.2849892  10.4432634
  67.1275531  29.1505857   9.8349125  67.4389654  29.5926721  11.2489352
  55.6772544  33.0039822  18.2080007  56.5975553  33.1818421  18.4020053
  55.6422127  32.0595867  18.0559706  48.6734616  30.9140857  10.8502788
  48.8920626  31.8457964  10.8690821  49.0860390  30.5548831  11.6357592
  53.5462482  26.4874062  20.2405537  53.4459209  27.4368419  20.1717628
  53.3284024  26.1592301  19.3681607  53.4093752  29.9171201  19.0570598
  52.9260833  30.7171561  19.2634487  53.4954691  29.9279146  18.1038042
  49.3367089  33.8075736  11.0939032  50.2910343  33.7759678  11.0268964
  49.1379613  33.3466360  11.9089258  49.9266471  32.3776852  13.6609830
  50.7459360  32.8720931  13.6844667  50.2003279  31.4608820  13.6327397
  65.4720162  25.5061744   7.7966065  66.0664653  25.2657480   7.0859373
  65.5446746  24.7868875   8.4239601  47.6917318  39.3495355   8.1109230
  47.5571786  38.5895756   7.5447228  47.2749380  40.0736255   7.6438019
  67.7791235  28.8127945   6.5709486  67.2190793  28.8821135   7.3441048
  67.1734738  28.6368930   5.8508983  50.8486444  40.2464672   8.3227673
  50.7318828  41.1910105   8.2206363  50.0278890  39.9438234   8.7113472
  45.1801386  26.7114986  14.3602027  45.8260249  26.2013940  14.8489252
  44.9718537  27.4483667  14.9345452  57.7054778  33.7795833  19.8594167
  58.5745937  33.9536486  19.4980802  57.2261529  34.5990250  19.7369897
  51.8740958  40.8992934  11.5383601  52.7768205  40.9316545  11.8550096
  51.6478328  39.9693385  11.5529937  53.6294560  39.6523921   8.1993680
  52.6790191  39.6525782   8.0858052  53.9327046  38.9056655   7.6829714
  49.5198877  23.8582603  18.4577041  50.3830338  23.5019408  18.6680366
  48.9464287  23.5196498  19.1452445  69.3647254  45.4884459   9.2639442
  70.0025663  45.3691207   8.5602782  69.2468096  46.4365303   9.3227394
  66.1736960  45.4411887   9.2000967  65.8355471  45.3252952   8.3121502
  67.0426728  45.0403052   9.1801973  62.0323776  47.2947364   5.1897858
  61.4688641  47.2037301   4.4214145  61.9176171  46.4747268   5.6700350
  66.6556743  46.5946739  15.1587172  66.6445384  46.1999537  14.2867676
  66.8177382  45.8612812  15.7520944  59.5788207  48.7898555   8.0282078
  60.3709499  48.4489380   7.6128377  59.8184858  48.8993530   8.9484231
  67.6123334  50.9618331   0.5012323  66.9611314  51.5472412   0.1146336
  68.4067697  51.4924526   0.5607360  61.5378961  48.0507469   0.8999457
  62.3109837  47.5036456   0.7612333  61.8904360  48.9151718   1.1113918
  63.3764004  49.3783851  14.1066356  63.0853870  50.2829482  13.9913023
  64.0120988  49.4200378  14.8210426  64.3020211  46.7560699  10.6967716
  64.8983783  46.5316722   9.9824679  64.3595182  46.0145445  11.2993164
  63.8745239  44.2100135  -1.4682093  64.1270760  43.6881656  -2.2298630
  62.9369798  44.0466280  -1.3655410  68.9188522  43.2135913   6.3392650
  69.7051611  42.7955336   5.9883067  69.1827226  44.1182005   6.5074298
  69.0898599  48.6508763   1.0381307  68.4544432  48.7243390   1.7502212
  68.7596006  49.2402362   0.3600386  74.3196949  43.1511146   7.2425629
  75.0522121  42.5810363   7.4763458  73.5636305  42.7632747   7.6832134
  63.5941528  46.1128241   0.7342282  63.4777786  45.4373144   1.4023366
  63.7043788  45.6260615  -0.0825565  65.9373069  45.5738388   4.4388971
  65.5731276  45.0469009   5.1501892  66.7940185  45.1836857   4.2655456
  71.8422369  36.8632720  11.7020237  71.5105694  37.7328131  11.4781452
  71.2467983  36.5469004  12.3814268  65.5778556  40.6028287  -0.5649680
  65.7452958  41.4708524  -0.1979209  65.3875725  40.7655569  -1.4888391
  68.3353889  49.0645266  11.1016150  68.0354612  49.9670305  10.9931957
  67.9904949  48.7977450  11.9537303  61.7866371  45.5159063   7.1352854
  60.8616867  45.3835277   7.3430546  62.0350784  46.2953282   7.6322797
  71.7351033  41.5827807   8.7813587  70.8267910  41.5143215   8.4872348
  71.6838629  42.0599752   9.6095413  65.5567777  43.0585945   0.4196986
  65.4367402  43.5042996   1.2582467  64.8620365  43.4071263  -0.1389475
  59.1475182  45.1592337   7.9696643  59.2767563  45.4126816   8.8836055
  58.4672633  45.7520045   7.6501298  63.3174669  55.8289587   4.0687118
  63.2398699  56.7797412   4.1475598  62.7136312  55.4835459   4.7262044
  65.8091899  43.0017452  16.7248485  65.0325233  43.5611372  16.7151349
  66.4482462  43.4874235  17.2463355  73.6012679  39.7844245  10.5591461
  72.9587059  40.0776778   9.9131256  73.0967608  39.6697165  11.3644658
  71.2552843  43.5307418   1.2477320  72.1670699  43.7634805   1.0725018
  70.7462490  44.1144462   0.6852399  64.0638271  45.8102906  16.2866452
  64.8052955  46.3487949  16.0101275  63.3575256  46.4369194  16.4438003
  69.5393611  47.9532046  14.8838613  69.9476967  47.5114457  14.1393245
  68.8170872  47.3784674  15.1372806  65.8924681  42.8904653  12.2572170
  66.7385876  43.3144066  12.4006819  65.8323318  42.2338277  12.9510733
  69.8622425  48.5133237   8.6390902  69.2331288  48.6778951   7.9366970
  69.4748087  48.9274846   9.4101866  73.7411657  49.4487674   5.9935266
  73.0562695  49.8286576   5.4432299  73.8255506  50.0583001   6.7267213
  69.0424126  40.5509021  13.9153344  68.7985058  41.3051082  13.3787619
  69.3184056  40.9294369  14.7500591  70.9962589  47.0947633  12.5930609
  71.2079484  47.7379393  11.9164990  70.9492337  46.2609950  12.1252539
  68.5988818  39.7065454   9.4967181  67.7373297  40.0046708   9.7883919
  68.6251252  39.9235853   8.5648214  65.4150387  48.2507645   5.9040987
  65.8788733  48.5295348   5.1145609  65.1507185  47.3491089   5.7214078
  62.3074468  47.7979126   8.8420750  62.8775825  48.2266395   8.2038235
  62.8982580  47.5161711   9.5404936  64.3519273  44.3730797   2.7130552
  65.0543316  44.8251841   3.1804478  64.0199902  43.7314616   3.3410445
  62.7999635  42.9642554  17.0881762  62.1698295  43.6458835  17.3217158
  62.6935723  42.8525635  16.1434900  58.0944607  42.6314350   8.0147686
  57.3043661  42.8871878   7.5387796  58.5855854  43.4462688   8.1199726
  72.1108417  49.9719589  10.7652967  72.9325860  49.5699776  10.4835648
  72.1070820  49.8687823  11.7169082  60.0459352  42.9958929   4.9731162
  59.2490516  43.1077623   5.4914658  59.8184945  43.3345581   4.1072053
  65.8765020  49.5203632  12.9213677  65.9409453  49.9824039  13.7571849
  65.1675944  48.8900997  13.0495987  56.3782310  42.8844840  10.4462676
  56.6290348  43.7691850  10.7120252  56.9141858  42.7049442   9.6737768
  80.2014410  46.3158337   7.1137938  79.4478118  45.7465735   6.9581942
  80.3361951  46.2821002   8.0608573  65.5913038  51.1871740   2.7892657
  65.4558713  52.0323275   3.2177505  66.1322850  51.3891017   2.0258591
  62.0780377  37.2663320  19.4507013  61.6847323  36.7129518  20.1254657
  62.8946518  37.5773898  19.8413530  59.0442435  48.7047178   3.3620582
  59.5566956  49.4990428   3.5126147  59.6965148  48.0073468   3.2954184
  60.8537320  51.8212934   5.4443336  61.0303948  52.7430899   5.2564319
  61.6494153  51.5071353   5.8737715  64.9948338  38.6821199  17.0427269
  65.7358052  39.2828352  16.9631732  65.2266261  37.9398836  16.4845312
  60.1389676  43.8677566  15.3205499  60.0243192  42.9662823  15.6212598
  59.2834194  44.1141263  14.9690315  67.2181514  51.8095306  16.9192999
  66.7745368  51.0231685  16.6013904  67.8798728  51.9974457  16.2536890
  61.9768635  53.3391108  11.4453678  62.5276060  53.2108171  10.6730672
  61.1380111  53.6385997  11.0948571  69.3162752  52.0898106  14.9474401
  69.2981228  52.9106987  14.4554670  70.2382672  51.9652181  15.1724542
  65.7735806  49.6042236  15.7897909  66.3064143  48.8430524  15.5597217
  65.2449887  49.3115887  16.5322064  68.9405501  34.7102302  11.3191551
  68.5969771  35.6003943  11.2430661  69.3084464  34.5203959  10.4561136
  57.0091352  47.0335832   4.1380153  57.8466574  47.4432840   3.9213861
  57.1869620  46.0935274   4.1080347  68.9055784  44.7010913  -0.1736014
  68.3902407  45.4715517   0.0652373  68.6333092  44.0276049   0.4497047
  66.4902895  39.5460613   4.8849224  65.6344491  39.1567464   4.7054863
  66.9029847  39.6252574   4.0249010  68.0202042  37.0806957   9.2840784
  67.5166837  37.0437092   8.4708589  68.3132649  37.9899699   9.3437441
  64.2644928  37.1645686   8.2906966  65.1297924  36.9688495   7.9312855
  64.3322437  36.9356038   9.2176323  73.8790058  47.4543267   1.7617159
  73.1019501  47.1154427   1.3172321  74.5581539  47.4595890   1.0872124
  68.6942087  42.5738005   1.6523767  68.3892223  42.8884154   2.5033910
  69.6472529  42.6519425   1.6951100  67.1388519  48.7328228   3.3016721
  66.6109881  47.9980988   2.9889959  66.6376022  49.5102904   3.0556689
  72.1181365  46.9277249   8.4183767  71.4605040  47.6176510   8.5063896
  72.9221764  47.3173681   8.7617754  61.8707247  39.3947894   5.6623333
  62.4450999  39.1723076   4.9296526  62.4578229  39.4636589   6.4151934
  70.9286824  45.2821621   6.4687709  71.4418706  45.9151613   6.9709419
  71.5788048  44.6822817   6.1031069  62.1976834  41.4252355  -0.3180782
  61.3614146  41.7627042   0.0028493  62.0581603  41.2901335  -1.2553645
  64.1729914  36.2689143   4.3898402  63.5194327  35.9538160   3.7655017
  64.1310389  35.6464884   5.1158225  65.2841119  46.5508438  -3.6948306
  64.3768181  46.3197692  -3.4957157  65.7812151  45.7546058  -3.5074324
  68.1909198  55.2605946  -0.7751620  67.5170897  55.5637642  -0.1666662
  68.5775020  56.0635026  -1.1246163  67.4067655  42.7571077   8.7146050
  66.4890216  42.9786024   8.5567738  67.8227798  42.8317387   7.8557757
  68.1902703  44.1562493   3.8448730  68.9374521  44.6683890   3.5355852
  68.4594292  43.8346545   4.7053123  66.4629353  46.6521033   0.8275684
  65.5540572  46.3680066   0.9248154  66.4924436  47.0720112  -0.0321009
  71.6948620  50.2627623   4.5966852  71.2410947  49.4218533   4.6532042
  71.0642587  50.8989021   4.9341632  70.6381540  41.1919609   5.8267519
  69.9004296  40.6796995   6.1577762  70.8908313  40.7519990   5.0150796
  70.1381559  52.1004119   5.5316670  70.4304534  52.6609177   4.8129036
  70.6480180  52.3932680   6.2869829  70.7393167  33.9695861   6.4209288
  71.0452044  33.1093224   6.1335204  71.4645772  34.5613481   6.2208282
  57.0317523  44.3726547   4.8090886  56.8341923  43.7795908   4.0841953
  56.4764187  44.0678758   5.5266825  65.0114247  44.2649654   6.9285480
  65.0662857  43.3123490   6.8527956  64.2005449  44.4209093   7.4126778
  66.1605440  48.1929777  -1.8336237  65.7224870  47.4765636  -2.2930600
  66.9015881  48.4205892  -2.3951146  62.9506607  42.8826714   4.6875858
  62.1374472  43.1820884   5.0941051  63.4465601  42.4882402   5.4050341
  65.1015185  52.8784471   6.6210123  65.0591363  53.1045317   5.6918655
  66.0177883  52.6447845   6.7695924  68.5480818  43.3468538  13.5190752
  68.9030206  43.5740011  14.3785218  69.1952950  43.6786915  12.8968008
  74.2778555  46.4686974   4.2240081  74.1396454  46.6588570   3.2961271
  73.9214774  47.2306357   4.6808132  62.4420681  40.4545069  10.3037093
  63.0820061  40.3133828   9.6060057  61.6098212  40.1679582   9.9275695
  74.3047935  48.5363501   9.2351353  74.7384442  48.4438790  10.0834407
  75.0179516  48.5121001   8.5971369  63.2180985  49.7547500   6.4172086
  64.0121584  49.2597820   6.2154661  62.5072678  49.2265363   6.0539791
  68.0375830  52.1365595  10.7684453  68.0912852  52.7056531  11.5362169
  67.1690611  52.3067480  10.4038491  59.5263749  43.8990581   2.4931839
  58.5961337  43.8375037   2.7101801  59.6221221  43.3766534   1.6968480
  59.4449298  40.4245394   5.0810080  59.7056115  41.3390727   4.9719241
  60.2666470  39.9569837   5.2306693  60.9174223  41.8383151  12.2508905
  61.5897277  41.6300513  11.6021554  60.0904010  41.6405237  11.8114137
  75.1663484  48.5787202  11.7684238  75.3599375  49.4833012  12.0143513
  75.0664103  48.1194621  12.6022823  66.8199795  38.4645092  14.2674566
  66.1727710  39.1635042  14.1739042  67.5900811  38.8981236  14.6350814
  70.2278593  48.7293944  17.3425119  70.0764100  48.5004496  16.4255203
  70.2183273  49.6864546  17.3556464  66.9963930  46.3025857  12.3271385
  67.9255990  46.4537017  12.1540353  66.5754960  46.3909878  11.4720032
  65.7952261  50.3276522  10.0969923  65.6563347  49.9595306  10.9695861
  65.0066858  50.8424161   9.9253881  66.3900413  55.4285618   1.4395459
  66.5652169  54.9573661   2.2541082  65.7033201  56.0551384   1.6676720
  67.3457476  49.7058124   7.4858761  67.0107309  49.6658894   8.3816411
  66.8461422  49.0402840   7.0129171  61.3201720  45.1125754  13.0111342
  61.1821518  44.3805993  13.6122881  62.2306644  45.0234654  12.7295530
  70.2816668  47.0514159  -2.2404180  69.6645839  46.3260987  -2.3371127
  69.8133157  47.8123519  -2.5837105  63.9484021  44.8245714  12.4995022
  64.6583640  44.1838906  12.4581640  63.9053329  45.0758608  13.4221202
  71.9370800  51.7613067  15.4201601  71.8783346  51.0772287  14.7532184
  72.3390318  52.5032057  14.9682227  62.6612955  41.8110931  14.3190661
  62.1250312  41.3601670  14.9712257  62.0729664  41.9456840  13.5761125
  60.9561499  58.5774981   8.2135320  61.1958097  59.2093505   8.8914338
  60.1130695  58.2263021   8.5000679  71.9388207  49.7252651  13.6515580
  71.0514986  49.3878573  13.7741979  72.5086758  48.9935682  13.8884346
  53.5917354  46.0576743   6.9758632  54.2788394  45.7438473   6.3879647
  53.4365483  46.9618107   6.7025883  58.3952076  40.9466939  11.4043655
  58.3110265  40.3392609  10.6694065  57.5734783  41.4375957  11.4053152
  65.4689360  54.3854103  10.6176824  65.3959532  55.1909075  11.1296128
  65.0266754  54.5846069   9.7924845  65.2579140  53.6225873   4.1279645
  64.4746662  54.1647553   4.2217870  65.9571885  54.1399853   4.5273886
  68.5675790  39.4320503   6.7713851  69.0644490  38.6790465   6.4514921
  67.7962772  39.4684819   6.2057060  76.4205548  45.1360868   8.4132142
  76.4095424  46.0185584   8.0426075  75.5522927  44.7832419   8.2186679
  67.9288044  54.2840937  12.7734982  68.6416016  54.9188402  12.7010884
  67.4378073  54.3804803  11.9574984  69.6505571  48.1892190   4.3452274
  68.7161850  48.3093652   4.1756978  69.8282239  47.2864657   4.0812284
  65.1510759  41.5737886   6.4985535  64.7808546  41.0208926   7.1866441
  65.6469851  40.9696019   5.9460535  73.0378122  44.0309509   4.8802308
  73.5038574  44.8637501   4.8062611  73.4885623  43.5654491   5.5847567
  62.9799957  52.0335381  13.5940553  63.6809417  52.6671864  13.7469947
  62.5095072  52.3750112  12.8336192  71.1054353  50.3753330   1.8788460
  71.3814197  50.2609925   2.7882334  70.2358852  49.9770815   1.8400633
  71.0094785  36.3990096   8.9193209  70.0957865  36.6294323   9.0875416
  71.4387886  36.4828540   9.7707242  70.7801243  44.5879988  11.4193103
  70.1272694  44.8355896  10.7645556  71.1581623  43.7744126  11.0855581
  67.7408417  54.6239681   5.5221274  67.9230812  53.8061337   5.9849026
  68.5641403  54.8407374   5.0846164  68.0750583  53.5507866   2.7836322
  68.6038349  53.0400321   2.1706484  68.3378802  53.2350397   3.6481855
  66.8288816  45.3299799  17.9059141  66.1529453  45.2293929  18.5761516
  67.6516450  45.1739013  18.3695138  58.5767676  51.5671736  10.5271656
  59.1621112  50.8215424  10.6599560  58.3792514  51.8775692  11.4108320
  61.4306331  54.6022983   5.5434098  60.7616706  55.0869111   5.0598138
  61.2919200  54.8492204   6.4577477  53.1685330  44.1377336   9.2476099
  53.2069430  43.6040927  10.0413217  52.6625623  43.6112541   8.6287076
  65.5711599  56.6366727  12.1416757  66.1229907  56.7998348  12.9065842
  65.9117793  57.2271164  11.4696781  60.5476093  38.9841876  12.7438641
  60.6117419  39.8456707  12.3316039  60.4843213  38.3715878  12.0111000
  60.0228365  41.0565009  16.3911675  60.6500404  40.6742086  17.0049200
  59.1656284  40.8379211  16.7567368  70.4222474  51.4627984  17.9965411
  70.9662378  52.0757942  17.5020366  69.8409319  52.0207563  18.5132424
  56.7993908  42.8641438   2.3230030  57.0947349  41.9552117   2.2697084
  55.8981944  42.8429178   2.0011033  68.7079987  54.5848702   9.1280439
  68.5831126  53.7838442   8.6191384  69.3659078  55.0794896   8.6394409
  60.3288155  40.9397435   8.3057579  59.6074741  41.5533402   8.1665052
  61.1181411  41.4755199   8.2274225  70.7714895  52.3857722  10.7559989
  69.8245231  52.2663073  10.6838315  71.1197668  51.4980220  10.8386250
  63.1314468  38.2751861  14.5798231  63.6548870  38.5214158  15.3424540
  62.9126802  39.1071896  14.1601368  58.5281749  40.5455536   2.4469355
  58.1994456  39.6652915   2.2644461  58.8821120  40.4903204   3.3345745
  67.7761328  52.1810438   6.9564341  67.6286291  51.2527146   7.1371911
  68.6014822  52.2030529   6.4721416  61.6423573  40.8328506   2.8144833
  61.9819645  41.3614427   2.0923441  62.0895693  41.1708912   3.5903400
  71.3795450  53.0038997   8.0429214  72.3041998  52.7981859   7.9053665
  71.2110754  52.7555398   8.9518555  64.3367013  39.2165556  12.2647901
  63.9963834  38.4173369  12.6668581  63.6306020  39.5167267  11.6924734
  64.9883485  36.3014869  10.7175224  65.8109555  35.8275347  10.5954115
  65.2321549  37.0805352  11.2173910  63.6291720  39.3303127   1.0138126
  64.3500082  39.7084380   0.5101843  63.0057024  40.0492004   1.1173104
  67.7722843  40.0348276   1.9496458  67.9886457  40.9172914   1.6485286
  67.2916910  39.6434490   1.2202100  62.5122064  42.9933989   8.5267203
  62.3666645  43.3074292   9.4191484  62.0347268  43.6118890   7.9738101
  64.3718447  39.9836537   8.5748092  64.3580016  39.0877631   8.2380390
  65.0890875  39.9907201   9.2086378  66.2244578  40.4173878  10.6201220
  65.9662355  41.3390948  10.6185550  65.6929618  40.0204312  11.3101684
  71.1690766  53.5224665   3.3991305  71.3427644  52.9571087   2.6465158
  71.6619658  54.3225560   3.2170795  56.9867726  45.5339334  11.4654864
  56.4421194  46.3099142  11.5975138  57.8647076  45.8810138  11.3073985
  63.7755343  38.8650918   3.8435663  63.8971254  37.9367564   4.0426550
  63.4857385  38.8789604   2.9313978  66.6446533  36.5505828   6.9802382
  66.6668230  36.6145161   6.0254362  67.0614592  35.7110337   7.1742889
  77.0230158  46.2861088   5.0181605  77.4661304  45.5368413   4.6200728
  76.1456668  46.2771224   4.6355337  72.1565939  52.8391429   0.4988203
  72.8516843  53.4598122   0.7175518  72.4989089  51.9886780   0.7740581
  57.7733748  44.6609230  14.3585021  57.0315484  44.8091865  14.9449651
  57.4526492  44.9217496  13.4951770  74.0557362  50.2891135   2.0275534
  74.5808686  50.6278407   1.3024854  73.9679715  49.3538150   1.8438669
  65.7177411  54.2025208  14.1565411  66.0264537  53.9574355  15.0288110
  66.5152893  54.4071847  13.6684281  65.7398023  56.3563118   6.3870787
  65.3003013  55.8639497   7.0803644  66.4906140  55.8136086   6.1462863
  58.2190362  52.5474659   6.3895415  59.0448382  52.2478431   6.0094059
  57.8684414  51.7782281   6.8385204  63.1871895  51.9001127   8.4593089
  62.5651904  51.2371832   8.1595317  63.8576762  51.9262259   7.7766737
  56.4198967  50.4660985   7.3484349  55.5830875  50.0383160   7.1668350
  56.3922612  50.6593429   8.2855140  63.2596422  40.3782915  18.0525595
  63.3084578  41.2545038  17.6703365  63.8018937  39.8360308  17.4797238
  73.7451268  50.9224038  17.3326732  72.9546812  50.9048177  16.7931232
  73.5084623  51.4612332  18.0875769  73.8649143  47.7716505  14.6459461
  73.9147148  47.6066512  15.5874984  73.7563066  46.9043764  14.2557342
  62.7485402  50.4505050   1.9351550  62.8973522  51.1340515   1.2818222
  63.5551845  50.4310140   2.4501005  71.1552905  43.7547433  15.9618767
  72.0562768  43.6153897  15.6702765  71.2300880  43.9201887  16.9016945
  65.4895711  41.1314287  14.8071954  64.6199020  41.4247853  14.5354542
  65.7255191  41.7154732  15.5279217  75.3667340  50.1913446  14.8901482
  75.0752148  50.5543427  15.7264943  74.7539471  49.4780454  14.7114814
  76.5663022  47.7566326   7.4104052  77.4009914  48.1956130   7.5741613
  76.7022151  47.2804979   6.5912298  73.6154528  45.3146061  13.3581540
  74.0908650  45.5073707  12.5500392  72.6920094  45.3705247  13.1124924
  60.5038035  46.4770228   2.9412619  60.2584077  45.5732558   3.1392829
  60.6733949  46.4787378   1.9992097  68.1934745  37.3493904  12.3237374
  68.7116689  38.0854931  11.9983863  67.8389877  37.6557898  13.1584133
  59.7733682  42.2098586   0.4398780  59.0802927  42.2842940  -0.2161184
  59.5285434  41.4458929   0.9620297  68.4447339  33.7694187   7.8438271
  68.7249093  33.1017376   8.4698697  69.2297946  33.9623282   7.3312935
  66.2480807  52.9453181  -0.5936703  65.6754774  53.5643368  -1.0466231
  66.8213601  53.4952542  -0.0596781  72.3156197  42.1911821  11.5909846
  73.2673620  42.2909918  11.6122070  72.1459648  41.3990089  12.1007930
  70.3370577  39.2767404  11.7769247  69.7420509  39.5572417  11.0815735
  70.0520273  39.7661305  12.5485988  69.4678067  53.2290331   0.5371879
  70.4008740  53.1635893   0.7404755  69.3801280  54.0646598   0.0786412
  72.0966084  52.5456201  -2.5024173  72.0179715  52.2116065  -1.6088415
  72.9175751  53.0377969  -2.5032701  74.7944275  45.4117941  10.7052146
  74.7620595  44.4733941  10.8911829  75.4044899  45.4901977   9.9717970
  66.6327606  44.2813993  -3.2520650  67.5786711  44.1520202  -3.1832232
  66.2541851  43.5428655  -2.7751222  74.9438763  42.2028984  10.7510429
  74.4277812  41.4187441  10.5640358  75.8278712  41.8747701  10.9156948
  72.6049490  35.9470000   6.7106241  72.4074311  35.6385088   7.5949573
  73.2149196  36.6731638   6.8404171  80.6120825  46.4733947   9.8458182
  81.3424213  46.2119235  10.4065886  80.0027770  45.7362669   9.8860250
  78.6936122  44.6141810  10.4432634  77.9669285  44.4797775   9.8349125
  78.2783409  44.9218639  11.2489352  66.5166298  48.3331740  18.2080007
  67.4369308  48.5110339  18.4020053  66.4815881  47.3887785  18.0559706
  55.7348463  43.5270333   7.1333281  55.4151248  42.6735641   6.8407655
  55.1881892  43.7418911   7.8891249  59.5128371  46.2432774  10.8502788
  59.7314381  47.1749882  10.8690821  59.9254145  45.8840749  11.6357592
  66.4332589  36.7500860   2.8378476  65.6233317  36.4047945   3.2133722
  67.1217006  36.4408403   3.4266088  68.3623137  35.8278906   4.4602773
  68.9154176  36.2474360   5.1192796  68.5993223  34.9014655   4.5025729
  64.3856236  41.8165980  20.2405537  64.2852963  42.7660337  20.1717628
  64.1677778  41.4884219  19.3681607  55.6036723  47.1473245   9.1026403
  54.9100195  46.7327198   8.5896357  56.3509714  47.1893781   8.5059822
  71.7401944  37.9379432   3.9681437  71.1600613  38.5964236   3.5859489
  71.4737877  37.1156776   3.5568854  70.1905510  37.3384489   6.1702757
  70.6905289  37.4501024   5.3617076  70.8341118  37.0345542   6.8103566
  64.2487506  45.2463119  19.0570598  63.7654588  46.0463479  19.2634487
  64.3348445  45.2571064  18.1038042  57.5173466  47.0791499   6.9792418
  57.4944154  47.1779186   6.0274301  57.8274102  47.9256649   7.3009584
  60.1760844  49.1367654  11.0939032  61.1304097  49.1051596  11.0268964
  59.9773367  48.6758277  11.9089258  60.7660226  47.7068770  13.6609830
  61.5853115  48.2012848  13.6844667  61.0397034  46.7900738  13.6327397
  70.5226822  40.0979522   3.0237785  69.6352677  40.3829173   2.8057980
  70.9380811  39.9373285   2.1765062  73.8741358  40.1226043   6.7392124
  74.6501748  40.6122495   7.0116741  73.1489492  40.5484097   7.1963994
  76.3113917  40.8353662   7.7966065  76.9058408  40.5949398   7.0859373
  76.3840501  40.1160793   8.4239601  58.5311073  54.6787273   8.1109230
  58.3965540  53.9187674   7.5447228  58.1143135  55.4028173   7.6438019
  69.6670036  49.8624197  -2.8814195  70.3705886  50.0674199  -2.2656539
  68.9432684  50.4300959  -2.6165111  70.4967846  45.6134058   3.2388075
  70.4403047  46.0702609   2.3995708  71.0496188  44.8524742   3.0610918
  74.3072652  41.4023790   4.0638195  74.0509586  41.0020425   4.8946403
  73.6825520  42.1167584   3.9388334  78.6184990  44.1419863   6.5709486
  78.0584548  44.2113052   7.3441048  78.0128493  43.9660848   5.8508983
  61.6880198  55.5756590   8.3227673  61.5712583  56.5202023   8.2206363
  60.8672645  55.2730152   8.7113472  71.5756733  50.3006726  -0.8315735
  72.4102337  49.8687924  -1.0138260  71.4141076  50.1288740   0.0961160
  71.2302625  46.8038839   0.5340605  71.1751429  46.6383111  -0.4070951
  70.6048680  47.5114872   0.6902794  56.0195140  42.0406904  14.3602027
  56.6654004  41.5305857  14.8489252  55.8112291  42.7775585  14.9345452
  68.5448532  49.1087751  19.8594167  69.4139692  49.2828403  19.4980802
  68.0655284  49.9282168  19.7369897  64.5398751  36.3046948   0.1125923
  64.5277420  37.2488788   0.2694194  65.4322172  36.1217094  -0.1814616
  62.7134713  56.2284852  11.5383601  63.6161959  56.2608462  11.8550096
  62.4872083  55.2985303  11.5529937  64.4688315  54.9815839   8.1993680
  63.5183946  54.9817700   8.0858052  64.7720801  54.2348573   7.6829714
  68.3550870  32.8989725   4.3671860  67.5883266  32.3448211   4.5128542
  68.7661575  32.9711594   5.2286011  60.3592631  39.1874521  18.4577041
  61.2224093  38.8311325  18.6680366  59.7858042  38.8488415  19.1452445
  80.2041008  60.8176377   9.2639442  80.8419418  60.6983124   8.5602782
  80.0861851  61.7657221   9.3227394  77.0130714  60.7703805   9.2000967
  76.6749226  60.6544870   8.3121502  77.8820483  60.3694970   9.1801973
  72.8717530  62.6239281   5.1897858  72.3082395  62.5329218   4.4214145
  72.7569925  61.8039186   5.6700350  77.4950497  61.9238657  15.1587172
  77.4839138  61.5291455  14.2867676  77.6571137  61.1904729  15.7520944
  70.4181962  64.1190473   8.0282078  71.2103254  63.7781298   7.6128377
  70.6578612  64.2285448   8.9484231  78.4517089  66.2910249   0.5012323
  77.8005068  66.8764330   0.1146336  79.2461452  66.8216444   0.5607360
  72.3772716  63.3799386   0.8999457  73.1503592  62.8328373   0.7612333
  72.7298115  64.2443636   1.1113918  74.2157758  64.7075769  14.1066356
  73.9247624  65.6121399  13.9913023  74.8514743  64.7492296  14.8210426
  75.1413965  62.0852617  10.6967716  75.7377538  61.8608639   9.9824679
  75.1988937  61.3437363  11.2993164  74.7138994  59.5392052  -1.4682093
  74.9664514  59.0173574  -2.2298630  73.7763553  59.3758198  -1.3655410
  79.7582277  58.5427831   6.3392650  80.5445366  58.1247254   5.9883067
  80.0220981  59.4473923   6.5074298  79.9292354  63.9800681   1.0381307
  79.2938187  64.0535308   1.7502212  79.5989760  64.5694280   0.3600386
  85.1590704  58.4803064   7.2425629  85.8915876  57.9102281   7.4763458
  84.4030059  58.0924664   7.6832134  74.4335282  61.4420158   0.7342282
  74.3171541  60.7665062   1.4023366  74.5437542  60.9552532  -0.0825565
  76.7766823  60.9030305   4.4388971  76.4125031  60.3760926   5.1501892
  77.6333939  60.5128775   4.2655456  82.6816124  52.1924638  11.7020237
  82.3499449  53.0620049  11.4781452  82.0861737  51.8760922  12.3814268
  76.4172310  55.9320205  -0.5649680  76.5846713  56.8000442  -0.1979209
  76.2269479  56.0947487  -1.4888391  79.1747644  64.3937184  11.1016150
  78.8748367  65.2962223  10.9931957  78.8298703  64.1269367  11.9537303
  72.6260125  60.8450981   7.1352854  71.7010621  60.7127195   7.3430546
  72.8744538  61.6245200   7.6322797  82.5744787  56.9119724   8.7813587
  81.6661665  56.8435133   8.4872348  82.5232383  57.3891669   9.6095413
  76.3961531  58.3877863   0.4196986  76.2761156  58.8334913   1.2582467
  75.7014120  58.7363180  -0.1389475  69.9868936  60.4884254   7.9696643
  70.1161317  60.7418733   8.8836055  69.3066387  61.0811962   7.6501298
  74.1568423  71.1581504   4.0687118  74.0792453  72.1089330   4.1475598
  73.5530067  70.8127377   4.7262044  76.6485653  58.3309370  16.7248485
  75.8718987  58.8903290  16.7151349  77.2876216  58.8166153  17.2463355
  84.4406434  55.1136163  10.5591461  83.7980814  55.4068696   9.9131256
  83.9361362  54.9989083  11.3644658  82.0946597  58.8599336   1.2477320
  83.0064453  59.0926723   1.0725018  81.5856244  59.4436380   0.6852399
  74.9032025  61.1394823  16.2866452  75.6446710  61.6779867  16.0101275
  74.1969011  61.7661112  16.4438003  80.3787365  63.2823964  14.8838613
  80.7870721  62.8406374  14.1393245  79.6564627  62.7076591  15.1372806
  76.7318435  58.2196570  12.2572170  77.5779630  58.6435984  12.4006819
  76.6717073  57.5630195  12.9510733  80.7016180  63.8425154   8.6390902
  80.0725042  64.0070868   7.9366970  80.3141842  64.2566764   9.4101866
  84.5805412  64.7779592   5.9935266  83.8956450  65.1578494   5.4432299
  84.6649261  65.3874919   6.7267213  79.8817880  55.8800939  13.9153344
  79.6378812  56.6342999  13.3787619  80.1577811  56.2586286  14.7500591
  81.8356343  62.4239551  12.5930609  82.0473238  63.0671311  11.9164990
  81.7886091  61.5901868  12.1252539  79.4382572  55.0357372   9.4967181
  78.5767051  55.3338625   9.7883919  79.4645007  55.2527771   8.5648214
  76.2544142  63.5799562   5.9040987  76.7182487  63.8587265   5.1145609
  75.9900940  62.6783007   5.7214078  73.1468223  63.1271044   8.8420750
  73.7169580  63.5558312   8.2038235  73.7376334  62.8453629   9.5404936
  75.1913028  59.7022715   2.7130552  75.8937071  60.1543758   3.1804478
  74.8593656  59.0606534   3.3410445  73.6393389  58.2934471  17.0881762
  73.0092050  58.9750752  17.3217158  73.5329477  58.1817553  16.1434900
  68.9338362  57.9606267   8.0147686  68.1437416  58.2163796   7.5387796
  69.4249609  58.7754605   8.1199726  82.9502171  65.3011507  10.7652967
  83.7719615  64.8991694  10.4835648  82.9464574  65.1979741  11.7169082
  70.8853107  58.3250847   4.9731162  70.0884270  58.4369541   5.4914658
  70.6578699  58.6637499   4.1072053  76.7158775  64.8495550  12.9213677
  76.7803207  65.3115957  13.7571849  76.0069698  64.2192915  13.0495987
  67.2176065  58.2136758  10.4462676  67.4684103  59.0983768  10.7120252
  67.7535613  58.0341359   9.6737768  91.0408164  61.6450255   7.1137938
  90.2871873  61.0757653   6.9581942  91.1755705  61.6112920   8.0608573
  76.4306792  66.5163657   2.7892657  76.2952467  67.3615193   3.2177505
  76.9716605  66.7182935   2.0258591  72.9174132  52.5955237  19.4507013
  72.5241077  52.0421436  20.1254657  73.7340272  52.9065816  19.8413530
  69.8836190  64.0339095   3.3620582  70.3960710  64.8282346   3.5126147
  70.5358902  63.3365386   3.2954184  71.6931074  67.1504852   5.4443336
  71.8697703  68.0722816   5.2564319  72.4887908  66.8363271   5.8737715
  75.8342093  54.0113116  17.0427269  76.5751806  54.6120269  16.9631732
  76.0660016  53.2690754  16.4845312  70.9783431  59.1969484  15.3205499
  70.8636946  58.2954741  15.6212598  70.1227949  59.4433180  14.9690315
  78.0575269  67.1387224  16.9192999  77.6139123  66.3523602  16.6013904
  78.7192482  67.3266374  16.2536890  72.8162390  68.6683025  11.4453678
  73.3669815  68.5400089  10.6730672  71.9773866  68.9677914  11.0948571
  80.1556507  67.4190024  14.9474401  80.1374982  68.2398905  14.4554670
  81.0776427  67.2944099  15.1724542  76.6129561  64.9334153  15.7897909
  77.1457898  64.1722441  15.5597217  76.0843642  64.6407805  16.5322064
  79.7799256  50.0394219  11.3191551  79.4363525  50.9295861  11.2430661
  80.1478218  49.8495877  10.4561136  67.8485106  62.3627750   4.1380153
  68.6860328  62.7724758   3.9213861  68.0263374  61.4227192   4.1080347
  79.7449539  60.0302830  -0.1736014  79.2296162  60.8007435   0.0652373
  79.4726847  59.3567967   0.4497047  77.3296650  54.8752531   4.8849224
  76.4738246  54.4859382   4.7054863  77.7423601  54.9544492   4.0249010
  78.8595796  52.4098874   9.2840784  78.3560592  52.3729010   8.4708589
  79.1526403  53.3191617   9.3437441  75.1038682  52.4937604   8.2906966
  75.9691679  52.2980413   7.9312855  75.1716191  52.2647956   9.2176323
  84.7183813  62.7835185   1.7617159  83.9413255  62.4446345   1.3172321
  85.3975294  62.7887808   1.0872124  79.5335842  57.9029922   1.6523767
  79.2285977  58.2176072   2.5033910  80.4866284  57.9811342   1.6951100
  77.9782274  64.0620146   3.3016721  77.4503635  63.3272905   2.9889959
  77.4769776  64.8394822   3.0556689  82.9575120  62.2569166   8.4183767
  82.2998794  62.9468428   8.5063896  83.7615519  62.6465598   8.7617754
  72.7101001  54.7239812   5.6623333  73.2844753  54.5014994   4.9296526
  73.2971984  54.7928507   6.4151934  81.7680578  60.6113539   6.4687709
  82.2812460  61.2443531   6.9709419  82.4181802  60.0114734   6.1031069
  73.0370588  56.7544273  -0.3180782  72.2007901  57.0918960   0.0028493
  72.8975358  56.6193253  -1.2553645  75.0123669  51.5981061   4.3898402
  74.3588081  51.2830078   3.7655017  74.9704143  50.9756801   5.1158225
  76.1234874  61.8800356  -3.6948306  75.2161935  61.6489609  -3.4957157
  76.6205906  61.0837975  -3.5074324  78.2461409  58.0862995   8.7146050
  77.3283971  58.3077942   8.5567738  78.6621553  58.1609305   7.8557757
  79.0296457  59.4854410   3.8448730  79.7768276  59.9975807   3.5355852
  79.2988047  59.1638463   4.7053123  77.3023107  61.9812951   0.8275684
  76.3934326  61.6971984   0.9248154  77.3318191  62.4012029  -0.0321009
  82.5342375  65.5919540   4.5966852  82.0804702  64.7510450   4.6532042
  81.9036341  66.2280939   4.9341632  81.4775294  56.5211526   5.8267519
  80.7398051  56.0088913   6.1577762  81.7302068  56.0811908   5.0150796
  80.9775314  67.4296037   5.5316670  81.2698288  67.9901094   4.8129036
  81.4873934  67.7224598   6.2869829  81.5786921  49.2987778   6.4209288
  81.8845798  48.4385142   6.1335204  82.3039526  49.8905399   6.2208282
  67.8711278  59.7018465   4.8090886  67.6735677  59.1087826   4.0841953
  67.3157942  59.3970675   5.5266825  75.8508001  59.5941572   6.9285480
  75.9056611  58.6415408   6.8527956  75.0399203  59.7501011   7.4126778
  76.9999195  63.5221695  -1.8336237  76.5618625  62.8057554  -2.2930600
  77.7409636  63.7497809  -2.3951146  73.7900361  58.2118631   4.6875858
  72.9768227  58.5112802   5.0941051  74.2859355  57.8174320   5.4050341
  75.9408939  68.2076388   6.6210123  75.8985118  68.4337234   5.6918655
  76.8571638  67.9739763   6.7695924  79.3874573  58.6760456  13.5190752
  79.7423961  58.9031929  14.3785218  80.0346704  59.0078833  12.8968008
  85.1172310  61.7978892   4.2240081  84.9790208  61.9880488   3.2961271
  84.7608529  62.5598274   4.6808132  73.2814436  55.7836987  10.3037093
  73.9213815  55.6425746   9.6060057  72.4491966  55.4971500   9.9275695
  85.1441689  63.8655419   9.2351353  85.5778196  63.7730708  10.0834407
  85.8573270  63.8412919   8.5971369  74.0574740  65.0839417   6.4172086
  74.8515338  64.5889737   6.2154661  73.3466432  64.5557280   6.0539791
  78.8769584  67.4657513  10.7684453  78.9306607  68.0348449  11.5362169
  78.0084366  67.6359398  10.4038491  70.3657503  59.2282499   2.4931839
  69.4355091  59.1666954   2.7101801  70.4614975  58.7058452   1.6968480
  70.2843052  55.7537312   5.0810080  70.5449870  56.6682645   4.9719241
  71.1060225  55.2861754   5.2306693  71.7567978  57.1675069  12.2508905
  72.4291031  56.9592431  11.6021554  70.9297764  56.9697155  11.8114137
  86.0057239  63.9079119  11.7684238  86.1993129  64.8124930  12.0143513
  85.9057857  63.4486538  12.6022823  77.6593550  53.7937010  14.2674566
  77.0121465  54.4926960  14.1739042  78.4294565  54.2273154  14.6350814
  81.0672348  64.0585862  17.3425119  80.9157854  63.8296414  16.4255203
  81.0577027  65.0156463  17.3556464  77.8357684  61.6317775  12.3271385
  78.7649744  61.7828934  12.1540353  77.4148714  61.7201796  11.4720032
  76.6346016  65.6568439  10.0969923  76.4957101  65.2887224  10.9695861
  75.8460612  66.1716079   9.9253881  77.2294168  70.7577536   1.4395459
  77.4045923  70.2865579   2.2541082  76.5426956  71.3843302   1.6676720
  78.1851231  65.0350042   7.4858761  77.8501064  64.9950812   8.3816411
  77.6855177  64.3694758   7.0129171  72.1595475  60.4417672  13.0111342
  72.0215273  59.7097911  13.6122881  73.0700398  60.3526572  12.7295530
  81.1210423  62.3806076  -2.2404180  80.5039593  61.6552904  -2.3371127
  80.6526911  63.1415437  -2.5837105  74.7877776  60.1537631  12.4995022
  75.4977394  59.5130823  12.4581640  74.7447084  60.4050526  13.4221202
  82.7764554  67.0904985  15.4201601  82.7177100  66.4064205  14.7532184
  83.1784073  67.8323975  14.9682227  73.5006710  57.1402849  14.3190661
  72.9644067  56.6893588  14.9712257  72.9123418  57.2748758  13.5761125
  71.7955253  73.9066898   8.2135320  72.0351851  74.5385423   8.8914338
  70.9524450  73.5554938   8.5000679  72.9108968  56.5991501  -3.1182875
  72.0338435  56.4780301  -3.4820629  73.3866722  55.8077579  -3.3703987
  82.7781962  65.0544569  13.6515580  81.8908740  64.7170490  13.7741979
  83.3480513  64.3227600  13.8884346  64.4311109  61.3868660   6.9758632
  65.1182148  61.0730390   6.3879647  64.2759237  62.2910025   6.7025883
  69.2345831  56.2758857  11.4043655  69.1504020  55.6684526  10.6694065
  68.4128537  56.7667875  11.4053152  76.3083115  69.7146021  10.6176824
  76.2353286  70.5200992  11.1296128  75.8660508  69.9137987   9.7924845
  76.0972895  68.9517791   4.1279645  75.3140416  69.4939471   4.2217870
  76.7965640  69.4691771   4.5273886  79.4069545  54.7612420   6.7713851
  79.9038244  54.0082383   6.4514921  78.6356526  54.7976737   6.2057060
  87.2599302  60.4652786   8.4132142  87.2489178  61.3477501   8.0426075
  86.3916681  60.1124337   8.2186679  78.7681798  69.6132855  12.7734982
  79.4809771  70.2480320  12.7010884  78.2771827  69.7096721  11.9574984
  80.4899325  63.5184108   4.3452274  79.5555604  63.6385570   4.1756978
  80.6675994  62.6156574   4.0812284  75.9904513  56.9029803   6.4985535
  75.6202301  56.3500844   7.1866441  76.4863606  56.2987937   5.9460535
  83.8771877  59.3601427   4.8802308  84.3432329  60.1929418   4.8062611
  84.3279377  58.8946408   5.5847567  73.8193712  67.3627298  13.5940553
  74.5203171  67.9963781  13.7469947  73.3488827  67.7042030  12.8336192
  81.9448108  65.7045248   1.8788460  82.2207952  65.5901843   2.7882334
  81.0752607  65.3062733   1.8400633  81.8488539  51.7282014   8.9193209
  80.9351619  51.9586241   9.0875416  82.2781641  51.8120458   9.7707242
  81.6194998  59.9171906  11.4193103  80.9666448  60.1647813  10.7645556
  81.9975378  59.1036044  11.0855581  78.5802172  69.9531599   5.5221274
  78.7624566  69.1353255   5.9849026  79.4035158  70.1699291   5.0846164
  78.9144337  68.8799784   2.7836322  79.4432104  68.3692239   2.1706484
  79.1772557  68.5642314   3.6481855  77.6682571  60.6591717  17.9059141
  76.9923208  60.5585846  18.5761516  78.4910205  60.5030931  18.3695138
  69.4161430  66.8963653  10.5271656  70.0014867  66.1507341  10.6599560
  69.2186268  67.2067610  11.4108320  72.2700085  69.9314901   5.5434098
  71.6010461  70.4161028   5.0598138  72.1312955  70.1784121   6.4577477
  64.0079085  59.4669254   9.2476099  64.0463184  58.9332844  10.0413217
  63.5019378  58.9404459   8.6287076  76.4105354  71.9658644  12.1416757
  76.9623662  72.1290266  12.9065842  76.7511547  72.5563082  11.4696781
  71.3869847  54.3133794  12.7438641  71.4511174  55.1748625  12.3316039
  71.3236967  53.7007796  12.0111000  70.8622120  56.3856927  16.3911675
  71.4894158  56.0034004  17.0049200  70.0050038  56.1671129  16.7567368
  81.2616228  66.7919902  17.9965411  81.8056132  67.4049860  17.5020366
  80.6803073  67.3499480  18.5132424  67.6387662  58.1933356   2.3230030
  67.9341103  57.2844034   2.2697084  66.7375698  58.1721095   2.0011033
  79.5473741  69.9140620   9.1280439  79.4224881  69.1130360   8.6191384
  80.2052832  70.4086813   8.6394409  71.1681909  56.2689352   8.3057579
  70.4468495  56.8825320   8.1665052  71.9575165  56.8047117   8.2274225
  81.6108649  67.7149640  10.7559989  80.6638985  67.5954991  10.6838315
  81.9591423  66.8272138  10.8386250  73.9708223  53.6043779  14.5798231
  74.4942625  53.8506075  15.3424540  73.7520556  54.4363814  14.1601368
  69.3675504  55.8747453   2.4469355  69.0388210  54.9944832   2.2644461
  69.7214875  55.8195122   3.3345745  78.6155083  67.5102356   6.9564341
  78.4680045  66.5819064   7.1371911  79.4408576  67.5322447   6.4721416
  72.4817327  56.1620423   2.8144833  72.8213400  56.6906344   2.0923441
  72.9289448  56.5000829   3.5903400  82.2189205  68.3330915   8.0429214
  83.1435752  68.1273776   7.9053665  82.0504508  68.0847316   8.9518555
  75.1760768  54.5457474  12.2647901  74.8357588  53.7465287  12.6668581
  74.4699774  54.8459185  11.6924734  75.8277240  51.6306786  10.7175224
  76.6503309  51.1567265  10.5954115  76.0715303  52.4097270  11.2173910
  74.4685474  54.6595045   1.0138126  75.1893837  55.0376298   0.5101843
  73.8450778  55.3783922   1.1173104  78.6116597  55.3640194   1.9496458
  78.8280211  56.2464832   1.6485286  78.1310664  54.9726407   1.2202100
  73.3515818  58.3225907   8.5267203  73.2060399  58.6366210   9.4191484
  72.8741022  58.9410807   7.9738101  75.2112201  55.3128455   8.5748092
  75.1973770  54.4169548   8.2380390  75.9284629  55.3199119   9.2086378
  77.0638332  55.7465795  10.6201220  76.8056110  56.6682866  10.6185550
  76.5323372  55.3496230  11.3101684  82.0084521  68.8516582   3.3991305
  82.1821398  68.2863005   2.6465158  82.5013412  69.6517477   3.2170795
  67.8261481  60.8631251  11.4654864  67.2814949  61.6391059  11.5975138
  68.7040831  61.2102056  11.3073985  74.6149097  54.1942835   3.8435663
  74.7365008  53.2659481   4.0426550  74.3251140  54.2081521   2.9313978
  77.4840288  51.8797746   6.9802382  77.5061985  51.9437079   6.0254362
  77.9008347  51.0402254   7.1742889  87.8623912  61.6153005   5.0181605
  88.3055058  60.8660330   4.6200728  86.9850422  61.6063142   4.6355337
  82.9959693  68.1683347   0.4988203  83.6910598  68.7890039   0.7175518
  83.3382843  67.3178698   0.7740581  68.6127503  59.9901148  14.3585021
  67.8709239  60.1383783  14.9449651  68.2920247  60.2509413  13.4951770
  84.8951116  65.6183052   2.0275534  85.4202441  65.9570325   1.3024854
  84.8073469  64.6830068   1.8438669  76.5571165  69.5317126  14.1565411
  76.8658292  69.2866273  15.0288110  77.3546647  69.7363764  13.6684281
  76.5791777  71.6855036   6.3870787  76.1396767  71.1931414   7.0803644
  77.3299894  71.1428003   6.1462863  69.0584116  67.8766576   6.3895415
  69.8842136  67.5770348   6.0094059  68.7078168  67.1074199   6.8385204
  74.0265649  67.2293045   8.4593089  73.4045659  66.5663750   8.1595317
  74.6970516  67.2554177   7.7766737  67.2592721  65.7952903   7.3484349
  66.4224630  65.3675077   7.1668350  67.2316367  65.9885346   8.2855140
  74.0990177  55.7074833  18.0525595  74.1478332  56.5836955  17.6703365
  74.6412691  55.1652226  17.4797238  84.5845023  66.2515956  17.3326732
  83.7940566  66.2340095  16.7931232  84.3478377  66.7904250  18.0875769
  84.7042898  63.1008422  14.6459461  84.7540903  62.9358430  15.5874984
  84.5956821  62.2335681  14.2557342  73.5879156  65.7796968   1.9351550
  73.7367277  66.4632432   1.2818222  74.3945600  65.7602058   2.4501005
  81.9946660  59.0839350  15.9618767  82.8956523  58.9445815  15.6702765
  82.0694634  59.2493805  16.9016945  76.3289465  56.4606205  14.8071954
  75.4592775  56.7539771  14.5354542  76.5648946  57.0446650  15.5279217
  86.2061094  65.5205364  14.8901482  85.9145903  65.8835344  15.7264943
  85.5933226  64.8072372  14.7114814  87.4056777  63.0858244   7.4104052
  88.2403668  63.5248048   7.5741613  87.5415906  62.6096897   6.5912298
  84.4548283  60.6437978  13.3581540  84.9302404  60.8365625  12.5500392
  83.5313848  60.6997164  13.1124924  71.3431789  61.8062146   2.9412619
  71.0977831  60.9024476   3.1392829  71.5127704  61.8079296   1.9992097
  79.0328499  52.6785822  12.3237374  79.5510443  53.4146849  11.9983863
  78.6783632  52.9849815  13.1584133  70.6127437  57.5390503   0.4398780
  69.9196682  57.6134858  -0.2161184  70.3679189  56.7750847   0.9620297
  79.2841093  49.0986105   7.8438271  79.5642847  48.4309294   8.4698697
  80.0691700  49.2915200   7.3312935  77.0874562  68.2745098  -0.5936703
  76.5148529  68.8935286  -1.0466231  77.6607355  68.8244460  -0.0596781
  83.1549952  57.5203739  11.5909846  84.1067375  57.6201836  11.6122070
  82.9853402  56.7282007  12.1007930  81.1764331  54.6059322  11.7769247
  80.5814263  54.8864334  11.0815735  80.8914028  55.0953223  12.5485988
  80.3071822  68.5582249   0.5371879  81.2402495  68.4927810   0.7404755
  80.2195034  69.3938515   0.0786412  85.6338029  60.7409858  10.7052146
  85.6014350  59.8025859  10.8911829  86.2438653  60.8193895   9.9717970
  77.4721360  59.6105911  -3.2520650  78.4180465  59.4812119  -3.1832232
  77.0935605  58.8720573  -2.7751222  85.7832518  57.5320902  10.7510429
  85.2671567  56.7479358  10.5640358  86.6672466  57.2039618  10.9156948
  83.4443245  51.2761917   6.7106241  83.2468066  50.9677005   7.5949573
  84.0542950  52.0023556   6.8404171  91.4514579  61.8025865   9.8458182
  92.1817968  61.5411153  10.4065886  90.8421525  61.0654587   9.8860250
  89.5329876  59.9433728  10.4432634  88.8063040  59.8089693   9.8349125
  89.1177163  60.2510556  11.2489352  77.3560053  63.6623657  18.2080007
  78.2763062  63.8402256  18.4020053  77.3209636  62.7179703  18.0559706
  75.6564277  57.5355888  -3.3165765  74.7495733  57.2389000  -3.2403052
  75.9340258  57.2385706  -4.1831479  66.5742218  58.8562251   7.1333281
  66.2545002  58.0027559   6.8407655  66.0275646  59.0710829   7.8891249
  70.3522125  61.5724692  10.8502788  70.5708135  62.5041800  10.8690821
  70.7647899  61.2132666  11.6357592  77.2726343  52.0792777   2.8378476
  76.4627071  51.7339862   3.2133722  77.9610760  51.7700321   3.4266088
  79.2016891  51.1570824   4.4602773  79.7547930  51.5766277   5.1192796
  79.4386978  50.2306572   4.5025729  75.2249991  57.1457898  20.2405537
  75.1246718  58.0952255  20.1717628  75.0071533  56.8176137  19.3681607
  74.4263062  54.3942823  -3.1753786  75.2882226  54.7197721  -2.9157969
  74.6113406  53.6074319  -3.6880720  66.4430478  62.4765162   9.1026403
  65.7493949  62.0619115   8.5896357  67.1903469  62.5185699   8.5059822
  82.5795699  53.2671349   3.9681437  81.9994368  53.9256153   3.5859489
  82.3131631  52.4448694   3.5568854  81.0299265  52.6676407   6.1702757
  81.5299043  52.7792941   5.3617076  81.6734873  52.3637460   6.8103566
  75.0881261  60.5755037  19.0570598  74.6048342  61.3755397  19.2634487
  75.1742200  60.5862981  18.1038042  68.3567220  62.4083416   6.9792418
  68.3337908  62.5071104   6.0274301  68.6667857  63.2548567   7.3009584
  71.0154598  64.4659571  11.0939032  71.9697852  64.4343514  11.0268964
  70.8167122  64.0050195  11.9089258  71.6053980  63.0360687  13.6609830
  72.4246869  63.5304766  13.6844667  71.8790788  62.1192655  13.6327397
  81.3620577  55.4271440   3.0237785  80.4746432  55.7121090   2.8057980
  81.7774566  55.2665203   2.1765062  84.7135113  55.4517961   6.7392124
  85.4895503  55.9414413   7.0116741  83.9883247  55.8776015   7.1963994
  87.1507671  56.1645580   7.7966065  87.7452162  55.9241316   7.0859373
  87.2234255  55.4452710   8.4239601  69.3704827  70.0079191   8.1109230
  69.2359295  69.2479592   7.5447228  68.9536889  70.7320091   7.6438019
  81.3361600  60.9425976   3.2388075  81.2796802  61.3994527   2.3995708
  81.8889943  60.1816660   3.0610918  85.1466406  56.7315707   4.0638195
  84.8903340  56.3312343   4.8946403  84.5219274  57.4459501   3.9388334
  89.4578744  59.4711781   6.5709486  88.8978302  59.5404970   7.3441048
  88.8522247  59.2952765   5.8508983  72.5273953  70.9048508   8.3227673
  72.4106337  71.8493940   8.2206363  71.7066399  70.6022069   8.7113472
  82.4150487  65.6298643  -0.8315735  83.2496091  65.1979842  -1.0138260
  82.2534830  65.4580657   0.0961160  82.0696380  62.1330757   0.5340605
  82.0145183  61.9675028  -0.4070951  81.4442435  62.8406790   0.6902794
  66.8588895  57.3698821  14.3602027  67.5047758  56.8597775  14.8489252
  66.6506046  58.1067503  14.9345452  79.3842287  64.4379669  19.8594167
  80.2533446  64.6120321  19.4980802  78.9049038  65.2574085  19.7369897
  75.3792505  51.6338866   0.1125923  75.3671175  52.5780706   0.2694194
  76.2715927  51.4509011  -0.1814616  73.5528467  71.5576770  11.5383601
  74.4555714  71.5900380  11.8550096  73.3265837  70.6277221  11.5529937
  75.3082069  70.3107756   8.1993680  74.3577700  70.3109618   8.0858052
  75.6114555  69.5640491   7.6829714  79.1944625  48.2281642   4.3671860
  78.4277020  47.6740129   4.5128542  79.6055329  48.3003511   5.2286011
  71.1986386  54.5166438  18.4577041  72.0617847  54.1603243  18.6680366
  70.6251796  54.1780333  19.1452445  91.0434763  76.1468295   9.2639442
  91.6813172  76.0275042   8.5602782  90.9255605  77.0949139   9.3227394
  87.8524469  76.0995723   9.2000967  87.5142980  75.9836787   8.3121502
  88.7214237  75.6986888   9.1801973  88.3344252  77.2530574  15.1587172
  88.3232893  76.8583373  14.2867676  88.4964891  76.5196647  15.7520944
  81.2575716  79.4482391   8.0282078  82.0497008  79.1073215   7.6128377
  81.4972367  79.5577366   8.9484231  85.0551513  80.0367686  14.1066356
  84.7641379  80.9413317  13.9913023  85.6908497  80.0784214  14.8210426
  85.9807720  77.4144535  10.6967716  86.5771292  77.1900557   9.9824679
  86.0382691  76.6729280  11.2993164  93.5209878  67.5216556  11.7020237
  93.1893203  68.3911967  11.4781452  92.9255492  67.2052840  12.3814268
  90.0141398  79.7229102  11.1016150  89.7142121  80.6254141  10.9931957
  89.6692458  79.4561285  11.9537303  83.4653879  76.1742899   7.1352854
  82.5404376  76.0419113   7.3430546  83.7138293  76.9537118   7.6322797
  93.4138542  72.2411642   8.7813587  92.5055419  72.1727050   8.4872348
  93.3626138  72.7183587   9.6095413  80.8262691  75.8176172   7.9696643
  80.9555072  76.0710651   8.8836055  80.1460142  76.4103880   7.6501298
  87.4879408  73.6601288  16.7248485  86.7112742  74.2195208  16.7151349
  88.1269971  74.1458071  17.2463355  95.2800188  70.4428080  10.5591461
  94.6374568  70.7360613   9.9131256  94.7755117  70.3281001  11.3644658
  85.7425780  76.4686741  16.2866452  86.4840464  77.0071785  16.0101275
  85.0362765  77.0953030  16.4438003  91.2181120  78.6115881  14.8838613
  91.6264476  78.1698292  14.1393245  90.4958381  78.0368509  15.1372806
  87.5712190  73.5488488  12.2572170  88.4173385  73.9727902  12.4006819
  87.5110827  72.8922112  12.9510733  90.7211635  71.2092856  13.9153344
  90.4772567  71.9634917  13.3787619  90.9971565  71.5878204  14.7500591
  92.6750098  77.7531469  12.5930609  92.8866993  78.3963229  11.9164990
  92.6279846  76.9193785  12.1252539  90.2776327  70.3649289   9.4967181
  89.4160806  70.6630543   9.7883919  90.3038761  70.5819688   8.5648214
  83.9861977  78.4562962   8.8420750  84.5563334  78.8850230   8.2038235
  84.5770089  78.1745546   9.5404936  84.4787144  73.6226389  17.0881762
  83.8485804  74.3042670  17.3217158  84.3723232  73.5109471  16.1434900
  79.7732116  73.2898185   8.0147686  78.9831170  73.5455714   7.5387796
  80.2643363  74.1046523   8.1199726  81.7246861  73.6542764   4.9731162
  80.9278025  73.7661459   5.4914658  81.4972454  73.9929417   4.1072053
  87.5552529  80.1787468  12.9213677  87.6196962  80.6407875  13.7571849
  86.8463453  79.5484832  13.0495987  78.0569819  73.5428676  10.4462676
  78.3077857  74.4275685  10.7120252  78.5929367  73.3633277   9.6737768
  83.7567886  67.9247155  19.4507013  83.3634832  67.3713353  20.1254657
  84.5734027  68.2357733  19.8413530  86.6735847  69.3405034  17.0427269
  87.4145561  69.9412187  16.9631732  86.9053770  68.5982672  16.4845312
  81.8177185  74.5261401  15.3205499  81.7030701  73.6246658  15.6212598
  80.9621703  74.7725098  14.9690315  88.8969023  82.4679142  16.9192999
  88.4532877  81.6815520  16.6013904  89.5586237  82.6558292  16.2536890
  83.6556144  83.9974943  11.4453678  84.2063569  83.8692007  10.6730672
  82.8167620  84.2969832  11.0948571  90.9950261  82.7481941  14.9474401
  90.9768737  83.5690823  14.4554670  91.9170181  82.6236017  15.1724542
  87.4523315  80.2626071  15.7897909  87.9851652  79.5014359  15.5597217
  86.9237396  79.9699723  16.5322064  90.6193010  65.3686137  11.3191551
  90.2757280  66.2587779  11.2430661  90.9871973  65.1787795  10.4561136
  88.1690404  70.2044449   4.8849224  87.3132000  69.8151299   4.7054863
  88.5817356  70.2836410   4.0249010  89.6989551  67.7390792   9.2840784
  89.1954346  67.7020927   8.4708589  89.9920158  68.6483535   9.3437441
  85.9432437  67.8229522   8.2906966  86.8085433  67.6272330   7.9312855
  86.0109945  67.5939874   9.2176323  83.5494756  70.0531730   5.6623333
  84.1238508  69.8306911   4.9296526  84.1365738  70.1220424   6.4151934
  85.8517423  66.9272979   4.3898402  85.1981836  66.6121996   3.7655017
  85.8097898  66.3048719   5.1158225  89.0855164  73.4154912   8.7146050
  88.1677725  73.6369859   8.5567738  89.5015307  73.4901223   7.8557757
  92.4180676  64.6279696   6.4209288  92.7239553  63.7677060   6.1335204
  93.1433281  65.2197316   6.2208282  78.7105032  75.0310383   4.8090886
  78.5129432  74.4379743   4.0841953  78.1551696  74.7262593   5.5266825
  86.6901756  74.9233489   6.9285480  86.7450365  73.9707326   6.8527956
  85.8792958  75.0792928   7.4126778  84.6294116  73.5410549   4.6875858
  83.8161981  73.8404719   5.0941051  85.1253110  73.1466238   5.4050341
  90.2268327  74.0052373  13.5190752  90.5817715  74.2323847  14.3785218
  90.8740459  74.3370750  12.8968008  84.1208190  71.1128904  10.3037093
  84.7607570  70.9717664   9.6060057  83.2885721  70.8263418   9.9275695
  81.1236807  71.0829229   5.0810080  81.3843624  71.9974563   4.9719241
  81.9453979  70.6153672   5.2306693  82.5961732  72.4966987  12.2508905
  83.2684786  72.2884349  11.6021554  81.7691519  72.2989073  11.8114137
  88.4987304  69.1228928  14.2674566  87.8515219  69.8218877  14.1739042
  89.2688320  69.5565071  14.6350814  91.9066102  79.3877780  17.3425119
  91.7551609  79.1588331  16.4255203  91.8970782  80.3448381  17.3556464
  88.6751438  76.9609692  12.3271385  89.6043498  77.1120852  12.1540353
  88.2542469  77.0493713  11.4720032  87.4739770  80.9860357  10.0969923
  87.3350856  80.6179141  10.9695861  86.6854367  81.5007996   9.9253881
  82.9989229  75.7709590  13.0111342  82.8609027  75.0389828  13.6122881
  83.9094153  75.6818490  12.7295530  85.6271530  75.4829549  12.4995022
  86.3371149  74.8422741  12.4581640  85.5840838  75.7342444  13.4221202
  93.6158309  82.4196902  15.4201601  93.5570855  81.7356122  14.7532184
  94.0177827  83.1615892  14.9682227  84.3400464  72.4694767  14.3190661
  83.8037821  72.0185505  14.9712257  83.7517172  72.6040676  13.5761125
  93.6175716  80.3836486  13.6515580  92.7302495  80.0462408  13.7741979
  94.1874267  79.6519517  13.8884346  75.2704863  76.7160578   6.9758632
  75.9575903  76.4022308   6.3879647  75.1152992  77.6201943   6.7025883
  80.0739585  71.6050774  11.4043655  79.9897774  70.9976444  10.6694065
  79.2522292  72.0959793  11.4053152  90.2463299  70.0904338   6.7713851
  90.7431999  69.3374300   6.4514921  89.4750281  70.1268655   6.2057060
  86.8298268  72.2321721   6.4985535  86.4596055  71.6792761   7.1866441
  87.3257360  71.6279854   5.9460535  84.6587466  82.6919216  13.5940553
  85.3596926  83.3255699  13.7469947  84.1882581  83.0333948  12.8336192
  92.6882294  67.0573932   8.9193209  91.7745374  67.2878158   9.0875416
  93.1175395  67.1412376   9.7707242  92.4588752  75.2463823  11.4193103
  91.8060203  75.4939731  10.7645556  92.8369132  74.4327962  11.0855581
  88.5076325  75.9883635  17.9059141  87.8316962  75.8877764  18.5761516
  89.3303959  75.8322848  18.3695138  80.2555185  82.2255571  10.5271656
  80.8408621  81.4799259  10.6599560  80.0580023  82.5359528  11.4108320
  74.8472839  74.7961171   9.2476099  74.8856939  74.2624762  10.0413217
  74.3413132  74.2696377   8.6287076  82.2263602  69.6425712  12.7438641
  82.2904928  70.5040543  12.3316039  82.1630722  69.0299713  12.0111000
  81.7015874  71.7148844  16.3911675  82.3287913  71.3325922  17.0049200
  80.8443793  71.4963046  16.7567368  92.1009983  82.1211820  17.9965411
  92.6449887  82.7341778  17.5020366  91.5196827  82.6791398  18.5132424
  78.4781417  73.5225273   2.3230030  78.7734858  72.6135952   2.2697084
  77.5769453  73.5013013   2.0011033  82.0075664  71.5981270   8.3057579
  81.2862250  72.2117238   8.1665052  82.7968920  72.1339035   8.2274225
  84.8101977  68.9335697  14.5798231  85.3336379  69.1797993  15.3424540
  84.5914311  69.7655731  14.1601368  80.2069258  71.2039371   2.4469355
  79.8781965  70.3236750   2.2644461  80.5608629  71.1487040   3.3345745
  86.0154522  69.8749392  12.2647901  85.6751343  69.0757205  12.6668581
  85.3093529  70.1751102  11.6924734  86.6670994  66.9598704  10.7175224
  87.4897064  66.4859182  10.5954115  86.9109058  67.7389188  11.2173910
  84.1909573  73.6517825   8.5267203  84.0454154  73.9658128   9.4191484
  83.7134777  74.2702725   7.9738101  86.0505956  70.6420373   8.5748092
  86.0367525  69.7461466   8.2380390  86.7678384  70.6491036   9.2086378
  87.9032087  71.0757713  10.6201220  87.6449864  71.9974784  10.6185550
  87.3717127  70.6788147  11.3101684  78.6655235  76.1923169  11.4654864
  78.1208703  76.9682977  11.5975138  79.5434585  76.5393974  11.3073985
  85.4542852  69.5234753   3.8435663  85.5758763  68.5951399   4.0426550
  85.1644894  69.5373439   2.9313978  88.3234042  67.2089663   6.9802382
  88.3455739  67.2728996   6.0254362  88.7402101  66.3694172   7.1742889
  79.4521257  75.3193065  14.3585021  78.7102993  75.4675701  14.9449651
  79.1314001  75.5801331  13.4951770  87.3964920  84.8609044  14.1565411
  87.7052046  84.6158190  15.0288110  88.1940402  85.0655682  13.6684281
  78.0986476  81.1244821   7.3484349  77.2618384  80.6966995   7.1668350
  78.0710121  81.3177264   8.2855140  84.9383931  71.0366750  18.0525595
  84.9872087  71.9128873  17.6703365  85.4806446  70.4944143  17.4797238
  95.4238777  81.5807874  17.3326732  94.6334321  81.5632012  16.7931232
  95.1872132  82.1196167  18.0875769  95.5436652  78.4300340  14.6459461
  95.5934657  78.2650347  15.5874984  95.4350575  77.5627599  14.2557342
  92.8340414  74.4131268  15.9618767  93.7350277  74.2737733  15.6702765
  92.9088389  74.5785723  16.9016945  87.1683220  71.7898123  14.8071954
  86.2986529  72.0831689  14.5354542  87.4042700  72.3738568  15.5279217
  97.0454849  80.8497281  14.8901482  96.7539657  81.2127262  15.7264943
  96.4326980  80.1364290  14.7114814  95.2942037  75.9729896  13.3581540
  95.7696159  76.1657542  12.5500392  94.3707603  76.0289082  13.1124924
  89.8722254  68.0077740  12.3237374  90.3904197  68.7438767  11.9983863
  89.5177386  68.3141733  13.1584133  90.1234848  64.4278022   7.8438271
  90.4036602  63.7601211   8.4698697  90.9085455  64.6207118   7.3312935
  93.9943706  72.8495656  11.5909846  94.9461129  72.9493754  11.6122070
  93.8247157  72.0573925  12.1007930  92.0158086  69.9351239  11.7769247
  91.4208018  70.2156252  11.0815735  91.7307782  70.4245140  12.5485988
  96.6226272  72.8612819  10.7510429  96.1065321  72.0771276  10.5640358
  97.5066221  72.5331536  10.9156948  94.2836999  66.6053835   6.7106241
  94.0861820  66.2968923   7.5949573  94.8936705  67.3315474   6.8404171
  88.1953807  78.9915575  18.2080007  89.1156817  79.1694174  18.4020053
  88.1603390  78.0471620  18.0559706  77.4135972  74.1854169   7.1333281
  77.0938757  73.3319477   6.8407655  76.8669400  74.4002747   7.8891249
  81.1915880  76.9016610  10.8502788  81.4101890  77.8333717  10.8690821
  81.6041654  76.5424584  11.6357592  88.1120098  67.4084695   2.8378476
  87.3020826  67.0631780   3.2133722  88.8004515  67.0992239   3.4266088
  90.0410646  66.4862742   4.4602773  90.5941685  66.9058195   5.1192796
  90.2780732  65.5598490   4.5025729  86.0643745  72.4749815  20.2405537
  85.9640472  73.4244172  20.1717628  85.8465287  72.1468054  19.3681607
  77.2824232  77.8057080   9.1026403  76.5887704  77.3911033   8.5896357
  78.0297223  77.8477617   8.5059822  91.8693019  67.9968325   6.1702757
  92.3692798  68.1084859   5.3617076  92.5128627  67.6929377   6.8103566
  85.9275015  75.9046954  19.0570598  85.4442097  76.7047314  19.2634487
  86.0135954  75.9154899  18.1038042  79.1960975  77.7375334   6.9792418
  79.1731663  77.8363021   6.0274301  79.5061611  78.5840485   7.3009584
  81.8548353  79.7951489  11.0939032  82.8091606  79.7635431  11.0268964
  81.6560876  79.3342113  11.9089258  82.4447735  78.3652605  13.6609830
  83.2640624  78.8596684  13.6844667  82.7184543  77.4484573  13.6327397
  77.6982649  72.6990739  14.3602027  78.3441513  72.1889693  14.8489252
  77.4899800  73.4359420  14.9345452  90.2236041  79.7671586  19.8594167
  91.0927201  79.9412239  19.4980802  89.7442793  80.5866003  19.7369897
  84.3922222  86.8868687  11.5383601  85.2949468  86.9192298  11.8550096
  84.1659592  85.9569138  11.5529937  90.0338379  63.5573560   4.3671860
  89.2670775  63.0032047   4.5128542  90.4449084  63.6295429   5.2286011
  82.0380140  69.8458356  18.4577041  82.9011602  69.4895161  18.6680366
  81.4645551  69.5072251  19.1452445  94.5961641  83.2539073  19.4507013
  94.2028586  82.7005271  20.1254657  95.4127781  83.5649651  19.8413530
  97.5129602  84.6696952  17.0427269  98.2539315  85.2704105  16.9631732
  97.7447525  83.9274589  16.4845312  92.5409629  87.0440762  16.3911675
  93.1681667  86.6617839  17.0049200  91.6837547  86.8254964  16.7567368
  95.7777686  86.3658668  18.0525595  95.8265841  87.2420791  17.6703365
  96.3200200  85.8236061  17.4797238  96.9037500  87.8041733  20.2405537
  96.8034227  88.7536090  20.1717628  96.6859042  87.4759972  19.3681607
  88.5376404  88.0282657  14.3602027  89.1835267  87.5181611  14.8489252
  88.3293555  88.7651338  14.9345452  92.8773895  85.1750274  18.4577041
  93.7405356  84.8187078  18.6680366  92.3039305  84.8364168  19.1452445
  71.9370801  28.7675189   2.1446907  71.8783347  28.0834410   1.4777490
  72.3390319  29.5094180   1.6927533  70.4222475  28.4690107   4.7210718
  70.9662379  29.0820065   4.2265672  69.8409320  29.0269685   5.2377731
  73.7451269  27.9286161   4.0572039  72.9546813  27.9110300   3.5176538
  73.5084624  28.4674455   4.8121075  75.3667341  27.1975569   1.6146789
  75.0752149  27.5605549   2.4510250  74.7539472  26.4842577   1.4360121
  68.5448534  26.1149874   6.5839474  69.4139693  26.2890526   6.2226109
  68.0655285  26.9344290   6.4615203  80.2041009  37.8238500  -4.0115251
  80.8419419  37.7045247  -4.7151911  80.0861852  38.7719343  -3.9527299
  77.0130716  37.7765928  -4.0753727  76.6749227  37.6606992  -4.9633192
  77.8820484  37.3757093  -4.0952721  77.4950499  38.9300779   1.8832479
  77.4839139  38.5353578   1.0112983  77.6571138  38.1966852   2.4766250
  70.4181963  41.1252596  -5.2472615  71.2103255  40.7843420  -5.6626316
  70.6578613  41.2347571  -4.3270462  74.2157760  41.7137891   0.8311663
  73.9247626  42.6183522   0.7158329  74.8514744  41.7554419   1.5455732
  75.1413967  39.0914740  -2.5786977  75.7377539  38.8670762  -3.2930015
  75.1988938  38.3499485  -1.9761530  82.6816125  29.1986761  -1.5734456
  82.3499450  30.0682172  -1.7973241  82.0861739  28.8823045  -0.8940426
  79.1747645  41.3999307  -2.1738543  78.8748368  42.3024345  -2.2822736
  78.8298704  41.1331490  -1.3217391  82.5744789  33.9181847  -4.4941106
  81.6661666  33.8497255  -4.7882345  82.5232384  34.3953792  -3.6659281
  74.1568425  48.1643627  -9.2067576  74.0792454  49.1151452  -9.1279095
  73.5530068  47.8189500  -8.5492649  76.6485654  35.3371492   3.4493791
  75.8718988  35.8965413   3.4396656  77.2876217  35.8228275   3.9708661
  74.9032027  38.1456946   3.0111758  75.6446711  38.6841990   2.7346582
  74.1969012  38.7723235   3.1683310  80.3787366  40.2886086   1.6083920
  80.7870722  39.8468497   0.8638552  79.6564628  39.7138714   1.8618113
  76.7318436  35.2258693  -1.0182523  77.5779632  35.6498107  -0.8747874
  76.6717074  34.5692317  -0.3243960  80.7016181  40.8487277  -4.6363791
  80.0725043  41.0132991  -5.3387724  80.3141843  41.2628886  -3.8652827
  84.5805413  41.7841715  -7.2819428  83.8956451  42.1640616  -7.8322394
  84.6649262  42.3937041  -6.5487480  79.8817882  32.8863061   0.6398650
  79.6378814  33.6405122   0.1032926  80.1577812  33.2648409   1.4745897
  81.8356344  39.4301674  -0.6824084  82.0473240  40.0733434  -1.3589703
  81.7886093  38.5963990  -1.1502154  73.1468224  40.1333167  -4.4333943
  73.7169581  40.5620435  -5.0716459  73.7376336  39.8515751  -3.7349757
  73.6393390  35.2996594   3.8127068  73.0092051  35.9812875   4.0462465
  73.5329478  35.1879676   2.8680206  82.9502172  42.3073629  -2.5101727
  83.7719616  41.9053816  -2.7919045  82.9464575  42.2041863  -1.5585611
  76.7158776  41.8557672  -0.3541016  76.7803208  42.3178080   0.4817155
  76.0069700  41.2255037  -0.2258707  72.9174133  29.6017360   6.1752319
  72.5241079  29.0483558   6.8499963  73.7340273  29.9127938   6.5658837
  75.8342094  31.0175239   3.7672576  76.5751808  31.6182392   3.6877038
  76.0660017  30.2752877   3.2090618  70.9783432  36.2031606   2.0450805
  70.8636947  35.3016863   2.3457904  70.1227950  36.4495303   1.6935622
  78.0575270  44.1449346   3.6438306  77.6139124  43.3585725   3.3259211
  78.7192483  44.3328497   2.9782197  72.8162391  45.6745148  -1.8301015
  73.3669816  45.5462211  -2.6024021  71.9773867  45.9740037  -2.1806123
  80.1556508  44.4252146   1.6719707  80.1374983  45.2461027   1.1799976
  81.0776428  44.3006222   1.8969848  76.6129562  41.9396276   2.5143216
  77.1457899  41.1784564   2.2842524  76.0843643  41.6469928   3.2567370
  82.9575121  39.2631289  -4.8570926  82.2998795  39.9530550  -4.7690797
  83.7615520  39.6527721  -4.5136940  78.2461410  35.0925117  -4.5608644
  77.3283972  35.3140064  -4.7186956  78.6621554  35.1671428  -5.4196936
  82.5342376  42.5981663  -8.6787842  82.0804703  41.7572573  -8.6222651
  81.9036343  43.2343061  -8.3413061  80.9775315  44.4358160  -7.7438023
  81.2698289  44.9963217  -8.4625658  81.4873936  44.7286721  -6.9884864
  75.9408940  45.2138511  -6.6544570  75.8985119  45.4399357  -7.5836038
  76.8571639  44.9801885  -6.5058769  79.3874574  35.6822578   0.2436059
  79.7423962  35.9094051   1.1030525  80.0346705  36.0140955  -0.3786686
  85.1441691  40.8717541  -4.0403341  85.5778197  40.7792830  -3.1920286
  85.8573271  40.8475042  -4.6783325  78.8769586  44.4719635  -2.5070240
  78.9306608  45.0410572  -1.7392524  78.0084367  44.6421520  -2.8716203
  71.7567979  34.1737192  -1.0245789  72.4291032  33.9654554  -1.6733140
  70.9297765  33.9759278  -1.4640556  86.0057240  40.9141242  -1.5070455
  86.1993130  41.8187052  -1.2611180  85.9057858  40.4548661  -0.6731870
  77.6593551  30.7999132   0.9919872  77.0121466  31.4989082   0.8984349
  78.4294566  31.2335276   1.3596120  81.0672349  41.0647985   4.0670425
  80.9157855  40.8358536   3.1500509  81.0577028  42.0218586   4.0801771
  77.8357685  38.6379897  -0.9483308  78.7649745  38.7891057  -1.1214341
  77.4148715  38.7263918  -1.8034662  76.6346017  42.6630562  -3.1784770
  76.4957103  42.2949346  -2.3058832  75.8460613  43.1778201  -3.3500813
  77.2294169  47.7639658 -11.8359234  77.4045925  47.2927701 -11.0213611
  76.5426957  48.3905424 -11.6077973  78.1851232  42.0412164  -5.7895933
  77.8501065  42.0012934  -4.8938283  77.6855178  41.3756880  -6.2625522
  72.1595476  37.4479795  -0.2643352  72.0215274  36.7160033   0.3368188
  73.0700400  37.3588695  -0.5459164  74.7877777  37.1599754  -0.7759672
  75.4977395  36.5192946  -0.8173053  74.7447085  37.4112649   0.1466509
  82.7764556  44.0967107   2.1446907  82.7177102  43.4126327   1.4777490
  83.1784074  44.8386097   1.6927533  73.5006711  34.1464972   1.0435968
  72.9644068  33.6955710   1.6957564  72.9123419  34.2810881   0.3006432
  71.7955254  50.9129021  -5.0619374  72.0351853  51.5447545  -4.3840355
  70.9524451  50.5617061  -4.7754014  82.7781963  42.0606691   0.3760887
  81.8908742  41.7232613   0.4987286  83.3480514  41.3289722   0.6129652
  76.3083116  46.7208143  -2.6577870  76.2353288  47.5263115  -2.1458565
  75.8660509  46.9200109  -3.4829848  76.0972896  45.9579913  -9.1475048
  75.3140418  46.5001594  -9.0536824  76.7965641  46.4753893  -8.7480807
  78.7681800  46.6194977  -0.5019711  79.4809772  47.2542442  -0.5743810
  78.2771828  46.7158843  -1.3179709  73.8193713  44.3689421   0.3185860
  74.5203173  45.0025904   0.4715254  73.3488828  44.7104152  -0.4418501
  81.6194999  36.9234028  -1.8561590  80.9666449  37.1709936  -2.5109137
  81.9975379  36.1098167  -2.1899113  78.5802173  46.9593722  -7.7533420
  78.7624568  46.1415378  -7.2905667  79.4035159  47.1761414  -8.1908530
  78.9144339  45.8861907 -10.4918371  79.4432105  45.3754361 -11.1048209
  79.1772558  45.5704437  -9.6272838  77.6682572  37.6653839   4.6304447
  76.9923209  37.5647969   5.3006822  78.4910206  37.5093053   5.0940444
  69.4161431  43.9025776  -2.7483038  70.0014868  43.1569464  -2.6155133
  69.2186270  44.2129733  -1.8646374  72.2700087  46.9377023  -7.7320595
  71.6010462  47.4223151  -8.2156555  72.1312956  47.1846244  -6.8177217
  76.4105355  48.9720767  -1.1337937  76.9623663  49.1352388  -0.3688852
  76.7511549  49.5625205  -1.8057912  70.8622121  33.3919049   3.1156982
  71.4894160  33.0096127   3.7294506  70.0050040  33.1733251   3.4812675
  81.2616229  43.7982024   4.7210718  81.8056133  44.4111983   4.2265672
  80.6803074  44.3561603   5.2377731  79.5473742  46.9202742  -4.1474255
  79.4224882  46.1192482  -4.6563309  80.2052833  47.4148936  -4.6360285
  81.6108651  44.7211763  -2.5194705  80.6638986  44.6017114  -2.5916378
  81.9591424  43.8334261  -2.4368443  73.9708224  30.6105901   1.3043537
  74.4942626  30.8568198   2.0669847  73.7520557  31.4425936   0.8846675
  78.6155084  44.5164479  -6.3190352  78.4680046  43.5881186  -6.1382782
  79.4408578  44.5384569  -6.8033277  82.2189206  45.3393037  -5.2325480
  83.1435753  45.1335899  -5.3701028  82.0504509  45.0909439  -4.3236138
  75.1760769  31.5519597  -1.0106792  74.8357590  30.7527410  -0.6086112
  74.4699775  31.8521307  -1.5829959  77.0638333  32.7527918  -2.6553474
  76.8056111  33.6744988  -2.6569143  76.5323374  32.3558352  -1.9653009
  82.0084522  45.8578705  -9.8763388  82.1821400  45.2925127 -10.6289536
  82.5013413  46.6579600 -10.0583898  67.8261482  37.8693374  -1.8099829
  67.2814950  38.6453182  -1.6779555  68.7040832  38.2164178  -1.9680708
  68.6127504  36.9963270   1.0830327  67.8709240  37.1445906   1.6694958
  68.2920248  37.2571536   0.2197077  76.5571166  46.5379249   0.8810717
  76.8658293  46.2928395   1.7533417  77.3546648  46.7425887   0.3929588
  76.5791778  48.6917158  -6.8883906  76.1396769  48.1993537  -6.1951049
  77.3299895  48.1490126  -7.1291831  69.0584117  44.8828699  -6.8859278
  69.8842137  44.5832471  -7.2660634  68.7078169  44.1136321  -6.4369489
  74.0265651  44.2355167  -4.8161604  73.4045660  43.5725872  -5.1159376
  74.6970518  44.2616299  -5.4987957  74.0990178  32.7136955   4.7770902
  74.1478334  33.5899078   4.3948671  74.6412692  32.1714348   4.2042545
  84.5845024  43.2578078   4.0572039  83.7940567  43.2402217   3.5176538
  84.3478378  43.7966372   4.8121075  84.7042899  40.1070545   1.3704767
  84.7540904  39.9420552   2.3120290  84.5956822  39.2397804   0.9802648
  81.9946661  36.0901473   2.6864074  82.8956524  35.9507938   2.3948072
  82.0694636  36.2555928   3.6262252  76.3289467  33.4668328   1.5317260
  75.4592776  33.7601894   1.2599849  76.5648947  34.0508773   2.2524524
  86.2061096  42.5267486   1.6146789  85.9145904  42.8897467   2.4510250
  85.5933227  41.8134495   1.4360121  84.4548284  37.6500101   0.0826847
  84.9302405  37.8427747  -0.7254302  83.5313849  37.7059287  -0.1629769
  79.0328500  29.6847945  -0.9517319  79.5510444  30.4208972  -1.2770831
  78.6783633  29.9911938  -0.1170560  83.1549953  34.5265861  -1.6844848
  84.1067376  34.6263959  -1.6632623  82.9853403  33.7344130  -1.1746763
  81.1764332  31.6121444  -1.4985447  80.5814264  31.8926457  -2.1938958
  80.8914029  32.1015345  -0.7268705  85.6338031  37.7471981  -2.5702548
  85.6014351  36.8087982  -2.3842864  86.2438654  37.8256018  -3.3036723
  77.3560054  40.6685780   4.9325313  78.2763064  40.8464379   5.1265360
  77.3209637  39.7241825   4.7805012  70.3522127  38.5786815  -2.4251906
  70.5708136  39.5103922  -2.4063872  70.7647900  38.2194789  -1.6397102
  75.2249992  34.1520020   6.9650843  75.1246719  35.1014377   6.8962934
  75.0071534  33.8238259   6.0926913  75.0881262  37.5817159   5.7815905
  74.6048344  38.3817519   5.9879794  75.1742201  37.5925104   4.8283349
  71.0154599  41.4721694  -2.1815661  71.9697853  41.4405636  -2.2485730
  70.8167123  41.0112318  -1.3665435  71.6053982  40.0422810   0.3855136
  72.4246871  40.5366889   0.4089974  71.8790789  39.1254778   0.3572704
  69.3704828  47.0141313  -5.1645463  69.2359296  46.2541714  -5.7307465
  68.9536891  47.7382213  -5.6316675  72.5273954  47.9110630  -4.9527021
  72.4106338  48.8556063  -5.0548331  71.7066400  47.6084192  -4.5641222
  66.8588896  34.3760944   1.0847333  67.5047759  33.8659898   1.5734559
  66.6506047  35.1129625   1.6590759  79.3842288  41.4441791   6.5839474
  80.2533448  41.6182444   6.2226109  78.9049040  42.2636208   6.4615203
  73.5528468  48.5638892  -1.7371092  74.4555715  48.5962503  -1.4204597
  73.3265838  47.6339343  -1.7224757  75.3082070  47.3169879  -5.0761014
  74.3577701  47.3171740  -5.1896641  75.6114556  46.5702613  -5.5924979
  71.1986387  31.5228561   5.1822348  72.0617848  31.1665366   5.3925672
  70.6251798  31.1842456   5.8697752  91.0434764  53.1530417  -4.0115251
  91.6813174  53.0337165  -4.7151911  90.9255607  54.1011261  -3.9527299
  87.8524470  53.1057845  -4.0753727  87.5142982  52.9898910  -4.9633192
  88.7214238  52.7049010  -4.0952721  88.3344253  54.2592697   1.8832479
  88.3232894  53.8645495   1.0112983  88.4964893  53.5258770   2.4766250
  81.2575718  56.4544513  -5.2472615  82.0497010  56.1135338  -5.6626316
  81.4972368  56.5639488  -4.3270462  85.0551514  57.0429809   0.8311663
  84.7641380  57.9475440   0.7158329  85.6908499  57.0846336   1.5455732
  85.9807721  54.4206657  -2.5786977  86.5771293  54.1962680  -3.2930015
  86.0382693  53.6791403  -1.9761530  93.5209880  44.5278678  -1.5734456
  93.1893205  45.3974089  -1.7973241  92.9255493  44.2114962  -0.8940426
  90.0141399  56.7291224  -2.1738543  89.7142122  57.6316263  -2.2822736
  89.6692459  56.4623408  -1.3217391  83.4653881  53.1805021  -6.1401839
  82.5404377  53.0481235  -5.9324147  83.7138294  53.9599240  -5.6431897
  93.4138543  49.2473765  -4.4941106  92.5055420  49.1789173  -4.7882345
  93.3626139  49.7245709  -3.6659281  80.8262692  52.8238295  -5.3058050
  80.9555073  53.0772774  -4.3918638  80.1460143  53.4166003  -5.6253395
  87.4879409  50.6663410   3.4493791  86.7112743  51.2257330   3.4396656
  88.1269972  51.1520193   3.9708661  85.7425781  53.4748863   3.0111758
  86.4840466  54.0133907   2.7346582  85.0362767  54.1015152   3.1683310
  91.2181121  55.6178004   1.6083920  91.6264477  55.1760414   0.8638552
  90.4958382  55.0430631   1.8618113  87.5712191  50.5550611  -1.0182523
  88.4173386  50.9790024  -0.8747874  87.5110829  49.8984235  -0.3243960
  90.7211636  48.2154979   0.6398650  90.4772568  48.9697040   0.1032926
  90.9971567  48.5940327   1.4745897  92.6750099  54.7593591  -0.6824084
  92.8866994  55.4025351  -1.3589703  92.6279847  53.9255908  -1.1502154
  90.2776328  47.3711412  -3.7787512  89.4160807  47.6692666  -3.4870774
  90.3038763  47.5881811  -4.7106479  83.9861978  55.4625084  -4.4333943
  84.5563335  55.8912353  -5.0716459  84.5770090  55.1807669  -3.7349757
  84.4787145  50.6288512   3.8127068  83.8485805  51.3104793   4.0462465
  84.3723233  50.5171593   2.8680206  79.7732117  50.2960308  -5.2607008
  78.9831171  50.5517836  -5.7366897  80.2643365  51.1108646  -5.1554967
  81.7246863  50.6604887  -8.3023531  80.9278026  50.7723581  -7.7840035
  81.4972455  50.9991539  -9.1682640  87.5552530  57.1849590  -0.3541016
  87.6196963  57.6469997   0.4817155  86.8463454  56.5546955  -0.2258707
  78.0569820  50.5490798  -2.8292017  78.3077859  51.4337808  -2.5634441
  78.5929369  50.3695400  -3.6016925  83.7567888  44.9309278   6.1752319
  83.3634833  44.3775476   6.8499963  84.5734028  45.2419856   6.5658837
  86.6735849  46.3467157   3.7672576  87.4145562  46.9474310   3.6877038
  86.9053771  45.6044794   3.2090618  81.8177187  51.5323524   2.0450805
  81.7030702  50.6308781   2.3457904  80.9621704  51.7787221   1.6935622
  88.8969024  59.4741264   3.6438306  88.4532879  58.6877643   3.3259211
  89.5586238  59.6620415   2.9782197  83.6556146  61.0037066  -1.8301015
  84.2063571  60.8754129  -2.6024021  82.8167621  61.3031955  -2.1806123
  90.9950262  59.7544064   1.6719707  90.9768738  60.5752945   1.1799976
  91.9170182  59.6298139   1.8969848  87.4523317  57.2688194   2.5143216
  87.9851653  56.5076482   2.2842524  86.9237398  56.9761845   3.2567370
  89.6989552  44.7452915  -3.9913909  89.1954348  44.7083050  -4.8046104
  89.9920159  45.6545657  -3.9317253  85.9432438  44.8291644  -4.9847728
  86.8085435  44.6334453  -5.3441838  86.0109947  44.6001996  -4.0578371
  83.5494757  47.0593852  -7.6131361  84.1238509  46.8369034  -8.3458168
  84.1365739  47.1282547  -6.8602759  89.0855165  50.4217035  -4.5608644
  88.1677726  50.6431982  -4.7186956  89.5015309  50.4963345  -5.4196936
  78.7105033  52.0372505  -8.4663807  78.5129433  51.4441866  -9.1912740
  78.1551697  51.7324715  -7.7487868  86.6901757  51.9295612  -6.3469214
  86.7450367  50.9769448  -6.4226737  85.8792959  52.0855051  -5.8627915
  84.6294117  50.5472672  -8.5878835  83.8161982  50.8466842  -8.1813643
  85.1253111  50.1528360  -7.8704353  90.2268329  51.0114496   0.2436059
  90.5817716  51.2385969   1.1030525  90.8740460  51.3432873  -0.3786686
  84.1208192  48.1191027  -2.9717600  84.7607571  47.9779786  -3.6694637
  83.2885722  47.8325540  -3.3478998  81.1236808  48.0891352  -8.1944613
  81.3843625  49.0036685  -8.3035453  81.9453980  47.6215795  -8.0448000
  82.5961733  49.5029109  -1.0245789  83.2684787  49.2946471  -1.6733140
  81.7691520  49.3051195  -1.4640556  88.4987305  46.1291050   0.9919872
  87.8515220  46.8281000   0.8984349  89.2688321  46.5627194   1.3596120
  91.9066103  56.3939902   4.0670425  91.7551610  56.1650454   3.1500509
  91.8970783  57.3510504   4.0801771  88.6751440  53.9671815  -0.9483308
  89.6043500  54.1182975  -1.1214341  88.2542470  54.0555836  -1.8034662
  87.4739772  57.9922479  -3.1784770  87.3350857  57.6241264  -2.3058832
  86.6854368  58.5070119  -3.3500813  82.9989231  52.7771712  -0.2643352
  82.8609029  52.0451951   0.3368188  83.9094154  52.6880612  -0.5459164
  85.6271531  52.4891672  -0.7759672  86.3371150  51.8484864  -0.8173053
  85.5840839  52.7404566   0.1466509  93.6158310  59.4259025   2.1446907
  93.5570856  58.7418245   1.4777490  94.0177828  60.1678015   1.6927533
  84.3400465  49.4756889   1.0435968  83.8037822  49.0247628   1.6957564
  83.7517174  49.6102798   0.3006432  93.6175717  57.3898609   0.3760887
  92.7302496  57.0524531   0.4987286  94.1874268  56.6581640   0.6129652
  75.2704864  53.7222701  -6.2996062  75.9575904  53.4084431  -6.8875046
  75.1152993  54.6264065  -6.5728810  80.0739587  48.6112897  -1.8711038
  79.9897775  48.0038567  -2.6060628  79.2522293  49.1021915  -1.8701542
  86.8298269  49.2383844  -6.7769158  86.4596057  48.6854884  -6.0888253
  87.3257362  48.6341977  -7.3294158  84.6587468  59.6981339   0.3185860
  85.3596927  60.3317822   0.4715254  84.1882583  60.0396070  -0.4418501
  92.4588754  52.2525946  -1.8561590  91.8060204  52.5001854  -2.5109137
  92.8369134  51.4390084  -2.1899113  88.5076327  52.9945757   4.6304447
  87.8316964  52.8939886   5.3006822  89.3303961  52.8384971   5.0940444
  80.2555186  59.2317694  -2.7483038  80.8408623  58.4861382  -2.6155133
  80.0580024  59.5421650  -1.8646374  74.8472841  51.8023294  -4.0278594
  74.8856940  51.2686885  -3.2341476  74.3413133  51.2758499  -4.6467617
  82.2263603  46.6487834  -0.5316052  82.2904929  47.5102665  -0.9438654
  82.1630723  46.0361836  -1.2643694  81.7015875  48.7210967   3.1156982
  82.3287914  48.3388044   3.7294506  80.8443794  48.5025169   3.4812675
  92.1009984  59.1273942   4.7210718  92.6449888  59.7403900   4.2265672
  91.5196829  59.6853521   5.2377731  78.4781418  50.5287396 -10.9524663
  78.7734859  49.6198074 -11.0057609  77.5769454  50.5075135 -11.2743661
  82.0075665  48.6043393  -4.9697114  81.2862251  49.2179360  -5.1089641
  82.7968921  49.1401157  -5.0480469  84.8101979  45.9397819   1.3043537
  85.3336380  46.1860116   2.0669847  84.5914312  46.7717854   0.8846675
  80.2069260  48.2101494 -10.8285338  79.8781966  47.3298873 -11.0110232
  80.5608630  48.1549162  -9.9408949  86.0154524  46.8811514  -1.0106792
  85.6751344  46.0819327  -0.6086112  85.3093530  47.1813225  -1.5829959
  86.6670995  43.9660827  -2.5579469  87.4897065  43.4921305  -2.6800579
  86.9109059  44.7451310  -2.0580783  84.1909574  50.6579947  -4.7487491
  84.0454155  50.9720250  -3.8563209  83.7134778  51.2764848  -5.3016592
  86.0505957  47.6482495  -4.7006601  86.0367526  46.7523589  -5.0374303
  86.7678385  47.6553159  -4.0668315  87.9032088  48.0819835  -2.6553474
  87.6449866  49.0036906  -2.6569143  87.3717128  47.6850270  -1.9653009
  78.6655236  53.1985292  -1.8099829  78.1208704  53.9745100  -1.6779555
  79.5434586  53.5456096  -1.9680708  79.4521258  52.3255188   1.0830327
  78.7102994  52.4737823   1.6694958  79.1314003  52.5863454   0.2197077
  87.3964921  61.8671166   0.8810717  87.7052047  61.6220313   1.7533417
  88.1940403  62.0717805   0.3929588  78.0986477  58.1306943  -5.9270344
  77.2618385  57.7029117  -6.1086343  78.0710122  58.3239386  -4.9899553
  84.9383933  48.0428873   4.7770902  84.9872088  48.9190996   4.3948671
  85.4806447  47.5006266   4.2042545  95.4238778  58.5869996   4.0572039
  94.6334322  58.5694135   3.5176538  95.1872133  59.1258290   4.8121075
  95.5436653  55.4362463   1.3704767  95.5934658  55.2712470   2.3120290
  95.4350577  54.5689722   0.9802648  92.8340416  51.4193391   2.6864074
  93.7350278  51.2799855   2.3948072  92.9088390  51.5847845   3.6262252
  87.1683221  48.7960245   1.5317260  86.2986530  49.0893811   1.2599849
  87.4042701  49.3800690   2.2524524  97.0454850  57.8559404   1.6146789
  96.7539658  58.2189385   2.4510250  96.4326981  57.1426412   1.4360121
  95.2942038  52.9792019   0.0826847  95.7696160  53.1719665  -0.7254302
  94.3707604  53.0351205  -0.1629769  89.8722255  45.0139862  -0.9517319
  90.3904199  45.7500889  -1.2770831  89.5177388  45.3203856  -0.1170560
  93.9943707  49.8557779  -1.6844848  94.9461130  49.9555876  -1.6632623
  93.8247158  49.0636047  -1.1746763  92.0158087  46.9413362  -1.4985447
  91.4208019  47.2218375  -2.1938958  91.7307784  47.4307263  -0.7268705
  88.1953809  55.9977698   4.9325313  89.1156818  56.1756297   5.1265360
  88.1603392  55.0533743   4.7805012  77.4135974  51.1916291  -6.1421412
  77.0938758  50.3381599  -6.4347038  76.8669402  51.4064869  -5.3863445
  81.1915881  53.9078732  -2.4251906  81.4101891  54.8395840  -2.4063872
  81.6041655  53.5486707  -1.6397102  86.0643746  49.4811938   6.9650843
  85.9640473  50.4306295   6.8962934  85.8465288  49.1530177   6.0926913
  77.2824234  54.8119203  -4.1728291  76.5887705  54.3973156  -4.6858336
  78.0297225  54.8539739  -4.7694872  85.9275016  52.9109077   5.7815905
  85.4442098  53.7109437   5.9879794  86.0135956  52.9217022   4.8283349
  79.1960976  54.7437457  -6.2962276  79.1731664  54.8425144  -7.2480393
  79.5061613  55.5902607  -5.9745110  81.8548354  56.8013612  -2.1815661
  82.8091608  56.7697554  -2.2485730  81.6560878  56.3404235  -1.3665435
  82.4447736  55.3714728   0.3855136  83.2640625  55.8658806   0.4089974
  82.7184544  54.4546696   0.3572704  77.6982650  49.7052861   1.0847333
  78.3441514  49.1951815   1.5734559  77.4899801  50.4421543   1.6590759
  90.2236043  56.7733709   6.5839474  91.0927202  56.9474361   6.2226109
  89.7442794  57.5928126   6.4615203  84.3922223  63.8930810  -1.7371092
  85.2949469  63.9254420  -1.4204597  84.1659593  62.9631261  -1.7224757
  82.0380141  46.8520479   5.1822348  82.9011603  46.4957283   5.3925672
  81.4645552  46.5134373   5.8697752  94.5961642  60.2601195   6.1752319
  94.2028588  59.7067394   6.8499963  95.4127782  60.5711774   6.5658837
  97.5129603  61.6759074   3.7672576  98.2539316  62.2766227   3.6877038
  97.7447526  60.9336712   3.2090618  92.5409630  64.0502885   3.1156982
  93.1681669  63.6679962   3.7294506  91.6837549  63.8317087   3.4812675
  95.7777687  63.3720791   4.7770902  95.8265843  64.2482913   4.3948671
  96.3200201  62.8298184   4.2042545  96.9037501  64.8103856   6.9650843
  96.8034228  65.7598213   6.8962934  96.6859043  64.4822095   6.0926913
  88.5376405  65.0344779   1.0847333  89.1835268  64.5243733   1.5734559
  88.3293556  65.7713461   1.6590759  92.8773896  62.1812396   5.1822348
  93.7405357  61.8249201   5.3925672  92.3039306  61.8426291   5.8697752
   4.3258122  99.9680054  73.4911402   3.5721830  99.3987452  73.3355406
   4.4605663  99.9342718  74.4382036   0.6906735 101.4088042  73.7877516
   1.5253626 101.8477846  73.9515077   0.8265863 100.9326695  72.9685762
   4.7364537 100.1255664  76.2231646   5.4667926  99.8640952  76.7839349
   4.1271483  99.3884386  76.2633714   2.8179834  98.2663526  76.8206097
   2.0912998  98.1319491  76.2122589   2.4027121  98.5740355  77.6262815
   2.7428702  97.7941579  72.9482950   2.1828260  97.8634769  73.7214512
   2.1372205  97.6182564  72.2282446   3.9042968 103.6915936  77.6965015
   3.5607237 104.5817577  77.6204125   4.2721931 103.5017593  76.8334600
   5.7030634 102.9509495  72.7982752   6.0089511 102.0906858  72.5108667
   6.4283239 103.5427115  72.5981746   3.4084806 102.7507821  74.2211734
   3.6886559 102.0831010  74.8472161   4.1935413 102.9436916  73.7086398
   7.5686957 104.9283634  73.0879705   7.3711778 104.6198722  73.9723037
   8.1786663 105.6545272  73.2177635   3.3188337 101.8803359  70.7445323
   2.5520733 101.3261845  70.8902006   3.7299042 101.9525228  71.6059475
   4.3258123  76.9742176  60.2156708   3.5721832  76.4049574  60.0600713
   4.4605664  76.9404841  61.1627343   0.6906736  78.4150165  60.5122823
   1.5253627  78.8539969  60.6760383   0.8265865  77.9388818  59.6931069
   4.7364538  77.1317786  62.9476953   5.4667927  76.8703074  63.5084656
   4.1271484  76.3946508  62.9879021   2.8179835  75.2725649  63.5451404
   2.0912999  75.1381614  62.9367895   2.4027122  75.5802477  64.3508122
   2.7428703  74.8003702  59.6728257   2.1828261  74.8696891  60.4459819
   2.1372206  74.6244687  58.9527753   4.3284722  91.4760216  62.3658212
   4.9663132  91.3566963  61.6621552   4.2105564  92.4241060  62.4246165
   1.1374428  91.4287644  62.3019737   0.7992939  91.3128709  61.4140272
   2.0064196  91.0278809  62.2820743   1.6194211  92.5822496  68.2605943
   1.6082852  92.1875294  67.3886446   1.7814850  91.8488568  68.8539714
   2.5760802  96.9494088  53.6031093   1.9248782  97.5348168  53.2165107
   3.3705165  97.4800283  53.6626130   3.8825990  89.2011670  59.4411420
   4.6689079  88.7831093  59.0901837   4.1464694  90.1057762  59.6093069
   4.0536067  94.6384520  54.1400077   3.4181900  94.7119147  54.8520982
   3.7233474  95.2278119  53.4619156   9.2834417  89.1386903  60.3444399
  10.0159589  88.5686120  60.5782228   8.5273773  88.7508503  60.7850905
   0.9010537  91.5614144  57.5407741   0.5368744  91.0344765  58.2520663
   1.7577653  91.1712613  57.3674227   6.8059838  82.8508477  64.8039008
   6.4743162  83.7203888  64.5800223   6.2105451  82.5344761  65.4833038
   3.2991357  95.0521023  64.2034920   2.9992080  95.9546062  64.0950728
   2.9542417  94.7853206  65.0556073   6.6988501  87.5703563  61.8832358
   5.7905378  87.5018972  61.5891119   6.6476097  88.0475508  62.7114183
   8.5650147  85.7720002  63.6610232   7.9224528  86.0652535  63.0150026
   8.0605076  85.6572922  64.4663428   6.2190311  89.5183175  54.3496091
   7.1308167  89.7510562  54.1743788   5.7099958  90.1020219  53.7871169
   4.5031079  93.9407803  67.9857383   4.9114435  93.4990213  67.2412016
   3.7808340  93.3660430  68.2391576   0.8562149  88.8780409  65.3590940
   1.7023344  89.3019823  65.5025589   0.7960786  88.2214034  66.0529503
   4.8259893  94.5008993  61.7409672   4.1968756  94.6654707  61.0385740
   4.4385555  94.9150603  62.5120636   8.7049125  95.4363431  59.0954036
   8.0200163  95.8162332  58.5451069   8.7892974  96.0458758  59.8285984
   4.0061594  86.5384778  67.0172114   3.7622526  87.2926838  66.4806390
   4.2821524  86.9170125  67.8519361   5.9600057  93.0823390  65.6949380
   6.1716952  93.7255150  65.0183761   5.9129805  92.2485707  65.2271310
   3.5626286  85.6941211  62.5985952   2.7010765  85.9922464  62.8902689
   3.5888720  85.9111610  61.6666984   7.0745885  95.9595346  63.8671737
   7.8963328  95.5575533  63.5854419   7.0708288  95.8563580  64.8187853
  15.1651878  92.3034094  60.2156708  14.4115586  91.7341492  60.0600713
  15.2999419  92.2696758  61.1627343   2.1818982  97.7971063  70.0211770
   1.7382836  97.0107441  69.7032674   2.8436196  97.9850213  69.3555661
   4.2800220  98.0773863  68.0493171   4.2618696  98.8982744  67.5573440
   5.2020140  97.9527938  68.2743312   3.9042969  80.6978058  64.4210321
   3.5607239  81.5879700  64.3449432   4.2721932  80.5079716  63.5579906
   3.8693252  90.6886669  52.9282756   3.3539876  91.4591274  53.1671144
   3.5970561  90.0151805  53.5515818   1.4540363  85.5336370  57.9867995
   0.5981959  85.1443220  57.8073633   1.8667315  85.6128331  57.1267780
   2.9839510  83.0682713  62.3859554   2.4804305  83.0312848  61.5727360
   3.2770117  83.9775456  62.4456211   8.8427526  93.4419024  54.8635930
   8.0656969  93.1030183  54.4191092   9.5219007  93.4471647  54.1890895
   3.6579555  88.5613761  54.7542537   3.3529691  88.8759911  55.6052681
   4.6109997  88.6395181  54.7969870   2.1025987  94.7203985  56.4035491
   1.5747349  93.9856744  56.0908729   1.6013490  95.4978661  56.1575460
   7.0818833  92.9153005  61.5202538   6.4242508  93.6052267  61.6082666
   7.8859232  93.3049437  61.8636524   5.8924292  91.2697378  59.5706479
   6.4056174  91.9027370  60.0728189   6.5425516  90.6698573  59.2049839
   3.1546666 101.2481702  52.3267151   2.4808365 101.5513399  52.9352108
   3.5412488 102.0510782  51.9772608   2.3705123  88.7446833  61.8164820
   1.4527684  88.9661780  61.6586508   2.7865266  88.8193144  60.9576527
   3.1540171  90.1438249  56.9467500   3.9011989  90.6559646  56.6374622
   3.4231760  89.8222302  57.8071894   1.4266821  92.6396790  53.9294455
   0.5178040  92.3555823  54.0266924   1.4561905  93.0595868  53.0697761
   6.6586088  96.2503379  57.6985622   6.2048415  95.4094289  57.7550813
   6.0280055  96.8864778  58.0360402   5.6019008  87.1795365  58.9286290
   4.8641764  86.6672752  59.2596532   5.8545781  86.7395747  58.1169566
   5.1019027  98.0879876  58.6335440   5.3942002  98.6484933  57.9147806
   5.6117648  98.3808437  59.3888599   5.7030635  79.9571617  59.5228059
   6.0089512  79.0968981  59.2353974   6.4283240  80.5489238  59.3227053
   1.1242909  94.1805533  51.2682533   0.6862338  93.4641392  50.8088170
   1.8653349  94.4081648  50.7067625   3.5118286  89.3344295  66.6209523
   3.8667674  89.5615768  67.4803988   4.1590418  89.6662671  65.9986778
   9.2416023  92.4562731  57.3258852   9.1033922  92.6464327  56.3980041
   8.8852242  93.2182113  57.7826903   9.2685403  94.5239258  62.3370123
   9.7021910  94.4314547  63.1853177   9.9816984  94.4996758  61.6990139
   3.0013298  98.1241352  63.8703224   3.0550320  98.6932288  64.6380940
   2.1328079  98.2943237  63.5057261  10.1300952  94.5662958  64.8703009
  10.3236843  95.4708769  65.1162284  10.0301571  94.1070377  65.7041594
   1.7837263  84.4520849  67.3693336   1.1365178  85.1510798  67.2757812
   2.5538279  84.8856993  67.7369584   5.1916061  94.7169701  70.4443889
   5.0401568  94.4880253  69.5273973   5.1820741  95.6740302  70.4575234
   1.9601398  92.2901614  65.4290156   2.8893458  92.4412773  65.2559123
   1.5392428  92.3785634  64.5738802   1.3537881 101.4161375  54.5414230
   1.5289637 100.9449418  55.3559852   0.6670669 102.0427141  54.7695491
   2.3094944  95.6933881  60.5877531   1.9744777  95.6534651  61.4835181
   1.8098890  95.0278597  60.1147941   5.2454136  93.0389915  50.8614591
   4.6283307  92.3136743  50.7647643   4.7770625  93.7999275  50.5181665
   6.9008268  97.7488823  68.5220371   6.8420814  97.0648044  67.8550954
   7.3027786  98.4907813  68.0700997   6.9025675  95.7128407  66.7534351
   6.0152454  95.3754329  66.8760750   7.4724226  94.9811439  66.9903116
   3.5313258  85.4196259  59.8732621   4.0281958  84.6666222  59.5533691
   2.7600240  85.4560576  59.3075830  11.3843016  91.1236625  61.5150912
  11.3732892  92.0061340  61.1444845  10.5160395  90.7708176  61.3205449
   2.8925512 100.2716694  65.8753753   3.6053484 100.9064159  65.8029654
   2.4015541 100.3680560  65.0593754   4.6143039  94.1767946  57.4471044
   3.6799318  94.2969409  57.2775749   4.7919707  93.2740413  57.1831054
   8.0015590  90.0185266  57.9821078   8.4676042  90.8513257  57.9081381
   8.4523091  89.5530247  58.6866337   6.0691821  96.3629087  54.9807230
   6.3451665  96.2485682  55.8901105   5.1996320  95.9646572  54.9419404
   5.9732253  82.3865853  62.0211980   5.0595333  82.6170080  62.1894187
   6.4025354  82.4704297  62.8726012   5.7438711  90.5755745  64.5211874
   5.0910162  90.8231652  63.8664327   6.1219091  89.7619883  64.1874351
   2.7045885 100.6115438  58.6240044   2.8868280  99.7937094  59.0867796
   3.5278871 100.8283130  58.1864934   3.0388051  99.5383623  55.8855093
   3.5675817  99.0276078  55.2725255   3.3016270  99.2226153  56.7500626
   1.7926284  91.3175556  71.0077911   1.1166922  91.2169685  71.6780286
   2.6153918  91.1614770  71.4713908   0.5349067 102.6242483  65.2435527
   1.0867375 102.7874105  66.0084612   0.8755261 103.2146921  64.5715552
   5.3859942  97.4503741  71.0984181   5.9299846  98.0633699  70.6039136
   4.8046787  98.0083319  71.6151194   3.6717455 100.5724459  62.2299209
   3.5468594  99.7714199  61.7210155   4.3296546 101.0670652  61.7413179
   5.7352363  98.3733479  63.8578759   4.7882699  98.2538830  63.7857086
   6.0835136  97.4855977  63.9405021   2.7398796  98.1686195  60.0583111
   2.5923759  97.2402902  60.2390681   3.5652290  98.1906286  59.5740187
   6.3432918  98.9914754  61.1447984   7.2679466  98.7857615  61.0072435
   6.1748222  98.7431155  62.0537326   2.7360311  86.0224033  55.0515229
   2.9523925  86.9048671  54.7504057   2.2554378  85.6310246  54.3220871
   1.1882046  86.4049634  63.7219990   0.9299823  87.3266705  63.7204321
   0.6567086  86.0080069  64.4120454   6.1328234  99.5100421  56.5010076
   6.3065112  98.9446844  55.7483928   6.6257126 100.3101316  56.3189566
   1.6084001  82.5381585  60.0821153   1.6305698  82.6020918  59.1273132
   2.0252060  81.6986093  60.2761659  11.9867626  92.2736844  58.1200375
  12.4298772  91.5244169  57.7219499  11.1094136  92.2646981  57.7374107
   7.1203407  98.8267186  53.6006974   7.8154312  99.4473878  53.8194288
   7.4626557  97.9762537  53.8759352   9.0194830  96.2766891  55.1294305
   9.5446154  96.6154164  54.4043625   8.9317183  95.3413906  54.9457439
   0.6814879 100.1900965  67.2584181   0.9902005  99.9450112  68.1306881
   1.4790361 100.3947603  66.7703051   8.7088736  96.9099795  70.4345503
   7.9184280  96.8923934  69.8950002   8.4722091  97.4488089  71.1894539
   8.8286611  93.7592261  67.7478231   8.8784616  93.5942269  68.6893754
   8.7200534  92.8919520  67.3576112   6.1190374  89.7423189  69.0637538
   7.0200236  89.6029654  68.7721536   6.1938348  89.9077644  70.0035715
  10.3304808  96.1789203  67.9920253  10.0389616  96.5419183  68.8283714
   9.7176939  95.4656211  67.8133585  11.5300490  93.7442082  60.5122823
  12.3647382  94.1831887  60.6760383  11.6659619  93.2680736  59.6931069
   8.5791996  91.3021817  66.4600311   9.0546118  91.4949464  65.6519162
   7.6557562  91.3581003  66.2143694   3.1572213  83.3369661  65.4256145
   3.6754157  84.0730688  65.1002633   2.8027345  83.6433654  66.2602904
   3.4084807  79.7569943  60.9457041   3.6886561  79.0893132  61.5717468
   4.1935414  79.9499039  60.4331705   1.2118275  98.9328937  52.5082067
   0.6392242  99.5519124  52.0552539   1.7851069  99.4828299  53.0421989
   7.2793665  88.1787577  64.6928616   8.2311088  88.2785675  64.7140840
   7.1097116  87.3865846  65.2026701   5.3008045  85.2643161  64.8788017
   4.7057977  85.5448173  64.1834506   5.0157741  85.7537062  65.6504758
   4.4315535  99.2166087  53.6390650   5.3646208  99.1511649  53.8423525
   4.3438748 100.0522354  53.1805182   7.0603552  98.5331958  50.5994597
   6.9817183  98.1991821  51.4930355   7.8813219  99.0253726  50.5986070
   9.7581743  91.3993697  63.8070916   9.7258063  90.4609698  63.9930600
  10.3682367  91.4777734  63.0736741   1.5965074  90.2689750  49.8498120
   2.5424179  90.1395958  49.9186538   1.2179319  89.5304412  50.3267548
   9.9076231  88.1904741  63.8529199   9.3915280  87.4063197  63.6659128
  10.7916180  87.8623457  64.0175719   7.5686958  81.9345756  59.8125012
   7.3711780  81.6260844  60.6968344   8.1786664  82.6607395  59.9422942
  15.5758293  92.4609704  62.9476953  16.3061681  92.1994992  63.5084656
  14.9665238  91.7238426  62.9879021  13.6573590  90.6017567  63.5451404
  12.9306754  90.4673531  62.9367895  13.2420877  90.9094395  64.3508122
   1.4803766  94.3207496  71.3098777   2.4006776  94.4986095  71.5038823
   1.4453349  93.3763542  71.1578476   1.3970057  82.7376616  55.9397246
   0.5870785  82.3923701  56.3152493   2.0854474  82.4284160  56.5284858
   3.3260605  81.8154663  57.5621543   3.8791644  82.2350116  58.2211566
   3.5630691  80.8890411  57.6044499   6.7039412  83.9255188  57.0700207
   6.1238081  84.5839992  56.6878260   6.4375345  83.1032533  56.6587625
   5.1542978  83.3260246  59.2721528   5.6542757  83.4376780  58.4635847
   5.7978586  83.0221299  59.9122336   5.4864290  86.0855279  56.1256556
   4.5990145  86.3704929  55.9076750   5.9018279  85.9249042  55.2783833
   8.8378826  86.1101800  59.8410895   9.6139216  86.5998252  60.1135512
   8.1126960  86.5359854  60.2982764  11.2751385  86.8229419  60.8984835
  11.8695876  86.5825155  60.1878144  11.3477969  86.1036549  61.5258372
   4.6307504  95.8499953  50.2204576   5.3343354  96.0549956  50.8362231
   3.9070152  96.4176715  50.4853659   5.4605314  91.6009814  56.3406846
   5.4040515  92.0578366  55.5014478   6.0133656  90.8400499  56.1629689
   9.2710120  87.3899546  57.1656965   9.0147054  86.9896182  57.9965173
   8.6462988  88.1043340  57.0407104  13.5822458  90.1295620  59.6728257
  13.0222016  90.1988809  60.4459819  12.9765961  89.9536604  58.9527753
   6.5394201  96.2882482  52.2703036   7.3739805  95.8563681  52.0880510
   6.3778544  96.1164496  53.1979930   6.1940093  92.7914596  53.6359375
   6.1388897  92.6258867  52.6947819   5.5686148  93.4990629  53.7921565
   3.5086000  95.0963508  72.9612938   4.3777160  95.2704160  72.5999573
   3.0292752  95.9157924  72.8388667   3.3188338  78.8865481  57.4690630
   2.5520734  78.3323968  57.6147312   3.7299043  78.9587350  58.3304782
  15.1678476 106.8052134  62.3658212  15.8056886 106.6858881  61.6621552
  15.0499319 107.7532977  62.4246165  11.9768182 106.7579562  62.3019737
  11.6386694 106.6420626  61.4140272  12.8457951 106.3570727  62.2820743
  12.4587965 107.9114413  68.2605943  12.4476606 107.5167212  67.3886446
  12.6208605 107.1780486  68.8539714   9.6776462 105.5267809  51.6336677
   9.9301982 105.0049330  50.8720140   8.7401021 105.3633954  51.7363361
  14.7219745 104.5303587  59.4411420  15.5082834 104.1123011  59.0901837
  14.9858449 105.4349680  59.6093069  20.1228172 104.4678821  60.3444399
  20.8553344 103.8978037  60.5782228  19.3667527 104.0800421  60.7850905
  11.7404291 106.8906062  57.5407741  11.3762499 106.3636683  58.2520663
  12.5971407 106.5004531  57.3674227  17.6453592  98.1800395  64.8039008
  17.3136917  99.0495806  64.5800223  17.0499205  97.8636679  65.4833038
  11.3809778 101.9195962  52.5369090  11.5484181 102.7876198  52.9039561
  11.1906947 102.0823243  51.6130379  17.5382255 102.8995481  61.8832358
  16.6299133 102.8310889  61.5891119  17.4869851 103.3767426  62.7114183
  11.3598999 104.3753619  53.5215757  11.2398624 104.8210670  54.3601237
  10.6651588 104.7238937  52.9629295  11.6123121 104.3185126  69.8267255
  10.8356455 104.8779047  69.8170120  12.2513684 104.8041909  70.3482125
  19.4043902 101.1011919  63.6610232  18.7618282 101.3944452  63.0150026
  18.8998830 100.9864840  64.4663428  17.0584065 104.8475092  54.3496091
  17.9701922 105.0802479  54.1743788  16.5493712 105.4312137  53.7871169
  11.6955903 104.2072327  65.3590940  12.5417098 104.6311741  65.5025589
  11.6354541 103.5505951  66.0529503  14.8455348 101.8676695  67.0172114
  14.6016280 102.6218756  66.4806390  15.1215279 102.2462043  67.8519361
  16.7993811 108.4115308  65.6949380  17.0110706 109.0547068  65.0183761
  16.7523559 107.5777624  65.2271310  14.4020040 101.0233128  62.5985952
  13.5404519 101.3214382  62.8902689  14.4282475 101.2403527  61.6666984
  10.1550496 105.6898471  55.8149322  10.8574539 106.1419515  56.2823249
   9.8231124 105.0482290  56.4429216   8.6030857 104.2810228  70.1900532
   7.9729518 104.9626509  70.4235929   8.4966945 104.1693310  69.2453670
   3.8975830 103.9482024  61.1166456   3.1074884 104.2039553  60.6406567
   4.3887077 104.7630362  61.2218497   5.8490575 104.3126603  58.0749933
   5.0521738 104.4245298  58.5933428   5.6216167 104.6513255  57.2090823
  26.0045632 107.6326012  60.2156708  25.2509341 107.0633410  60.0600713
  26.1393173 107.5988676  61.1627343   7.8811600  98.5830994  72.5525783
   7.4878545  98.0297192  73.2273427   8.6977740  98.8941572  72.9432300
  10.7979561  99.9988873  70.1446039  11.5389274 100.5996026  70.0650502
  11.0297484  99.2566511  69.5864082  14.7436724  96.0269976  64.4210321
  14.4000993  96.9171618  64.3449432  15.1115686  95.8371633  63.5579906
  14.7087007 106.0178587  52.9282756  14.1933630 106.7883192  53.1671144
  14.4364315 105.3443723  53.5515818  12.2934118 100.8628288  57.9867995
  11.4375714 100.4735138  57.8073633  12.7061069 100.9420249  57.1267780
  13.8233264  98.3974631  62.3859554  13.3198060  98.3604766  61.5727360
  14.1163871  99.3067374  62.4456211  10.0676150  98.4813361  61.3925736
  10.9329147  98.2856169  61.0331626  10.1353659  98.2523712  62.3195093
  19.6821281 108.7710942  54.8635930  18.9050723 108.4322101  54.4191092
  20.3612762 108.7763565  54.1890895  14.4973310 103.8905679  54.7542537
  14.1923445 104.2051828  55.6052681  15.4503752 103.9687099  54.7969870
  17.9212588 108.2444923  61.5202538  17.2636262 108.9344184  61.6082666
  18.7252987 108.6341355  61.8636524   7.6738469 100.7115569  58.7642103
   8.2482221 100.4890750  58.0315296   8.2609452 100.7804263  59.5170704
  16.7318046 106.5989296  59.5706479  17.2449928 107.2319287  60.0728189
  17.3819270 105.9990491  59.2049839   8.0008056 102.7420030  52.7837988
   7.1645369 103.0794716  53.1047263   7.8612826 102.6069009  51.8465125
   9.9761137  97.5856818  57.4917172   9.3225549  97.2705835  56.8673787
   9.9341611  96.9632558  58.2176995  13.2098877 104.0738751  61.8164820
  12.2921439 104.2953698  61.6586508  13.6259021 104.1485062  60.9576527
  13.9933925 105.4730167  56.9467500  14.7405744 105.9851564  56.6374622
  14.2625515 105.1514219  57.8071894  16.4412762 102.5087283  58.9286290
  15.7035519 101.9964669  59.2596532  16.6939536 102.0687665  58.1169566
  16.5424389  95.2863535  59.5228059  16.8483266  94.4260898  59.2353974
  17.2676994  95.8781155  59.3227053  10.8145469 105.5817328  60.0304250
  10.8694079 104.6291164  59.9546726  10.0036671 105.7376767  60.5145548
   8.7537829 104.1994388  57.7894629   7.9405695 104.4988558  58.1959821
   9.2496823 103.8050077  58.5069111  14.3512041 104.6636212  66.6209523
  14.7061429 104.8907685  67.4803988  14.9984172 104.9954589  65.9986778
  20.0809778 107.7854648  57.3258852  19.9427676 107.9756244  56.3980041
  19.7245997 108.5474031  57.7826903   8.2451904 101.7712743  63.4055864
   8.8851283 101.6301502  62.7078827   7.4129434 101.4847257  63.0294466
  20.1079157 109.8531175  62.3370123  20.5415664 109.7606464  63.1853177
  20.8210738 109.8288676  61.6990139   5.3294971 105.2158256  55.5950609
   4.3992559 105.1542711  55.8120571   5.4252443 104.6934208  54.7987250
   5.2480520 101.7413068  58.1828851   5.5087338 102.6558402  58.0738011
   6.0697693 101.2737511  58.3325463   6.7205446 103.1550826  65.3527675
   7.3928499 102.9468188  64.7040324   5.8935232 102.9572912  64.9132907
  20.9694707 109.8954876  64.8703009  21.1630597 110.8000686  65.1162284
  20.8695325 109.4362295  65.7041594  12.6231018  99.7812766  67.3693336
  11.9758933 100.4802716  67.2757812  13.3932033 100.2148910  67.7369584
  12.7995152 107.6193531  65.4290156  13.7287212 107.7704691  65.2559123
  12.3786182 107.7077552  64.5738802   9.7515244 106.1413388  65.6013792
  10.4614862 105.5006580  65.5600410   9.7084552 106.3926283  66.5239973
   8.4644178 103.1278606  67.4209431   7.9281535 102.6769344  68.0731028
   7.8760886 103.2624515  66.6779896   7.8746437 102.5867257  49.9835895
   6.9975903 102.4656058  49.6198142   8.3504190 101.7953335  49.7314784
   4.1983299 102.2634613  64.5062426   4.1141488 101.6560283  63.7712836
   3.3766005 102.7543632  64.5071922  14.3707013 100.7488177  59.8732621
  14.8675712  99.9958139  59.5533691  13.5993994 100.7852494  59.3075830
  22.2236770 106.4528542  61.5150912  22.2126646 107.3353258  61.1444845
  21.3554150 106.1000093  61.3205449  10.9541981 102.8905560  59.6004305
  10.5839769 102.3376600  60.2885211  11.4501074 102.2863693  59.0479306
  18.8409345 105.3477183  57.9821078  19.3069797 106.1805175  57.9081381
  19.2916845 104.8822165  58.6866337  16.8126007  97.7157770  62.0211980
  15.8989087  97.9461997  62.1894187  17.2419109  97.7996214  62.8726012
  16.5832466 105.9047662  64.5211874  15.9303916 106.1523570  63.8664327
  16.9612846 105.0911801  64.1874351  12.6320039 106.6467473  71.0077911
  11.9560676 106.5461603  71.6780286  13.4547673 106.4906687  71.4713908
   6.3507315 100.3009551  65.8457412   6.4148642 101.1624382  65.4334809
   6.2874435  99.6883552  65.1129770   5.8259588 102.3732683  69.4930446
   6.4531626 101.9909761  70.1067970   4.9687506 102.1546885  69.8586138
   2.6025130 104.1809112  55.4248801   2.8978571 103.2719791  55.3715854
   1.7013166 104.1596852  55.1029803   6.1319377 102.2565109  61.4076349
   5.4105963 102.8701077  61.2683823   6.9212633 102.7922874  61.3292995
   8.9345691  99.5919535  67.6817001   9.4580093  99.8381832  68.4443310
   8.7158024 100.4239570  67.2620138   4.3312972 101.8623210  55.5488126
   4.0025678 100.9820589  55.3663232   4.6852343 101.8070879  56.4364515
   7.4454795 102.1496180  55.9163603   7.7850868 102.6782101  55.1942212
   7.8926916 102.4876586  56.6922170  10.1398236 100.5333231  65.3666672
   9.7995056  99.7341044  65.7687351   9.4337242 100.8334941  64.7943505
  10.7914708  97.6182543  63.8193995  11.6140777  97.1443021  63.6972885
  11.0352771  98.3973027  64.3192681   9.4322942 100.6470801  54.1156896
  10.1531305 101.0252054  53.6120613   8.8088246 101.3659678  54.2191874
  13.5754065 101.3515950  55.0515229  13.7917680 102.2340588  54.7504057
  13.0948132 100.9602164  54.3220871   8.3153287 104.3101664  61.6285973
   8.1697867 104.6241967  62.5210255   7.8378490 104.9286564  61.0756872
  10.1749669 101.3004212  61.6766863  10.1611238 100.4045305  61.3399161
  10.8922098 101.3074875  62.3105149  12.0275800 101.7341552  63.7219990
  11.7693578 102.6558622  63.7204321  11.4960840 101.3371986  64.4120454
   9.5786565 100.1818592  56.9454433   9.7002477  99.2535238  57.1445320
   9.2888608 100.1957278  56.0332748  12.4477756  97.8673502  60.0821153
  12.4699453  97.9312835  59.1273132  12.8645815  97.0278011  60.2761659
  22.8261380 107.6028762  58.1200375  23.2692526 106.8536087  57.7219499
  21.9487890 107.5938898  57.7374107   9.0627645 101.6950589  71.1544365
   9.1115800 102.5712712  70.7722135   9.6050159 101.1527982  70.5816009
  19.6680366 109.0884179  67.7478231  19.7178371 108.9234186  68.6893754
  19.5594289 108.2211438  67.3576112  16.9584128 105.0715107  69.0637538
  17.8593991 104.9321572  68.7721536  17.0332103 105.2369562  70.0035715
  11.2926933 102.4481962  67.9090724  10.4230243 102.7415528  67.6373313
  11.5286414 103.0322407  68.6297988  22.3694245 109.0734000  60.5122823
  23.2041136 109.5123804  60.6760383  22.5053374 108.5972653  59.6931069
  19.4185751 106.6313735  66.4600311  19.8939872 106.8241381  65.6519162
  18.4951316 106.6872921  66.2143694  13.9965967  98.6661579  65.4256145
  14.5147911  99.4022605  65.1002633  13.6421100  98.9725572  66.2602904
   5.5764905 103.5266260  53.5417550   4.8834150 103.6010615  52.8857586
   5.3316657 102.7626603  54.0639067  14.2478561  95.0861861  60.9457041
  14.5280315  94.4185050  61.5717468  15.0329168  95.2790957  60.4331705
  18.1187420 103.5079495  64.6928616  19.0704843 103.6077593  64.7140840
  17.9490870 102.7157764  65.2026701  16.1401799 100.5935078  64.8788017
  15.5451731 100.8740091  64.1834506  15.8551496 101.0828979  65.6504758
  20.5975497 106.7285615  63.8070916  20.5651818 105.7901616  63.9930600
  21.2076121 106.8069651  63.0736741  12.4358828 105.5981668  49.8498120
  13.3817933 105.4687876  49.9186538  12.0573073 104.8596330  50.3267548
  20.7469986 103.5196658  63.8529199  20.2309035 102.7355115  63.6659128
  21.6309934 103.1915375  64.0175719  18.4080713  97.2637674  59.8125012
  18.2105534  96.9552762  60.6968344  19.0180418  97.9899313  59.9422942
  26.4152047 107.7901622  62.9476953  27.1455436 107.5286910  63.5084656
  25.8058993 107.0530344  62.9879021  24.4967344 105.9309484  63.5451404
  23.7700508 105.7965449  62.9367895  24.0814631 106.2386313  64.3508122
  10.6201745 103.5231644  49.7853005   9.7133201 103.2264757  49.8615719
  10.8977726 103.2261462  48.9187291  12.2363811  98.0668534  55.9397246
  11.4264540  97.7215619  56.3152493  12.9248228  97.7576078  56.5284858
  14.1654359  97.1446581  57.5621543  14.7185398  97.5642034  58.2211566
  14.4024446  96.2182329  57.6044499  10.1887459 103.1333654  73.3424307
  10.0884186 104.0828011  73.2736398   9.9709001 102.8051893  72.4700377
   9.3900530 100.3818579  49.9264984  10.2519694 100.7073478  50.1860802
   9.5750874  99.5950075  49.4138050  17.5433167  99.2547106  57.0700207
  16.9631836  99.9131910  56.6878260  17.2769099  98.4324450  56.6587625
  15.9936733  98.6552164  59.2721528  16.4936511  98.7668698  58.4635847
  16.6372341  98.3513216  59.9122336  16.3258045 101.4147196  56.1256556
  15.4383900 101.6996847  55.9076750  16.7412034 101.2540960  55.2783833
  19.6772581 101.4393717  59.8410895  20.4532971 101.9290170  60.1135512
  18.9520715 101.8651771  60.2982764  22.1145139 102.1521336  60.8984835
  22.7089630 101.9117072  60.1878144  22.1871723 101.4328467  61.5258372
  16.2999068 106.9301732  56.3406846  16.2434270 107.3870284  55.5014478
  16.8527411 106.1692417  56.1629689  20.1103874 102.7191464  57.1656965
  19.8540808 102.3188100  57.9965173  19.4856742 103.4335258  57.0407104
  24.4216212 105.4587537  59.6728257  23.8615770 105.5280727  60.4459819
  23.8159715 105.2828522  58.9527753  17.0333848 108.1206513  53.6359375
  16.9782651 107.9550785  52.6947819  16.4079903 108.8282546  53.7921565
   1.8226363 103.3574578  67.4620797   2.4685226 102.8473532  67.9508022
   1.6143514 104.0943259  68.0364222  10.3429973  97.6214622  53.2144693
  10.3308643  98.5656462  53.3712964  11.2353395  97.4384768  52.9204155
  14.1582093  94.2157399  57.4690630  13.3914488  93.6615886  57.6147312
  14.5692798  94.2879268  58.3304782   6.1623854 100.5042195  71.5595811
   7.0255315 100.1479000  71.7699136   5.5889264 100.1656090  72.2471216
  25.5830478 111.3561894  64.4210321  25.2394748 112.2463535  64.3449432
  25.9509441 111.1663551  63.5579906  27.3818144 110.6155453  59.5228059
  27.6877021 109.7552816  59.2353974  28.1070749 111.2073073  59.3227053
  25.0872316 110.4153779  60.9457041  25.3674070 109.7476968  61.5717468
  25.8722923 110.6082874  60.4331705  29.2474467 112.5929591  59.8125012
  29.0499288 112.2844680  60.6968344  29.8574173 113.3191230  59.9422942
  24.9975847 109.5449317  57.4690630  24.2308243 108.9907803  57.6147312
  25.4086552 109.6171185  58.3304782   4.3258125  53.9804299  46.9402015
   3.5721833  53.4111697  46.7846019   4.4605666  53.9466963  47.8872650
   0.6906737  55.4212287  47.2368130   1.5253628  55.8602091  47.4005690
   0.8265866  54.9450941  46.4176375   4.7364540  54.1379909  49.6722259
   5.4667928  53.8765197  50.2329963   4.1271485  53.4008631  49.7124327
   2.8179837  52.2787771  50.2696711   2.0913000  52.1443736  49.6613202
   2.4027124  52.5864600  51.0753429   2.7428704  51.8065824  46.3973563
   2.1828262  51.8759014  47.1705125   2.1372208  51.6306809  45.6773060
   4.3284723  68.4822338  49.0903519   4.9663133  68.3629086  48.3866859
   4.2105566  69.4303182  49.1491471   1.1374429  68.4349767  49.0265044
   0.7992941  68.3190831  48.1385579   2.0064197  68.0340932  49.0066050
   1.6194212  69.5884618  54.9851249   1.6082853  69.1937417  54.1131753
   1.7814852  68.8550691  55.5785021   2.5760804  73.9556211  40.3276400
   1.9248783  74.5410291  39.9410413   3.3705166  74.4862406  40.3871437
   3.8825991  66.2073792  46.1656727   4.6689081  65.7893215  45.8147144
   4.1464696  67.1119884  46.3338375   4.0536069  71.6446643  40.8645384
   3.4181902  71.7181269  41.5766289   3.7233475  72.2340241  40.1864463
   9.2834418  66.1449025  47.0689706  10.0159590  65.5748242  47.3027535
   8.5273774  65.7570626  47.5096211   0.9010538  68.5676267  44.2653048
   0.5368745  68.0406888  44.9765969   1.7577654  68.1774736  44.0919533
   6.8059839  59.8570600  51.5284314   6.4743164  60.7266011  51.3045529
   6.2105452  59.5406884  52.2078345   3.2991358  72.0583146  50.9280227
   2.9992081  72.9608184  50.8196034   2.9542418  71.7915329  51.7801380
   6.6988502  64.5765686  48.6077664   5.7905379  64.5081094  48.3136425
   6.6476098  65.0537631  49.4359490   8.5650149  62.7782124  50.3855538
   7.9224529  63.0714657  49.7395333   8.0605077  62.6635044  51.1908735
   6.2190312  66.5245297  41.0741397   7.1308168  66.7572684  40.8989095
   5.7099959  67.1082342  40.5116476   4.5031080  70.9469925  54.7102690
   4.9114436  70.5052336  53.9657322   3.7808341  70.3722553  54.9636883
   0.8562150  65.8842532  52.0836247   1.7023345  66.3081946  52.2270896
   0.7960788  65.2276156  52.7774810   4.8259894  71.5071116  48.4654979
   4.1968757  71.6716830  47.7631047   4.4385557  71.9212725  49.2365943
   8.7049126  72.4425554  45.8199343   8.0200165  72.8224455  45.2696376
   8.7892976  73.0520880  46.5531290   4.0061595  63.5446900  53.7417421
   3.7622527  64.2988961  53.2051696   4.2821526  63.9232248  54.5764668
   5.9600058  70.0885513  52.4194686   6.1716953  70.7317273  51.7429067
   5.9129806  69.2547829  51.9516616   3.5626287  62.7003333  49.3231258
   2.7010766  62.9984587  49.6147996   3.5888722  62.9173732  48.3912291
   7.0745886  72.9657468  50.5917044   7.8963330  72.5637655  50.3099725
   7.0708289  72.8625702  51.5433159  15.1651879  69.3096217  46.9402015
  14.4115587  68.7403615  46.7846019  15.2999420  69.2758881  47.8872650
   2.1818983  74.8033185  56.7457076   1.7382838  74.0169564  56.4277981
   2.8436197  74.9912336  56.0800967   4.2800221  75.0835985  54.7738478
   4.2618697  75.9044866  54.2818747   5.2020142  74.9590061  54.9988619
   3.9042971  57.7040181  51.1455628   3.5607240  58.5941822  51.0694738
   4.2721933  57.5141838  50.2825213   3.8693253  67.6948792  39.6528063
   3.3539877  68.4653397  39.8916450   3.5970562  67.0213928  40.2761124
   1.4540364  62.5398493  44.7113301   0.5981961  62.1505343  44.5318940
   1.8667316  62.6190453  43.8513087   2.9839511  60.0744836  49.1104861
   2.4804307  60.0374971  48.2972666   3.2770118  60.9837579  49.1701518
   8.8427527  70.4481147  41.5881236   8.0656970  70.1092306  41.1436398
   9.5219008  70.4533770  40.9136201   3.6579557  65.5675884  41.4787844
   3.3529692  65.8822033  42.3297987   4.6109999  65.6457304  41.5215177
   2.1025988  71.7266107  43.1280798   1.5747350  70.9918867  42.8154036
   1.6013491  72.5040784  42.8820766   7.0818834  69.9215128  48.2447844
   6.4242509  70.6114389  48.3327973   7.8859234  70.3111560  48.5881831
   5.8924293  68.2759500  46.2951786   6.4056175  68.9089492  46.7973496
   6.5425517  67.6760696  45.9295146   3.1546667  78.2543825  39.0512457
   2.4808366  78.5575521  39.6597415   3.5412489  79.0572905  38.7017914
   2.3705124  65.7508956  48.5410127   1.4527685  65.9723903  48.3831815
   2.7865268  65.8255266  47.6821834   3.1540172  67.1500372  43.6712807
   3.9011991  67.6621769  43.3619929   3.4231761  66.8284424  44.5317200
   1.4266822  69.6458912  40.6539761   0.5178041  69.3617945  40.7512231
   1.4561906  70.0657991  39.7943068   6.6586089  73.2565502  44.4230929
   6.2048416  72.4156412  44.4796119   6.0280056  73.8926900  44.7605709
   5.6019009  64.1857488  45.6531596   4.8641766  63.6734874  45.9841839
   5.8545782  63.7457870  44.8414873   5.1019029  75.0941999  45.3580747
   5.3942003  75.6547056  44.6393113   5.6117649  75.3870560  46.1133906
   5.7030636  56.9633740  46.2473365   6.0089513  56.1031103  45.9599281
   6.4283241  57.5551360  46.0472359   1.1242910  71.1867656  37.9927840
   0.6862340  70.4703515  37.5333477   1.8653351  71.4143771  37.4312931
   3.5118288  66.3406417  53.3454829   3.8667675  66.5677890  54.2049295
   4.1590419  66.6724794  52.7232085   9.2416025  69.4624853  44.0504158
   9.1033923  69.6526449  43.1225348   8.8852243  70.2244236  44.5072209
   9.2685404  71.5301380  49.0615430   9.7021911  71.4376669  49.9098484
   9.9816985  71.5058881  48.4235446   3.0013299  75.1303474  50.5948530
   3.0550321  75.6994411  51.3626246   2.1328080  75.3005359  50.2302568
  10.1300954  71.5725081  51.5948315  10.3236844  72.4770891  51.8407590
  10.0301572  71.1132500  52.4286900   1.7837264  61.4582971  54.0938643
   1.1365179  62.1572921  54.0003119   2.5538280  61.8919115  54.4614891
   5.1916062  71.7231824  57.1689196   5.0401569  71.4942375  56.2519280
   5.1820742  72.6802425  57.1820541   1.9601399  69.2963736  52.1535462
   2.8893459  69.4474896  51.9804430   1.5392429  69.3847757  51.2984109
   1.3537883  78.4223497  41.2659536   1.5289638  77.9511540  42.0805159
   0.6670671  79.0489263  41.4940797   2.3094946  72.6996003  47.3122838
   1.9744778  72.6596773  48.2080488   1.8098891  72.0340719  46.8393248
   5.2454137  70.0452038  37.5859897   4.6283308  69.3198866  37.4892950
   4.7770626  70.8061398  37.2426972   6.9008269  74.7550946  55.2465678
   6.8420815  74.0710166  54.5796261   7.3027787  75.4969936  54.7946304
   6.9025676  72.7190530  53.4779657   6.0152455  72.3816452  53.6006056
   7.4724227  71.9873561  53.7148423   3.5313259  62.4258382  46.5977928
   4.0281959  61.6728344  46.2778998   2.7600241  62.4622699  46.0321137
  11.3843017  68.1298747  48.2396219  11.3732893  69.0123463  47.8690152
  10.5160396  67.7770298  48.0450756   2.8925513  77.2778816  52.5999059
   3.6053485  77.9126281  52.5274961   2.4015542  77.3742682  51.7839061
   4.6143040  71.1830069  44.1716351   3.6799319  71.3031532  44.0021055
   4.7919709  70.2802536  43.9076361   8.0015591  67.0247388  44.7066385
   8.4676044  67.8575380  44.6326688   8.4523092  66.5592370  45.4111644
   6.0691823  73.3691210  41.7052537   6.3451666  73.2547804  42.6146411
   5.1996321  72.9708695  41.6664710   5.9732254  59.3927975  48.7457286
   5.0595334  59.6232202  48.9139493   6.4025356  59.4766419  49.5971319
   5.7438713  67.5817867  51.2457180   5.0910163  67.8293775  50.5909633
   6.1219093  66.7682006  50.9119658   2.7045887  77.6177560  45.3485351
   2.8868281  76.7999216  45.8113103   3.5278873  77.8345253  44.9110241
   3.0388052  76.5445746  42.6100399   3.5675819  76.0338200  41.9970561
   3.3016272  76.2288276  43.4745932   1.7926286  68.3237678  57.7323218
   1.1166923  68.2231808  58.4025593   2.6153920  68.1676892  58.1959215
   0.5349069  79.6304606  51.9680834   1.0867377  79.7936227  52.7329919
   0.8755262  80.2209044  51.2960858   5.3859943  74.4565863  57.8229488
   5.9299847  75.0695822  57.3284443   4.8046788  75.0145442  58.3396501
   3.6717456  77.5786581  48.9544516   3.5468595  76.7776321  48.4455461
   4.3296547  78.0732775  48.4658486   5.7352364  75.3795601  50.5824066
   4.7882700  75.2600953  50.5102392   6.0835137  74.4918099  50.6650327
   2.7398798  75.1748318  46.7828418   2.5923760  74.2465025  46.9635988
   3.5652291  75.1968408  46.2985493   6.3432919  75.9976876  47.8693291
   7.2679467  75.7919738  47.7317742   6.1748223  75.7493278  48.7782632
   2.7360312  63.0286155  41.7760535   2.9523926  63.9110793  41.4749363
   2.2554379  62.6372369  41.0466177   1.1882047  63.4111757  50.4465297
   0.9299825  64.3328827  50.4449627   0.6567087  63.0142191  51.1365761
   6.1328236  76.5162544  43.2255382   6.3065113  75.9508966  42.4729235
   6.6257127  77.3163439  43.0434872   1.6084002  59.5443707  46.8066459
   1.6305699  59.6083040  45.8518439   2.0252061  58.7048216  47.0006966
  11.9867627  69.2798967  44.8445682  12.4298773  68.5306292  44.4464805
  11.1094137  69.2709103  44.4619414   7.1203408  75.8329308  40.3252280
   7.8154313  76.4536001  40.5439595   7.4626558  74.9824659  40.6004658
   9.0194831  73.2829014  41.8539611   9.5446155  73.6216287  41.1288931
   8.9317184  72.3476029  41.6702746   0.6814880  77.1963087  53.9829488
   0.9902006  76.9512234  54.8552187   1.4790362  77.4009726  53.4948358
   8.7088737  73.9161917  57.1590809   7.9184281  73.8986056  56.6195309
   8.4722092  74.4550211  57.9139846   8.8286612  70.7654384  54.4723538
   8.8784617  70.6004391  55.4139061   8.7200536  69.8981643  54.0821419
   6.1190375  66.7485312  55.7882844   7.0200238  66.6091777  55.4966842
   6.1938349  66.9139767  56.7281022  10.3304809  73.1851325  54.7165559
  10.0389618  73.5481306  55.5529020   9.7176940  72.4718334  54.5378891
  11.5300492  70.7504205  47.2368130  12.3647383  71.1894009  47.4005690
  11.6659620  70.2742858  46.4176375   8.5791997  68.3083940  53.1845617
   9.0546119  68.5011586  52.3764469   7.6557563  68.3643126  52.9389001
   3.1572214  60.3431783  52.1501451   3.6754158  61.0792810  51.8247940
   2.8027347  60.6495777  52.9848210   3.4084808  56.7632066  47.6702348
   3.6886562  56.0955255  48.2962774   4.1935415  56.9561162  47.1577012
   1.2118277  75.9391060  39.2327374   0.6392244  76.5581247  38.7797846
   1.7851070  76.4890422  39.7667296   7.2793666  65.1849700  51.4173923
   8.2311089  65.2847798  51.4386147   7.1097117  64.3927969  51.9272007
   5.3008046  62.2705283  51.6033324   4.7057978  62.5510296  50.9079812
   5.0157743  62.7599184  52.3750065   4.4315536  76.2228210  40.3635956
   5.3646210  76.1573772  40.5668832   4.3438749  77.0584477  39.9050489
   7.0603553  75.5394080  37.3239904   6.9817185  75.2053944  38.2175662
   7.8813220  76.0315848  37.3231376   9.7581744  68.4055820  50.5316223
   9.7258064  67.4671820  50.7175906  10.3682368  68.4839856  49.7982047
   1.5965075  67.2751873  36.5743427   2.5424180  67.1458081  36.6431845
   1.2179320  66.5366535  37.0512855   9.9076233  65.1966863  50.5774506
   9.3915281  64.4125320  50.3904435  10.7916181  64.8685580  50.7421025
   7.5686960  58.9407879  46.5370318   7.3711781  58.6322967  47.4213650
   8.1786665  59.6669518  46.6668248  15.5758294  69.4671827  49.6722259
  16.3061683  69.2057115  50.2329963  14.9665240  68.7300548  49.7124327
  13.6573591  67.6079689  50.2696711  12.9306755  67.4735654  49.6613202
  13.2420878  67.9156518  51.0753429   1.4803768  71.3269619  58.0344084
   2.4006777  71.5048218  58.2284130   1.4453351  70.3825664  57.8823783
   1.3970058  59.7438739  42.6642553   0.5870786  59.3985824  43.0397799
   2.0854475  59.4346283  43.2530165   3.3260606  58.8216786  44.2866850
   3.8791645  59.2412239  44.9456873   3.5630693  57.8952534  44.3289806
   6.7039413  60.9317311  43.7945514   6.1238082  61.5902115  43.4123566
   6.4375346  60.1094655  43.3832931   5.1542980  60.3322368  45.9966834
   5.6542758  60.4438903  45.1881153   5.7978588  60.0283421  46.6367643
   5.4864291  63.0917401  42.8501862   4.5990146  63.3767052  42.6322057
   5.9018280  62.9311164  42.0029139   8.8378827  63.1163922  46.5656201
   9.6139218  63.6060375  46.8380818   8.1126962  63.5421976  47.0228071
  11.2751386  63.8291541  47.6230142  11.8695877  63.5887277  46.9123450
  11.3477970  63.1098672  48.2503678   4.6307505  72.8562076  36.9449882
   5.3343355  73.0612078  37.5607538   3.9070154  73.4238838  37.2098966
   5.4605315  68.6071937  43.0652152   5.4040517  69.0640488  42.2259785
   6.0133658  67.8462622  42.8874995   9.2710121  64.3961669  43.8902272
   9.0147055  63.9958305  44.7210480   8.6462989  65.1105463  43.7652411
  13.5822459  67.1357742  46.3973563  13.0222017  67.2050931  47.1705125
  12.9765962  66.9598727  45.6773060   6.5394202  73.2944605  38.9948342
   7.3739806  72.8625803  38.8125817   6.3778545  73.1226619  39.9225237
   6.1940094  69.7976718  40.3604682   6.1388898  69.6320990  39.4193126
   5.5686150  70.5052751  40.5166871   3.5086002  72.1025630  59.6858244
   4.3777161  72.2766282  59.3244879   3.0292753  72.9220047  59.5633974
   3.3188339  55.8927604  44.1935937   2.5520735  55.3386091  44.3392619
   3.7299044  55.9649473  45.0550088  15.1678477  83.8114256  49.0903519
  15.8056887  83.6921003  48.3866859  15.0499320  84.7595100  49.1491471
  11.9768184  83.7641684  49.0265044  11.6386695  83.6482749  48.1385579
  12.8457952  83.3632849  49.0066050   7.8354999  85.6177161  45.0161935
   7.2719864  85.5267098  44.2478222   7.7207394  84.7977065  45.4964427
  12.4587967  84.9176536  54.9851249  12.4476607  84.5229334  54.1131753
  12.6208606  84.1842609  55.5785021   5.3819431  87.1128352  47.8546155
   6.1740723  86.7719177  47.4392454   5.6216081  87.2223327  48.7748308
  13.4154558  89.2848128  40.3276400  12.7642538  89.8702209  39.9410413
  14.2098921  89.8154323  40.3871437   7.3410185  86.3737265  40.7263534
   8.1141061  85.8266253  40.5876410   7.6935584  87.2381515  40.9377995
   9.1795228  87.7013648  53.9330433   8.8885094  88.6059279  53.8177100
   9.8152212  87.7430175  54.6474503  10.1051435  85.0790496  50.5231793
  10.7015007  84.8546519  49.8088756  10.1626406  84.3375242  51.1257241
   9.6776463  82.5329932  38.3581984   9.9301984  82.0111453  37.5965447
   8.7401022  82.3696077  38.4608667  14.7219746  81.5365710  46.1656727
  15.5082835  81.1185133  45.8147144  14.9858450  82.4411802  46.3338375
  14.8929823  86.9738560  40.8645384  14.2575656  87.0473187  41.5766289
  14.5627230  87.5632159  40.1864463  20.1228173  81.4740943  47.0689706
  20.8553345  80.9040160  47.3027535  19.3667529  81.0862544  47.5096211
   9.3972752  84.4358038  40.5606359   9.2809010  83.7602941  41.2287443
   9.5075012  83.9490411  39.7438512  11.7404293  83.8968185  44.2653048
  11.3762500  83.3698806  44.9765969  12.5971409  83.5066654  44.0919533
  17.6453593  75.1862517  51.5284314  17.3136918  76.0557928  51.3045529
  17.0499207  74.8698801  52.2078345  11.3809780  78.9258084  39.2614397
  11.5484182  79.7938321  39.6284868  11.1906949  79.0885366  38.3375686
  14.1385113  87.3875063  50.9280227  13.8385836  88.2900102  50.8196034
  13.7936172  87.1207246  51.7801380   7.5897594  83.8388860  46.9616931
   6.6648091  83.7065074  47.1694623   7.8382008  84.6183079  47.4586874
  17.5382257  79.9057603  48.6077664  16.6299134  79.8373012  48.3136425
  17.4869852  80.3829548  49.4359490  11.3599001  81.3815742  40.2461063
  11.2398626  81.8272793  41.0846544  10.6651589  81.7301060  39.6874602
   4.9506405  83.4822134  47.7960720   5.0798787  83.7356613  48.7100132
   4.2703857  84.0749842  47.4765375   9.1205893  94.1519384  43.8951195
   9.0429922  95.1027209  43.9739675   8.5167536  93.8065256  44.5526121
  11.6123122  81.3247249  56.5512562  10.8356456  81.8841169  56.5415426
  12.2513685  81.8104032  57.0727432  19.4043903  78.1074042  50.3855538
  18.7618283  78.4006575  49.7395333  18.8998832  77.9926962  51.1908735
  17.0584067  81.8537215  41.0741397  17.9701923  82.0864602  40.8989095
  16.5493714  82.4374259  40.5116476   9.8669495  84.1332702  56.1130529
  10.6084179  84.6717746  55.8365352   9.1606480  84.7598991  56.2702080
  15.3424834  86.2761843  54.7102690  15.7508190  85.8344253  53.9657322
  14.6202096  85.7014470  54.9636883  11.6955904  81.2134450  52.0836247
  12.5417100  81.6373863  52.2270896  11.6354542  80.5568074  52.7774810
  15.6653649  86.8363033  48.4654979  15.0362511  87.0008748  47.7631047
  15.2779311  87.2504643  49.2365943  19.5442881  87.7717471  45.8199343
  18.8593919  88.1516373  45.2696376  19.6286730  88.3812798  46.5531290
  14.8455350  78.8738818  53.7417421  14.6016282  79.6280879  53.2051696
  15.1215280  79.2524166  54.5764668  16.7993812  85.4177430  52.4194686
  17.0110708  86.0609190  51.7429067  16.7523561  84.5839747  51.9516616
  14.4020041  78.0295251  49.3231258  13.5404520  78.3276505  49.6147996
  14.4282476  78.2465650  48.3912291  11.2181611  86.5737442  45.7305064
  11.6819956  86.8525145  44.9409686  10.9538409  85.6720886  45.5478155
   8.1105692  86.1208923  48.6684827   8.6807049  86.5496191  48.0302312
   8.7013804  85.8391508  49.3669013  10.1550497  82.6960594  42.5394629
  10.8574540  83.1481638  43.0068555   9.8231125  82.0544413  43.1674522
   8.6030858  81.2872351  56.9145839   7.9729519  81.9688631  57.1481235
   8.4966946  81.1755432  55.9698977   3.8975831  80.9544147  47.8411763
   3.1074885  81.2101675  47.3651873   4.3887078  81.7692484  47.9463803
  17.9139640  88.2949386  50.5917044  18.7357084  87.8929573  50.3099725
  17.9102043  88.1917620  51.5433159   5.8490576  81.3188726  44.7995239
   5.0521740  81.4307420  45.3178735   5.6216168  81.6575378  43.9336130
  11.6796244  87.8433429  52.7477754  11.7440676  88.3053836  53.5835926
  10.9707168  87.2130794  52.8760064   2.1813534  81.2074637  50.2726753
   2.4321572  82.0921647  50.5384329   2.7173082  81.0279239  49.5001845
  26.0045633  84.6388134  46.9402015  25.2509342  84.0695532  46.7846019
  26.1393175  84.6050799  47.8872650  11.3944262  89.5101537  42.6156734
  11.2589936  90.3553072  43.0441582  11.9354074  89.7120814  41.8522668
   7.8811601  75.5893116  59.2771090   7.4878547  75.0359315  59.9518734
   8.6977741  75.9003695  59.6677607   4.8473659  87.0276975  43.1884659
   5.3598179  87.8220225  43.3390224   5.4996372  86.3303265  43.1218261
   6.6568544  90.1442731  45.2707413   6.8335172  91.0660696  45.0828396
   7.4525377  89.8301150  45.7001792  10.7979562  77.0050996  56.8691346
  11.5389276  77.6058149  56.7895809  11.0297485  76.2628633  56.3109389
   5.9420900  82.1907363  55.1469576   5.8274415  81.2892620  55.4476675
   5.0865418  82.4371060  54.7954392  13.0212738  90.1325103  56.7457076
  12.5776592  89.3461482  56.4277981  13.6829951  90.3204254  56.0800967
   7.7799859  91.6620905  51.2717755   8.3307284  91.5337968  50.4994749
   6.9411335  91.9615794  50.9212648  15.1193976  90.4127903  54.7738478
  15.1012451  91.2336784  54.2818747  16.0413896  90.2881978  54.9988619
  11.5767030  87.9272032  55.6161986  12.1095367  87.1660321  55.3861294
  11.0481111  87.6345684  56.3586141  14.7436725  73.0332098  51.1455628
  14.4000994  73.9233740  51.0694738  15.1115688  72.8433756  50.2825213
   2.8122576  85.3565629  43.9644230   3.6497798  85.7662637  43.7477938
   2.9900843  84.4165071  43.9344424  14.7087008  83.0240710  39.6528063
  14.1933631  83.7945314  39.8916450  14.4364316  82.3505846  40.2761124
  12.2934119  77.8690410  44.7113301  11.4375715  77.4797261  44.5318940
  12.7061071  77.9482371  43.8513087  13.8233265  75.4036754  49.1104861
  13.3198061  75.3666889  48.2972666  14.1163872  76.3129496  49.1701518
  10.0676151  75.4875483  48.1171043  10.9329148  75.2918292  47.7576932
  10.1353660  75.2585835  49.0440400  19.6821282  85.7773064  41.5881236
  18.9050725  85.4384224  41.1436398  20.3612763  85.7825687  40.9136201
  14.4973311  80.8967802  41.4787844  14.1923447  81.2113951  42.3297987
  15.4503753  80.9749222  41.5215177  12.9419743  87.0558025  43.1280798
  12.4141104  86.3210785  42.8154036  12.4407246  87.8332701  42.8820766
  17.9212589  85.2507045  48.2447844  17.2636263  85.9406307  48.3327973
  18.7252988  85.6403477  48.5881831   7.6738470  77.7177691  45.4887410
   8.2482222  77.4952873  44.7560603   8.2609453  77.7866386  46.2416011
  16.7318048  83.6051418  46.2951786  17.2449929  84.2381410  46.7973496
  17.3819272  83.0052614  45.9295146   8.0008058  79.7482152  39.5083295
   7.1645370  80.0856839  39.8292570   7.8612827  79.6131132  38.5710432
   9.9761138  74.5918940  44.2162479   9.3225551  74.2767957  43.5919094
   9.9341612  73.9694681  44.9422302  11.0872343  84.8738235  36.1315771
  10.1799405  84.6427489  36.3306920  11.5843375  84.0775854  36.3189753
  13.9940422  93.5835742  39.0512457  13.3202121  93.8867439  39.6597415
  14.3806244  94.3864823  38.7017914  13.2098879  81.0800874  48.5410127
  12.2921440  81.3015821  48.3831815  13.6259022  81.1547184  47.6821834
  13.9933926  82.4792289  43.6712807  14.7405745  82.9913687  43.3619929
  14.2625516  82.1576342  44.5317200  12.2660576  84.9750830  40.6539761
  11.3571796  84.6909863  40.7512231  12.2955660  85.3949909  39.7943068
  17.4979844  88.5857420  44.4230929  17.0442171  87.7448329  44.4796119
  16.8673811  89.2218818  44.7605709  16.4412763  79.5149406  45.6531596
  15.7035520  79.0026792  45.9841839  16.6939537  79.0749787  44.8414873
  15.9412783  90.4233916  45.3580747  16.2335757  90.9838973  44.6393113
  16.4511404  90.7162477  46.1133906  16.5424391  72.2925658  46.2473365
  16.8483268  71.4323021  45.9599281  17.2676996  72.8843278  46.0472359
   2.8348747  82.6956344  44.6354963   2.6373147  82.1025705  43.9106030
   2.2795411  82.3908554  45.3530902  10.8145470  82.5879451  46.7549557
  10.8694080  81.6353287  46.6792033  10.0036673  82.7438890  47.2390855
  11.9636664  86.5159574  37.9927840  11.5256094  85.7995433  37.5333477
  12.7047105  86.7435689  37.4312931   8.7537830  81.2056510  44.5139935
   7.9405696  81.5050681  44.9205128   9.2496825  80.8112199  45.2314418
  10.9046408  91.2014267  46.4474200  10.8622587  91.4275114  45.5182732
  11.8209107  90.9677642  46.5960001  14.3512042  81.6698335  53.3454829
  14.7061430  81.8969808  54.2049295  14.9984173  82.0016712  52.7232085
  20.0809779  84.7916771  44.0504158  19.9427678  84.9818367  43.1225348
  19.7245998  85.5536154  44.5072209   8.2451905  78.7774866  50.1301170
   8.8851285  78.6363625  49.4324134   7.4129436  78.4909379  49.7539772
  20.1079159  86.8593298  49.0615430  20.5415665  86.7668587  49.9098484
  20.8210739  86.8350798  48.4235446   9.0212209  88.0777296  46.2436163
   9.8152808  87.5827617  46.0418738   8.3103901  87.5495160  45.8803868
  13.8407054  90.4595392  50.5948530  13.8944076  91.0286328  51.3626246
  12.9721835  90.6297277  50.2302568   5.3294973  82.2220378  42.3195916
   4.3992561  82.1604834  42.5365878   5.4252445  81.6996331  41.5232557
   5.2480522  78.7475191  44.9074157   5.5087339  79.6620524  44.7983318
   6.0697694  78.2799634  45.0570770   6.7205447  80.1612948  52.0772982
   7.3928500  79.9530310  51.4285631   5.8935233  79.9635034  51.6378214
  20.9694708  86.9016998  51.5948315  21.1630598  87.8062809  51.8407590
  20.8695326  86.4424418  52.4286900  12.6231019  76.7874889  54.0938643
  11.9758934  77.4864839  54.0003119  13.3932034  77.2211033  54.4614891
  16.0309817  87.0523741  57.1689196  15.8795323  86.8234293  56.2519280
  16.0214496  88.0094343  57.1820541  12.7995153  84.6255654  52.1535462
  13.7287213  84.7766814  51.9804430  12.3786183  84.7139675  51.2984109
  11.5983485  88.6506318  49.9234000  11.4594571  88.2825103  50.7959938
  10.8098081  89.1653958  49.7517958  12.1931637  93.7515415  41.2659536
  12.3683393  93.2803458  42.0805159  11.5064425  94.3781181  41.4940797
  13.1488700  88.0287921  47.3122838  12.8138533  87.9888691  48.2080488
  12.6492646  87.3632637  46.8393248   7.1232944  83.4355551  52.8375419
   6.9852742  82.7035790  53.4386958   8.0337868  83.3464451  52.5559607
  16.0847892  85.3743955  37.5859897  15.4677063  84.6490784  37.4892950
  15.6164380  86.1353316  37.2426972   9.7515245  83.1475510  52.3259099
  10.4614863  82.5068703  52.2845717   9.7084553  83.3988405  53.2485279
  17.7402024  90.0842864  55.2465678  17.6814570  89.4002084  54.5796261
  18.1421542  90.8261854  54.7946304   8.4644179  80.1340728  54.1454738
   7.9281536  79.6831467  54.7976334   7.8760887  80.2686637  53.4025202
   6.7592722  96.9004778  48.0399397   6.9989321  97.5323302  48.7178415
   5.9161919  96.5492818  48.3264756   7.8746438  79.5929380  36.7081202
   6.9975904  79.4718180  36.3443448   8.3504191  78.8015458  36.4560090
  17.7419431  88.0482448  53.4779657  16.8546210  87.7108369  53.6006056
  18.3117982  87.3165479  53.7148423   4.1983300  79.2696736  51.2307732
   4.1141489  78.6622406  50.4958142   3.3766006  79.7605754  51.2317229
  11.2720584  92.7083900  50.4440901  11.1990756  93.5138872  50.9560205
  10.8297977  92.9075866  49.6188922  11.0610364  91.9455670  43.9543722
  10.2777886  92.4877350  44.0481947  11.7603109  92.4629650  44.3537963
  14.3707014  77.7550300  46.5977928  14.8675713  77.0020262  46.2778998
  13.5993995  77.7914616  46.0321137  22.2236771  83.4590665  48.2396219
  22.2126648  84.3415380  47.8690152  21.3554151  83.1062216  48.0450756
  13.7319268  92.6070734  52.5999059  14.4447240  93.2418199  52.5274961
  13.2409296  92.7034600  51.7839061  15.4536795  86.5121987  44.1716351
  14.5193073  86.6323449  44.0021055  15.6313463  85.6094454  43.9076361
  10.9541983  79.8967683  46.3249612  10.5839770  79.3438723  47.0130518
  11.4501075  79.2925816  45.7724612  18.8409346  82.3539306  44.7066385
  19.3069798  83.1867298  44.6326688  19.2916846  81.8884288  45.4111644
   8.7831181  90.3565178  53.4204630   9.4840641  90.9901661  53.5734024
   8.3126296  90.6979909  52.6600269  16.9085577  88.6983127  41.7052537
  17.1845421  88.5839722  42.6146411  16.0390076  88.3000612  41.6664710
  16.8126009  74.7219893  48.7457286  15.8989089  74.9524120  48.9139493
  17.2419110  74.8058337  49.5971319  16.5832467  82.9109785  51.2457180
  15.9303917  83.1585692  50.5909633  16.9612847  82.0973923  50.9119658
  13.5439641  92.9469478  45.3485351  13.7262036  92.1291134  45.8113103
  14.3672627  93.1637170  44.9110241  13.8781807  91.8737663  42.6100399
  14.4069573  91.3630118  41.9970561  14.1410026  91.5580194  43.4745932
  12.6320040  83.6529596  57.7323218  11.9560677  83.5523725  58.4025593
  13.4547674  83.4968810  58.1959215   4.3798899  89.8901533  50.3535733
   4.9652336  89.1445220  50.4863637   4.1823738  90.2005489  51.2372397
   7.2337555  92.9252780  45.3698175   6.5647930  93.4098908  44.8862215
   7.0950424  93.1722000  46.2841554  11.3742823  94.9596523  51.9680834
  11.9261131  95.1228145  52.7329919  11.7149017  95.5500961  51.2960858
   6.3507316  77.3071673  52.5702718   6.4148643  78.1686504  52.1580116
   6.2874437  76.6945675  51.8375077   5.8259589  79.3794806  56.2175752
   6.4531628  78.9971883  56.8313277   4.9687508  79.1609008  56.5831445
  16.2253697  89.7857781  57.8229488  16.7693601  90.3987739  57.3284443
  15.6440542  90.3437359  58.3396501   2.6025132  81.1871235  42.1494107
   2.8978573  80.2781913  42.0961161   1.7013167  81.1658974  41.8275110
  14.5111210  92.9078499  48.9544516  14.3862350  92.1068239  48.4455461
  15.1690302  93.4024692  48.4658486   6.1319379  79.2627232  48.1321656
   5.4105964  79.8763199  47.9929129   6.9212634  79.7984996  48.0538302
  16.5746119  90.7087519  50.5824066  15.6276454  90.5892870  50.5102392
  16.9228892  89.8210017  50.6650327   8.9345692  76.5981658  54.4062308
   9.4580094  76.8443955  55.1688617   8.7158025  77.4301693  53.9865445
   4.3312973  78.8685333  42.2733432   4.0025679  77.9882712  42.0908538
   4.6852344  78.8133001  43.1609822  13.5792552  90.5040235  46.7828418
  13.4317515  89.5756943  46.9635988  14.4046046  90.5260326  46.2985493
   7.4454796  79.1558302  42.6408910   7.7850869  79.6844224  41.9187518
   7.8926917  79.4938709  43.4167477  17.1826674  91.3268794  47.8693291
  18.1073221  91.1211655  47.7317742  17.0141977  91.0785195  48.7782632
  10.1398237  77.5395353  52.0911978   9.7995058  76.7403166  52.4932658
   9.4337243  77.8397064  51.5188811  10.7914709  74.6244666  50.5439301
  11.6140778  74.1505144  50.4218192  11.0352773  75.4035149  51.0437987
   9.4322944  77.6532924  40.8402203  10.1531306  78.0314177  40.3365920
   8.8088248  78.3721801  40.9437181  13.5754066  78.3578073  41.7760535
  13.7917681  79.2402711  41.4749363  13.0948134  77.9664286  41.0466177
   8.3153288  81.3163786  48.3531280   8.1697868  81.6304089  49.2455561
   7.8378491  81.9348687  47.8002178  10.1749671  78.3066334  48.4012169
  10.1611239  77.4107427  48.0644467  10.8922099  78.3136998  49.0350455
  12.0275801  78.7403674  50.4465297  11.7693579  79.6620745  50.4449627
  11.4960842  78.3434109  51.1365761  16.9721990  91.8454462  43.2255382
  17.1458868  91.2800884  42.4729235  17.4650881  92.6455356  43.0434872
   2.7898950  83.8569131  51.2918941   2.2452418  84.6328939  51.4239215
   3.6678300  84.2039935  51.1338062   9.5786567  77.1880714  43.6699740
   9.7002478  76.2597361  43.8690627   9.2888609  77.2019400  42.7578055
  12.4477757  74.8735625  46.8066459  12.4699454  74.9374958  45.8518439
  12.8645816  74.0340134  47.0006966  22.8261381  84.6090884  44.8445682
  23.2692527  83.8598210  44.4464805  21.9487892  84.6001021  44.4619414
  17.9597163  91.1621226  40.3252280  18.6548067  91.7827919  40.5439595
  18.3020313  90.3116577  40.6004658   3.5764972  82.9839027  54.1849098
   2.8346708  83.1321662  54.7713728   3.2557716  83.2447292  53.3215847
  19.8588586  88.6120931  41.8539611  20.3839910  88.9508204  41.1288931
  19.7710938  87.6767947  41.6702746  11.5208634  92.5255005  53.9829488
  11.8295761  92.2804152  54.8552187  12.3184116  92.7301644  53.4948358
  11.5429246  94.6792915  46.2134864  11.1034237  94.1869293  46.9067721
  12.2937363  94.1365882  45.9726940   4.0221585  90.8704456  46.2159492
   4.8479605  90.5708227  45.8358136   3.6715637  90.1012078  46.6649281
   8.9903119  90.2230924  48.2857166   8.3683128  89.5601629  47.9859394
   9.6607986  90.2492056  47.6030814   2.2230191  88.7890782  47.1748426
   1.3862099  88.3612956  46.9932427   2.1953836  88.9823225  48.1119217
   9.0627646  78.7012712  57.8789672   9.1115802  79.5774835  57.4967442
   9.6050160  78.1590105  57.3061315  19.5482492  89.2453835  57.1590809
  18.7578036  89.2277974  56.6195309  19.3115846  89.7842129  57.9139846
  19.6680367  86.0946301  54.4723538  19.7178372  85.9296309  55.4139061
  19.5594290  85.2273560  54.0821419   8.5516626  88.7734847  41.7615627
   8.7004746  89.4570312  41.1082299   9.3583069  88.7539937  42.2765082
  16.9584129  82.0777229  55.7882844  17.8593992  81.9383694  55.4966842
  17.0332104  82.2431684  56.7281022  11.2926935  79.4544084  54.6336031
  10.4230244  79.7477650  54.3618619  11.5286415  80.0384529  55.3543294
  21.1698564  88.5143243  54.7165559  20.8783372  88.8773224  55.5529020
  20.5570695  87.8010251  54.5378891  22.3694246  86.0796123  47.2368130
  23.2041137  86.5185927  47.4005690  22.5053375  85.6034776  46.4176375
  19.4185752  83.6375858  53.1845617  19.8939874  83.8303504  52.3764469
  18.4951317  83.6935043  52.9389001   6.3069259  84.8000025  42.7676696
   6.0615300  83.8962355  42.9656906   6.4765173  84.8017175  41.8256174
  13.9965968  75.6723701  52.1501451  14.5147912  76.4084728  51.8247940
  13.6421101  75.9787694  52.9848210   5.5764906  80.5328382  40.2662857
   4.8834151  80.6072737  39.6102893   5.3316658  79.7688726  40.7884374
  14.2478563  72.0923984  47.6702348  14.5280316  71.4247173  48.2962774
  15.0329170  72.2853079  47.1577012  12.0512031  91.2682978  39.2327374
  11.4785998  91.8873165  38.7797846  12.6244825  91.8182339  39.7667296
  18.1187421  80.5141618  51.4173923  19.0704844  80.6139715  51.4386147
  17.9490871  79.7219886  51.9272007  16.1401800  77.5997201  51.6033324
  15.5451733  77.8802214  50.9079812  15.8551497  78.0891102  52.3750065
  15.2709291  91.5520128  40.3635956  16.2039964  91.4865689  40.5668832
  15.1832504  92.3876395  39.9050489  17.8997308  90.8685998  37.3239904
  17.8210939  90.5345862  38.2175662  18.7206974  91.3607766  37.3231376
  20.5975499  83.7347737  50.5316223  20.5651819  82.7963738  50.7175906
  21.2076122  83.8131774  49.7982047  12.4358830  82.6043790  36.5743427
  13.3817934  82.4749998  36.6431845  12.0573075  81.8658452  37.0512855
  20.7469987  80.5258781  50.5774506  20.2309036  79.7417237  50.3904435
  21.6309936  80.1977497  50.7421025  18.4080714  74.2699796  46.5370318
  18.2105535  73.9614885  47.4213650  19.0180420  74.9961435  46.6668248
  26.4152049  84.7963744  49.6722259  27.1455437  84.5349032  50.2329963
  25.8058994  84.0592466  49.7124327  24.4967346  82.9371607  50.2696711
  23.7700509  82.8027572  49.6613202  24.0814633  83.2448435  51.0753429
  12.3197522  86.6561536  58.0344084  13.2400532  86.8340135  58.2284130
  12.2847105  85.7117582  57.8823783  10.6201747  80.5293767  36.5098312
   9.7133202  80.2326879  36.5861025  10.8977728  80.2323585  35.6432598
   1.5379687  81.8500130  46.9597358   1.2182471  80.9965438  46.6671732
   0.9913115  82.0648708  47.7155326   5.3159595  84.5662571  50.6766865
   5.5345604  85.4979679  50.6954899   5.7285368  84.2070546  51.4621669
  12.2363812  75.0730656  42.6642553  11.4264541  74.7277741  43.0397799
  12.9248229  74.7638200  43.2530165  14.1654361  74.1508703  44.2866850
  14.7185399  74.5704157  44.9456873  14.4024447  73.2244451  44.3289806
  10.1887460  80.1395777  60.0669614  10.0884187  81.0890134  59.9981705
   9.9709002  79.8114016  59.1945684   9.3900531  77.3880702  36.6510291
  10.2519695  77.7135600  36.9106108   9.5750876  76.6012198  36.1383357
   1.4067947  85.4703042  48.9290480   0.7131419  85.0556994  48.4160434
   2.1540938  85.5123578  48.3323899  17.5433168  76.2609228  43.7945514
  16.9631837  76.9194032  43.4123566  17.2769101  75.4386573  43.3832931
  15.9936734  75.6614286  45.9966834  16.4936513  75.7730821  45.1881153
  16.6372342  75.3575339  46.6367643  10.0518730  83.5692916  58.8834675
   9.5685812  84.3693276  59.0898564  10.1379669  83.5800861  57.9302119
   3.3204690  85.4021295  46.8056495   3.2975378  85.5008983  45.8538378
   3.6305326  86.2486446  47.1273661   5.9792068  87.4597450  50.9203109
   6.9335321  87.4281393  50.8533041   5.7804591  86.9988074  51.7353335
   6.5691450  86.0298566  53.4873907   7.3884339  86.5242645  53.5108744
   6.8428257  85.1130535  53.4591474  16.3258046  78.4209319  42.8501862
  15.4383901  78.7058969  42.6322057  16.7412035  78.2603082  42.0029139
  19.6772582  78.4455840  46.5656201  20.4532972  78.9352292  46.8380818
  18.9520716  78.8713894  47.0228071  22.1145141  79.1583459  47.6230142
  22.7089631  78.9179195  46.9123450  22.1871724  78.4390590  48.2503678
   4.3342296  93.0017070  47.9373307   4.1996764  92.2417471  47.3711305
   3.9174359  93.7257970  47.4702096  15.4701259  88.1853993  36.9449882
  16.1737109  88.3903996  37.5607538  14.7463908  88.7530755  37.2098966
  16.2999070  83.9363855  43.0652152  16.2434271  84.3932406  42.2259785
  16.8527412  83.1754539  42.8874995  20.1103876  79.7253587  43.8902272
  19.8540810  79.3250222  44.7210480  19.4856744  80.4397381  43.7652411
  24.4216213  82.4649660  46.3973563  23.8615771  82.5342849  47.1705125
  23.8159717  82.2890644  45.6773060   7.4911422  93.8986387  48.1491750
   7.3743806  94.8431819  48.0470440   6.6703868  93.5959949  48.5377549
  17.3787957  88.6236523  38.9948342  18.2133561  88.1917721  38.8125817
  17.2172300  88.4518536  39.9225237  17.0333849  85.1268636  40.3604682
  16.9782653  84.9612907  39.4193126  16.4079904  85.8344669  40.5166871
   1.8226364  80.3636700  54.1866104   2.4685227  79.8535654  54.6753329
   1.6143515  81.1005382  54.7609529  14.3479756  87.4317548  59.6858244
  15.2170916  87.6058200  59.3244879  13.8686508  88.2511965  59.5633974
  10.3429974  74.6276745  39.9390000  10.3308644  75.5718585  40.0958271
  11.2353396  74.4446890  39.6449461   8.5165936  94.5514649  51.3647678
   9.4193183  94.5838259  51.6814173   8.2903306  93.6215100  51.3794014
  10.2719538  93.3045635  48.0257757   9.3215169  93.3047497  47.9122129
  10.5752024  92.5578370  47.5093791  14.1582094  71.2219522  44.1935937
  13.3914490  70.6678008  44.3392619  14.5692799  71.2941390  45.0550088
   6.1623855  77.5104317  58.2841118   7.0255316  77.1541122  58.4944443
   5.5889266  77.1718212  58.9716522  26.0072232  99.1406174  49.0903519
  26.6450642  99.0212921  48.3866859  25.8893075 100.0887018  49.1491471
  22.8161938  99.0933602  49.0265044  22.4780450  98.9774667  48.1385579
  23.6851706  98.6924767  49.0066050  18.6748754 100.9469078  45.0161935
  18.1113619 100.8559015  44.2478222  18.5601149 100.1268983  45.4964427
  23.2981721 100.2468454  54.9851249  23.2870362  99.8521252  54.1131753
  23.4602361  99.5134526  55.5785021  16.2213186 102.4420270  47.8546155
  17.0134478 102.1011095  47.4392454  16.4609836 102.5515245  48.7748308
  24.2548313 104.6140046  40.3276400  23.6036292 105.1994126  39.9410413
  25.0492675 105.1446241  40.3871437  18.1803940 101.7029183  40.7263534
  18.9534816 101.1558170  40.5876410  18.5329339 102.5673432  40.9377995
  20.0188982 103.0305565  53.9330433  19.7278848 103.9351196  53.8177100
  20.6545967 103.0722093  54.6474503  20.9445189 100.4082414  50.5231793
  21.5408761 100.1838436  49.8088756  21.0020161  99.6667159  51.1257241
  20.5170217  97.8621849  38.3581984  20.7695738  97.3403371  37.5965447
  19.5794777  97.6987995  38.4608667  25.5613500  96.8657628  46.1656727
  26.3476590  96.4477051  45.8147144  25.8252205  97.7703720  46.3338375
  25.7323578 102.3030478  40.8645384  25.0969411 102.3765104  41.5766289
  25.4020984 102.8924077  40.1864463  30.9621927  96.8032861  47.0689706
  31.6947099  96.2332078  47.3027535  30.2061283  96.4154461  47.5096211
  20.2366506  99.7649955  40.5606359  20.1202764  99.0894859  41.2287443
  20.3468766  99.2782329  39.7438512  22.5798047  99.2260102  44.2653048
  22.2156254  98.6990723  44.9765969  23.4365163  98.8358571  44.0919533
  28.4847348  90.5154435  51.5284314  28.1530673  91.3849846  51.3045529
  27.8892961  90.1990719  52.2078345  22.2203534  94.2550002  39.2614397
  22.3877936  95.1230238  39.6284868  22.0300703  94.4177284  38.3375686
  24.9778867 102.7166981  50.9280227  24.6779590 103.6192020  50.8196034
  24.6329927 102.4499164  51.7801380  18.4291349  99.1680778  46.9616931
  17.5041845  99.0356992  47.1694623  18.6775762  99.9474997  47.4586874
  28.3776011  95.2349521  48.6077664  27.4692888  95.1664930  48.3136425
  28.3263607  95.7121466  49.4359490  22.1992755  96.7107660  40.2461063
  22.0792380  97.1564710  41.0846544  21.5045343  97.0592977  39.6874602
  15.7900160  98.8114051  47.7960720  15.9192541  99.0648530  48.7100132
  15.1097611  99.4041759  47.4765375  19.9599647 109.4811301  43.8951195
  19.8823677 110.4319126  43.9739675  19.3561291 109.1357174  44.5526121
  22.4516877  96.6539167  56.5512562  21.6750211  97.2133087  56.5415426
  23.0907440  97.1395950  57.0727432  30.2437658  93.4365960  50.3855538
  29.6012038  93.7298493  49.7395333  29.7392586  93.3218880  51.1908735
  27.8977821  97.1829133  41.0741397  28.8095677  97.4156519  40.8989095
  27.3887468  97.7666177  40.5116476  20.7063249  99.4624620  56.1130529
  21.4477934 100.0009664  55.8365352  20.0000235 100.0890909  56.2702080
  26.1818589 101.6053761  54.7102690  26.5901945 101.1636171  53.9657322
  25.4595850 101.0306388  54.9636883  22.5349659  96.5426367  52.0836247
  23.3810854  96.9665781  52.2270896  22.4748297  95.8859992  52.7774810
  26.5047403 102.1654951  48.4654979  25.8756266 102.3300665  47.7631047
  26.1173066 102.5796561  49.2365943  30.3836635 103.1009389  45.8199343
  29.6987674 103.4808290  45.2696376  30.4680485 103.7104716  46.5531290
  25.6849104  94.2030736  53.7417421  25.4410036  94.9572796  53.2051696
  25.9609035  94.5816083  54.5764668  27.6387567 100.7469348  52.4194686
  27.8504462 101.3901108  51.7429067  27.5917315  99.9131665  51.9516616
  25.2413796  93.3587169  49.3231258  24.3798275  93.6568422  49.6147996
  25.2676231  93.5757568  48.3912291  22.0575365 101.9029359  45.7305064
  22.5213711 102.1817062  44.9409686  21.7932163 101.0012804  45.5478155
  18.9499446 101.4500841  48.6684827  19.5200803 101.8788109  48.0302312
  19.5407558 101.1683425  49.3669013  20.9944251  98.0252512  42.5394629
  21.6968295  98.4773555  43.0068555  20.6624880  97.3836330  43.1674522
  19.4424613  96.6164268  56.9145839  18.8123274  97.2980549  57.1481235
  19.3360701  96.5047350  55.9698977  14.7369585  96.2836064  47.8411763
  13.9468639  96.5393593  47.3651873  15.2280833  97.0984402  47.9463803
  28.7533395 103.6241303  50.5917044  29.5750839 103.2221491  50.3099725
  28.7495798 103.5209538  51.5433159  16.6884331  96.6480644  44.7995239
  15.8915494  96.7599338  45.3178735  16.4609923  96.9867296  43.9336130
  22.5189998 103.1725347  52.7477754  22.5834431 103.6345754  53.5835926
  21.8100922 102.5422712  52.8760064  13.0207288  96.5366555  50.2726753
  13.2715327  97.4213565  50.5384329  13.5566837  96.3571156  49.5001845
  36.8439388  99.9680052  46.9402015  36.0903096  99.3987450  46.7846019
  36.9786929  99.9342716  47.8872650  22.2338016 104.8393454  42.6156734
  22.0983691 105.6844990  43.0441582  22.7747829 105.0412732  41.8522668
  18.7205356  90.9185034  59.2771090  18.3272301  90.3651233  59.9518734
  19.5371496  91.2295613  59.6677607  15.6867413 102.3568892  43.1884659
  16.1991934 103.1512143  43.3390224  16.3390126 101.6595183  43.1218261
  17.4962298 105.4734649  45.2707413  17.6728926 106.3952613  45.0828396
  18.2919132 105.1593068  45.7001792  21.6373317  92.3342913  56.8691346
  22.3783030  92.9350066  56.7895809  21.8691239  91.5920551  56.3109389
  16.7814655  97.5199280  55.1469576  16.6668170  96.6184538  55.4476675
  15.9259172  97.7662977  54.7954392  23.8606492 105.4617021  56.7457076
  23.4170347 104.6753399  56.4277981  24.5223706 105.6496171  56.0800967
  18.6193614 106.9912822  51.2717755  19.1701039 106.8629886  50.4994749
  17.7805089 107.2907711  50.9212648  25.9587730 105.7419821  54.7738478
  25.9406206 106.5628702  54.2818747  26.8807651 105.6173896  54.9988619
  22.4160785 103.2563950  55.6161986  22.9489121 102.4952238  55.3861294
  21.8874866 102.9637602  56.3586141  25.5830480  88.3624016  51.1455628
  25.2394749  89.2525658  51.0694738  25.9509442  88.1725674  50.2825213
  13.6516330 100.6857547  43.9644230  14.4891552 101.0954555  43.7477938
  13.8294598  99.7456989  43.9344424  25.5480762  98.3532627  39.6528063
  25.0327386  99.1237232  39.8916450  25.2758071  97.6797763  40.2761124
  23.1327873  93.1982328  44.7113301  22.2769470  92.8089178  44.5318940
  23.5454825  93.2774289  43.8513087  24.6627020  90.7328671  49.1104861
  24.1591816  90.6958806  48.2972666  24.9557627  91.6421414  49.1701518
  20.9069906  90.8167401  48.1171043  21.7722903  90.6210210  47.7576932
  20.9747415  90.5877753  49.0440400  30.5215036 101.1064982  41.5881236
  29.7444479 100.7676141  41.1436398  31.2006517 101.1117605  40.9136201
  25.3367065  96.2259719  41.4787844  25.0317201  96.5405868  42.3297987
  26.2897508  96.3041139  41.5215177  23.7813497 102.3849943  43.1280798
  23.2534859 101.6502702  42.8154036  23.2801000 103.1624619  42.8820766
  28.7606343 100.5798963  48.2447844  28.1030018 101.2698225  48.3327973
  29.5646743 100.9695395  48.5881831  18.5132225  93.0469609  45.4887410
  19.0875977  92.8244790  44.7560603  19.1003207  93.1158303  46.2416011
  27.5711802  98.9343336  46.2951786  28.0843684  99.5673328  46.7973496
  28.2213026  98.3344531  45.9295146  18.8401812  95.0774070  39.5083295
  18.0039124  95.4148756  39.8292570  18.7006582  94.9423050  38.5710432
  20.8154893  89.9210858  44.2162479  20.1619305  89.6059875  43.5919094
  20.7735367  89.2986598  44.9422302  21.9266098 100.2030153  36.1315771
  21.0193159  99.9719406  36.3306920  22.4237129  99.4067772  36.3189753
  24.8334176 108.9127660  39.0512457  24.1595875 109.2159357  39.6597415
  25.2199998 109.7156740  38.7017914  24.0492633  96.4092791  48.5410127
  23.1315194  96.6307738  48.3831815  24.4652777  96.4839102  47.6821834
  24.8327681  97.8084207  43.6712807  25.5799500  98.3205604  43.3619929
  25.1019270  97.4868260  44.5317200  23.1054331 100.3042748  40.6539761
  22.1965550 100.0201781  40.7512231  23.1349415 100.7241826  39.7943068
  28.3373598 103.9149337  44.4230929  27.8835925 103.0740247  44.4796119
  27.7067565 104.5510736  44.7605709  27.2806518  94.8441323  45.6531596
  26.5429275  94.3318710  45.9841839  27.5333291  94.4041705  44.8414873
  26.7806538 105.7525834  45.3580747  27.0729512 106.3130891  44.6393113
  27.2905158 106.0454395  46.1133906  27.3818145  87.6217575  46.2473365
  27.6877022  86.7614939  45.9599281  28.1070750  88.2135195  46.0472359
  13.6742501  98.0248262  44.6354963  13.4766901  97.4317623  43.9106030
  13.1189165  97.7200472  45.3530902  21.6539225  97.9171368  46.7549557
  21.7087835  96.9645205  46.6792033  20.8430427  98.0730807  47.2390855
  22.8030419 101.8451491  37.9927840  22.3649849 101.1287350  37.5333477
  23.5440860 102.0727606  37.4312931  19.5931585  96.5348428  44.5139935
  18.7799450  96.8342599  44.9205128  20.0890579  96.1404117  45.2314418
  21.7440163 106.5306185  46.4474200  21.7016342 106.7567031  45.5182732
  22.6602862 106.2969560  46.5960001  25.1905797  96.9990253  53.3454829
  25.5455184  97.2261726  54.2049295  25.8377928  97.3308629  52.7232085
  30.9203534 100.1208688  44.0504158  30.7821432 100.3110284  43.1225348
  30.5639752 100.8828071  44.5072209  19.0845660  94.1066784  50.1301170
  19.7245039  93.9655543  49.4324134  18.2523190  93.8201297  49.7539772
  30.9472913 102.1885215  49.0615430  31.3809420 102.0960505  49.9098484
  31.6604494 102.1642716  48.4235446  19.8605964 103.4069214  46.2436163
  20.6546562 102.9119534  46.0418738  19.1497656 102.8787077  45.8803868
  24.6800808 105.7887310  50.5948530  24.7337830 106.3578246  51.3626246
  23.8115589 105.9589195  50.2302568  16.1688727  97.5512296  42.3195916
  15.2386315  97.4896751  42.5365878  16.2646199  97.0288249  41.5232557
  16.0874276  94.0767109  44.9074157  16.3481093  94.9912442  44.7983318
  16.9091448  93.6091551  45.0570770  17.5599201  95.4904866  52.0772982
  18.2322255  95.2822228  51.4285631  16.7328988  95.2926952  51.6378214
  31.8088463 102.2308916  51.5948315  32.0024353 103.1354727  51.8407590
  31.7089081 101.7716335  52.4286900  23.4624773  92.1166807  54.0938643
  22.8152688  92.8156756  54.0003119  24.2325789  92.5502951  54.4614891
  26.8703571 102.3815659  57.1689196  26.7189078 102.1526211  56.2519280
  26.8608251 103.3386260  57.1820541  23.6388908  99.9547572  52.1535462
  24.5680968 100.1058731  51.9804430  23.2179938 100.0431592  51.2984109
  22.4377240 103.9798236  49.9234000  22.2988325 103.6117020  50.7959938
  21.6491836 104.4945875  49.7517958  23.0325392 109.0807333  41.2659536
  23.2077147 108.6095376  42.0805159  22.3458180 109.7073099  41.4940797
  23.9882455 103.3579839  47.3122838  23.6532287 103.3180609  48.2080488
  23.4886400 102.6924555  46.8393248  17.9626699  98.7647469  52.8375419
  17.8246497  98.0327708  53.4386958  18.8731622  98.6756369  52.5559607
  26.9241646 100.7035873  37.5859897  26.3070817  99.9782701  37.4892950
  26.4558135 101.4645233  37.2426972  20.5908999  98.4767428  52.3259099
  21.3008618  97.8360620  52.2845717  20.5478308  98.7280323  53.2485279
  28.5795778 105.4134781  55.2465678  28.5208324 104.7294002  54.5796261
  28.9815296 106.1553771  54.7946304  19.3037933  95.4632646  54.1454738
  18.7675290  95.0123384  54.7976334  18.7154642  95.5978555  53.4025202
  18.7140192  94.9221297  36.7081202  17.8369659  94.8010098  36.3443448
  19.1897945  94.1307376  36.4560090  28.5813185 103.3774365  53.4779657
  27.6939964 103.0400287  53.6006056  29.1511736 102.6457397  53.7148423
  10.2342332  99.7098457  46.8022709  10.9213372  99.3960187  46.2143724
  10.0790461 100.6139822  46.5289960  15.0377055  94.5988654  51.2307732
  14.9535243  93.9914323  50.4958142  14.2159761  95.0897672  51.2317229
  22.1114339 108.0375818  50.4440901  22.0384510 108.8430789  50.9560205
  21.6691732 108.2367784  49.6188922  21.9004118 107.2747588  43.9543722
  21.1171640 107.8169268  44.0481947  22.5996863 107.7921567  44.3537963
  25.2100768  93.0842217  46.5977928  25.7069468  92.3312180  46.2778998
  24.4387750  93.1206534  46.0321137  33.0630526  98.7882583  48.2396219
  33.0520402  99.6707298  47.8690152  32.1947905  98.4354134  48.0450756
  24.5713022 107.9362652  52.5999059  25.2840994 108.5710117  52.5274961
  24.0803051 108.0326518  51.7839061  26.2930549 101.8413904  44.1716351
  25.3586828 101.9615367  44.0021055  26.4707218 100.9386371  43.9076361
  21.7935737  95.2259600  46.3249612  21.4233525  94.6730641  47.0130518
  22.2894830  94.6217734  45.7724612  29.6803100  97.6831224  44.7066385
  30.1463553  98.5159215  44.6326688  30.1310601  97.2176205  45.4111644
  19.6224936 105.6857095  53.4204630  20.3234395 106.3193578  53.5734024
  19.1520051 106.0271827  52.6600269  27.7479332 104.0275045  41.7052537
  28.0239175 103.9131640  42.6146411  26.8783830 103.6292530  41.6664710
  27.6519763  90.0511811  48.7457286  26.7382843  90.2816038  48.9139493
  28.0812865  90.1350255  49.5971319  27.4226222  98.2401703  51.2457180
  26.7697672  98.4877610  50.5909633  27.8006602  97.4265841  50.9119658
  24.3833396 108.2761396  45.3485351  24.5655790 107.4583052  45.8113103
  25.2066382 108.4929088  44.9110241  24.7175561 107.2029581  42.6100399
  25.2463328 106.6922036  41.9970561  24.9803781 106.8872111  43.4745932
  23.4713795  98.9821514  57.7323218  22.7954432  98.8815643  58.4025593
  24.2941429  98.8260727  58.1959215  15.2192654 105.2193450  50.3535733
  15.8046091 104.4737138  50.4863637  15.0217492 105.5297407  51.2372397
  18.0731309 108.2544698  45.3698175  17.4041684 108.7390825  44.8862215
  17.9344179 108.5013918  46.2841554   9.8110309  97.7899050  49.0740176
   9.8494408  97.2562641  49.8677294   9.3050601  97.2634256  48.4551153
  22.2136578 110.2888441  51.9680834  22.7654886 110.4520063  52.7329919
  22.5542771 110.8792879  51.2960858  17.1901071  92.6363591  52.5702718
  17.2542397  93.4978422  52.1580116  17.1268191  92.0237593  51.8375077
  16.6653343  94.7086724  56.2175752  17.2925382  94.3263801  56.8313277
  15.8081262  94.4900925  56.5831445  27.0647452 105.1149699  57.8229488
  27.6087356 105.7279657  57.3284443  26.4834297 105.6729277  58.3396501
  13.4418886  96.5163153  42.1494107  13.7372327  95.6073831  42.0961161
  12.5406922  96.4950892  41.8275110  25.3504965 108.2370417  48.9544516
  25.2256104 107.4360157  48.4455461  26.0084056 108.7316610  48.4658486
  16.9713133  94.5919149  48.1321656  16.2499719  95.2055117  47.9929129
  17.7606389  95.1276914  48.0538302  27.4139873 106.0379437  50.5824066
  26.4670209 105.9184788  50.5102392  27.7622646 105.1501935  50.6650327
  19.7739447  91.9273576  54.4062308  20.2973848  92.1735872  55.1688617
  19.5551780  92.7593611  53.9865445  15.1706728  94.1977250  42.2733432
  14.8419434  93.3174629  42.0908538  15.5246098  94.1424919  43.1609822
  24.4186307 105.8332153  46.7828418  24.2711269 104.9048860  46.9635988
  25.2439800 105.8552244  46.2985493  18.2848551  94.4850220  42.6408910
  18.6244623  95.0136141  41.9187518  18.7320671  94.8230626  43.4167477
  28.0220428 106.6560712  47.8693291  28.9466976 106.4503573  47.7317742
  27.8535732 106.4077113  48.7782632  20.9791992  92.8687271  52.0911978
  20.6388812  92.0695084  52.4932658  20.2730998  93.1688982  51.5188811
  21.6308464  89.9536583  50.5439301  22.4534533  89.4797061  50.4218192
  21.8746527  90.7327067  51.0437987  20.2716698  92.9824842  40.8402203
  20.9925060  93.3606094  40.3365920  19.6482002  93.7013718  40.9437181
  24.4147821  93.6869991  41.7760535  24.6311435  94.5694629  41.4749363
  23.9341888  93.2956204  41.0466177  19.1547042  96.6455704  48.3531280
  19.0091623  96.9596007  49.2455561  18.6772246  97.2640604  47.8002178
  21.0143425  93.6358252  48.4012169  21.0004994  92.7399345  48.0644467
  21.7315853  93.6428916  49.0350455  22.8669556  94.0695592  50.4465297
  22.6087334  94.9912663  50.4449627  22.3354596  93.6726027  51.1365761
  27.8115745 107.1746379  43.2255382  27.9852622 106.6092802  42.4729235
  28.3044636 107.9747274  43.0434872  13.6292704  99.1861048  51.2918941
  13.0846173  99.9620856  51.4239215  14.5072054  99.5331853  51.1338062
  20.4180321  92.5172632  43.6699740  20.5396232  91.5889278  43.8690627
  20.1282363  92.5311318  42.7578055  23.2871511  90.2027543  46.8066459
  23.3093208  90.2666876  45.8518439  23.7039570  89.3632051  47.0006966
  33.6655136  99.9382802  44.8445682  34.1086282  99.1890127  44.4464805
  32.7881646  99.9292938  44.4619414  28.7990917 106.4913144  40.3252280
  29.4941822 107.1119836  40.5439595  29.1414067 105.6408495  40.6004658
  14.4158726  98.3130945  54.1849098  13.6740462  98.4613580  54.7713728
  14.0951471  98.5739210  53.3215847  30.6982340 103.9412849  41.8539611
  31.2233664 104.2800122  41.1288931  30.6104693 103.0059864  41.6702746
  22.3602389 107.8546923  53.9829488  22.6689515 107.6096070  54.8552187
  23.1577871 108.0593561  53.4948358  22.3823001 110.0084832  46.2134864
  21.9427991 109.5161211  46.9067721  23.1331118 109.4657800  45.9726940
  14.8615340 106.1996373  46.2159492  15.6873360 105.9000145  45.8358136
  14.5109392 105.4303996  46.6649281  19.8296873 105.5522841  48.2857166
  19.2076882 104.8893547  47.9859394  20.5001740 105.5783973  47.6030814
  13.0623945 104.1182700  47.1748426  12.2255853 103.6904874  46.9932427
  13.0347590 104.3115143  48.1119217  19.9021401  94.0304630  57.8789672
  19.9509556  94.9066752  57.4967442  20.4443915  93.4882023  57.3061315
  30.3876246 104.5745753  57.1590809  29.5971790 104.5569892  56.6195309
  30.1509601 105.1134046  57.9139846  30.5074121 101.4238219  54.4723538
  30.5572126 101.2588227  55.4139061  30.3988045 100.5565478  54.0821419
  19.3910380 104.1026765  41.7615627  19.5398500 104.7862229  41.1082299
  20.1976823 104.0831855  42.2765082  27.7977884  97.4069147  55.7882844
  28.6987746  97.2675612  55.4966842  27.8725858  97.5723602  56.7281022
  22.1320689  94.7836002  54.6336031  21.2623998  95.0769568  54.3618619
  22.3680169  95.3676447  55.3543294  32.0092318 103.8435161  54.7165559
  31.7177126 104.2065141  55.5529020  31.3964449 103.1302169  54.5378891
  33.2088000 101.4088040  47.2368130  34.0434892 101.8477844  47.4005690
  33.3447129 100.9326694  46.4176375  30.2579506  98.9667775  53.1845617
  30.7333628  99.1595422  52.3764469  29.3345072  99.0226961  52.9389001
  17.1463013 100.1291942  42.7676696  16.9009055  99.2254272  42.9656906
  17.3158928 100.1309093  41.8256174  24.8359723  91.0015619  52.1501451
  25.3541667  91.7376646  51.8247940  24.4814856  91.3079612  52.9848210
  16.4158661  95.8620300  40.2662857  15.7227905  95.9364655  39.6102893
  16.1710412  95.0980644  40.7884374  25.0872317  87.4215901  47.6702348
  25.3674071  86.7539090  48.2962774  25.8722924  87.6144997  47.1577012
  22.8905786 106.5974895  39.2327374  22.3179753 107.2165082  38.7797846
  23.4638579 107.1474257  39.7667296  28.9581175  95.8433535  51.4173923
  29.9098598  95.9431633  51.4386147  28.7884626  95.0511804  51.9272007
  26.9795555  92.9289119  51.6033324  26.3845487  93.2094131  50.9079812
  26.6945252  93.4183020  52.3750065  26.1103045 106.8812045  40.3635956
  27.0433719 106.8157607  40.5668832  26.0226258 107.7168312  39.9050489
  28.7391062 106.1977916  37.3239904  28.6604694 105.8637779  38.2175662
  29.5600729 106.6899684  37.3231376  31.4369253  99.0639655  50.5316223
  31.4045573  98.1255656  50.7175906  32.0469877  99.1423692  49.7982047
  23.2752584  97.9335708  36.5743427  24.2211689  97.8041916  36.6431845
  22.8966829  97.1950370  37.0512855  31.5863742  95.8550698  50.5774506
  31.0702790  95.0709155  50.3904435  32.4703690  95.5269415  50.7421025
  29.2474469  89.5991714  46.5370318  29.0499290  89.2906802  47.4213650
  29.8574174  90.3253353  46.6668248  37.2545803 100.1255662  49.6722259
  37.9849192  99.8640950  50.2329963  36.6452749  99.3884384  49.7124327
  35.3361100  98.2663524  50.2696711  34.6094264  98.1319489  49.6613202
  34.9208387  98.5740353  51.0753429  23.1591277 101.9853454  58.0344084
  24.0794286 102.1632053  58.2284130  23.1240860 101.0409500  57.8823783
  21.4595501  95.8585684  36.5098312  20.5526957  95.5618797  36.5861025
  21.7371482  95.5615502  35.6432598  12.3773442  97.1792048  46.9597358
  12.0576226  96.3257356  46.6671732  11.8306870  97.3940626  47.7155326
  16.1553349  99.8954489  50.6766865  16.3739359 100.8271597  50.6954899
  16.5679123  99.5362463  51.4621669  23.0757567  90.4022574  42.6642553
  22.2658295  90.0569659  43.0397799  23.7641984  90.0930118  43.2530165
  25.0048115  89.4800621  44.2866850  25.5579154  89.8996074  44.9456873
  25.2418202  88.5536369  44.3289806  21.0281214  95.4687695  60.0669614
  20.9277941  96.4182052  59.9981705  20.8102757  95.1405933  59.1945684
  20.2294286  92.7172620  36.6510291  21.0913450  93.0427518  36.9106108
  20.4144630  91.9304116  36.1383357  12.2461702 100.7994959  48.9290480
  11.5525173 100.3848912  48.4160434  12.9934693 100.8415496  48.3323899
  28.3826922  91.5901146  43.7945514  27.8025591  92.2485950  43.4123566
  28.1162855  90.7678491  43.3832931  26.8330489  90.9906204  45.9966834
  27.3330267  91.1022738  45.1881153  27.4766097  90.6867257  46.6367643
  20.8912485  98.8984833  58.8834675  20.4079566  99.6985194  59.0898564
  20.9773424  98.9092778  57.9302119  14.1598444 100.7313213  46.8056495
  14.1369132 100.8300900  45.8538378  14.4699081 101.5778364  47.1273661
  16.8185822 102.7889368  50.9203109  17.7729076 102.7573310  50.8533041
  16.6198346 102.3279992  51.7353335  17.4085204 101.3590484  53.4873907
  18.2278093 101.8534563  53.5108744  17.6822012 100.4422452  53.4591474
  27.1651800  93.7501236  42.8501862  26.2777655  94.0350887  42.6322057
  27.5805789  93.5895000  42.0029139  30.5166336  93.7747757  46.5656201
  31.2926727  94.2644210  46.8380818  29.7914471  94.2005812  47.0228071
  32.9538895  94.4875377  47.6230142  33.5483386  94.2471113  46.9123450
  33.0265479  93.7682507  48.2503678  26.3095014 103.5145911  36.9449882
  27.0130864 103.7195914  37.5607538  25.5857663 104.0822673  37.2098966
  27.1392824  99.2655772  43.0652152  27.0828025  99.7224324  42.2259785
  27.6921167  98.5046457  42.8874995  30.9497630  95.0545504  43.8902272
  30.6934564  94.6542140  44.7210480  30.3250498  95.7689298  43.7652411
  35.2609968  97.7941578  46.3973563  34.7009526  97.8634767  47.1705125
  34.6553471  97.6182562  45.6773060  28.2181711 103.9528440  38.9948342
  29.0527315 103.5209639  38.8125817  28.0566054 103.7810454  39.9225237
  27.8727603 100.4560554  40.3604682  27.8176407 100.2904825  39.4193126
  27.2473659 101.1636587  40.5166871  12.6620118  95.6928618  54.1866104
  13.3078982  95.1827572  54.6753329  12.4537269  96.4297300  54.7609529
  25.1873511 102.7609466  59.6858244  26.0564670 102.9350118  59.3244879
  24.7080262 103.5803882  59.5633974  21.1823729  89.9568663  39.9390000
  21.1702399  90.9010503  40.0958271  22.0747151  89.7738808  39.6449461
  19.3559691 109.8806567  51.3647678  20.2586938 109.9130177  51.6814173
  19.1297061 108.9507017  51.3794014  21.1113293 108.6337553  48.0257757
  20.1608924 108.6339415  47.9122129  21.4145779 107.8870288  47.5093791
  24.9975848  86.5511439  44.1935937  24.2308244  85.9969926  44.3392619
  25.4086553  86.6233308  45.0550088  17.0017609  92.8396235  58.2841118
  17.8649071  92.4833040  58.4944443  16.4283020  92.5010130  58.9716522
  36.8465986 114.4698091  49.0903519  37.4844396 114.3504839  48.3866859
  36.7286829 115.4178935  49.1491471  33.6555693 114.4225520  49.0265044
  33.3174204 114.3066584  48.1385579  34.5245461 114.0216685  49.0066050
  34.1375476 115.5760371  54.9851249  34.1264116 115.1813170  54.1131753
  34.2996115 114.8426444  55.5785021  31.3563972 113.1913767  38.3581984
  31.6089493 112.6695288  37.5965447  30.4188531 113.0279912  38.4608667
  36.4007255 112.1949545  46.1656727  37.1870344 111.7768968  45.8147144
  36.6645959 113.0995637  46.3338375  41.8015682 112.1324779  47.0689706
  42.5340854 111.5623995  47.3027535  41.0455038 111.7446379  47.5096211
  33.4191802 114.5552020  44.2653048  33.0550009 114.0282641  44.9765969
  34.2758918 114.1650489  44.0919533  39.3241102 105.8446353  51.5284314
  38.9924427 106.7141764  51.3045529  38.7286716 105.5282637  52.2078345
  33.0597289 109.5841920  39.2614397  33.2271691 110.4522156  39.6284868
  32.8694458 109.7469201  38.3375686  39.2169766 110.5641439  48.6077664
  38.3086643 110.4956847  48.3136425  39.1657361 111.0413384  49.4359490
  33.0386509 112.0399577  40.2461063  32.9186135 112.4856628  41.0846544
  32.3439098 112.3884895  39.6874602  33.2910631 111.9831084  56.5512562
  32.5143965 112.5425005  56.5415426  33.9301194 112.4687867  57.0727432
  41.0831412 108.7657877  50.3855538  40.4405792 109.0590410  49.7395333
  40.5786341 108.6510798  51.1908735  38.7371576 112.5121050  41.0741397
  39.6489432 112.7448437  40.8989095  38.2281223 113.0958095  40.5116476
  33.3743413 111.8718285  52.0836247  34.2204609 112.2957699  52.2270896
  33.3142051 111.2151909  52.7774810  36.5242859 109.5322653  53.7417421
  36.2803791 110.2864714  53.2051696  36.8002789 109.9108001  54.5764668
  38.4781321 116.0761266  52.4194686  38.6898217 116.7193026  51.7429067
  38.4311070 115.2423582  51.9516616  36.0807550 108.6879086  49.3231258
  35.2192029 108.9860340  49.6147996  36.1069985 108.9049485  48.3912291
  31.8338006 113.3544429  42.5394629  32.5362049 113.8065473  43.0068555
  31.5018634 112.7128248  43.1674522  30.2818367 111.9456186  56.9145839
  29.6517028 112.6272467  57.1481235  30.1754455 111.8339268  55.9698977
  25.5763340 111.6127982  47.8411763  24.7862394 111.8685510  47.3651873
  26.0674587 112.4276320  47.9463803  27.5278085 111.9772561  44.7995239
  26.7309249 112.0891255  45.3178735  27.3003677 112.3159213  43.9336130
  47.6833142 115.2971970  46.9402015  46.9296851 114.7279368  46.7846019
  47.8180684 115.2634634  47.8872650  29.5599110 106.2476952  59.2771090
  29.1666056 105.6943150  59.9518734  30.3765250 106.5587530  59.6677607
  32.4767071 107.6634831  56.8691346  33.2176785 108.2641984  56.7895809
  32.7084994 106.9212469  56.3109389  36.4224234 103.6915934  51.1455628
  36.0788503 104.5817575  51.0694738  36.7903197 103.5017591  50.2825213
  36.3874517 113.6824545  39.6528063  35.8721140 114.4529150  39.8916450
  36.1151825 113.0089681  40.2761124  33.9721628 108.5274246  44.7113301
  33.1163224 108.1381096  44.5318940  34.3848580 108.6066206  43.8513087
  35.5020774 106.0620589  49.1104861  34.9985570 106.0250724  48.2972666
  35.7951381 106.9713332  49.1701518  31.7463660 106.1459319  48.1171043
  32.6116657 105.9502127  47.7576932  31.8141169 105.9169670  49.0440400
  41.3608791 116.4356900  41.5881236  40.5838234 116.0968059  41.1436398
  42.0400272 116.4409523  40.9136201  36.1760820 111.5551637  41.4787844
  35.8710956 111.8697786  42.3297987  37.1291262 111.6333057  41.5215177
  39.6000098 115.9090881  48.2447844  38.9423772 116.5990142  48.3327973
  40.4040497 116.2987313  48.5881831  29.3525979 108.3761527  45.4887410
  29.9269731 108.1536708  44.7560603  29.9396962 108.4450221  46.2416011
  38.4105557 114.2635253  46.2951786  38.9237438 114.8965245  46.7973496
  39.0606781 113.6636449  45.9295146  29.6795567 110.4065988  39.5083295
  28.8432879 110.7440674  39.8292570  29.5400336 110.2714967  38.5710432
  31.6548647 105.2502775  44.2162479  31.0013059 104.9351793  43.5919094
  31.6129121 104.6278516  44.9422302  34.8886387 111.7384709  48.5410127
  33.9708949 111.9599656  48.3831815  35.3046531 111.8131020  47.6821834
  35.6721435 113.1376125  43.6712807  36.4193254 113.6497522  43.3619929
  35.9413025 112.8160177  44.5317200  38.1200272 110.1733241  45.6531596
  37.3823029 109.6610627  45.9841839  38.3727046 109.7333623  44.8414873
  38.2211900 102.9509493  46.2473365  38.5270777 102.0906856  45.9599281
  38.9464505 103.5427113  46.0472359  32.4932979 113.2463286  46.7549557
  32.5481589 112.2937122  46.6792033  31.6824182 113.4022725  47.2390855
  30.4325339 111.8640346  44.5139935  29.6193205 112.1634516  44.9205128
  30.9284334 111.4696035  45.2314418  36.0299551 112.3282170  53.3454829
  36.3848939 112.5553643  54.2049295  36.6771682 112.6600547  52.7232085
  41.7597288 115.4500606  44.0504158  41.6215187 115.6402202  43.1225348
  41.4033507 116.2119989  44.5072209  29.9239414 109.4358701  50.1301170
  30.5638793 109.2947460  49.4324134  29.0916945 109.1493215  49.7539772
  41.7866668 117.5177133  49.0615430  42.2203174 117.4252422  49.9098484
  42.4998248 117.4934634  48.4235446  27.0082482 112.8804213  42.3195916
  26.0780070 112.8188669  42.5365878  27.1039954 112.3580166  41.5232557
  26.9268031 109.4059026  44.9074157  27.1874848 110.3204360  44.7983318
  27.7485203 108.9383469  45.0570770  28.3992956 110.8196783  52.0772982
  29.0716009 110.6114146  51.4285631  27.5722742 110.6218869  51.6378214
  42.6482217 117.5600834  51.5948315  42.8418107 118.4646644  51.8407590
  42.5482835 117.1008253  52.4286900  34.3018528 107.4458724  54.0938643
  33.6546443 108.1448674  54.0003119  35.0719543 107.8794868  54.4614891
  34.4782662 115.2839489  52.1535462  35.4074722 115.4350649  51.9804430
  34.0573692 115.3723510  51.2984109  31.4302754 113.8059346  52.3259099
  32.1402372 113.1652538  52.2845717  31.3872062 114.0572241  53.2485279
  30.1431688 110.7924564  54.1454738  29.6069045 110.3415302  54.7976334
  29.5548396 110.9270472  53.4025202  29.5533947 110.2513215  36.7081202
  28.6763413 110.1302016  36.3443448  30.0291700 109.4599293  36.4560090
  25.8770809 109.9280571  51.2307732  25.7928998 109.3206241  50.4958142
  25.0553515 110.4189590  51.2317229  36.0494523 108.4134135  46.5977928
  36.5463222 107.6604097  46.2778998  35.2781504 108.4498452  46.0321137
  43.9024280 114.1174500  48.2396219  43.8914157 114.9999216  47.8690152
  43.0341660 113.7646051  48.0450756  32.6329492 110.5551518  46.3249612
  32.2627279 110.0022558  47.0130518  33.1288584 109.9509651  45.7724612
  40.5196855 113.0123141  44.7066385  40.9857307 113.8451133  44.6326688
  40.9704355 112.5468123  45.4111644  38.4913518 105.3803728  48.7457286
  37.5776597 105.6107955  48.9139493  38.9206619 105.4642172  49.5971319
  38.2619976 113.5693620  51.2457180  37.6091426 113.8169528  50.5909633
  38.6400356 112.7557759  50.9119658  34.3107549 114.3113431  57.7323218
  33.6348186 114.2107561  58.4025593  35.1335183 114.1552645  58.1959215
  28.0294825 107.9655509  52.5702718  28.0936152 108.8270340  52.1580116
  27.9661946 107.3529510  51.8375077  27.5047098 110.0378641  56.2175752
  28.1319137 109.6555719  56.8313277  26.6475017 109.8192843  56.5831445
  24.2812641 111.8455070  42.1494107  24.5766082 110.9365749  42.0961161
  23.3800676 111.8242810  41.8275110  27.8106888 109.9211067  48.1321656
  27.0893473 110.5347035  47.9929129  28.6000143 110.4568832  48.0538302
  30.6133201 107.2565493  54.4062308  31.1367603 107.5027790  55.1688617
  30.3945534 108.0885528  53.9865445  26.0100482 109.5269168  42.2733432
  25.6813188 108.6466547  42.0908538  26.3639853 109.4716837  43.1609822
  29.1242305 109.8142138  42.6408910  29.4638378 110.3428059  41.9187518
  29.5714426 110.1522544  43.4167477  31.8185746 108.1979188  52.0911978
  31.4782567 107.3987002  52.4932658  31.1124752 108.4980899  51.5188811
  32.4702218 105.2828501  50.5439301  33.2928287 104.8088979  50.4218192
  32.7140282 106.0618985  51.0437987  31.1110452 108.3116759  40.8402203
  31.8318815 108.6898012  40.3365920  30.4875757 109.0305636  40.9437181
  35.2541575 109.0161908  41.7760535  35.4705190 109.8986546  41.4749363
  34.7735643 108.6248122  41.0466177  29.9940797 111.9747622  48.3531280
  29.8485377 112.2887925  49.2455561  29.5166000 112.5932522  47.8002178
  31.8537180 108.9650170  48.4012169  31.8398748 108.0691263  48.0644467
  32.5709608 108.9720833  49.0350455  33.7063310 109.3987510  50.4465297
  33.4481088 110.3204580  50.4449627  33.1748351 109.0017944  51.1365761
  31.2574076 107.8464550  43.6699740  31.3789987 106.9181196  43.8690627
  30.9676118 107.8603236  42.7578055  34.1265266 105.5319460  46.8066459
  34.1486963 105.5958793  45.8518439  34.5433325 104.6923969  47.0006966
  44.5048890 115.2674720  44.8445682  44.9480036 114.5182045  44.4464805
  43.6275401 115.2584856  44.4619414  30.7415155 109.3596547  57.8789672
  30.7903311 110.2358670  57.4967442  31.2837669 108.8173940  57.3061315
  41.3467876 116.7530137  54.4723538  41.3965881 116.5880144  55.4139061
  41.2381799 115.8857396  54.0821419  38.6371638 112.7361065  55.7882844
  39.5381501 112.5967530  55.4966842  38.7119613 112.9015520  56.7281022
  32.9714444 110.1127920  54.6336031  32.1017753 110.4061486  54.3618619
  33.2073924 110.6968365  55.3543294  44.0481755 116.7379958  47.2368130
  44.8828646 117.1769762  47.4005690  44.1840884 116.2618611  46.4176375
  41.0973261 114.2959693  53.1845617  41.5727383 114.4887339  52.3764469
  40.1738826 114.3518879  52.9389001  35.6753477 106.3307537  52.1501451
  36.1935421 107.0668563  51.8247940  35.3208610 106.6371530  52.9848210
  27.2552415 111.1912218  40.2662857  26.5621660 111.2656573  39.6102893
  27.0104167 110.4272561  40.7884374  35.9266072 102.7507819  47.6702348
  36.2067825 102.0831008  48.2962774  36.7116678 102.9436915  47.1577012
  39.7974930 111.1725453  51.4173923  40.7492353 111.2723551  51.4386147
  39.6278380 110.3803722  51.9272007  37.8189309 108.2581036  51.6033324
  37.2239241 108.5386049  50.9079812  37.5339006 108.7474937  52.3750065
  42.2763008 114.3931573  50.5316223  42.2439328 113.4547573  50.7175906
  42.8863631 114.4715609  49.7982047  34.1146339 113.2627626  36.5743427
  35.0605443 113.1333834  36.6431845  33.7360584 112.5242288  37.0512855
  42.4257496 111.1842616  50.5774506  41.9096545 110.4001073  50.3904435
  43.3097445 110.8561333  50.7421025  40.0868223 104.9283632  46.5370318
  39.8893044 104.6198720  47.4213650  40.6967929 105.6545271  46.6668248
  48.0939558 115.4547580  49.6722259  48.8242946 115.1932868  50.2329963
  47.4846503 114.7176302  49.7124327  46.1754855 113.5955442  50.2696711
  45.4488018 113.4611407  49.6613202  45.7602142 113.9032271  51.0753429
  32.2989256 111.1877602  36.5098312  31.3920711 110.8910715  36.5861025
  32.5765237 110.8907420  35.6432598  33.9151321 105.7314492  42.6642553
  33.1052050 105.3861577  43.0397799  34.6035738 105.4222036  43.2530165
  35.8441870 104.8092539  44.2866850  36.3972908 105.2287992  44.9456873
  36.0811956 103.8828287  44.3289806  31.8674969 110.7979612  60.0669614
  31.7671696 111.7473969  59.9981705  31.6496511 110.4697851  59.1945684
  31.0688040 108.0464537  36.6510291  31.9307204 108.3719436  36.9106108
  31.2538384 107.2596033  36.1383357  39.2220677 106.9193064  43.7945514
  38.6419346 107.5777868  43.4123566  38.9556609 106.0970408  43.3832931
  37.6724243 106.3198121  45.9966834  38.1724022 106.4314656  45.1881153
  38.3159851 106.0159174  46.6367643  38.0045555 109.0793154  42.8501862
  37.1171410 109.3642805  42.6322057  38.4199544 108.9186918  42.0029139
  41.3560091 109.1039675  46.5656201  42.1320481 109.5936128  46.8380818
  40.6308225 109.5297729  47.0228071  43.7932650 109.8167294  47.6230142
  44.3877140 109.5763030  46.9123450  43.8659233 109.0974425  48.2503678
  37.9786579 114.5947690  43.0652152  37.9221780 115.0516242  42.2259785
  38.5314921 113.8338375  42.8874995  41.7891384 110.3837422  43.8902272
  41.5328319 109.9834058  44.7210480  41.1644253 111.0981216  43.7652411
  46.1003722 113.1233495  46.3973563  45.5403280 113.1926685  47.1705125
  45.4947226 112.9474480  45.6773060  38.7121358 115.7852471  40.3604682
  38.6570162 115.6196743  39.4193126  38.0867413 116.4928504  40.5166871
  23.5013873 111.0220536  54.1866104  24.1472736 110.5119490  54.6753329
  23.2931024 111.7589217  54.7609529  32.0217483 105.2860580  39.9390000
  32.0096153 106.2302420  40.0958271  32.9140905 105.1030726  39.6449461
  35.8369603 101.8803357  44.1935937  35.0701999 101.3261844  44.3392619
  36.2480308 101.9525226  45.0550088  27.8411364 108.1688153  58.2841118
  28.7042825 107.8124958  58.4944443  27.2676775 107.8302048  58.9716522
  47.2617989 119.0207851  51.1455628  46.9182258 119.9109493  51.0694738
  47.6296951 118.8309509  50.2825213  49.0605654 118.2801411  46.2473365
  49.3664531 117.4198774  45.9599281  49.7858259 118.8719031  46.0472359
  46.7659826 118.0799737  47.6702348  47.0461580 117.4122926  48.2962774
  47.5510433 118.2728832  47.1577012  50.9261978 120.2575549  46.5370318
  50.7286799 119.9490638  47.4213650  51.5361683 120.9837188  46.6668248
  46.6763357 117.2095275  44.1935937  45.9095753 116.6553761  44.3392619
  47.0874062 117.2817143  45.0550088   4.3258126  30.9866421  33.6647322
   3.5721834  30.4173820  33.5091326   4.4605667  30.9529086  34.6117956
   0.6906738  32.4274410  33.9613436   1.5253630  32.8664214  34.1250997
   0.8265867  31.9513063  33.1421682   4.7364541  31.1442031  36.3967566
   5.4667929  30.8827320  36.9575269   4.1271486  30.4070753  36.4369634
   2.8179838  29.2849894  36.9942017   2.0913002  29.1505859  36.3858509
   2.4027125  29.5926723  37.7998735   2.7428706  28.8127947  33.1218870
   2.1828264  28.8821136  33.8950432   2.1372209  28.6368932  32.4018366
   4.3284724  45.4884461  35.8148826   4.9663134  45.3691208  35.1112166
   4.2105567  46.4365305  35.8736778   1.1374430  45.4411889  35.7510350
   0.7992942  45.3252954  34.8630885   2.0064199  45.0403054  35.7311356
   1.6194213  46.5946741  41.7096556   1.6082854  46.1999539  40.8377060
   1.7814853  45.8612813  42.3030327   2.5760805  50.9618333  27.0521706
   1.9248785  51.5472414  26.6655720   3.3705168  51.4924528  27.1116744
   3.8825993  43.2135915  32.8902034   4.6689082  42.7955338  32.5392451
   4.1464697  44.1182007  33.0583682   4.0536070  48.6508765  27.5890691
   3.4181903  48.7243392  28.3011595   3.7233476  49.2402364  26.9109770
   9.2834420  43.1511148  33.7935012  10.0159592  42.5810365  34.0272842
   8.5273775  42.7632749  34.2341518   0.9010539  45.5738390  30.9898355
   0.5368747  45.0469011  31.7011276   1.7577655  45.1836859  30.8164840
   6.8059840  36.8632722  38.2529621   6.4743165  37.7328133  38.0290836
   6.2105453  36.5469006  38.9323651   3.2991360  49.0645268  37.6525534
   2.9992083  49.9670307  37.5441341   2.9542419  48.7977451  38.5046686
   6.6988503  41.5827808  35.3322971   5.7905381  41.5143217  35.0381732
   6.6476099  42.0599753  36.1604796   8.5650150  39.7844247  37.1100845
   7.9224530  40.0776780  36.4640639   8.0605078  39.6697167  37.9154041
   6.2190313  43.5307420  27.7986704   7.1308170  43.7634807  27.6234402
   5.7099961  44.1144464  27.2361783   4.5031081  47.9532048  41.4347997
   4.9114437  47.5114458  40.6902629   3.7808343  47.3784675  41.6882190
   0.8562151  42.8904655  38.8081554   1.7023346  43.3144068  38.9516203
   0.7960789  42.2338279  39.5020117   4.8259896  48.5133238  35.1900286
   4.1968758  48.6778953  34.4876353   4.4385558  48.9274848  35.9611250
   8.7049128  49.4487676  32.5444649   8.0200166  49.8286578  31.9941683
   8.7892977  50.0583003  33.2776597   4.0061596  40.5509023  40.4662727
   3.7622528  41.3051083  39.9297003   4.2821527  40.9294371  41.3009974
   5.9600059  47.0947635  39.1439993   6.1716954  47.7379395  38.4674374
   5.9129808  46.2609952  38.6761923   3.5626288  39.7065456  36.0476565
   2.7010767  40.0046709  36.3393303   3.5888723  39.9235855  35.1157598
   7.0745887  49.9719591  37.3162350   7.8963331  49.5699778  37.0345032
   7.0708290  49.8687825  38.2678466  15.1651880  46.3158339  33.6647322
  14.4115589  45.7465737  33.5091326  15.2999421  46.2821004  34.6117956
   2.1818985  51.8095308  43.4702383   1.7382839  51.0231687  43.1523288
   2.8436198  51.9974458  42.8046274   4.2800223  52.0898108  41.4983784
   4.2618698  52.9106989  41.0064053   5.2020143  51.9652183  41.7233925
   3.9042972  34.7102303  37.8700934   3.5607241  35.6003945  37.7940045
   4.2721934  34.5203961  37.0070519   3.8693255  44.7010914  26.3773370
   3.3539878  45.4715519  26.6161757   3.5970563  44.0276051  27.0006431
   1.4540366  39.5460615  31.4358608   0.5981962  39.1567466  31.2564247
   1.8667317  39.6252576  30.5758393   2.9839512  37.0806959  35.8350168
   2.4804308  37.0437094  35.0217973   3.2770119  37.9899701  35.8946824
   8.8427529  47.4543269  28.3126543   8.0656971  47.1154429  27.8681705
   9.5219010  47.4595892  27.6381508   3.6579558  42.5738007  28.2033151
   3.3529693  42.8884156  29.0543294   4.6110000  42.6519426  28.2460484
   2.1025990  48.7328230  29.8526105   1.5747351  47.9980989  29.5399342
   1.6013492  49.5102906  29.6066073   7.0818836  46.9277250  34.9693151
   6.4242510  47.6176512  35.0573280   7.8859235  47.3173682  35.3127137
   5.8924294  45.2821623  33.0197093   6.4056176  45.9151615  33.5218802
   6.5425518  44.6822819  32.6540453   3.1546669  55.2605947  25.7757764
   2.4808367  55.5637644  26.3842722   3.5412491  56.0635028  25.4263221
   2.3705125  42.7571079  35.2655433   1.4527687  42.9786026  35.1077121
   2.7865269  42.8317389  34.4067141   3.1540173  44.1562494  30.3958114
   3.9011992  44.6683892  30.0865236   3.4231763  43.8346547  31.2562507
   1.4266823  46.6521035  27.3785068   0.5178042  46.3680068  27.4757538
   1.4561907  47.0720114  26.5188375   6.6586091  50.2627625  31.1476235
   6.2048418  49.4218534  31.2041426   6.0280057  50.8989023  31.4851016
   5.6019010  41.1919611  32.3776903   4.8641767  40.6796997  32.7087145
   5.8545784  40.7519992  31.5660180   5.1019030  52.1004121  32.0826054
   5.3942004  52.6609178  31.3638419   5.6117650  52.3932682  32.8379213
   5.7030638  33.9695863  32.9718672   6.0089514  33.1093226  32.6844587
   6.4283242  34.5613483  32.7717666   1.1242911  48.1929779  24.7173146
   0.6862341  47.4765638  24.2578784   1.8653352  48.4205894  24.1558238
   3.5118289  43.3468540  40.0700136   3.8667677  43.5740013  40.9294602
   4.1590420  43.6786917  39.4477391   9.2416026  46.4686976  30.7749465
   9.1033924  46.6588572  29.8470654   8.8852245  47.2306359  31.2317516
   9.2685405  48.5363503  35.7860736   9.7021912  48.4438792  36.6343791
   9.9816986  48.5121003  35.1480752   3.0013300  52.1365597  37.3193837
   3.0550323  52.7056533  38.0871553   2.1328082  52.3067482  36.9547874
  10.1300955  48.5787203  38.3193622  10.3236845  49.4833014  38.5652897
  10.0301573  48.1194622  39.1532207   1.7837266  38.4645094  40.8183949
   1.1365181  39.1635044  40.7248426   2.5538281  38.8981238  41.1860197
   5.1916064  48.7293946  43.8934502   5.0401570  48.5004498  42.9764586
   5.1820743  49.6864548  43.9065848   1.9601400  46.3025859  38.8780769
   2.8893460  46.4537018  38.7049736   1.5392430  46.3909880  38.0229415
   1.3537884  55.4285620  27.9904843   1.5289640  54.9573663  28.8050466
   0.6670672  56.0551386  28.2186104   2.3094947  49.7058126  34.0368144
   1.9744780  49.6658896  34.9325794   1.8098893  49.0402842  33.5638555
   5.2454139  47.0514160  24.3105204   4.6283309  46.3260988  24.2138257
   4.7770627  47.8123521  23.9672278   6.9008270  51.7613069  41.9710984
   6.8420816  51.0772289  41.3041567   7.3027789  52.5032059  41.5191610
   6.9025678  49.7252653  40.2024964   6.0152456  49.3878574  40.3251363
   7.4724229  48.9935684  40.4393729   3.5313261  39.4320504  33.3223234
   4.0281960  38.6790467  33.0024304   2.7600242  39.4684821  32.7566443
  11.3843018  45.1360870  34.9641526  11.3732894  46.0185585  34.5935459
  10.5160398  44.7832421  34.7696063   2.8925514  54.2840939  39.3244366
   3.6053487  54.9188404  39.2520267   2.4015543  54.3804805  38.5084368
   4.6143041  48.1892192  30.8961658   3.6799320  48.3093654  30.7266362
   4.7919710  47.2864658  30.6321667   8.0015593  44.0309511  31.4311692
   8.4676045  44.8637503  31.3571994   8.4523093  43.5654493  32.1356950
   6.0691824  50.3753332  28.4297844   6.3451668  50.2609927  29.3391718
   5.1996323  49.9770817  28.3910017   5.9732255  36.3990098  35.4702593
   5.0595335  36.6294325  35.6384800   6.4025357  36.4828542  36.3216625
   5.7438714  44.5879990  37.9702487   5.0910164  44.8355897  37.3154940
   6.1219094  43.7744128  37.6364964   2.7045888  54.6239683  32.0730657
   2.8868282  53.8061339  32.5358410   3.5278874  54.8407375  31.6355547
   3.0388053  53.5507868  29.3345706   3.5675820  53.0400323  28.7215868
   3.3016273  53.2350398  30.1991239   1.7926287  45.3299801  44.4568524
   1.1166924  45.2293930  45.1270899   2.6153921  45.1739015  44.9204521
   0.5349070  56.6366728  38.6926140   1.0867378  56.7998350  39.4575225
   0.8755263  57.2271166  38.0206165   5.3859944  51.4627986  44.5474795
   5.9299848  52.0757944  44.0529749   4.8046789  52.0207564  45.0641808
   3.6717457  54.5848704  35.6789822   3.5468597  53.7838444  35.1700768
   4.3296548  55.0794897  35.1903792   5.7352366  52.3857724  37.3069372
   4.7882701  52.2663075  37.2347699   6.0835139  51.4980222  37.3895634
   2.7398799  52.1810440  33.5073725   2.5923761  51.2527148  33.6881295
   3.5652292  52.2030531  33.0230800   6.3432921  53.0038999  34.5938597
   7.2679468  52.7981860  34.4563049   6.1748224  52.7555400  35.5027939
   2.7360313  40.0348278  28.5005842   2.9523928  40.9172916  28.1994670
   2.2554380  39.6434491  27.7711484   1.1882048  40.4173879  37.1710603
   0.9299826  41.3390950  37.1694934   0.6567089  40.0204314  37.8611068
   6.1328237  53.5224666  29.9500689   6.3065114  52.9571089  29.1974541
   6.6257128  54.3225561  29.7680179   1.6084004  36.5505830  33.5311766
   1.6305701  36.6145163  32.5763746   2.0252063  35.7110338  33.7252272
  11.9867628  46.2861089  31.5690989  12.4298774  45.5368415  31.1710112
  11.1094138  46.2771226  31.1864721   7.1203409  52.8391431  27.0497587
   7.8154314  53.4598124  27.2684902   7.4626560  51.9886782  27.3249965
   9.0194833  50.2891136  28.5784918   9.5446157  50.6278409  27.8534238
   8.9317185  49.3538152  28.3948053   0.6814881  54.2025210  40.7074795
   0.9902008  53.9574357  41.5797494   1.4790363  54.4071848  40.2193665
   8.7088739  50.9224040  43.8836116   7.9184282  50.9048179  43.3440615
   8.4722093  51.4612334  44.6385152   8.8286614  47.7716506  41.1968844
   8.8784619  47.6066514  42.1384367   8.7200537  46.9043765  40.8066725
   6.1190376  43.7547434  42.5128151   7.0200239  43.6153899  42.2212149
   6.1938351  43.9201889  43.4526329  10.3304810  50.1913448  41.4410866
  10.0389619  50.5543428  42.2774327   9.7176942  49.4780456  41.2624198
  11.5300493  47.7566328  33.9613436  12.3647384  48.1956132  34.1250997
  11.6659622  47.2804981  33.1421682   8.5791999  45.3146063  39.9090924
   9.0546120  45.5073709  39.1009775   7.6557564  45.3705248  39.6634308
   3.1572215  37.3493906  38.8746758   3.6754159  38.0854933  38.5493246
   2.8027348  37.6557899  39.7093517   3.4084809  33.7694189  34.3947654
   3.6886563  33.1017378  35.0208081   4.1935416  33.9623284  33.8822318
   1.2118278  52.9453183  25.9572681   0.6392245  53.5643370  25.5043153
   1.7851072  53.4952544  26.4912603   7.2793668  42.1911823  38.1419230
   8.2311091  42.2909920  38.1631454   7.1097118  41.3990091  38.6517314
   5.3008047  39.2767406  38.3278630   4.7057979  39.5572419  37.6325119
   5.0157744  39.7661307  39.0995372   4.4315538  53.2290333  27.0881263
   5.3646211  53.1635894  27.2914138   4.3438750  54.0646599  26.6295796
   7.0603554  52.5456203  24.0485211   6.9817186  52.2116067  24.9420968
   7.8813221  53.0377971  24.0476683   9.7581745  45.4117942  37.2561529
   9.7258066  44.4733943  37.4421213  10.3682369  45.4901979  36.5227354
   1.5965076  44.2813995  23.2988733   2.5424181  44.1520203  23.3677151
   1.2179321  43.5428657  23.7758161   9.9076234  42.2028986  37.3019812
   9.3915283  41.4187442  37.1149741  10.7916182  41.8747702  37.4666332
   7.5686961  35.9470001  33.2615625   7.3711782  35.6385089  34.1458957
   8.1786666  36.6731640  33.3913555  15.5758295  46.4733949  36.3967566
  16.3061684  46.2119237  36.9575269  14.9665241  45.7362671  36.4369634
  13.6573592  44.6141812  36.9942017  12.9306756  44.4797777  36.3858509
  13.2420879  44.9218640  37.7998735   1.4803769  48.3331741  44.7589390
   2.4006778  48.5110340  44.9529437   1.4453352  47.3887787  44.6069089
   1.3970059  36.7500861  29.3887860   0.5870788  36.4047946  29.7643106
   2.0854476  36.4408405  29.9775471   3.3260608  35.8278908  31.0112156
   3.8791646  36.2474362  31.6702179   3.5630694  34.9014656  31.0535112
   6.7039415  37.9379433  30.5190821   6.1238084  38.5964237  30.1368873
   6.4375347  37.1156778  30.1078238   5.1542981  37.3384491  32.7212141
   5.6542759  37.4501026  31.9126460   5.7978589  37.0345544  33.3612949
   5.4864293  40.0979524  29.5747169   4.5990148  40.3829174  29.3567364
   5.9018282  39.9373287  28.7274446   8.8378829  40.1226045  33.2901508
   9.6139219  40.6122497  33.5626125   8.1126963  40.5484099  33.7473378
  11.2751387  40.8353664  34.3475449  11.8695878  40.5949400  33.6368757
  11.3477971  40.1160794  34.9748985   4.6307506  49.8624198  23.6695189
   5.3343356  50.0674201  24.2852844   3.9070155  50.4300960  23.9344272
   5.4605316  45.6134060  29.7897459   5.4040518  46.0702611  28.9505091
   6.0133659  44.8524744  29.6120302   9.2710122  41.4023792  30.6147579
   9.0147057  41.0020427  31.4455786   8.6462990  42.1167585  30.4897718
  13.5822460  44.1419865  33.1218870  13.0222018  44.2113054  33.8950432
  12.9765963  43.9660849  32.4018366   6.5394203  50.3006728  25.7193649
   7.3739807  49.8687926  25.5371124   6.3778546  50.1288741  26.6470543
   6.1940096  46.8038841  27.0849988   6.1388899  46.6383112  26.1438432
   5.5686151  47.5114874  27.2412178   3.5086003  49.1087753  46.4103551
   4.3777162  49.2828405  46.0490186   3.0292754  49.9282170  46.2879280
   3.3188341  32.8989727  30.9181243   2.5520736  32.3448213  31.0637926
   3.7299046  32.9711595  31.7795395  15.1678479  60.8176379  35.8148826
  15.8056889  60.6983126  35.1112166  15.0499321  61.7657223  35.8736778
  11.9768185  60.7703807  35.7510350  11.6386696  60.6544872  34.8630885
  12.8457953  60.3694972  35.7311356   7.8355001  62.6239283  31.7407241
   7.2719866  62.5329220  30.9723529   7.7207396  61.8039188  32.2209734
  12.4587968  61.9238659  41.7096556  12.4476609  61.5291457  40.8377060
  12.6208607  61.1904731  42.3030327   5.3819432  64.1190475  34.5791462
   6.1740724  63.7781299  34.1637761   5.6216083  64.2285450  35.4993615
  13.4154559  66.2910251  27.0521706  12.7642539  66.8764331  26.6655720
  14.2098922  66.8216446  27.1116744   7.3410186  63.3799388  27.4508841
   8.1141062  62.8328375  27.3121716   7.6935585  64.2443637  27.6623302
   9.1795229  64.7075770  40.6575740   8.8885095  65.6121401  40.5422406
   9.8152213  64.7492298  41.3719809  10.1051436  62.0852619  37.2477100
  10.7015008  61.8608641  36.5334062  10.1626407  61.3437364  37.8502547
   9.6776464  59.5392054  25.0827290   9.9301985  59.0173575  24.3210753
   8.7401023  59.3758200  25.1853974  14.7219747  58.5427833  32.8902034
  15.5082836  58.1247256  32.5392451  14.9858451  59.4473925  33.0583682
  14.8929824  63.9800683  27.5890691  14.2575657  64.0535309  28.3011595
  14.5627231  64.5694282  26.9109770  20.1228174  58.4803066  33.7935012
  20.8553346  57.9102283  34.0272842  19.3667530  58.0924666  34.2341518
   9.3972753  61.4420160  27.2851665   9.2809011  60.7665064  27.9532750
   9.5075013  60.9552534  26.4683818  11.7404294  60.9030307  30.9898355
  11.3762501  60.3760928  31.7011276  12.5971410  60.5128776  30.8164840
  17.6453595  52.1924640  38.2529621  17.3136919  53.0620051  38.0290836
  17.0499208  51.8760924  38.9323651  11.3809781  55.9320207  25.9859703
  11.5484183  56.8000443  26.3530174  11.1906950  56.0947489  25.0620992
  14.1385114  64.3937186  37.6525534  13.8385837  65.2962225  37.5441341
  13.7936174  64.1269369  38.5046686   7.5897596  60.8450983  33.6862238
   6.6648092  60.7127197  33.8939930   7.8382009  61.6245202  34.1832180
  17.5382258  56.9119726  35.3322971  16.6299135  56.8435134  35.0381732
  17.4869854  57.3891671  36.1604796  11.3599002  58.3877864  26.9706370
  11.2398627  58.8334915  27.8091850  10.6651590  58.7363182  26.4119908
   4.9506407  60.4884256  34.5206027   5.0798788  60.7418735  35.4345439
   4.2703858  61.0811964  34.2010682   9.1205894  71.1581506  30.6196501
   9.0429924  72.1089331  30.6984982   8.5167537  70.8127379  31.2771428
  11.6123124  58.3309372  43.2757868  10.8356458  58.8903292  43.2660733
  12.2513687  58.8166155  43.7972738  19.4043904  55.1136164  37.1100845
  18.7618285  55.4068698  36.4640639  18.8998833  54.9989085  37.9154041
  17.0584068  58.8599338  27.7986704  17.9701924  59.0926724  27.6234402
  16.5493715  59.4436382  27.2361783   9.8669496  61.1394825  42.8375835
  10.6084180  61.6779869  42.5610659   9.1606481  61.7661114  42.9947387
  15.3424836  63.2823965  41.4347997  15.7508192  62.8406376  40.6902629
  14.6202097  62.7076593  41.6882190  11.6955906  58.2196572  38.8081554
  12.5417101  58.6435986  38.9516203  11.6354543  57.5630197  39.5020117
  15.6653650  63.8425156  35.1900286  15.0362513  64.0070870  34.4876353
  15.2779312  64.2566766  35.9611250  19.5442882  64.7779594  32.5444649
  18.8593920  65.1578495  31.9941683  19.6286731  65.3874921  33.2776597
  14.8455351  55.8800941  40.4662727  14.6016283  56.6343001  39.9297003
  15.1215281  56.2586288  41.3009974  16.7993814  62.4239553  39.1439993
  17.0110709  63.0671313  38.4674374  16.7523562  61.5901870  38.6761923
  14.4020043  55.0357374  36.0476565  13.5404522  55.3338627  36.3393303
  14.4282477  55.2527772  35.1157598  11.2181612  63.5799564  32.4550371
  11.6819958  63.8587267  31.6654993  10.9538410  62.6783009  32.2723461
   8.1105693  63.1271046  35.3930134   8.6807050  63.5558314  34.7547618
   8.7013805  62.8453630  36.0914320  10.1550498  59.7022717  29.2639936
  10.8574542  60.1543760  29.7313862   9.8231127  59.0606535  29.8919829
   8.6030860  58.2934473  43.6391145   7.9729520  58.9750754  43.8726542
   8.4966948  58.1817555  42.6944283   3.8975832  57.9606269  34.5657069
   3.1074886  58.2163798  34.0897180   4.3887080  58.7754607  34.6709110
  17.9139642  65.3011508  37.3162350  18.7357085  64.8991696  37.0345032
  17.9102045  65.1979743  38.2678466   5.8490578  58.3250848  31.5240546
   5.0521741  58.4369543  32.0424042   5.6216170  58.6637501  30.6581437
  11.6796245  64.8495552  39.4723061  11.7440678  65.3115959  40.3081232
  10.9707169  64.2192917  39.6005370   2.1813535  58.2136760  36.9972060
   2.4321574  59.0983770  37.2629636   2.7173084  58.0341361  36.2247152
  26.0045635  61.6450257  33.6647322  25.2509343  61.0757655  33.5091326
  26.1393176  61.6112921  34.6117956  11.3944263  66.5163659  29.3402041
  11.2589938  67.3615195  29.7686889  11.9354075  66.7182937  28.5767975
   7.8811602  52.5955239  46.0016396   7.4878548  52.0421438  46.6764040
   8.6977743  52.9065817  46.3922914   4.8473660  64.0339097  29.9129966
   5.3598181  64.8282347  30.0635531   5.4996373  63.3365388  29.8463568
   6.6568545  67.1504853  31.9952719   6.8335173  68.0722818  31.8073703
   7.4525378  66.8363273  32.4247099  10.7979563  54.0113118  43.5936653
  11.5389277  54.6120271  43.5141115  11.0297486  53.2690756  43.0354695
   5.9420901  59.1969485  41.8714882   5.8274417  58.2954743  42.1721981
   5.0865419  59.4433182  41.5199699  13.0212739  67.1387226  43.4702383
  12.5776593  66.3523604  43.1523288  13.6829953  67.3266376  42.8046274
   7.7799860  68.6683027  37.9963062   8.3307285  68.5400091  37.2240056
   6.9411336  68.9677916  37.6457954  15.1193977  67.4190026  41.4983784
  15.1012453  68.2398907  41.0064053  16.0413897  67.2944101  41.7233925
  11.5767031  64.9334155  42.3407293  12.1095368  64.1722443  42.1106601
  11.0481112  64.6407807  43.0831447  14.7436726  50.0394221  37.8700934
  14.4000996  50.9295863  37.7940045  15.1115689  49.8495879  37.0070519
   2.8122577  62.3627751  30.6889537   3.6497799  62.7724760  30.4723244
   2.9900845  61.4227194  30.6589730  14.7087009  60.0302832  26.3773370
  14.1933633  60.8007437  26.6161757  14.4364318  59.3567968  27.0006431
  12.2934120  54.8752533  31.4358608  11.4375716  54.4859383  31.2564247
  12.7061072  54.9544494  30.5758393  13.8233267  52.4098876  35.8350168
  13.3198062  52.3729011  35.0217973  14.1163874  53.3191619  35.8946824
  10.0676153  52.4937606  34.8416349  10.9329149  52.2980415  34.4822239
  10.1353662  52.2647958  35.7685706  19.6821283  62.7835187  28.3126543
  18.9050726  62.4446346  27.8681705  20.3612764  62.7887810  27.6381508
  14.4973312  57.9029924  28.2033151  14.1923448  58.2176073  29.0543294
  15.4503754  57.9811344  28.2460484  12.9419744  64.0620148  29.8526105
  12.4141106  63.3272907  29.5399342  12.4407247  64.8394824  29.6066073
  17.9212590  62.2569168  34.9693151  17.2636265  62.9468429  35.0573280
  18.7252989  62.6465600  35.3127137   7.6738472  54.7239814  32.2132716
   8.2482224  54.5014995  31.4805909   8.2609454  54.7928508  32.9661318
  16.7318049  60.6113541  33.0197093  17.2449931  61.2443533  33.5218802
  17.3819273  60.0114736  32.6540453   8.0008059  56.7544275  26.2328601
   7.1645371  57.0918961  26.5537876   7.8612828  56.6193255  25.2955738
   9.9761139  51.5981063  30.9407786   9.3225552  51.2830080  30.3164400
   9.9341614  50.9756803  31.6667609  11.0872344  61.8800358  22.8561078
  10.1799406  61.6489611  23.0552227  11.5843376  61.0837977  23.0435059
  13.9940423  70.5897865  25.7757764  13.3202122  70.8929562  26.3842722
  14.3806245  71.3926945  25.4263221  13.2098880  58.0862996  35.2655433
  12.2921441  58.3077943  35.1077121  13.6259023  58.1609307  34.4067141
  13.9933928  59.4854412  30.3958114  14.7405746  59.9975809  30.0865236
  14.2625517  59.1638465  31.2562507  12.2660578  61.9812953  27.3785068
  11.3571797  61.6971986  27.4757538  12.2955662  62.4012031  26.5188375
  17.4979845  65.5919542  31.1476235  17.0442172  64.7510452  31.2041426
  16.8673812  66.2280941  31.4851016  16.4412765  56.5211528  32.3776903
  15.7035521  56.0088914  32.7087145  16.6939538  56.0811910  31.5660180
  15.9412784  67.4296039  32.0826054  16.2335759  67.9901096  31.3638419
  16.4511405  67.7224600  32.8379213  16.5424392  49.2987780  32.9718672
  16.8483269  48.4385144  32.6844587  17.2676997  49.8905400  32.7717666
   2.8348748  59.7018467  31.3600270   2.6373148  59.1087828  30.6351337
   2.2795412  59.3970677  32.0776209  10.8145472  59.5941573  33.4794863
  10.8694082  58.6415410  33.4037340  10.0036674  59.7501012  33.9636162
  11.9636666  63.5221696  24.7173146  11.5256095  62.8057555  24.2578784
  12.7047106  63.7497811  24.1558238   8.7537832  58.2118633  31.2385242
   7.9405697  58.5112804  31.6450434   9.2496826  57.8174322  31.9559724
  10.9046410  68.2076390  33.1719507  10.8622588  68.4337236  32.2428039
  11.8209108  67.9739765  33.3205308  14.3512043  58.6760458  40.0700136
  14.7061431  58.9031931  40.9294602  14.9984175  59.0078834  39.4477391
  20.0809780  61.7978893  30.7749465  19.9427679  61.9880489  29.8470654
  19.7245999  62.5598276  31.2317516   8.2451906  55.7836989  36.8546477
   8.8851286  55.6425748  36.1569440   7.4129437  55.4971502  36.4785079
  20.1079160  63.8655420  35.7860736  20.5415667  63.7730709  36.6343791
  20.8210741  63.8412921  35.1480752   9.0212210  65.0839419  32.9681469
   9.8152809  64.5889739  32.7664044   8.3103903  64.5557282  32.6049175
  13.8407055  67.4657515  37.3193837  13.8944077  68.0348451  38.0871553
  12.9721836  67.6359400  36.9547874   5.3294974  59.2282501  29.0441222
   4.3992562  59.1666956  29.2611184   5.4252446  58.7058453  28.2477863
   5.2480523  55.7537314  31.6319464   5.5087340  56.6682647  31.5228624
   6.0697695  55.2861756  31.7816077   6.7205448  57.1675071  38.8018288
   7.3928502  56.9592433  38.1530937   5.8935235  56.9697157  38.3623521
  20.9694709  63.9079121  38.3193622  21.1630600  64.8124932  38.5652897
  20.8695328  63.4486540  39.1532207  12.6231020  53.7937012  40.8183949
  11.9758935  54.4926961  40.7248426  13.3932036  54.2273156  41.1860197
  16.0309818  64.0585864  43.8934502  15.8795325  63.8296415  42.9764586
  16.0214498  65.0156465  43.9065848  12.7995155  61.6317777  38.8780769
  13.7287215  61.7828936  38.7049736  12.3786185  61.7201797  38.0229415
  11.5983486  65.6568441  36.6479307  11.4594572  65.2887225  37.5205245
  10.8098083  66.1716080  36.4763264  12.1931638  70.7577537  27.9904843
  12.3683394  70.2865581  28.8050466  11.5064426  71.3843304  28.2186104
  13.1488701  65.0350044  34.0368144  12.8138534  64.9950814  34.9325794
  12.6492647  64.3694760  33.5638555   7.1232945  60.4417674  39.5620726
   6.9852743  59.7097913  40.1632265   8.0337869  60.3526574  39.2804913
  16.0847893  62.3806078  24.3105204  15.4677064  61.6552906  24.2138257
  15.6164382  63.1415438  23.9672278   9.7515246  60.1537633  39.0504405
  10.4614865  59.5130825  39.0091024   9.7084554  60.4050528  39.9730586
  17.7402025  67.0904986  41.9710984  17.6814571  66.4064206  41.3041567
  18.1421543  67.8323976  41.5191610   8.4644180  57.1402851  40.8700045
   7.9281537  56.6893589  41.5221641   7.8760889  57.2748760  40.1270509
   6.7592724  73.9066900  34.7644703   6.9989322  74.5385424  35.4423722
   5.9161920  73.5554940  35.0510063   7.8746439  56.5991502  23.4326508
   6.9975905  56.4780303  23.0688755   8.3504192  55.8077581  23.1805397
  17.7419432  65.0544570  40.2024964  16.8546211  64.7170492  40.3251363
  18.3117983  64.3227602  40.4393729   4.1983301  56.2758859  37.9553039
   4.1141490  55.6684528  37.2203449   3.3766008  56.7667877  37.9562535
  11.2720585  69.7146023  37.1686207  11.1990757  70.5200994  37.6805512
  10.8297979  69.9137988  36.3434229  11.0610365  68.9517793  30.6789029
  10.2777887  69.4939473  30.7727253  11.7603110  69.4691772  31.0783270
  14.3707015  54.7612422  33.3223234  14.8675715  54.0082384  33.0024304
  13.5993997  54.7976739  32.7566443  22.2236773  60.4652788  34.9641526
  22.2126649  61.3477503  34.5935459  21.3554152  60.1124338  34.7696063
  13.7319269  69.6132857  39.3244366  14.4447241  70.2480321  39.2520267
  13.2409298  69.7096723  38.5084368  15.4536796  63.5184109  30.8961658
  14.5193075  63.6385572  30.7266362  15.6313464  62.6156576  30.6321667
  10.9541984  56.9029805  33.0494919  10.5839771  56.3500846  33.7375824
  11.4501076  56.2987939  32.4969919  18.8409347  59.3601429  31.4311692
  19.3069799  60.1929420  31.3571994  19.2916848  58.8946410  32.1356950
   8.7831183  67.3627300  40.1449937   9.4840642  67.9963783  40.2979331
   8.3126298  67.7042032  39.3845576  16.9085578  65.7045250  28.4297844
  17.1845422  65.5901845  29.3391718  16.0390077  65.3062735  28.3910017
  16.8126010  51.7282016  35.4702593  15.8989090  51.9586242  35.6384800
  17.2419111  51.8120460  36.3216625  16.5832468  59.9171908  37.9702487
  15.9303919  60.1647815  37.3154940  16.9612848  59.1036046  37.6364964
  13.5439642  69.9531601  32.0730657  13.7262037  69.1353257  32.5358410
  14.3672628  70.1699293  31.6355547  13.8781808  68.8799786  29.3345706
  14.4069574  68.3692240  28.7215868  14.1410027  68.5642316  30.1991239
  12.6320041  60.6591719  44.4568524  11.9560679  60.5585848  45.1270899
  13.4547675  60.5030932  44.9204521   4.3798901  66.8963655  37.0781039
   4.9652337  66.1507343  37.2108944   4.1823739  67.2067612  37.9617703
   7.2337556  69.9314903  32.0943482   6.5647931  70.4161030  31.6107522
   7.0950425  70.1784123  33.0086860  11.3742824  71.9658646  38.6926140
  11.9261132  72.1290268  39.4575225  11.7149018  72.5563084  38.0206165
   6.3507318  54.3133796  39.2948025   6.4148644  55.1748627  38.8825423
   6.2874438  53.7007798  38.5620383   5.8259590  56.3856928  42.9421059
   6.4531629  56.0034006  43.5558583   4.9687509  56.1671130  43.3076752
  16.2253699  66.7919904  44.5474795  16.7693603  67.4049862  44.0529749
  15.6440544  67.3499482  45.0641808   2.6025133  58.1933358  28.8739414
   2.8978574  57.2844036  28.8206468   1.7013169  58.1721097  28.5520416
  14.5111212  69.9140622  35.6789822  14.3862351  69.1130361  35.1700768
  15.1690303  70.4086815  35.1903792   6.1319380  56.2689354  34.8566963
   5.4105966  56.8825322  34.7174436   6.9212636  56.8047119  34.7783608
  16.5746120  67.7149642  37.3069372  15.6276456  67.5954993  37.2347699
  16.9228893  66.8272140  37.3895634   8.9345693  53.6043781  41.1307614
   9.4580095  53.8506077  41.8933924   8.7158027  54.4363815  40.7110752
   4.3312974  55.8747455  28.9978739   4.0025681  54.9944834  28.8153845
   4.6852345  55.8195124  29.8855128  13.5792553  67.5102358  33.5073725
  13.4317516  66.5819065  33.6881295  14.4046047  67.5322449  33.0230800
   7.4454798  56.1620425  29.3654217   7.7850870  56.6906346  28.6432825
   7.8926918  56.5000831  30.1412783  17.1826675  68.3330917  34.5938597
  18.1073223  68.1273778  34.4563049  17.0141979  68.0847318  35.5027939
  10.1398238  54.5457476  38.8157285   9.7995059  53.7465289  39.2177965
   9.4337245  54.8459187  38.2434118  10.7914710  51.6306788  37.2684608
  11.6140780  51.1567266  37.1463498  11.0352774  52.4097272  37.7683294
   9.4322945  54.6595047  27.5647510  10.1531307  55.0376299  27.0611226
   8.8088249  55.3783923  27.6682487  13.5754068  55.3640196  28.5005842
  13.7917682  56.2464833  28.1994670  13.0948135  54.9726409  27.7711484
   8.3153289  58.3225909  35.0776586   8.1697870  58.6366212  35.9700868
   7.8378493  58.9410809  34.5247485  10.1749672  55.3128457  35.1257476
  10.1611241  54.4169550  34.7889774  10.8922100  55.3199121  35.7595762
  12.0275803  55.7465797  37.1710603  11.7693580  56.6682868  37.1694934
  11.4960843  55.3496232  37.8611068  16.9721991  68.8516584  29.9500689
  17.1458869  68.2863007  29.1974541  17.4650883  69.6517479  29.7680179
   2.7898951  60.8631253  38.0164248   2.2452419  61.6391061  38.1484522
   3.6678301  61.2102058  37.8583369   9.5786568  54.1942837  30.3945046
   9.7002479  53.2659483  30.5935934   9.2888610  54.2081523  29.4823362
  12.4477758  51.8797747  33.5311766  12.4699455  51.9437081  32.5763746
  12.8645817  51.0402256  33.7252272  22.8261383  61.6153007  31.5690989
  23.2692529  60.8660332  31.1710112  21.9487893  61.6063143  31.1864721
  17.9597164  68.1683349  27.0497587  18.6548069  68.7890041  27.2684902
  18.3020314  67.3178700  27.3249965   3.5764973  59.9901149  40.9094404
   2.8346709  60.1383785  41.4959035   3.2557717  60.2509415  40.0461154
  19.8588587  65.6183054  28.5784918  20.3839911  65.9570327  27.8534238
  19.7710940  64.6830069  28.3948053  11.5208636  69.5317128  40.7074795
  11.8295762  69.2866274  41.5797494  12.3184118  69.7363766  40.2193665
  11.5429248  71.6855037  32.9380171  11.1034238  71.1931416  33.6313028
  12.2937365  71.1428005  32.6972246   4.0221587  67.8766578  32.9404799
   4.8479607  67.5770350  32.5603443   3.6715639  67.1074201  33.3894588
   8.9903120  67.2293046  35.0102473   8.3683129  66.5663751  34.7104701
   9.6607987  67.2554178  34.3276121   2.2230192  65.7952905  33.8993733
   1.3862100  65.3675079  33.7177734   2.1953837  65.9885348  34.8364524
   9.0627647  55.7074834  44.6034979   9.1115803  56.5836957  44.2212748
   9.6050162  55.1652227  44.0306622  19.5482493  66.2515958  43.8836116
  18.7578037  66.2340097  43.3440615  19.3115848  66.7904251  44.6385152
  19.6680368  63.1008424  41.1968844  19.7178373  62.9358431  42.1384367
  19.5594291  62.2335683  40.8066725   8.5516627  65.7796970  28.4860933
   8.7004747  66.4632434  27.8327606   9.3583070  65.7602060  29.0010389
  16.9584131  59.0839352  42.5128151  17.8593993  58.9445817  42.2212149
  17.0332105  59.2493807  43.4526329  11.2926936  56.4606207  41.3581337
  10.4230245  56.7539773  41.0863926  11.5286416  57.0446652  42.0788601
  21.1698565  65.5205366  41.4410866  20.8783373  65.8835346  42.2774327
  20.5570696  64.8072374  41.2624198  22.3694247  63.0858245  33.9613436
  23.2041139  63.5248049  34.1250997  22.5053376  62.6096899  33.1421682
  19.4185753  60.6437980  39.9090924  19.8939875  60.8365627  39.1009775
  18.4951319  60.6997166  39.6634308   6.3069260  61.8062147  29.4922002
   6.0615302  60.9024477  29.6902212   6.4765174  61.8079298  28.5501480
  13.9965970  52.6785824  38.8746758  14.5147914  53.4146851  38.5493246
  13.6421102  52.9849817  39.7093517   5.5764907  57.5390505  26.9908164
   4.8834152  57.6134860  26.3348200   5.3316659  56.7750849  27.5129681
  14.2478564  49.0986106  34.3947654  14.5280318  48.4309295  35.0208081
  15.0329171  49.2915202  33.8822318  12.0512032  68.2745100  25.9572681
  11.4785999  68.8935287  25.5043153  12.6244826  68.8244462  26.4912603
  18.1187422  57.5203740  38.1419230  19.0704845  57.6201838  38.1631454
  17.9490873  56.7282009  38.6517314  16.1401802  54.6059323  38.3278630
  15.5451734  54.8864336  37.6325119  15.8551498  55.0953224  39.0995372
  15.2709292  68.5582250  27.0881263  16.2039965  68.4927812  27.2914138
  15.1832505  69.3938517  26.6295796  17.8997309  67.8748121  24.0485211
  17.8210940  67.5407984  24.9420968  18.7206976  68.3669889  24.0476683
  20.5975500  60.7409860  37.2561529  20.5651820  59.8025861  37.4421213
  21.2076124  60.8193897  36.5227354  12.4358831  59.6105913  23.2988733
  13.3817936  59.4812121  23.3677151  12.0573076  58.8720575  23.7758161
  20.7469988  57.5320903  37.3019812  20.2309037  56.7479360  37.1149741
  21.6309937  57.2039620  37.4666332  18.4080715  51.2761919  33.2615625
  18.2105537  50.9677007  34.1458957  19.0180421  52.0023558  33.3913555
  26.4152050  61.8025867  36.3967566  27.1455438  61.5411155  36.9575269
  25.8058995  61.0654589  36.4369634  24.4967347  59.9433729  36.9942017
  23.7700511  59.8089694  36.3858509  24.0814634  60.2510558  37.7998735
  12.3197523  63.6623659  44.7589390  13.2400533  63.8402258  44.9529437
  12.2847106  62.7179704  44.6069089  10.6201748  57.5355889  23.2343618
   9.7133203  57.2389002  23.3106332  10.8977729  57.2385707  22.3677905
   1.5379688  58.8562253  33.6842665   1.2182473  58.0027561  33.3917039
   0.9913117  59.0710831  34.4400632   5.3159596  61.5724694  37.4012171
   5.5345606  62.5041802  37.4200205   5.7285370  61.2132668  38.1866975
  12.2363814  52.0792779  29.3887860  11.4264542  51.7339864  29.7643106
  12.9248231  51.7700323  29.9775471  14.1654362  51.1570826  31.0112156
  14.7185401  51.5766279  31.6702179  14.4024448  50.2306574  31.0535112
  10.1887461  57.1457899  46.7914920  10.0884188  58.0952256  46.7227011
   9.9709003  56.8176138  45.9190990   9.3900533  54.3942825  23.3755598
  10.2519697  54.7197723  23.6351415   9.5750877  53.6074320  22.8628663
   1.4067948  62.4765164  35.6535786   0.7131420  62.0619117  35.1405741
   2.1540939  62.5185701  35.0569205  17.5433169  53.2671351  30.5190821
  16.9631838  53.9256155  30.1368873  17.2769102  52.4448696  30.1078238
  15.9936735  52.6676409  32.7212141  16.4936514  52.7792943  31.9126460
  16.6372343  52.3637462  33.3612949  10.0518731  60.5755038  45.6079982
   9.5685813  61.3755398  45.8143871  10.1379670  60.5862983  44.6547426
   3.3204691  62.4083418  33.5301801   3.2975379  62.5071105  32.5783684
   3.6305327  63.2548569  33.8518967   5.9792069  64.4659573  37.6448416
   6.9335322  64.4343515  37.5778347   5.7804592  64.0050197  38.4598642
   6.5691451  63.0360689  40.2119213   7.3884340  63.5304768  40.2354051
   6.8428259  62.1192657  40.1836781  16.3258047  55.4271441  29.5747169
  15.4383902  55.7121092  29.3567364  16.7412036  55.2665205  28.7274446
  19.6772583  55.4517962  33.2901508  20.4532973  55.9414415  33.5626125
  18.9520717  55.8776017  33.7473378  22.1145142  56.1645582  34.3475449
  22.7089633  55.9241318  33.6368757  22.1871726  55.4452712  34.9748985
   4.3342298  70.0079193  34.6618614   4.1996765  69.2479593  34.0956612
   3.9174360  70.7320092  34.1947402  15.4701261  65.1916116  23.6695189
  16.1737111  65.3966119  24.2852844  14.7463909  65.7592878  23.9344272
  16.2999071  60.9425977  29.7897459  16.2434272  61.3994529  28.9505091
  16.8527413  60.1816662  29.6120302  20.1103877  56.7315709  30.6147579
  19.8540811  56.3312345  31.4455786  19.4856745  57.4459503  30.4897718
  24.4216215  59.4711782  33.1218870  23.8615773  59.5404972  33.8950432
  23.8159718  59.2952767  32.4018366   7.4911423  70.9048510  34.8737056
   7.3743808  71.8493942  34.7715746   6.6703870  70.6022071  35.2622855
  17.3787958  65.6298645  25.7193649  18.2133562  65.1979844  25.5371124
  17.2172301  65.4580659  26.6470543  17.0333850  62.1330759  27.0849988
  16.9782654  61.9675030  26.1438432  16.4079905  62.8406791  27.2412178
   1.8226365  57.3698823  40.9111410   2.4685229  56.8597777  41.3998636
   1.6143516  58.1067505  41.4854836  14.3479757  64.4379670  46.4103551
  15.2170917  64.6120323  46.0490186  13.8686509  65.2574087  46.2879280
  10.3429976  51.6338868  26.6635307  10.3308645  52.5780707  26.8203577
  11.2353397  51.4509013  26.3694768   8.5165938  71.5576771  38.0892985
   9.4193184  71.5900382  38.4059480   8.2903308  70.6277222  38.1039320
  10.2719540  70.3107758  34.7503063   9.3215171  70.3109620  34.6367436
  10.5752026  69.5640493  34.2339098  14.1582095  48.2281644  30.9181243
  13.3914491  47.6740131  31.0637926  14.5692800  48.3003513  31.7795395
   6.1623856  54.5166440  45.0086425   7.0255318  54.1603245  45.2189749
   5.5889267  54.1780335  45.6961829  26.0072233  76.1468296  35.8148826
  26.6450643  76.0275044  35.1112166  25.8893076  77.0949140  35.8736778
  22.8161939  76.0995724  35.7510350  22.4780451  75.9836789  34.8630885
  23.6851708  75.6986890  35.7311356  18.6748755  77.9531201  31.7407241
  18.1113620  77.8621138  30.9723529  18.5601150  77.1331105  32.2209734
  23.2981722  77.2530576  41.7096556  23.2870363  76.8583374  40.8377060
  23.4602362  76.5196649  42.3030327  16.2213187  79.4482392  34.5791462
  17.0134479  79.1073217  34.1637761  16.4609837  79.5577368  35.4993615
  24.2548314  81.6202169  27.0521706  23.6036294  82.2056249  26.6655720
  25.0492677  82.1508364  27.1116744  18.1803941  78.7091306  27.4508841
  18.9534817  78.1620293  27.3121716  18.5329340  79.5735555  27.6623302
  20.0188983  80.0367688  40.6575740  19.7278849  80.9413319  40.5422406
  20.6545968  80.0784216  41.3719809  20.9445190  77.4144537  37.2477100
  21.5408763  77.1900559  36.5334062  21.0020162  76.6729282  37.8502547
  20.5170219  74.8683972  25.0827290  20.7695739  74.3465493  24.3210753
  19.5794778  74.7050117  25.1853974  25.5613502  73.8719750  32.8902034
  26.3476591  73.4539173  32.5392451  25.8252206  74.7765842  33.0583682
  25.7323579  79.3092601  27.5890691  25.0969412  79.3827227  28.3011595
  25.4020985  79.8986199  26.9109770  30.9621929  73.8094983  33.7935012
  31.6947101  73.2394200  34.0272842  30.2061284  73.4216584  34.2341518
  20.2366507  76.7712078  27.2851665  20.1202766  76.0956981  27.9532750
  20.3468767  76.2844452  26.4683818  22.5798048  76.2322225  30.9898355
  22.2156256  75.7052846  31.7011276  23.4365164  75.8420694  30.8164840
  28.4847349  67.5216558  38.2529621  28.1530674  68.3911968  38.0290836
  27.8892962  67.2052842  38.9323651  22.2203535  71.2612125  25.9859703
  22.3877938  72.1292361  26.3530174  22.0300704  71.4239406  25.0620992
  24.9778869  79.7229104  37.6525534  24.6779592  80.6254142  37.5441341
  24.6329928  79.4561287  38.5046686  18.4291350  76.1742900  33.6862238
  17.5041847  76.0419114  33.8939930  18.6775763  76.9537120  34.1832180
  28.3776012  72.2411644  35.3322971  27.4692890  72.1727052  35.0381732
  28.3263608  72.7183589  36.1604796  22.1992756  73.7169782  26.9706370
  22.0792381  74.1626833  27.8091850  21.5045345  74.0655100  26.4119908
  15.7900161  75.8176174  34.5206027  15.9192542  76.0710653  35.4345439
  15.1097612  76.4103882  34.2010682  19.9599648  86.4873424  30.6196501
  19.8823678  87.4381249  30.6984982  19.3561292  86.1419296  31.2771428
  22.4516878  73.6601289  43.2757868  21.6750212  74.2195209  43.2660733
  23.0907441  74.1458072  43.7972738  30.2437659  70.4428082  37.1100845
  29.6012039  70.7360615  36.4640639  29.7392587  70.3281002  37.9154041
  27.8977822  74.1891255  27.7986704  28.8095679  74.4218642  27.6234402
  27.3887469  74.7728300  27.2361783  20.7063250  76.4686743  42.8375835
  21.4477935  77.0071787  42.5610659  20.0000236  77.0953031  42.9947387
  26.1818590  78.6115883  41.4347997  26.5901946  78.1698294  40.6902629
  25.4595852  78.0368511  41.6882190  22.5349660  73.5488490  38.8081554
  23.3810855  73.9727903  38.9516203  22.4748298  72.8922114  39.5020117
  26.5047405  79.1717074  35.1900286  25.8756267  79.3362788  34.4876353
  26.1173067  79.5858683  35.9611250  30.3836637  80.1071512  32.5444649
  29.6987675  80.4870413  31.9941683  30.4680486  80.7166838  33.2776597
  25.6849105  71.2092858  40.4662727  25.4410037  71.9634919  39.9297003
  25.9609036  71.5878206  41.3009974  27.6387568  77.7531471  39.1439993
  27.8504463  78.3963231  38.4674374  27.5917316  76.9193787  38.6761923
  25.2413797  70.3649291  36.0476565  24.3798276  70.6630545  36.3393303
  25.2676232  70.5819690  35.1157598  22.0575367  78.9091482  32.4550371
  22.5213712  79.1879185  31.6654993  21.7932165  78.0074926  32.2723461
  18.9499448  78.4562963  35.3930134  19.5200805  78.8850232  34.7547618
  19.5407560  78.1745548  36.0914320  20.9944253  75.0314634  29.2639936
  21.6968296  75.4835678  29.7313862  20.6624881  74.3898453  29.8919829
  19.4424614  73.6226391  43.6391145  18.8123275  74.3042672  43.8726542
  19.3360702  73.5109472  42.6944283  14.7369587  73.2898187  34.5657069
  13.9468641  73.5455715  34.0897180  15.2280834  74.1046525  34.6709110
  28.7533396  80.6303426  37.3162350  29.5750840  80.2283613  37.0345032
  28.7495799  80.5271660  38.2678466  16.6884332  73.6542766  31.5240546
  15.8915495  73.7661460  32.0424042  16.4609924  73.9929418  30.6581437
  22.5190000  80.1787469  39.4723061  22.5834432  80.6407877  40.3081232
  21.8100924  79.5484834  39.6005370  13.0207290  73.5428677  36.9972060
  13.2715328  74.4275687  37.2629636  13.5566838  73.3633279  36.2247152
  36.8439389  76.9742175  33.6647322  36.0903098  76.4049573  33.5091326
  36.9786930  76.9404839  34.6117956  22.2338017  81.8455577  29.3402041
  22.0983692  82.6907113  29.7686889  22.7747830  82.0474854  28.5767975
  18.7205357  67.9247157  46.0016396  18.3272302  67.3713355  46.6764040
  19.5371497  68.2357735  46.3922914  15.6867415  79.3631015  29.9129966
  16.1991935  80.1574265  30.0635531  16.3390128  78.6657305  29.8463568
  17.4962299  82.4796771  31.9952719  17.6728928  83.4014736  31.8073703
  18.2919133  82.1655190  32.4247099  21.6373318  69.3405036  43.5936653
  22.3783031  69.9412189  43.5141115  21.8691241  68.5982674  43.0354695
  16.7814656  74.5261403  41.8714882  16.6668171  73.6246660  42.1721981
  15.9259174  74.7725100  41.5199699  23.8606494  82.4679143  43.4702383
  23.4170348  81.6815522  43.1523288  24.5223707  82.6558294  42.8046274
  18.6193615  83.9974945  37.9963062  19.1701040  83.8692008  37.2240056
  17.7805091  84.2969834  37.6457954  25.9587732  82.7481943  41.4983784
  25.9406207  83.5690824  41.0064053  26.8807652  82.6236018  41.7233925
  22.4160786  80.2626073  42.3407293  22.9489123  79.5014361  42.1106601
  21.8874867  79.9699725  43.0831447  25.5830481  65.3686139  37.8700934
  25.2394750  66.2587780  37.7940045  25.9509443  65.1787796  37.0070519
  13.6516331  77.6919669  30.6889537  14.4891553  78.1016678  30.4723244
  13.8294599  76.7519111  30.6589730  25.5480764  75.3594750  26.3773370
  25.0327387  76.1299354  26.6161757  25.2758072  74.6859886  27.0006431
  23.1327875  70.2044451  31.4358608  22.2769471  69.8151301  31.2564247
  23.5454826  70.2836411  30.5758393  24.6627021  67.7390794  35.8350168
  24.1591817  67.7020929  35.0217973  24.9557628  68.6483537  35.8946824
  20.9069907  67.8229524  34.8416349  21.7722904  67.6272332  34.4822239
  20.9747416  67.5939875  35.7685706  30.5215038  78.1127104  28.3126543
  29.7444480  77.7738264  27.8681705  31.2006519  78.1179728  27.6381508
  25.3367067  73.2321842  28.2033151  25.0317202  73.5467991  29.0543294
  26.2897509  73.3103262  28.2460484  23.7813499  79.3912065  29.8526105
  23.2534860  78.6564825  29.5399342  23.2801001  80.1686742  29.6066073
  28.7606345  77.5861086  34.9693151  28.1030019  78.2760347  35.0573280
  29.5646744  77.9757518  35.3127137  18.5132226  70.0531732  32.2132716
  19.0875978  69.8306913  31.4805909  19.1003209  70.1220426  32.9661318
  27.5711803  75.9405458  33.0197093  28.0843685  76.5735450  33.5218802
  28.2213027  75.3406654  32.6540453  18.8401813  72.0836193  26.2328601
  18.0039126  72.4210879  26.5537876  18.7006583  71.9485172  25.2955738
  20.8154894  66.9272980  30.9407786  20.1619306  66.6121998  30.3164400
  20.7735368  66.3048721  31.6667609  21.9266099  77.2092275  22.8561078
  21.0193161  76.9781529  23.0552227  22.4237131  76.4129895  23.0435059
  24.8334178  85.9189783  25.7757764  24.1595876  86.2221479  26.3842722
  25.2200000  86.7218863  25.4263221  24.0492634  73.4154914  35.2655433
  23.1315196  73.6369861  35.1077121  24.4652778  73.4901224  34.4067141
  24.8327682  74.8146330  30.3958114  25.5799501  75.3267727  30.0865236
  25.1019272  74.4930382  31.2562507  23.1054332  77.3104870  27.3785068
  22.1965551  77.0263903  27.4757538  23.1349416  77.7303949  26.5188375
  28.3373600  80.9211460  31.1476235  27.8835927  80.0802370  31.2041426
  27.7067566  81.5572858  31.4851016  27.2806519  71.8503446  32.3776903
  26.5429276  71.3380832  32.7087145  27.5333293  71.4103828  31.5660180
  26.7806539  82.7587957  32.0826054  27.0729513  83.3193014  31.3638419
  27.2905159  83.0516518  32.8379213  27.3818147  64.6279698  32.9718672
  27.6877023  63.7677061  32.6844587  28.1070751  65.2197318  32.7717666
  13.6742503  75.0310384  31.3600270  13.4766902  74.4379745  30.6351337
  13.1189167  74.7262595  32.0776209  21.6539226  74.9233491  33.4794863
  21.7087836  73.9707327  33.4037340  20.8430428  75.0792930  33.9636162
  22.8030420  78.8513614  24.7173146  22.3649850  78.1349473  24.2578784
  23.5440861  79.0789729  24.1558238  19.5931586  73.5410551  31.2385242
  18.7799452  73.8404721  31.6450434  20.0890580  73.1466239  31.9559724
  21.7440164  83.5368308  33.1719507  21.7016343  83.7629154  32.2428039
  22.6602863  83.3031682  33.3205308  25.1905798  74.0052375  40.0700136
  25.5455186  74.2323848  40.9294602  25.8377929  74.3370752  39.4477391
  30.9203535  77.1270811  30.7749465  30.7821433  77.3172407  29.8470654
  30.5639754  77.8890194  31.2317516  19.0845661  71.1128906  36.8546477
  19.7245040  70.9717665  36.1569440  18.2523191  70.8263420  36.4785079
  30.9472914  79.1947338  35.7860736  31.3809421  79.1022627  36.6343791
  31.6604495  79.1704839  35.1480752  19.8605965  80.4131337  32.9681469
  20.6546563  79.9181657  32.7664044  19.1497657  79.8849200  32.6049175
  24.6800809  82.7949432  37.3193837  24.7337832  83.3640369  38.0871553
  23.8115591  82.9651317  36.9547874  16.1688728  74.5574418  29.0441222
  15.2386316  74.4958874  29.2611184  16.2646200  74.0350371  28.2477863
  16.0874277  71.0829231  31.6319464  16.3481095  71.9974564  31.5228624
  16.9091450  70.6153674  31.7816077  17.5599203  72.4966988  38.8018288
  18.2322256  72.2884351  38.1530937  16.7328989  72.2989074  38.3623521
  31.8088464  79.2371039  38.3193622  32.0024354  80.1416849  38.5652897
  31.7089082  78.7778458  39.1532207  23.4624775  69.1228929  40.8183949
  22.8152690  69.8218879  40.7248426  24.2325790  69.5565073  41.1860197
  26.8703573  79.3877781  43.8934502  26.7189079  79.1588333  42.9764586
  26.8608252  80.3448383  43.9065848  23.6388909  76.9609694  38.8780769
  24.5680969  77.1120854  38.7049736  23.2179939  77.0493715  38.0229415
  22.4377241  80.9860359  36.6479307  22.2988327  80.6179143  37.5205245
  21.6491837  81.5007998  36.4763264  23.0325393  86.0869455  27.9904843
  23.2077148  85.6157498  28.8050466  22.3458181  86.7135221  28.2186104
  23.9882456  80.3641961  34.0368144  23.6532289  80.3242731  34.9325794
  23.4886402  79.6986677  33.5638555  17.9626700  75.7709591  39.5620726
  17.8246498  75.0389830  40.1632265  18.8731623  75.6818491  39.2804913
  26.9241648  77.7097996  24.3105204  26.3070818  76.9844824  24.2138257
  26.4558136  78.4707356  23.9672278  20.5909001  75.4829551  39.0504405
  21.3008619  74.8422743  39.0091024  20.5478309  75.7342446  39.9730586
  28.5795779  82.4196904  41.9710984  28.5208325  81.7356124  41.3041567
  28.9815298  83.1615894  41.5191610  19.3037935  72.4694769  40.8700045
  18.7675292  72.0185507  41.5221641  18.7154643  72.6040677  40.1270509
  17.5986478  89.2358818  34.7644703  17.8383076  89.8677342  35.4423722
  16.7555675  88.8846858  35.0510063  18.7140194  71.9283420  23.4326508
  17.8369660  71.8072221  23.0688755  19.1897947  71.1369498  23.1805397
  28.5813187  80.3836488  40.2024964  27.6939965  80.0462410  40.3251363
  29.1511738  79.6519519  40.4393729  10.2342334  76.7160580  33.5268015
  10.9213374  76.4022310  32.9389031  10.0790462  77.6201944  33.2535267
  15.0377056  71.6050776  37.9553039  14.9535245  70.9976446  37.2203449
  14.2159762  72.0959795  37.9562535  22.1114340  85.0437940  37.1686207
  22.0384511  85.8492912  37.6805512  21.6691733  85.2429906  36.3434229
  21.9004120  84.2809710  30.6789029  21.1171641  84.8231391  30.7727253
  22.5996865  84.7983690  31.0783270  25.2100770  70.0904340  33.3223234
  25.7069469  69.3374302  33.0024304  24.4387751  70.1268656  32.7566443
  33.0630527  75.7944705  34.9641526  33.0520403  76.6769421  34.5935459
  32.1947907  75.4416256  34.7696063  24.5713023  84.9424774  39.3244366
  25.2840996  85.5772239  39.2520267  24.0803052  85.0388640  38.5084368
  26.2930550  78.8476027  30.8961658  25.3586829  78.9677489  30.7266362
  26.4707219  77.9448494  30.6321667  21.7935738  72.2321723  33.0494919
  21.4233526  71.6792763  33.7375824  22.2894831  71.6279856  32.4969919
  29.6803102  74.6893346  31.4311692  30.1463554  75.5221338  31.3571994
  30.1310602  74.2238328  32.1356950  19.6224937  82.6919218  40.1449937
  20.3234396  83.3255701  40.2979331  19.1520052  83.0333949  39.3845576
  27.7479333  81.0337168  28.4297844  28.0239177  80.9193762  29.3391718
  26.8783832  80.6354652  28.3910017  27.6519764  67.0573933  35.4702593
  26.7382844  67.2878160  35.6384800  28.0812866  67.1412377  36.3216625
  27.4226223  75.2463825  37.9702487  26.7697673  75.4939733  37.3154940
  27.8006603  74.4327963  37.6364964  24.3833397  85.2823518  32.0730657
  24.5655791  84.4645174  32.5358410  25.2066383  85.4991211  31.6355547
  24.7175562  84.2091704  29.3345706  25.2463329  83.6984158  28.7215868
  24.9803782  83.8934234  30.1991239  23.4713796  75.9883636  44.4568524
  22.7954433  75.8877766  45.1270899  24.2941430  75.8322850  44.9204521
  15.2192655  82.2255573  37.0781039  15.8046092  81.4799261  37.2108944
  15.0217494  82.5359530  37.9617703  18.0731310  85.2606820  32.0943482
  17.4041686  85.7452948  31.6107522  17.9344180  85.5076041  33.0086860
   9.8110310  74.7961173  35.7985483   9.8494409  74.2624764  36.5922601
   9.3050603  74.2696379  35.1796460  22.2136579  87.2950564  38.6926140
  22.7654887  87.4582185  39.4575225  22.5542772  87.8855002  38.0206165
  17.1901072  69.6425714  39.2948025  17.2542399  70.5040544  38.8825423
  17.1268192  69.0299715  38.5620383  16.6653345  71.7148846  42.9421059
  17.2925383  71.3325923  43.5558583  15.8081263  71.4963048  43.3076752
  27.0647453  82.1211821  44.5474795  27.6087357  82.7341780  44.0529749
  26.4834298  82.6791400  45.0641808  13.4418887  73.5225275  28.8739414
  13.7372328  72.6135954  28.8206468  12.5406923  73.5013015  28.5520416
  25.3504966  85.2432539  35.6789822  25.2256106  84.4422279  35.1700768
  26.0084057  85.7378733  35.1903792  16.9713134  71.5981272  34.8566963
  16.2499720  72.2117240  34.7174436  17.7606390  72.1339037  34.7783608
  27.4139875  83.0441559  37.3069372  26.4670210  82.9246911  37.2347699
  27.7622648  82.1564057  37.3895634  19.7739448  68.9335698  41.1307614
  20.2973850  69.1797995  41.8933924  19.5551781  69.7655733  40.7110752
  15.1706729  71.2039373  28.9978739  14.8419435  70.3236752  28.8153845
  15.5246100  71.1487042  29.8855128  24.4186308  82.8394276  33.5073725
  24.2711270  81.9110983  33.6881295  25.2439801  82.8614366  33.0230800
  18.2848552  71.4912343  29.3654217  18.6244625  72.0198264  28.6432825
  18.7320673  71.8292749  30.1412783  28.0220430  83.6622834  34.5938597
  28.9466977  83.4565696  34.4563049  27.8535733  83.4139235  35.5027939
  20.9791993  69.8749393  38.8157285  20.6388813  69.0757206  39.2177965
  20.2730999  70.1751104  38.2434118  21.6308465  66.9598706  37.2684608
  22.4534534  66.4859184  37.1463498  21.8746528  67.7389190  37.7683294
  20.2716699  69.9886964  27.5647510  20.9925062  70.3668217  27.0611226
  19.6482003  70.7075841  27.6682487  24.4147822  70.6932113  28.5005842
  24.6311437  71.5756751  28.1994670  23.9341889  70.3018327  27.7711484
  19.1547044  73.6517826  35.0776586  19.0091624  73.9658130  35.9700868
  18.6772247  74.2702727  34.5247485  21.0143426  70.6420374  35.1257476
  21.0004995  69.7461468  34.7889774  21.7315855  70.6491038  35.7595762
  22.8669557  71.0757715  37.1710603  22.6087335  71.9974785  37.1694934
  22.3354597  70.6788149  37.8611068  27.8115746  84.1808502  29.9500689
  27.9852623  83.6154924  29.1974541  28.3044637  84.9809397  29.7680179
  13.6292706  76.1923171  38.0164248  13.0846174  76.9682979  38.1484522
  14.5072056  76.5393975  37.8583369  20.4180322  69.5234755  30.3945046
  20.5396234  68.5951401  30.5935934  20.1282365  69.5373441  29.4823362
  23.2871513  67.2089665  33.5311766  23.3093210  67.2728998  32.5763746
  23.7039572  66.3694174  33.7252272  33.6655137  76.9444925  31.5690989
  34.1086283  76.1952250  31.1710112  32.7881647  76.9355061  31.1864721
  28.7990918  83.4975266  27.0497587  29.4941823  84.1181959  27.2684902
  29.1414069  82.6470617  27.3249965  14.4158728  75.3193067  40.9094404
  13.6740464  75.4675702  41.4959035  14.0951472  75.5801333  40.0461154
  30.6982341  80.9474972  28.5784918  31.2233666  81.2862244  27.8534238
  30.6104694  80.0121987  28.3948053  22.3602390  84.8609045  40.7074795
  22.6689517  84.6158192  41.5797494  23.1577872  85.0655684  40.2193665
  22.3823002  87.0146955  32.9380171  21.9427993  86.5223334  33.6313028
  23.1331119  86.4719923  32.6972246  14.8615341  83.2058496  32.9404799
  15.6873361  82.9062268  32.5603443  14.5109393  82.4366118  33.3894588
  19.8296874  82.5584964  35.0102473  19.2076884  81.8955669  34.7104701
  20.5001741  82.5846096  34.3276121  13.0623946  81.1244822  33.8993733
  12.2255855  80.6966997  33.7177734  13.0347592  81.3177266  34.8364524
  19.9021402  71.0366752  44.6034979  19.9509557  71.9128875  44.2212748
  20.4443916  70.4944145  44.0306622  30.3876248  81.5807875  43.8836116
  29.5971791  81.5632014  43.3440615  30.1509602  82.1196169  44.6385152
  30.5074123  78.4300342  41.1968844  30.5572128  78.2650349  42.1384367
  30.3988046  77.5627601  40.8066725  19.3910381  81.1088887  28.4860933
  19.5398502  81.7924352  27.8327606  20.1976825  81.0893977  29.0010389
  27.7977885  74.4131270  42.5128151  28.6987748  74.2737735  42.2212149
  27.8725860  74.5785725  43.4526329  22.1320690  71.7898125  41.3581337
  21.2624000  72.0831691  41.0863926  22.3680171  72.3738570  42.0788601
  32.0092319  80.8497283  41.4410866  31.7177128  81.2127264  42.2774327
  31.3964451  80.1364292  41.2624198  33.2088002  78.4150163  33.9613436
  34.0434893  78.8539967  34.1250997  33.3447131  77.9388816  33.1421682
  30.2579508  75.9729898  39.9090924  30.7333629  76.1657544  39.1009775
  29.3345073  76.0289084  39.6634308  17.1463014  77.1354065  29.4922002
  16.9009056  76.2316395  29.6902212  17.3158929  77.1371216  28.5501480
  24.8359724  68.0077741  38.8746758  25.3541668  68.7438768  38.5493246
  24.4814857  68.3141735  39.7093517  16.4158662  72.8682423  26.9908164
  15.7227907  72.9426778  26.3348200  16.1710414  72.1042766  27.5129681
  25.0872318  64.4278024  34.3947654  25.3674072  63.7601213  35.0208081
  25.8722925  64.6207120  33.8822318  22.8905787  83.6037018  25.9572681
  22.3179754  84.2227205  25.5043153  23.4638580  84.1536380  26.4912603
  28.9581177  72.8495658  38.1419230  29.9098600  72.9493756  38.1631454
  28.7884627  72.0573927  38.6517314  26.9795556  69.9351241  38.3278630
  26.3845488  70.2156254  37.6325119  26.6945253  70.4245142  39.0995372
  26.1103047  83.8874168  27.0881263  27.0433720  83.8219730  27.2914138
  26.0226259  84.7230435  26.6295796  28.7391063  83.2040038  24.0485211
  28.6604695  82.8699902  24.9420968  29.5600730  83.6961806  24.0476683
  31.4369254  76.0701778  37.2561529  31.4045575  75.1317778  37.4421213
  32.0469878  76.1485814  36.5227354  23.2752585  74.9397831  23.2988733
  24.2211690  74.8104039  23.3677151  22.8966830  74.2012493  23.7758161
  31.5863743  72.8612821  37.3019812  31.0702792  72.0771278  37.1149741
  32.4703691  72.5331538  37.4666332  29.2474470  66.6053837  33.2615625
  29.0499291  66.2968925  34.1458957  29.8574175  67.3315476  33.3913555
  37.2545804  77.1317784  36.3967566  37.9849193  76.8703073  36.9575269
  36.6452750  76.3946506  36.4369634  35.3361101  75.2725647  36.9942017
  34.6094265  75.1381612  36.3858509  34.9208388  75.5802476  37.7998735
  23.1591278  78.9915577  44.7589390  24.0794287  79.1694176  44.9529437
  23.1240861  78.0471622  44.6069089  21.4595502  72.8647807  23.2343618
  20.5526958  72.5680920  23.3106332  21.7371483  72.5677625  22.3677905
  12.3773443  74.1854170  33.6842665  12.0576227  73.3319479  33.3917039
  11.8306871  74.4002749  34.4400632  16.1553350  76.9016611  37.4012171
  16.3739360  77.8333719  37.4200205  16.5679124  76.5424586  38.1866975
  23.0757568  67.4084697  29.3887860  22.2658297  67.0631782  29.7643106
  23.7641985  67.0992240  29.9775471  25.0048116  66.4862744  31.0112156
  25.5579155  66.9058197  31.6702179  25.2418203  65.5598492  31.0535112
  21.0281216  72.4749817  46.7914920  20.9277943  73.4244174  46.7227011
  20.8102758  72.1468056  45.9190990  20.2294287  69.7234742  23.3755598
  21.0913451  70.0489641  23.6351415  20.4144631  68.9366238  22.8628663
  12.2461703  77.8057082  35.6535786  11.5525174  77.3911035  35.1405741
  12.9934694  77.8477618  35.0569205  28.3826924  68.5963269  30.5190821
  27.8025593  69.2548073  30.1368873  28.1162856  67.7740613  30.1078238
  26.8330490  67.9968326  32.7212141  27.3330268  68.1084861  31.9126460
  27.4766098  67.6929379  33.3612949  20.8912486  75.9046956  45.6079982
  20.4079567  76.7047316  45.8143871  20.9773425  75.9154901  44.6547426
  14.1598445  77.7375336  33.5301801  14.1369133  77.8363023  32.5783684
  14.4699082  78.5840486  33.8518967  16.8185823  79.7951491  37.6448416
  17.7729077  79.7635433  37.5778347  16.6198347  79.3342114  38.4598642
  17.4085205  78.3652607  40.2119213  18.2278094  78.8596685  40.2354051
  17.6822013  77.4484575  40.1836781  27.1651802  70.7563359  29.5747169
  26.2777657  71.0413010  29.3567364  27.5805791  70.5957122  28.7274446
  30.5166338  70.7809880  33.2901508  31.2926728  71.2706332  33.5626125
  29.7914472  71.2067934  33.7473378  32.9538896  71.4937499  34.3475449
  33.5483387  71.2533235  33.6368757  33.0265480  70.7744630  34.9748985
  15.1736052  85.3371110  34.6618614  15.0390520  84.5771511  34.0956612
  14.7568114  86.0612010  34.1947402  26.3095015  80.5208034  23.6695189
  27.0130865  80.7258036  24.2852844  25.5857664  81.0884796  23.9344272
  27.1392825  76.2717895  29.7897459  27.0828027  76.7286446  28.9505091
  27.6921168  75.5108580  29.6120302  30.9497631  72.0607627  30.6147579
  30.6934565  71.6604263  31.4455786  30.3250499  72.7751421  30.4897718
  35.2609969  74.8003700  33.1218870  34.7009527  74.8696889  33.8950432
  34.6553472  74.6244685  32.4018366  18.3305178  86.2340427  34.8737056
  18.2137562  87.1785860  34.7715746  17.5097624  85.9313989  35.2622855
  28.2181712  80.9590563  25.7193649  29.0527316  80.5271761  25.5371124
  28.0566055  80.7872577  26.6470543  27.8727605  77.4622676  27.0849988
  27.8176408  77.2966948  26.1438432  27.2473660  78.1698709  27.2412178
  12.6620120  72.6990741  40.9111410  13.3078983  72.1889695  41.3998636
  12.4537271  73.4359422  41.4854836  25.1873512  79.7671588  46.4103551
  26.0564671  79.9412240  46.0490186  24.7080263  80.5866005  46.2879280
  21.1823730  66.9630785  26.6635307  21.1702400  67.9072625  26.8203577
  22.0747152  66.7800931  26.3694768  19.3559692  86.8868689  38.0892985
  20.2586939  86.9192299  38.4059480  19.1297062  85.9569140  38.1039320
  21.1113294  85.6399676  34.7503063  20.1608925  85.6401537  34.6367436
  21.4145780  84.8932410  34.2339098  24.9975850  63.5573562  30.9181243
  24.2308245  63.0032049  31.0637926  25.4086555  63.6295431  31.7795395
  17.0017611  69.8458358  45.0086425  17.8649072  69.4895163  45.2189749
  16.4283021  69.5072253  45.6961829  36.8465988  91.4760214  35.8148826
  37.4844398  91.3566961  35.1112166  36.7286830  92.4241058  35.8736778
  33.6555694  91.4287642  35.7510350  33.3174205  91.3128707  34.8630885
  34.5245462  91.0278807  35.7311356  29.5142510  93.2823119  31.7407241
  28.9507375  93.1913056  30.9723529  29.3994905  92.4623023  32.2209734
  34.1375477  92.5822494  41.7096556  34.1264118  92.1875292  40.8377060
  34.2996116  91.8488567  42.3030327  27.0606941  94.7774310  34.5791462
  27.8528233  94.4365135  34.1637761  27.3003592  94.8869285  35.4993615
  35.0942068  96.9494086  27.0521706  34.4430048  97.5348167  26.6655720
  35.8886431  97.4800281  27.1116744  29.0197695  94.0383223  27.4508841
  29.7928571  93.4912211  27.3121716  29.3723094  94.9027473  27.6623302
  30.8582738  95.3659606  40.6575740  30.5672604  96.2705237  40.5422406
  31.4939722  95.4076133  41.3719809  31.7838945  92.7436454  37.2477100
  32.3802517  92.5192477  36.5334062  31.8413916  92.0021200  37.8502547
  31.3563973  90.1975890  25.0827290  31.6089494  89.6757411  24.3210753
  30.4188532  90.0342035  25.1853974  36.4007256  89.2011668  32.8902034
  37.1870345  88.7831091  32.5392451  36.6645960  90.1057760  33.0583682
  36.5717333  94.6384518  27.5890691  35.9363166  94.7119145  28.3011595
  36.2414740  95.2278117  26.9109770  41.8015683  89.1386901  33.7935012
  42.5340855  88.5686118  34.0272842  41.0455039  88.7508502  34.2341518
  31.0760262  92.1003996  27.2851665  30.9596520  91.4248899  27.9532750
  31.1862522  91.6136369  26.4683818  33.4191803  91.5614143  30.9898355
  33.0550010  91.0344764  31.7011276  34.2758919  91.1712612  30.8164840
  39.3241104  82.8508475  38.2529621  38.9924428  83.7203886  38.0290836
  38.7286717  82.5344759  38.9323651  33.0597290  86.5904042  25.9859703
  33.2271692  87.4584279  26.3530174  32.8694459  86.7531324  25.0620992
  35.8172623  95.0521021  37.6525534  35.5173346  95.9546060  37.5441341
  35.4723683  94.7853204  38.5046686  29.2685105  91.5034818  33.6862238
  28.3435601  91.3711032  33.8939930  29.5169518  92.2829037  34.1832180
  39.2169767  87.5703561  35.3322971  38.3086644  87.5018970  35.0381732
  39.1657363  88.0475506  36.1604796  33.0386511  89.0461700  26.9706370
  32.9186136  89.4918751  27.8091850  32.3439099  89.3947017  26.4119908
  26.6293916  91.1468092  34.5206027  26.7586297  91.4002571  35.4345439
  25.9491367  91.7395800  34.2010682  30.7993403 101.8165342  30.6196501
  30.7217433 102.7673167  30.6984982  30.1955046 101.4711214  31.2771428
  33.2910633  88.9893207  43.2757868  32.5143967  89.5487127  43.2660733
  33.9301196  89.4749990  43.7972738  41.0831413  85.7720000  37.1100845
  40.4405793  86.0652533  36.4640639  40.5786342  85.6572920  37.9154041
  38.7371577  89.5183173  27.7986704  39.6489433  89.7510560  27.6234402
  38.2281224  90.1020217  27.2361783  31.5457005  91.7978660  42.8375835
  32.2871689  92.3363704  42.5610659  30.8393990  92.4244949  42.9947387
  37.0212345  93.9407801  41.4347997  37.4295701  93.4990211  40.6902629
  36.2989606  93.3660428  41.6882190  33.3743415  88.8780408  38.8081554
  34.2204610  89.3019821  38.9516203  33.3142052  88.2214032  39.5020117
  37.3441159  94.5008991  35.1900286  36.7150022  94.6654706  34.4876353
  36.9566821  94.9150601  35.9611250  41.2230391  95.4363429  32.5444649
  40.5381429  95.8162331  31.9941683  41.3074240  96.0458756  33.2776597
  36.5242860  86.5384776  40.4662727  36.2803792  87.2926836  39.9297003
  36.8002790  86.9170124  41.3009974  38.4781323  93.0823388  39.1439993
  38.6898218  93.7255148  38.4674374  38.4311071  92.2485705  38.6761923
  36.0807552  85.6941209  36.0476565  35.2192031  85.9922463  36.3393303
  36.1069986  85.9111608  35.1157598  32.8969121  94.2383400  32.4550371
  33.3607467  94.5171103  31.6654993  32.6325919  93.3366844  32.2723461
  29.7893202  93.7854881  35.3930134  30.3594559  94.2142149  34.7547618
  30.3801314  93.5037466  36.0914320  31.8338007  90.3606552  29.2639936
  32.5362050  90.8127596  29.7313862  31.5018636  89.7190371  29.8919829
  30.2818369  88.9518309  43.6391145  29.6517029  89.6334589  43.8726542
  30.1754457  88.8401390  42.6944283  25.5763341  88.6190105  34.5657069
  24.7862395  88.8747633  34.0897180  26.0674588  89.4338442  34.6709110
  39.5927151  95.9595344  37.3162350  40.4144594  95.5575531  37.0345032
  39.5889554  95.8563578  38.2678466  27.5278086  88.9834684  31.5240546
  26.7309250  89.0953378  32.0424042  27.3003679  89.3221336  30.6581437
  33.3583754  95.5079387  39.4723061  33.4228187  95.9699794  40.3081232
  32.6494678  94.8776752  39.6005370  23.8601044  88.8720595  36.9972060
  24.1109083  89.7567605  37.2629636  24.3960592  88.6925197  36.2247152
  47.6833144  92.3034092  33.6647322  46.9296852  91.7341490  33.5091326
  47.8180685  92.2696757  34.6117956  33.0731772  97.1747495  29.3402041
  32.9377447  98.0199030  29.7686889  33.6141584  97.3766772  28.5767975
  29.5599111  83.2539074  46.0016396  29.1666057  82.7005273  46.6764040
  30.3765252  83.5649653  46.3922914  26.5261169  94.6922933  29.9129966
  27.0385690  95.4866183  30.0635531  27.1783882  93.9949223  29.8463568
  28.3356054  97.8088689  31.9952719  28.5122682  98.7306654  31.8073703
  29.1312887  97.4947108  32.4247099  32.4767072  84.6696953  43.5936653
  33.2176786  85.2704107  43.5141115  32.7084995  83.9274591  43.0354695
  27.6208410  89.8553321  41.8714882  27.5061926  88.9538578  42.1721981
  26.7652928  90.1017017  41.5199699  34.7000248  97.7971061  43.4702383
  34.2564102  97.0107440  43.1523288  35.3617462  97.9850212  42.8046274
  29.4587369  99.3266863  37.9963062  30.0094794  99.1983926  37.2240056
  28.6198845  99.6261752  37.6457954  36.7981486  98.0773861  41.4983784
  36.7799962  98.8982742  41.0064053  37.7201406  97.9527936  41.7233925
  33.2554540  95.5917990  42.3407293  33.7882877  94.8306279  42.1106601
  32.7268621  95.2991642  43.0831447  36.4224235  80.6978056  37.8700934
  36.0788505  81.5879698  37.7940045  36.7903198  80.5079714  37.0070519
  24.4910086  93.0211587  30.6889537  25.3285308  93.4308595  30.4723244
  24.6688354  92.0811029  30.6589730  36.3874518  90.6886667  26.3773370
  35.8721141  91.4591272  26.6161757  36.1151827  90.0151804  27.0006431
  33.9721629  85.5336368  31.4358608  33.1163225  85.1443219  31.2564247
  34.3848581  85.6128329  30.5758393  35.5020776  83.0682712  35.8350168
  34.9985571  83.0312847  35.0217973  35.7951383  83.9775454  35.8946824
  31.7463662  83.1521441  34.8416349  32.6116658  82.9564250  34.4822239
  31.8141171  82.9231793  35.7685706  41.3608792  93.4419022  28.3126543
  40.5838235  93.1030182  27.8681705  42.0400273  93.4471645  27.6381508
  36.1760821  88.5613760  28.2033151  35.8710957  88.8759909  29.0543294
  37.1291263  88.6395179  28.2460484  34.6207253  94.7203983  29.8526105
  34.0928615  93.9856742  29.5399342  34.1194756  95.4978659  29.6066073
  39.6000099  92.9153003  34.9693151  38.9423774  93.6052265  35.0573280
  40.4040498  93.3049435  35.3127137  29.3525981  85.3823649  32.2132716
  29.9269733  85.1598831  31.4805909  29.9396963  85.4512344  32.9661318
  38.4105558  91.2697376  33.0197093  38.9237440  91.9027368  33.5218802
  39.0606782  90.6698572  32.6540453  29.6795568  87.4128110  26.2328601
  28.8432880  87.7502797  26.5537876  29.5400337  87.2777090  25.2955738
  31.6548648  82.2564898  30.9407786  31.0013061  81.9413915  30.3164400
  31.6129123  81.6340639  31.6667609  32.7659853  92.5384193  22.8561078
  31.8586915  92.3073447  23.0552227  33.2630885  91.7421812  23.0435059
  35.6727932 101.2481700  25.7757764  34.9989631 101.5513397  26.3842722
  36.0593754 102.0510781  25.4263221  34.8886389  88.7446832  35.2655433
  33.9708950  88.9661779  35.1077121  35.3046532  88.8193142  34.4067141
  35.6721437  90.1438247  30.3958114  36.4193255  90.6559645  30.0865236
  35.9413026  89.8222300  31.2562507  33.9448087  92.6396788  27.3785068
  33.0359306  92.3555821  27.4757538  33.9743171  93.0595867  26.5188375
  39.1767354  96.2503378  31.1476235  38.7229681  95.4094287  31.2041426
  38.5461321  96.8864776  31.4851016  38.1200274  87.1795364  32.3776903
  37.3823030  86.6672750  32.7087145  38.3727047  86.7395745  31.5660180
  37.6200293  98.0879874  32.0826054  37.9123268  98.6484931  31.3638419
  38.1298914  98.3808435  32.8379213  38.2211901  79.9571616  32.9718672
  38.5270778  79.0968979  32.6844587  38.9464506  80.5489236  32.7717666
  24.5136257  90.3602302  31.3600270  24.3160657  89.7671663  30.6351337
  23.9582921  90.0554512  32.0776209  32.4932981  90.2525409  33.4794863
  32.5481591  89.2999245  33.4037340  31.6824183  90.4084848  33.9636162
  33.6424174  94.1805532  24.7173146  33.2043604  93.4641391  24.2578784
  34.3834615  94.4081647  24.1558238  30.4325341  88.8702468  31.2385242
  29.6193206  89.1696639  31.6450434  30.9284335  88.4758157  31.9559724
  32.5833919  98.8660225  33.1719507  32.5410097  99.0921072  32.2428039
  33.4996617  98.6323600  33.3205308  36.0299552  89.3344293  40.0700136
  36.3848940  89.5615766  40.9294602  36.6771684  89.6662670  39.4477391
  41.7597289  92.4562729  30.7749465  41.6215188  92.6464325  29.8470654
  41.4033508  93.2182112  31.2317516  29.9239415  86.4420824  36.8546477
  30.5638795  86.3009583  36.1569440  29.0916946  86.1555337  36.4785079
  41.7866669  94.5239256  35.7860736  42.2203176  94.4314545  36.6343791
  42.4998250  94.4996756  35.1480752  30.6999719  95.7423254  32.9681469
  31.4940318  95.2473574  32.7664044  29.9891412  95.2141117  32.6049175
  35.5194564  98.1241350  37.3193837  35.5731586  98.6932286  38.0871553
  34.6509345  98.2943235  36.9547874  27.0082483  89.8866336  29.0441222
  26.0780071  89.8250792  29.2611184  27.1039955  89.3642289  28.2477863
  26.9268032  86.4121149  31.6319464  27.1874849  87.3266482  31.5228624
  27.7485204  85.9445591  31.7816077  28.3992957  87.8258906  38.8018288
  29.0716011  87.6176268  38.1530937  27.5722744  87.6280992  38.3623521
  42.6482218  94.5662956  38.3193622  42.8418109  95.4708767  38.5652897
  42.5482837  94.1070375  39.1532207  34.3018529  84.4520847  40.8183949
  33.6546444  85.1510797  40.7248426  35.0719545  84.8856991  41.1860197
  37.7097327  94.7169699  43.8934502  37.5582834  94.4880251  42.9764586
  37.7002007  95.6740301  43.9065848  34.4782664  92.2901612  38.8780769
  35.4074724  92.4412772  38.7049736  34.0573694  92.3785633  38.0229415
  33.2770995  96.3152276  36.6479307  33.1382081  95.9471061  37.5205245
  32.4885592  96.8299916  36.4763264  33.8719147 101.4161373  27.9904843
  34.0470903 100.9449416  28.8050466  33.1851935 102.0427139  28.2186104
  34.8276210  95.6933879  34.0368144  34.4926043  95.6534649  34.9325794
  34.3280156  95.0278595  33.5638555  28.8020454  91.1001509  39.5620726
  28.6640252  90.3681748  40.1632265  29.7125378  91.0110409  39.2804913
  37.7635402  93.0389913  24.3105204  37.1464573  92.3136742  24.2138257
  37.2951891  93.7999274  23.9672278  31.4302755  90.8121468  39.0504405
  32.1402374  90.1714661  39.0091024  31.3872063  91.0634363  39.9730586
  39.4189534  97.7488822  41.9710984  39.3602080  97.0648042  41.3041567
  39.8209052  98.4907812  41.5191610  30.1431689  87.7986686  40.8700045
  29.6069046  87.3477425  41.5221641  29.5548398  87.9332595  40.1270509
  28.4380233 104.5650736  34.7644703  28.6776831 105.1969260  35.4423722
  27.5949429 104.2138776  35.0510063  29.5533948  87.2575338  23.4326508
  28.6763414  87.1364138  23.0688755  30.0291701  86.4661416  23.1805397
  39.4206941  95.7128406  40.2024964  38.5333720  95.3754327  40.3251363
  39.9905492  94.9811437  40.4393729  21.0736088  92.0452497  33.5268015
  21.7607128  91.7314227  32.9389031  20.9184217  92.9493862  33.2535267
  25.8770810  86.9342694  37.9553039  25.7928999  86.3268364  37.2203449
  25.0553517  87.4251712  37.9562535  32.9508094 100.3729858  37.1686207
  32.8778266 101.1784829  37.6805512  32.5085488 100.5721824  36.3434229
  32.7397874  99.6101628  30.6789029  31.9565396 100.1523308  30.7727253
  33.4390619 100.1275608  31.0783270  36.0494524  85.4196257  33.3223234
  36.5463224  84.6666220  33.0024304  35.2781506  85.4560574  32.7566443
  43.9024282  91.1236623  34.9641526  43.8914158  92.0061338  34.5935459
  43.0341661  90.7708174  34.7696063  35.4106778 100.2716692  39.3244366
  36.1234750 100.9064157  39.2520267  34.9196807 100.3680558  38.5084368
  37.1324305  94.1767945  30.8961658  36.1980584  94.2969407  30.7266362
  37.3100973  93.2740411  30.6321667  32.6329493  87.5613640  33.0494919
  32.2627280  87.0084681  33.7375824  33.1288585  86.9571774  32.4969919
  40.5196856  90.0185264  31.4311692  40.9857308  90.8513256  31.3571994
  40.9704357  89.5530246  32.1356950  30.4618691  98.0211135  40.1449937
  31.1628151  98.6547618  40.2979331  29.9913806  98.3625867  39.3845576
  38.5873087  96.3629085  28.4297844  38.8632931  96.2485680  29.3391718
  37.7177586  95.9646570  28.3910017  38.4913519  82.3865851  35.4702593
  37.5776599  82.6170078  35.6384800  38.9206620  82.4704295  36.3216625
  38.2619977  90.5755743  37.9702487  37.6091428  90.8231650  37.3154940
  38.6400357  89.7619881  37.6364964  35.2227151 100.6115436  32.0730657
  35.4049546  99.7937092  32.5358410  36.0460137 100.8283128  31.6355547
  35.5569317  99.5383621  29.3345706  36.0857083  99.0276076  28.7215868
  35.8197536  99.2226151  30.1991239  34.3107550  91.3175554  44.4568524
  33.6348187  91.2169683  45.1270899  35.1335184  91.1614768  44.9204521
  26.0586410  97.5547491  37.0781039  26.6439846  96.8091178  37.2108944
  25.8611248  97.8651447  37.9617703  28.9125065 100.5898738  32.0943482
  28.2435440 101.0744866  31.6107522  28.7737934 100.8367958  33.0086860
  20.6504064  90.1253091  35.7985483  20.6888164  89.5916681  36.5922601
  20.1444357  89.5988296  35.1796460  33.0530333 102.6242481  38.6926140
  33.6048641 102.7874103  39.4575225  33.3936527 103.2146919  38.0206165
  28.0294827  84.9717631  39.2948025  28.0936153  85.8332462  38.8825423
  27.9661947  84.3591633  38.5620383  27.5047099  87.0440764  42.9421059
  28.1319138  86.6617841  43.5558583  26.6475018  86.8254966  43.3076752
  37.9041208  97.4503739  44.5474795  38.4481112  98.0633697  44.0529749
  37.3228053  98.0083317  45.0641808  24.2812642  88.8517193  28.8739414
  24.5766083  87.9427871  28.8206468  23.3800678  88.8304932  28.5520416
  36.1898721 100.5724457  35.6789822  36.0649860  99.7714197  35.1700768
  36.8477812 101.0670650  35.1903792  27.8106889  86.9273189  34.8566963
  27.0893475  87.5409157  34.7174436  28.6000145  87.4630954  34.7783608
  38.2533629  98.3733477  37.3069372  37.3063965  98.2538828  37.2347699
  38.6016402  97.4855975  37.3895634  30.6133202  84.2627616  41.1307614
  31.1367604  84.5089913  41.8933924  30.3945536  85.0947651  40.7110752
  26.0100483  86.5331291  28.9978739  25.6813190  85.6528669  28.8153845
  26.3639854  86.4778959  29.8855128  35.2580062  98.1686193  33.5073725
  35.1105025  97.2402901  33.6881295  36.0833556  98.1906284  33.0230800
  29.1242307  86.8204260  29.3654217  29.4638379  87.3490182  28.6432825
  29.5714427  87.1584666  30.1412783  38.8614184  98.9914752  34.5938597
  39.7860732  98.7857613  34.4563049  38.6929488  98.7431153  35.5027939
  31.8185747  85.2041311  38.8157285  31.4782568  84.4049124  39.2177965
  31.1124754  85.5043022  38.2434118  32.4702219  82.2890623  37.2684608
  33.2928289  81.8151102  37.1463498  32.7140283  83.0681107  37.7683294
  31.1110454  85.3178882  27.5647510  31.8318816  85.6960135  27.0611226
  30.4875758  86.0367759  27.6682487  35.2541577  86.0224031  28.5005842
  35.4705191  86.9048669  28.1994670  34.7735644  85.6310244  27.7711484
  29.9940798  88.9809744  35.0776586  29.8485379  89.2950047  35.9700868
  29.5166002  89.5994644  34.5247485  31.8537181  85.9712292  35.1257476
  31.8398750  85.0753385  34.7889774  32.5709609  85.9782956  35.7595762
  33.7063312  86.4049632  37.1710603  33.4481089  87.3266703  37.1694934
  33.1748352  86.0080067  37.8611068  38.6509500  99.5100419  29.9500689
  38.8246378  98.9446842  29.1974541  39.1438392 100.3101314  29.7680179
  24.4686460  91.5215089  38.0164248  23.9239928  92.2974897  38.1484522
  25.3465810  91.8685893  37.8583369  31.2574077  84.8526672  30.3945046
  31.3789988  83.9243319  30.5935934  30.9676119  84.8665358  29.4823362
  34.1265267  82.5381583  33.5311766  34.1486964  82.6020916  32.5763746
  34.5433326  81.6986091  33.7252272  44.5048892  92.2736842  31.5690989
  44.9480038  91.5244168  31.1710112  43.6275402  92.2646979  31.1864721
  39.6384673  98.8267184  27.0497587  40.3335577  99.4473877  27.2684902
  39.9807823  97.9762535  27.3249965  25.2552482  90.6484985  40.9094404
  24.5134218  90.7967620  41.4959035  24.9345226  90.9093250  40.0461154
  41.5376096  96.2766889  28.5784918  42.0627420  96.6154162  27.8534238
  41.4498449  95.3413905  28.3948053  33.1996145 100.1900963  40.7074795
  33.5083271  99.9450110  41.5797494  33.9971627 100.3947602  40.2193665
  33.2216757 102.3438873  32.9380171  32.7821747 101.8515251  33.6313028
  33.9724874 101.8011840  32.6972246  25.7009096  98.5350414  32.9404799
  26.5267116  98.2354185  32.5603443  25.3503148  97.7658036  33.3894588
  30.6690629  97.8876882  35.0102473  30.0470638  97.2247587  34.7104701
  31.3395496  97.9138014  34.3276121  23.9017701  96.4536740  33.8993733
  23.0649609  96.0258914  33.7177734  23.8741346  96.6469183  34.8364524
  30.7415156  86.3658670  44.6034979  30.7903312  87.2420793  44.2212748
  31.2837671  85.8236063  44.0306622  41.2270002  96.9099793  43.8836116
  40.4365546  96.8923932  43.3440615  40.9903357  97.4488087  44.6385152
  41.3467877  93.7592259  41.1968844  41.3965882  93.5942267  42.1384367
  41.2381800  92.8919518  40.8066725  30.2304136  96.4380805  28.4860933
  30.3792256  97.1216269  27.8327606  31.0370579  96.4185895  29.0010389
  38.6371639  89.7423187  42.5128151  39.5381502  89.6029652  42.2212149
  38.7119614  89.9077642  43.4526329  32.9714445  87.1190042  41.3581337
  32.1017754  87.4123608  41.0863926  33.2073925  87.7030487  42.0788601
  42.8486074  96.1789201  41.4410866  42.5570882  96.5419181  42.2774327
  42.2358205  95.4656209  41.2624198  44.0481756  93.7442081  33.9613436
  44.8828648  94.1831885  34.1250997  44.1840885  93.2680734  33.1421682
  41.0973262  91.3021816  39.9090924  41.5727384  91.4949462  39.1009775
  40.1738828  91.3581001  39.6634308  27.9856769  92.4645983  29.4922002
  27.7402811  91.5608313  29.6902212  28.1552683  92.4663133  28.5501480
  35.6753479  83.3369659  38.8746758  36.1935423  84.0730686  38.5493246
  35.3208611  83.6433652  39.7093517  27.2552416  88.1974340  26.9908164
  26.5621661  88.2718695  26.3348200  27.0104168  87.4334684  27.5129681
  35.9266073  79.7569942  34.3947654  36.2067827  79.0893131  35.0208081
  36.7116680  79.9499037  33.8822318  33.7299541  98.9328936  25.9572681
  33.1573508  99.5519123  25.5043153  34.3032335  99.4828297  26.4912603
  39.7974931  88.1787576  38.1419230  40.7492354  88.2785673  38.1631454
  39.6278382  87.3865844  38.6517314  37.8189311  85.2643159  38.3278630
  37.2239243  85.5448172  37.6325119  37.5339007  85.7537060  39.0995372
  36.9496801  99.2166086  27.0881263  37.8827474  99.1511647  27.2914138
  36.8620014 100.0522353  26.6295796  39.5784818  98.5331956  24.0485211
  39.4998449  98.1991820  24.9420968  40.3994485  99.0253724  24.0476683
  42.2763009  91.3993695  37.2561529  42.2439329  90.4609696  37.4421213
  42.8863633  91.4777732  36.5227354  34.1146340  90.2689748  23.2988733
  35.0605445  90.1395956  23.3677151  33.7360585  89.5304410  23.7758161
  42.4257497  88.1904739  37.3019812  41.9096546  87.4063195  37.1149741
  43.3097446  87.8623455  37.4666332  40.0868224  81.9345754  33.2615625
  39.8893045  81.6260843  34.1458957  40.6967930  82.6607393  33.3913555
  48.0939559  92.4609702  36.3967566  48.8242947  92.1994990  36.9575269
  47.4846504  91.7238424  36.4369634  46.1754856  90.6017565  36.9942017
  45.4488020  90.4673530  36.3858509  45.7602143  90.9094393  37.7998735
  33.9985032  94.3207494  44.7589390  34.9188042  94.4986093  44.9529437
  33.9634615  93.3763540  44.6069089  32.2989257  88.1939725  23.2343618
  31.3920712  87.8972837  23.3106332  32.5765238  87.8969543  22.3677905
  23.2167197  89.5146088  33.6842665  22.8969982  88.6611396  33.3917039
  22.6700626  89.7294666  34.4400632  26.9947105  92.2308529  37.4012171
  27.2133115  93.1625637  37.4200205  27.4072879  91.8716503  38.1866975
  33.9151323  82.7376614  29.3887860  33.1052051  82.3923699  29.7643106
  34.6035740  82.4284158  29.9775471  35.8441871  81.8154661  31.0112156
  36.3972910  82.2350115  31.6702179  36.0811957  80.8890409  31.0535112
  31.8674970  87.8041735  46.7914920  31.7671697  88.7536092  46.7227011
  31.6496512  87.4759974  45.9190990  31.0688042  85.0526660  23.3755598
  31.9307206  85.3781558  23.6351415  31.2538386  84.2658156  22.8628663
  23.0855457  93.1349000  35.6535786  22.3918929  92.7202952  35.1405741
  23.8328448  93.1769536  35.0569205  39.2220678  83.9255186  30.5190821
  38.6419347  84.5839990  30.1368873  38.9556611  83.1032531  30.1078238
  37.6724244  83.3260244  32.7212141  38.1724023  83.4376779  31.9126460
  38.3159852  83.0221297  33.3612949  31.7306240  91.2338874  45.6079982
  31.2473322  92.0339234  45.8143871  31.8167179  91.2446819  44.6547426
  24.9992200  93.0667253  33.5301801  24.9762888  93.1654941  32.5783684
  25.3092836  93.9132404  33.8518967  27.6579578  95.1243408  37.6448416
  28.6122831  95.0927351  37.5778347  27.4592101  94.6634032  38.4598642
  28.2478960  93.6944524  40.2119213  29.0671849  94.1888603  40.2354051
  28.5215768  92.7776493  40.1836781  38.0045556  86.0855277  29.5747169
  37.1171411  86.3704927  29.3567364  38.4199545  85.9249040  28.7274446
  41.3560092  86.1101798  33.2901508  42.1320482  86.5998250  33.5626125
  40.6308226  86.5359852  33.7473378  43.7932651  86.8229417  34.3475449
  44.3877142  86.5825153  33.6368757  43.8659235  86.1036548  34.9748985
  26.0129807 100.6663028  34.6618614  25.8784274  99.9063429  34.0956612
  25.5961869 101.3903928  34.1947402  37.1488770  95.8499951  23.6695189
  37.8524620  96.0549954  24.2852844  36.4251418  96.4176713  23.9344272
  37.9786580  91.6009813  29.7897459  37.9221781  92.0578364  28.9505091
  38.5314922  90.8400497  29.6120302  41.7891386  87.3899545  30.6147579
  41.5328320  86.9896180  31.4455786  41.1644254  88.1043338  30.4897718
  46.1003724  90.1295618  33.1218870  45.5403282  90.1988807  33.8950432
  45.4947227  89.9536602  32.4018366  29.1698932 101.5632345  34.8737056
  29.0531317 102.5077777  34.7715746  28.3491379 101.2605906  35.2622855
  39.0575467  96.2882481  25.7193649  39.8921071  95.8563679  25.5371124
  38.8959810  96.1164494  26.6470543  38.7121359  92.7914594  27.0849988
  38.6570163  92.6258865  26.1438432  38.0867414  93.4990627  27.2412178
  23.5013874  88.0282658  40.9111410  24.1472738  87.5181612  41.3998636
  23.2931025  88.7651340  41.4854836  36.0267266  95.0963506  46.4103551
  36.8958426  95.2704158  46.0490186  35.5474018  95.9157923  46.2879280
  32.0217485  82.2922703  26.6635307  32.0096154  83.2364543  26.8203577
  32.9140906  82.1092848  26.3694768  30.1953447 102.2160607  38.0892985
  31.0980693 102.2484217  38.4059480  29.9690817 101.2861058  38.1039320
  31.9507049 100.9691593  34.7503063  31.0002680 100.9693455  34.6367436
  32.2539535 100.2224328  34.2339098  35.8369604  78.8865480  30.9181243
  35.0702000  78.3323966  31.0637926  36.2480309  78.9587348  31.7795395
  27.8411365  85.1750275  45.0086425  28.7042827  84.8187080  45.2189749
  27.2676776  84.8364170  45.6961829  47.6859742 106.8052132  35.8148826
  48.3238152 106.6858879  35.1112166  47.5680585 107.7532976  35.8736778
  44.4949448 106.7579560  35.7510350  44.1567960 106.6420625  34.8630885
  45.3639217 106.3570725  35.7311356  40.3536264 108.6115036  31.7407241
  39.7901129 108.5204973  30.9723529  40.2388659 107.7914941  32.2209734
  44.9769231 107.9114412  41.7096556  44.9657872 107.5167210  40.8377060
  45.1389871 107.1780484  42.3030327  37.9000696 110.1066228  34.5791462
  38.6921988 109.7657052  34.1637761  38.1397346 110.2161203  35.4993615
  45.9335823 112.2786004  27.0521706  45.2823803 112.8640084  26.6655720
  46.7280186 112.8092199  27.1116744  39.8591450 109.3675141  27.4508841
  40.6322326 108.8204128  27.3121716  40.2116849 110.2319390  27.6623302
  41.6976492 110.6951523  40.6575740  41.4066358 111.5997154  40.5422406
  42.3333477 110.7368051  41.3719809  42.6232699 108.0728372  37.2477100
  43.2196272 107.8484394  36.5334062  42.6807671 107.3313117  37.8502547
  42.1957728 105.5267807  25.0827290  42.4483248 105.0049328  24.3210753
  41.2582287 105.3633953  25.1853974  47.2401011 104.5303586  32.8902034
  48.0264100 104.1123009  32.5392451  47.5039715 105.4349678  33.0583682
  47.4111088 109.9676436  27.5890691  46.7756921 110.0411062  28.3011595
  47.0808494 110.5570035  26.9109770  52.6409438 104.4678819  33.7935012
  53.3734610 103.8978036  34.0272842  51.8848793 104.0800419  34.2341518
  41.9154016 107.4295913  27.2851665  41.7990275 106.7540817  27.9532750
  42.0256276 106.9428287  26.4683818  44.2585557 106.8906060  30.9898355
  43.8943765 106.3636681  31.7011276  45.1152673 106.5004529  30.8164840
  50.1634858  98.1800393  38.2529621  49.8318183  99.0495804  38.0290836
  49.5680471  97.8636677  38.9323651  43.8991044 101.9195960  25.9859703
  44.0665447 102.7876196  26.3530174  43.7088213 102.0823242  25.0620992
  46.6566378 110.3812939  37.6525534  46.3567101 111.2837978  37.5441341
  46.3117437 110.1145122  38.5046686  40.1078859 106.8326736  33.6862238
  39.1829355 106.7002950  33.8939930  40.3563272 107.6120955  34.1832180
  50.0563521 102.8995479  35.3322971  49.1480399 102.8310887  35.0381732
  50.0051117 103.3767424  36.1604796  43.8780265 104.3753617  26.9706370
  43.7579890 104.8210668  27.8091850  43.1832854 104.7238935  26.4119908
  37.4687670 106.4760009  34.5206027  37.5980051 106.7294488  35.4345439
  36.7885121 107.0687717  34.2010682  41.6387157 117.1457259  30.6196501
  41.5611187 118.0965084  30.6984982  41.0348801 116.8003132  31.2771428
  44.1304387 104.3185125  43.2757868  43.3537721 104.8779045  43.2660733
  44.7694950 104.8041908  43.7972738  51.9225168 101.1011917  37.1100845
  51.2799548 101.3944451  36.4640639  51.4180096 100.9864838  37.9154041
  49.5765331 104.8475091  27.7986704  50.4883188 105.0802477  27.6234402
  49.0674978 105.4312135  27.2361783  42.3850759 107.1270578  42.8375835
  43.1265444 107.6655622  42.5610659  41.6787745 107.7536867  42.9947387
  47.8606099 109.2699718  41.4347997  48.2689455 108.8282129  40.6902629
  47.1383361 108.6952346  41.6882190  44.2137169 104.2072325  38.8081554
  45.0598364 104.6311739  38.9516203  44.1535807 103.5505950  39.5020117
  48.1834914 109.8300909  35.1900286  47.5543776 109.9946623  34.4876353
  47.7960576 110.2442519  35.9611250  52.0624146 110.7655347  32.5444649
  51.3775184 111.1454248  31.9941683  52.1467995 111.3750674  33.2776597
  47.3636614 101.8676694  40.4662727  47.1197546 102.6218754  39.9297003
  47.6396545 102.2462041  41.3009974  49.3175077 108.4115306  39.1439993
  49.5291972 109.0547066  38.4674374  49.2704825 107.5777623  38.6761923
  46.9201306 101.0233127  36.0476565  46.0585785 101.3214380  36.3393303
  46.9463741 101.2403526  35.1157598  43.7362876 109.5675317  32.4550371
  44.2001221 109.8463020  31.6654993  43.4719674 108.6658762  32.2723461
  40.6286957 109.1146799  35.3930134  41.1988314 109.5434067  34.7547618
  41.2195068 108.8329383  36.0914320  42.6731762 105.6898470  29.2639936
  43.3755805 106.1419513  29.7313862  42.3412390 105.0482288  29.8919829
  41.1212123 104.2810226  43.6391145  40.4910784 104.9626507  43.8726542
  41.0148211 104.1693308  42.6944283  36.4157096 103.9482022  34.5657069
  35.6256150 104.2039551  34.0897180  36.9068343 104.7630360  34.6709110
  50.4320905 111.2887261  37.3162350  51.2538349 110.8867449  37.0345032
  50.4283308 111.1855496  38.2678466  38.3671841 104.3126601  31.5240546
  37.5703004 104.4245296  32.0424042  38.1397433 104.6513254  30.6581437
  44.1977509 110.8371305  39.4723061  44.2621941 111.2991712  40.3081232
  43.4888432 110.2068670  39.6005370  34.6994799 104.2012513  36.9972060
  34.9502837 105.0859523  37.2629636  35.2354347 104.0217114  36.2247152
  58.5226898 107.6326010  33.6647322  57.7690607 107.0633408  33.5091326
  58.6574439 107.5988674  34.6117956  43.9125526 112.5039412  29.3402041
  43.7771201 113.3490948  29.7686889  44.4535339 112.7058690  28.5767975
  40.3992866  98.5830992  46.0016396  40.0059811  98.0297191  46.6764040
  41.2159006  98.8941571  46.3922914  37.3654924 110.0214850  29.9129966
  37.8779444 110.8158100  30.0635531  38.0177636 109.3241141  29.8463568
  39.1749808 113.1380607  31.9952719  39.3516437 114.0598571  31.8073703
  39.9706642 112.8239026  32.4247099  43.3160827  99.9988871  43.5936653
  44.0570540 100.5996024  43.5141115  43.5478750  99.2566509  43.0354695
  38.4602165 105.1845238  41.8714882  38.3455680 104.2830496  42.1721981
  37.6046683 105.4308935  41.5199699  45.5394003 113.1262979  43.4702383
  45.0957857 112.3399357  43.1523288  46.2011216 113.3142129  42.8046274
  40.2981124 114.6558780  37.9963062  40.8488549 114.5275844  37.2240056
  39.4592600 114.9553669  37.6457954  47.6375241 113.4065779  41.4983784
  47.6193716 114.2274660  41.0064053  48.5595161 113.2819854  41.7233925
  44.0948295 110.9209908  42.3407293  44.6276632 110.1598196  42.1106601
  43.5662376 110.6283560  43.0831447  47.2617990  96.0269974  37.8700934
  46.9182259  96.9171616  37.7940045  47.6296952  95.8371632  37.0070519
  35.3303840 108.3503505  30.6889537  36.1679062 108.7600513  30.4723244
  35.5082108 107.4102947  30.6589730  47.2268273 106.0178585  26.3773370
  46.7114896 106.7883190  26.6161757  46.9545581 105.3443721  27.0006431
  44.8115384 100.8628286  31.4358608  43.9556980 100.4735136  31.2564247
  45.2242335 100.9420247  30.5758393  46.3414530  98.3974629  35.8350168
  45.8379326  98.3604764  35.0217973  46.6345137  99.3067372  35.8946824
  42.5857416  98.4813359  34.8416349  43.4510413  98.2856168  34.4822239
  42.6534925  98.2523711  35.7685706  52.2002547 108.7710940  28.3126543
  51.4231989 108.4322099  27.8681705  52.8794028 108.7763563  27.6381508
  47.0154576 103.8905677  28.2033151  46.7104711 104.2051826  29.0543294
  47.9685018 103.9687097  28.2460484  45.4601008 110.0495901  29.8526105
  44.9322369 109.3148660  29.5399342  44.9588510 110.8270577  29.6066073
  50.4393854 108.2444921  34.9693151  49.7817528 108.9344182  35.0573280
  51.2434253 108.6341353  35.3127137  40.1919735 100.7115567  32.2132716
  40.7663487 100.4890748  31.4805909  40.7790718 100.7804261  32.9661318
  49.2499312 106.5989294  33.0197093  49.7631194 107.2319286  33.5218802
  49.9000536 105.9990489  32.6540453  40.5189322 102.7420028  26.2328601
  39.6826635 103.0794714  26.5537876  40.3794092 102.6069008  25.2955738
  42.4942403  97.5856816  30.9407786  41.8406815  97.2705833  30.3164400
  42.4522877  96.9632556  31.6667609  43.6053608 107.8676111  22.8561078
  42.6980669 107.6365364  23.0552227  44.1024640 107.0713730  23.0435059
  46.5121687 116.5773618  25.7757764  45.8383385 116.8805315  26.3842722
  46.8987509 117.3802698  25.4263221  45.7280143 104.0738749  35.2655433
  44.8102705 104.2953696  35.1077121  46.1440287 104.1485060  34.4067141
  46.5115191 105.4730165  30.3958114  47.2587010 105.9851562  30.0865236
  46.7806781 105.1514218  31.2562507  44.7841841 107.9688706  27.3785068
  43.8753060 107.6847739  27.4757538  44.8136925 108.3887784  26.5188375
  50.0161109 111.5795295  31.1476235  49.5623436 110.7386205  31.2041426
  49.3855075 112.2156694  31.4851016  48.9594028 102.5087281  32.3776903
  48.2216785 101.9964667  32.7087145  49.2120802 102.0687663  31.5660180
  48.4594048 113.4171792  32.0826054  48.7517022 113.9776849  31.3638419
  48.9692668 113.7100353  32.8379213  49.0605655  95.2863533  32.9718672
  49.3664532  94.4260897  32.6844587  49.7858260  95.8781153  32.7717666
  35.3530012 105.6894220  31.3600270  35.1554411 105.0963581  30.6351337
  34.7976676 105.3846430  32.0776209  43.3326735 105.5817326  33.4794863
  43.3875345 104.6291163  33.4037340  42.5217937 105.7376765  33.9636162
  44.4817929 109.5097449  24.7173146  44.0437359 108.7933308  24.2578784
  45.2228370 109.7373564  24.1558238  41.2719095 104.1994386  31.2385242
  40.4586961 104.4988557  31.6450434  41.7678089 103.8050075  31.9559724
  43.4227673 114.1952143  33.1719507  43.3803852 114.4212989  32.2428039
  44.3390372 113.9615518  33.3205308  46.8693307 104.6636211  40.0700136
  47.2242695 104.8907684  40.9294602  47.5165438 104.9954587  39.4477391
  52.5991044 107.7854646  30.7749465  52.4608942 107.9756242  29.8470654
  52.2427263 108.5474029  31.2317516  40.7633170 101.7712742  36.8546477
  41.4032549 101.6301501  36.1569440  39.9310700 101.4847255  36.4785079
  52.6260423 109.8531173  35.7860736  53.0596930 109.7606463  36.6343791
  53.3392004 109.8288674  35.1480752  41.5393474 111.0715172  32.9681469
  42.3334072 110.5765492  32.7664044  40.8285166 110.5433035  32.6049175
  46.3588318 113.4533268  37.3193837  46.4125341 114.0224204  38.0871553
  45.4903100 113.6235153  36.9547874  37.8476237 105.2158254  29.0441222
  36.9173825 105.1542709  29.2611184  37.9433709 104.6934207  28.2477863
  37.7661786 101.7413067  31.6319464  38.0268604 102.6558400  31.5228624
  38.5878959 101.2737509  31.7816077  39.2386712 103.1550824  38.8018288
  39.9109765 102.9468186  38.1530937  38.4116498 102.9572910  38.3623521
  53.4875973 109.8954874  38.3193622  53.6811863 110.8000685  38.5652897
  53.3876591 109.4362293  39.1532207  45.1412284  99.7812765  40.8183949
  44.4940199 100.4802714  40.7248426  45.9113299 100.2148909  41.1860197
  48.5491082 110.0461617  43.8934502  48.3976588 109.8172169  42.9764586
  48.5395761 111.0032218  43.9065848  45.3176418 107.6193530  38.8780769
  46.2468478 107.7704689  38.7049736  44.8967448 107.7077550  38.0229415
  44.1164750 111.6444194  36.6479307  43.9775836 111.2762978  37.5205245
  43.3279346 112.1591833  36.4763264  44.7112902 116.7453290  27.9904843
  44.8864657 116.2741334  28.8050466  44.0245690 117.3719057  28.2186104
  45.6669965 111.0225797  34.0368144  45.3319798 110.9826567  34.9325794
  45.1673911 110.3570513  33.5638555  39.6414209 106.4293427  39.5620726
  39.5034007 105.6973666  40.1632265  40.5519132 106.3402327  39.2804913
  48.6029157 108.3681831  24.3105204  47.9858327 107.6428659  24.2138257
  48.1345645 109.1291191  23.9672278  42.2696510 106.1413386  39.0504405
  42.9796128 105.5006578  39.0091024  42.2265818 106.3926281  39.9730586
  50.2583288 113.0780739  41.9710984  50.1995834 112.3939960  41.3041567
  50.6602807 113.8199729  41.5191610  40.9825444 103.1278604  40.8700045
  40.4462801 102.6769342  41.5221641  40.3942152 103.2624513  40.1270509
  40.3927703 102.5867255  23.4326508  39.5157169 102.4656056  23.0688755
  40.8685456 101.7953334  23.1805397  50.2600696 111.0420323  40.2024964
  49.3727474 110.7046245  40.3251363  50.8299247 110.3103355  40.4393729
  31.9129843 107.3744415  33.5268015  32.6000882 107.0606145  32.9389031
  31.7577971 108.2785780  33.2535267  36.7164565 102.2634612  37.9553039
  36.6322754 101.6560281  37.2203449  35.8947271 102.7543630  37.9562535
  43.7901849 115.7021776  37.1686207  43.7172020 116.5076747  37.6805512
  43.3479242 115.9013741  36.3434229  43.5791629 114.9393546  30.6789029
  42.7959150 115.4815226  30.7727253  44.2784374 115.4567525  31.0783270
  46.8888279 100.7488175  33.3223234  47.3856978  99.9958137  33.0024304
  46.1175260 100.7852492  32.7566443  54.7418036 106.4528541  34.9641526
  54.7307912 107.3353256  34.5935459  53.8735415 106.1000092  34.7696063
  46.2500532 115.6008610  39.3244366  46.9628505 116.2356075  39.2520267
  45.7590561 115.6972476  38.5084368  47.9718059 109.5059862  30.8961658
  47.0374338 109.6261325  30.7266362  48.1494728 108.6032329  30.6321667
  43.4723247 102.8905558  33.0494919  43.1021035 102.3376599  33.7375824
  43.9682340 102.2863692  32.4969919  51.3590611 105.3477182  31.4311692
  51.8251063 106.1805173  31.3571994  51.8098111 104.8822163  32.1356950
  41.3012446 113.3503053  40.1449937  42.0021905 113.9839536  40.2979331
  40.8307561 113.6917785  39.3845576  49.4266842 111.6921003  28.4297844
  49.7026686 111.5777598  29.3391718  48.5571341 111.2938488  28.3910017
  49.3307273  97.7157769  35.4702593  48.4170353  97.9461995  35.6384800
  49.7600375  97.7996213  36.3216625  49.1013732 105.9047661  37.9702487
  48.4485182 106.1523568  37.3154940  49.4794112 105.0911799  37.6364964
  46.0620906 115.9407354  32.0730657  46.2443300 115.1229010  32.5358410
  46.8853892 116.1575046  31.6355547  46.3963071 114.8675539  29.3345706
  46.9250838 114.3567994  28.7215868  46.6591291 114.5518069  30.1991239
  45.1501305 106.6467472  44.4568524  44.4741942 106.5461601  45.1270899
  45.9728939 106.4906685  44.9204521  36.8980164 112.8839408  37.0781039
  37.4833601 112.1383096  37.2108944  36.7005002 113.1943365  37.9617703
  39.7518819 115.9190656  32.0943482  39.0829195 116.4036783  31.6107522
  39.6131689 116.1659876  33.0086860  31.4897819 105.4545008  35.7985483
  31.5281918 104.9208599  36.5922601  30.9838112 104.9280214  35.1796460
  43.8924088 117.9534399  38.6926140  44.4442396 118.1166021  39.4575225
  44.2330281 118.5438837  38.0206165  38.8688581 100.3009549  39.2948025
  38.9329908 101.1624380  38.8825423  38.8055701  99.6883551  38.5620383
  38.3440854 102.3732681  42.9421059  38.9712892 101.9909759  43.5558583
  37.4868772 102.1546883  43.3076752  48.7434962 112.7795657  44.5474795
  49.2874866 113.3925615  44.0529749  48.1621807 113.3375235  45.0641808
  35.1206396 104.1809111  28.8739414  35.4159837 103.2719789  28.8206468
  34.2194432 104.1596850  28.5520416  47.0292475 115.9016375  35.6789822
  46.9043615 115.1006114  35.1700768  47.6871566 116.3962568  35.1903792
  38.6500643 102.2565107  34.8566963  37.9287229 102.8701075  34.7174436
  39.4393899 102.7922872  34.7783608  49.0927384 113.7025395  37.3069372
  48.1457719 113.5830746  37.2347699  49.4410157 112.8147893  37.3895634
  41.4526957  99.5919534  41.1307614  41.9761359  99.8381830  41.8933924
  41.2339290 100.4239568  40.7110752  36.8494238 101.8623208  28.9978739
  36.5206944 100.9820587  28.8153845  37.2033609 101.8070877  29.8855128
  46.0973817 113.4978111  33.5073725  45.9498779 112.5694818  33.6881295
  46.9227310 113.5198202  33.0230800  39.9636061 102.1496178  29.3654217
  40.3032134 102.6782099  28.6432825  40.4108182 102.4876584  30.1412783
  49.7007939 114.3206670  34.5938597  50.6254486 114.1149531  34.4563049
  49.5323242 114.0723071  35.5027939  42.6579502 100.5333229  38.8157285
  42.3176322  99.7341042  39.2177965  41.9518508 100.8334940  38.2434118
  43.3095974  97.6182541  37.2684608  44.1322043  97.1443019  37.1463498
  43.5534037  98.3973025  37.7683294  41.9504208 100.6470800  27.5647510
  42.6712571 101.0252052  27.0611226  41.3269512 101.3659676  27.6682487
  46.0935331 101.3515949  28.5005842  46.3098946 102.2340586  28.1994670
  45.6129398 100.9602162  27.7711484  40.8334553 104.3101662  35.0776586
  40.6879133 104.6241965  35.9700868  40.3559756 104.9286562  34.5247485
  42.6930935 101.3004210  35.1257476  42.6792504 100.4045303  34.7889774
  43.4103363 101.3074874  35.7595762  44.5457066 101.7341550  37.1710603
  44.2874844 102.6558621  37.1694934  44.0142106 101.3371985  37.8611068
  49.4903255 114.8392337  29.9500689  49.6640132 114.2738760  29.1974541
  49.9832146 115.6393232  29.7680179  35.3080215 106.8507006  38.0164248
  34.7633683 107.6266814  38.1484522  36.1859565 107.1977811  37.8583369
  42.0967831 100.1818590  30.3945046  42.2183743  99.2535236  30.5935934
  41.8069874 100.1957276  29.4823362  44.9659022  97.8673501  33.5311766
  44.9880719  97.9312834  32.5763746  45.3827081  97.0278009  33.7252272
  55.3442646 107.6028760  31.5690989  55.7873792 106.8536085  31.1710112
  54.4669156 107.5938896  31.1864721  50.4778427 114.1559102  27.0497587
  51.1729332 114.7765794  27.2684902  50.8201577 113.3054453  27.3249965
  36.0946237 105.9776902  40.9094404  35.3527973 106.1259538  41.4959035
  35.7738981 106.2385168  40.0461154  52.3769850 111.6058807  28.5784918
  52.9021175 111.9446080  27.8534238  52.2892203 110.6705822  28.3948053
  44.0389899 115.5192881  40.7074795  44.3477026 115.2742027  41.5797494
  44.8365381 115.7239519  40.2193665  44.0610511 117.6730790  32.9380171
  43.6215502 117.1807169  33.6313028  44.8118628 117.1303758  32.6972246
  36.5402850 113.8642331  32.9404799  37.3660870 113.5646103  32.5603443
  36.1896902 113.0949954  33.3894588  41.5084383 113.2168799  35.0102473
  40.8864393 112.5539504  34.7104701  42.1789250 113.2429931  34.3276121
  34.7411455 111.7828658  33.8993733  33.9043364 111.3550832  33.7177734
  34.7135101 111.9761101  34.8364524  41.5808911 101.6950587  44.6034979
  41.6297066 102.5712710  44.2212748  42.1231425 101.1527981  44.0306622
  52.0663757 112.2391711  43.8836116  51.2759300 112.2215850  43.3440615
  51.8297111 112.7780004  44.6385152  52.1861632 109.0884177  41.1968844
  52.2359637 108.9234185  42.1384367  52.0775555 108.2211436  40.8066725
  41.0697890 111.7672723  28.4860933  41.2186011 112.4508187  27.8327606
  41.8764334 111.7477813  29.0010389  49.4765394 105.0715105  42.5128151
  50.3775257 104.9321570  42.2212149  49.5513368 105.2369560  43.4526329
  43.8108199 102.4481960  41.3581337  42.9411509 102.7415526  41.0863926
  44.0467680 103.0322405  42.0788601  53.6879828 111.5081119  41.4410866
  53.3964637 111.8711099  42.2774327  53.0751960 110.7948127  41.2624198
  54.8875511 109.0733998  33.9613436  55.7222402 109.5123802  34.1250997
  55.0234640 108.5972652  33.1421682  51.9367017 106.6313733  39.9090924
  52.4121138 106.8241380  39.1009775  51.0132582 106.6872919  39.6634308
  38.8250523 107.7937900  29.4922002  38.5796565 106.8900230  29.6902212
  38.9946438 107.7955051  28.5501480  46.5147233  98.6661577  38.8746758
  47.0329177  99.4022604  38.5493246  46.1602366  98.9725570  39.7093517
  38.0946171 103.5266258  26.9908164  37.4015416 103.6010613  26.3348200
  37.8497923 102.7626602  27.5129681  46.7659827  95.0861859  34.3947654
  47.0461581  94.4185048  35.0208081  47.5510434  95.2790955  33.8822318
  44.5693296 114.2620853  25.9572681  43.9967263 114.8811040  25.5043153
  45.1426089 114.8120215  26.4912603  50.6368686 103.5079493  38.1419230
  51.5886109 103.6077591  38.1631454  50.4672136 102.7157762  38.6517314
  48.6583065 100.5935077  38.3278630  48.0632997 100.8740089  37.6325119
  48.3732762 101.0828977  39.0995372  47.7890556 114.5458003  27.0881263
  48.7221229 114.4803565  27.2914138  47.7013768 115.3814270  26.6295796
  50.4178572 113.8623874  24.0485211  50.3392204 113.5283737  24.9420968
  51.2388239 114.3545642  24.0476683  53.1156763 106.7285613  37.2561529
  53.0833084 105.7901614  37.4421213  53.7257387 106.8069650  36.5227354
  44.9540094 105.5981666  23.2988733  45.8999199 105.4687874  23.3677151
  44.5754339 104.8596328  23.7758161  53.2651252 103.5196656  37.3019812
  52.7490301 102.7355113  37.1149741  54.1491200 103.1915373  37.4666332
  50.9261979  97.2637672  33.2615625  50.7286800  96.9552760  34.1458957
  51.5361684  97.9899311  33.3913555  58.9333313 107.7901620  36.3967566
  59.6636702 107.5286908  36.9575269  58.3240259 107.0530342  36.4369634
  57.0148610 105.9309482  36.9942017  56.2881774 105.7965447  36.3858509
  56.5995897 106.2386311  37.7998735  44.8378787 109.6499412  44.7589390
  45.7581796 109.8278011  44.9529437  44.8028370 108.7055457  44.6069089
  43.1383011 103.5231642  23.2343618  42.2314467 103.2264755  23.3106332
  43.4158992 103.2261460  22.3677905  34.0560952 104.8438006  33.6842665
  33.7363736 103.9903314  33.3917039  33.5094380 105.0586584  34.4400632
  37.8340859 107.5600447  37.4012171  38.0526869 108.4917555  37.4200205
  38.2466633 107.2008421  38.1866975  44.7545077  98.0668532  29.3887860
  43.9445806  97.7215617  29.7643106  45.4429494  97.7576076  29.9775471
  46.6835625  97.1446579  31.0112156  47.2366664  97.5642032  31.6702179
  46.9205712  96.2182327  31.0535112  42.7068725 103.1333653  46.7914920
  42.6065452 104.0828009  46.7227011  42.4890267 102.8051891  45.9190990
  41.9081796 100.3818578  23.3755598  42.7700960 100.7073476  23.6351415
  42.0932140  99.5950073  22.8628663  33.9249212 108.4640917  35.6535786
  33.2312683 108.0494870  35.1405741  34.6722203 108.5061454  35.0569205
  50.0614433  99.2547104  30.5190821  49.4813102  99.9131908  30.1368873
  49.7950365  98.4324449  30.1078238  48.5117999  98.6552162  32.7212141
  49.0117777  98.7668696  31.9126460  49.1553607  98.3513215  33.3612949
  42.5699995 106.5630791  45.6079982  42.0867076 107.3631151  45.8143871
  42.6560934 106.5738736  44.6547426  35.8385954 108.3959171  33.5301801
  35.8156642 108.4946858  32.5783684  36.1486591 109.2424322  33.8518967
  38.4973332 110.4535326  37.6448416  39.4516586 110.4219268  37.5778347
  38.2985856 109.9925950  38.4598642  39.0872714 109.0236442  40.2119213
  39.9065603 109.5180521  40.2354051  39.3609522 108.1068410  40.1836781
  48.8439311 101.4147194  29.5747169  47.9565166 101.6996845  29.3567364
  49.2593300 101.2540958  28.7274446  52.1953847 101.4393715  33.2901508
  52.9714237 101.9290168  33.5626125  51.4701981 101.8651770  33.7473378
  54.6326405 102.1521335  34.3475449  55.2270896 101.9117071  33.6368757
  54.7052989 101.4328465  34.9748985  47.9882524 111.1791869  23.6695189
  48.6918374 111.3841872  24.2852844  47.2645173 111.7468631  23.9344272
  48.8180334 106.9301730  29.7897459  48.7615536 107.3870282  28.9505091
  49.3708677 106.1692415  29.6120302  52.6285140 102.7191462  30.6147579
  52.3722074 102.3188098  31.4455786  52.0038008 103.4335256  30.4897718
  56.9397478 105.4587535  33.1218870  56.3797036 105.5280725  33.8950432
  56.3340981 105.2828520  32.4018366  49.8969221 111.6174398  25.7193649
  50.7314825 111.1855597  25.5371124  49.7353564 111.4456412  26.6470543
  49.5515114 108.1206512  27.0849988  49.4963917 107.9550783  26.1438432
  48.9261169 108.8282545  27.2412178  34.3407629 103.3574576  40.9111410
  34.9866492 102.8473530  41.3998636  34.1324780 104.0943258  41.4854836
  46.8661021 110.4255423  46.4103551  47.7352180 110.5996076  46.0490186
  46.3867772 111.2449840  46.2879280  42.8611239  97.6214621  26.6635307
  42.8489909  98.5656461  26.8203577  43.7534661  97.4384766  26.3694768
  41.0347201 117.5452524  38.0892985  41.9374448 117.5776135  38.4059480
  40.8084571 116.6152975  38.1039320  42.7900803 116.2983511  34.7503063
  41.8396434 116.2985373  34.6367436  43.0933289 115.5516246  34.2339098
  46.6763359  94.2157397  30.9181243  45.9095754  93.6615884  31.0637926
  47.0874064  94.2879266  31.7795395  38.6805120 100.5042193  45.0086425
  39.5436581 100.1478998  45.2189749  38.1070530 100.1656088  45.6961829
  58.5253497 122.1344049  35.8148826  59.1631906 122.0150797  35.1112166
  58.4074339 123.0824893  35.8736778  55.3343203 122.0871478  35.7510350
  54.9961714 121.9712542  34.8630885  56.2032971 121.6862643  35.7311356
  55.8162986 123.2406329  41.7096556  55.8051627 122.8459128  40.8377060
  55.9783625 122.5072402  42.3030327  53.0351482 120.8559725  25.0827290
  53.2877003 120.3341246  24.3210753  52.0976041 120.6925870  25.1853974
  58.0794765 119.8595503  32.8902034  58.8657854 119.4414926  32.5392451
  58.3433469 120.7641595  33.0583682  63.4803192 119.7970736  33.7935012
  64.2128364 119.2269953  34.0272842  62.7242548 119.4092337  34.2341518
  55.0979312 122.2197978  30.9898355  54.7337519 121.6928599  31.7011276
  55.9546428 121.8296447  30.8164840  61.0028612 113.5092311  38.2529621
  60.6711937 114.3787722  38.0290836  60.4074226 113.1928595  38.9323651
  54.7384799 117.2487878  25.9859703  54.9059201 118.1168114  26.3530174
  54.5481968 117.4115159  25.0620992  60.8957276 118.2287397  35.3322971
  59.9874153 118.1602805  35.0381732  60.8444872 118.7059342  36.1604796
  54.7174020 119.7045535  26.9706370  54.5973645 120.1502586  27.8091850
  54.0226608 120.0530853  26.4119908  54.9698142 119.6477042  43.2757868
  54.1931476 120.2070962  43.2660733  55.6088705 120.1333825  43.7972738
  62.7618922 116.4303835  37.1100845  62.1193302 116.7236368  36.4640639
  62.2573851 116.3156755  37.9154041  60.4159086 120.1767008  27.7986704
  61.3276942 120.4094395  27.6234402  59.9068733 120.7604053  27.2361783
  55.0530924 119.5364243  38.8081554  55.8992119 119.9603656  38.9516203
  54.9929561 118.8797867  39.5020117  58.2030369 117.1968611  40.4662727
  57.9591301 117.9510672  39.9297003  58.4790299 117.5753959  41.3009974
  60.1568832 123.7407224  39.1439993  60.3685727 124.3838984  38.4674374
  60.1098580 122.9069540  38.6761923  57.7595061 116.3525044  36.0476565
  56.8979540 116.6506298  36.3393303  57.7857495 116.5695443  35.1157598
  53.5125516 121.0190387  29.2639936  54.2149559 121.4711431  29.7313862
  53.1806145 120.3774206  29.8919829  51.9605878 119.6102144  43.6391145
  51.3304538 120.2918425  43.8726542  51.8541966 119.4985225  42.6944283
  47.2550850 119.2773940  34.5657069  46.4649904 119.5331468  34.0897180
  47.7462097 120.0922278  34.6709110  49.2065595 119.6418519  31.5240546
  48.4096759 119.7537213  32.0424042  48.9791188 119.9805171  30.6581437
  69.3620653 122.9617928  33.6647322  68.6084361 122.3925326  33.5091326
  69.4968194 122.9280592  34.6117956  51.2386620 113.9122910  46.0016396
  50.8453566 113.3589108  46.6764040  52.0552761 114.2233488  46.3922914
  54.1554581 115.3280789  43.5936653  54.8964295 115.9287942  43.5141115
  54.3872504 114.5858427  43.0354695  58.1011744 111.3561892  37.8700934
  57.7576014 112.2463533  37.7940045  58.4690707 111.1663549  37.0070519
  58.0662027 121.3470503  26.3773370  57.5508650 122.1175107  26.6161757
  57.7939335 120.6735639  27.0006431  55.6509138 116.1920204  31.4358608
  54.7950734 115.8027054  31.2564247  56.0636090 116.2712164  30.5758393
  57.1808285 113.7266547  35.8350168  56.6773080 113.6896682  35.0217973
  57.4738892 114.6359290  35.8946824  53.4251171 113.8105277  34.8416349
  54.2904167 113.6148085  34.4822239  53.4928679 113.5815628  35.7685706
  63.0396301 124.1002858  28.3126543  62.2625744 123.7614017  27.8681705
  63.7187782 124.1055481  27.6381508  57.8548330 119.2197595  28.2033151
  57.5498466 119.5343744  29.0543294  58.8078772 119.2979015  28.2460484
  61.2787608 123.5736839  34.9693151  60.6211283 124.2636100  35.0573280
  62.0828007 123.9633271  35.3127137  51.0313490 116.0407485  32.2132716
  51.6057242 115.8182666  31.4805909  51.6184472 116.1096179  32.9661318
  60.0893067 121.9281211  33.0197093  60.6024949 122.5611203  33.5218802
  60.7394291 121.3282407  32.6540453  51.3583077 118.0711946  26.2328601
  50.5220389 118.4086632  26.5537876  51.2187846 117.9360925  25.2955738
  53.3336157 112.9148733  30.9407786  52.6800570 112.5997751  30.3164400
  53.2916632 112.2924474  31.6667609  56.5673898 119.4030667  35.2655433
  55.6496459 119.6245614  35.1077121  56.9834041 119.4776977  34.4067141
  57.3508945 120.8022083  30.3958114  58.0980764 121.3143480  30.0865236
  57.6200535 120.4806135  31.2562507  59.7987783 117.8379199  32.3776903
  59.0610539 117.3256585  32.7087145  60.0514556 117.3979581  31.5660180
  59.8999410 110.6155451  32.9718672  60.2058287 109.7552814  32.6844587
  60.6252015 111.2073071  32.7717666  54.1720490 120.9109244  33.4794863
  54.2269099 119.9583080  33.4037340  53.3611692 121.0668683  33.9636162
  52.1112850 119.5286304  31.2385242  51.2980715 119.8280474  31.6450434
  52.6071844 119.1341993  31.9559724  57.7087061 119.9928128  40.0700136
  58.0636449 120.2199601  40.9294602  58.3559193 120.3246505  39.4477391
  63.4384798 123.1146564  30.7749465  63.3002697 123.3048160  29.8470654
  63.0821017 123.8765947  31.2317516  51.6026924 117.1004659  36.8546477
  52.2426304 116.9593418  36.1569440  50.7704455 116.8139173  36.4785079
  63.4654178 125.1823091  35.7860736  63.8990685 125.0898380  36.6343791
  64.1785759 125.1580592  35.1480752  48.6869992 120.5450171  29.0441222
  47.7567580 120.4834627  29.2611184  48.7827464 120.0226124  28.2477863
  48.6055541 117.0704984  31.6319464  48.8662358 117.9850318  31.5228624
  49.4272713 116.6029427  31.7816077  50.0780466 118.4842741  38.8018288
  50.7503520 118.2760104  38.1530937  49.2510253 118.2864827  38.3623521
  64.3269727 125.2246792  38.3193622  64.5205618 126.1292602  38.5652897
  64.2270346 124.7654211  39.1532207  55.9806038 115.1104682  40.8183949
  55.3333953 115.8094632  40.7248426  56.7507054 115.5440826  41.1860197
  56.1570173 122.9485447  38.8780769  57.0862233 123.0996607  38.7049736
  55.7361203 123.0369468  38.0229415  53.1090264 121.4705304  39.0504405
  53.8189883 120.8298496  39.0091024  53.0659572 121.7218199  39.9730586
  51.8219198 118.4570522  40.8700045  51.2856555 118.0061260  41.5221641
  51.2335906 118.5916430  40.1270509  51.2321457 117.9159173  23.4326508
  50.3550923 117.7947974  23.0688755  51.7079210 117.1245251  23.1805397
  47.5558319 117.5926529  37.9553039  47.4716508 116.9852199  37.2203449
  46.7341026 118.0835548  37.9562535  57.7282033 116.0780093  33.3223234
  58.2250733 115.3250055  33.0024304  56.9569015 116.1144409  32.7566443
  65.5811791 121.7820458  34.9641526  65.5701667 122.6645174  34.5935459
  64.7129170 121.4292009  34.7696063  54.3117002 118.2197476  33.0494919
  53.9414789 117.6668516  33.7375824  54.8076094 117.6155609  32.4969919
  62.1984365 120.6769099  31.4311692  62.6644817 121.5097091  31.3571994
  62.6491866 120.2114081  32.1356950  60.1701028 113.0449686  35.4702593
  59.2564108 113.2753913  35.6384800  60.5994129 113.1288130  36.3216625
  59.9407486 121.2339578  37.9702487  59.2878937 121.4815486  37.3154940
  60.3187866 120.4203716  37.6364964  55.9895059 121.9759389  44.4568524
  55.3135696 121.8753519  45.1270899  56.8122693 121.8198603  44.9204521
  49.7082336 115.6301467  39.2948025  49.7723662 116.4916298  38.8825423
  49.6449456 115.0175468  38.5620383  49.1834608 117.7024599  42.9421059
  49.8106647 117.3201676  43.5558583  48.3262527 117.4838801  43.3076752
  45.9600151 119.5101028  28.8739414  46.2553592 118.6011707  28.8206468
  45.0588187 119.4888768  28.5520416  49.4894398 117.5857025  34.8566963
  48.7680984 118.1992993  34.7174436  50.2787654 118.1214790  34.7783608
  52.2920711 114.9211451  41.1307614  52.8155113 115.1673748  41.8933924
  52.0733045 115.7531486  40.7110752  47.6887992 117.1915126  28.9978739
  47.3600699 116.3112505  28.8153845  48.0427363 117.1362795  29.8855128
  50.8029816 117.4788096  29.3654217  51.1425888 118.0074017  28.6432825
  51.2501936 117.8168502  30.1412783  53.4973256 115.8625146  38.8157285
  53.1570077 115.0632959  39.2177965  52.7912263 116.1626857  38.2434118
  54.1489728 112.9474459  37.2684608  54.9715798 112.4734937  37.1463498
  54.3927792 113.7264943  37.7683294  52.7897963 115.9762717  27.5647510
  53.5106325 116.3543970  27.0611226  52.1663267 116.6951594  27.6682487
  56.9329086 116.6807866  28.5005842  57.1492700 117.5632504  28.1994670
  56.4523153 116.2894080  27.7711484  51.6728307 119.6393580  35.0776586
  51.5272888 119.9533883  35.9700868  51.1953511 120.2578480  34.5247485
  53.5324690 116.6296127  35.1257476  53.5186259 115.7337221  34.7889774
  54.2497118 116.6366791  35.7595762  55.3850821 117.0633468  37.1710603
  55.1268598 117.9850538  37.1694934  54.8535861 116.6663902  37.8611068
  52.9361586 115.5110508  30.3945046  53.0577497 114.5827154  30.5935934
  52.6463628 115.5249194  29.4823362  55.8052776 113.1965418  33.5311766
  55.8274473 113.2604751  32.5763746  56.2220835 112.3569927  33.7252272
  66.1836401 122.9320678  31.5690989  66.6267547 122.1828003  31.1710112
  65.3062911 122.9230814  31.1864721  52.4202665 117.0242505  44.6034979
  52.4690821 117.9004628  44.2212748  52.9625180 116.4819898  44.0306622
  63.0255386 124.4176095  41.1968844  63.0753391 124.2526102  42.1384367
  62.9169309 123.5503354  40.8066725  60.3159148 120.4007023  42.5128151
  61.2169011 120.2613488  42.2212149  60.3907123 120.5661478  43.4526329
  54.6501954 117.7773878  41.3581337  53.7805263 118.0707444  41.0863926
  54.8861434 118.3614323  42.0788601  65.7269265 124.4025916  33.9613436
  66.5616157 124.8415720  34.1250997  65.8628394 123.9264569  33.1421682
  62.7760771 121.9605651  39.9090924  63.2514893 122.1533297  39.1009775
  61.8526337 122.0164837  39.6634308  57.3540988 113.9953494  38.8746758
  57.8722931 114.7314521  38.5493246  56.9996120 114.3017488  39.7093517
  48.9339925 118.8558176  26.9908164  48.2409170 118.9302531  26.3348200
  48.6891677 118.0918519  27.5129681  57.6053582 110.4153777  34.3947654
  57.8855336 109.7476966  35.0208081  58.3904189 110.6082873  33.8822318
  61.4762440 118.8371411  38.1419230  62.4279863 118.9369509  38.1631454
  61.3065891 118.0449680  38.6517314  59.4976820 115.9226994  38.3278630
  58.9026752 116.2032007  37.6325119  59.2126516 116.4120895  39.0995372
  63.9550518 122.0577531  37.2561529  63.9226838 121.1193531  37.4421213
  64.5651142 122.1361567  36.5227354  55.7933849 120.9273584  23.2988733
  56.7392954 120.7979792  23.3677151  55.4148094 120.1888246  23.7758161
  64.1045006 118.8488574  37.3019812  63.5884055 118.0647031  37.1149741
  64.9884955 118.5207291  37.4666332  61.7655733 112.5929590  33.2615625
  61.5680554 112.2844678  34.1458957  62.3755439 113.3191229  33.3913555
  69.7727068 123.1193538  36.3967566  70.5030456 122.8578826  36.9575269
  69.1634013 122.3822259  36.4369634  67.8542365 121.2601400  36.9942017
  67.1275528 121.1257365  36.3858509  67.4389652 121.5678229  37.7998735
  53.9776766 118.8523560  23.2343618  53.0708221 118.5556673  23.3106332
  54.2552747 118.5553378  22.3677905  55.5938832 113.3960450  29.3887860
  54.7839560 113.0507535  29.7643106  56.2823249 113.0867993  29.9775471
  57.5229380 112.4738497  31.0112156  58.0760419 112.8933950  31.6702179
  57.7599466 111.5474245  31.0535112  53.5462479 118.4625570  46.7914920
  53.4459206 119.4119927  46.7227011  53.3284021 118.1343809  45.9190990
  52.7475551 115.7110495  23.3755598  53.6094715 116.0365394  23.6351415
  52.9325895 114.9241991  22.8628663  60.9008187 114.5839022  30.5190821
  60.3206856 115.2423826  30.1368873  60.6344120 113.7616366  30.1078238
  59.3511753 113.9844079  32.7212141  59.8511532 114.0960614  31.9126460
  59.9947361 113.6805132  33.3612949  59.6833065 116.7439112  29.5747169
  58.7958920 117.0288763  29.3567364  60.0987054 116.5832875  28.7274446
  63.0347601 116.7685633  33.2901508  63.8107991 117.2582086  33.5626125
  62.3095735 117.1943687  33.7473378  65.4720160 117.4813252  34.3475449
  66.0664651 117.2408988  33.6368757  65.5446744 116.7620383  34.9748985
  59.6574089 122.2593648  29.7897459  59.6009290 122.7162199  28.9505091
  60.2102431 121.4984333  29.6120302  63.4678895 118.0483380  30.6147579
  63.2115829 117.6480016  31.4455786  62.8431763 118.7627174  30.4897718
  67.7791233 120.7879453  33.1218870  67.2190791 120.8572642  33.8950432
  67.1734736 120.6120438  32.4018366  60.3908868 123.4498429  27.0849988
  60.3357672 123.2842701  26.1438432  59.7654923 124.1574462  27.2412178
  45.1801383 118.6866494  40.9111410  45.8260247 118.1765448  41.3998636
  44.9718534 119.4235175  41.4854836  53.7004994 112.9506538  26.6635307
  53.6883663 113.8948378  26.8203577  54.5928415 112.7676684  26.3694768
  57.5157113 109.5449315  30.9181243  56.7489509 108.9907802  31.0637926
  57.9267818 109.6171184  31.7795395  49.5198874 115.8334111  45.0086425
  50.3830336 115.4770916  45.2189749  48.9464285 115.4948006  45.6961829
  68.9405499 126.6853809  37.8700934  68.5969768 127.5755451  37.7940045
  69.3084461 126.4955467  37.0070519  70.7393164 125.9447369  32.9718672
  71.0452041 125.0844732  32.6844587  71.4645769 126.5364989  32.7717666
  68.4447336 125.7445695  34.3947654  68.7249090 125.0768884  35.0208081
  69.2297943 125.9374790  33.8822318  72.6049488 127.9221507  33.2615625
  72.4074309 127.6136596  34.1458957  73.2149193 128.6483146  33.3913555
  68.3550868 124.8741233  30.9181243  67.5883263 124.3199719  31.0637926
  68.7661572 124.9463101  31.7795395   6.9008272  28.7675191  28.6956291
   6.8420818  28.0834411  28.0286874   7.3027790  29.5094181  28.2436917
   5.3859945  28.4690109  31.2720101   5.9299849  29.0820067  30.7775056
   4.8046790  29.0269687  31.7887114   8.7088740  27.9286163  30.6081422
   7.9184284  27.9110301  30.0685922   8.4722094  28.4674456  31.3630459
  10.3304812  27.1975570  28.1656173  10.0389620  27.5605551  29.0019634
   9.7176943  26.4842579  27.9869505   3.5086004  26.1149875  33.1348858
   4.3777164  26.2890528  32.7735493   3.0292756  26.9344292  33.0124587
  15.1678480  37.8238501  22.5394132  15.8056890  37.7045249  21.8357472
  15.0499323  38.7719345  22.5982084  11.9768186  37.7765929  22.4755657
  11.6386698  37.6606994  21.5876192  12.8457954  37.3757094  22.4556663
  12.4587969  38.9300781  28.4341863  12.4476610  38.5353579  27.5622366
  12.6208609  38.1966854  29.0275634   5.3819434  41.1252597  21.3036768
   6.1740726  40.7843422  20.8883068   5.6216084  41.2347572  22.2238922
   9.1795230  41.7137893  27.3821046   8.8885096  42.6183524  27.2667713
   9.8152215  41.7554421  28.0965116  10.1051437  39.0914741  23.9722406
  10.7015009  38.8670764  23.2579369  10.1626409  38.3499487  24.5747854
  20.1228175  35.4865188  20.5180319  20.8553347  34.9164405  20.7518148
  19.3667531  35.0986789  20.9586824  17.6453596  29.1986762  24.9774927
  17.3136921  30.0682173  24.7536142  17.0499209  28.8823046  25.6568958
  14.1385115  41.3999308  24.3770840  13.8385838  42.3024347  24.2686647
  13.7936175  41.1331492  25.2291993  17.5382259  33.9181849  22.0568278
  16.6299136  33.8497257  21.7627038  17.4869855  34.3953794  22.8850103
   9.1205895  48.1643629  17.3441808   9.0429925  49.1151454  17.4230288
   8.5167539  47.8189501  18.0016734  11.6123125  35.3371494  30.0003175
  10.8356459  35.8965414  29.9906039  12.2513688  35.8228277  30.5218045
  19.4043906  32.1198287  23.8346151  18.7618286  32.4130820  23.1885946
  18.8998834  32.0051207  24.6399348   9.8669497  38.1456948  29.5621142
  10.6084182  38.6841992  29.2855965   9.1606483  38.7723236  29.7192694
  15.3424837  40.2886088  28.1593303  15.7508193  39.8468499  27.4147936
  14.6202098  39.7138716  28.4127496  11.6955907  35.2258695  25.5326860
  12.5417102  35.6498108  25.6761509  11.6354545  34.5692319  26.2265423
  15.6653651  40.8487279  21.9145592  15.0362514  41.0132993  21.2121660
  15.2779314  41.2628888  22.6856556  19.5442883  41.7841717  19.2689956
  18.8593922  42.1640618  18.7186989  19.6286733  42.3937043  20.0021904
  14.8455352  32.8863063  27.1908034  14.6016284  33.6405124  26.6542310
  15.1215283  33.2648411  28.0255281  16.7993815  39.4301676  25.8685299
  17.0110710  40.0733435  25.1919681  16.7523563  38.5963992  25.4007230
   8.1105694  40.1333168  22.1175440   8.6807052  40.5620437  21.4792925
   8.7013806  39.8515753  22.8159626   8.6030861  35.2996596  30.3636452
   7.9729522  35.9812877  30.5971849   8.4966949  35.1879677  29.4189590
  17.9139643  42.3073631  24.0407657  18.7357087  41.9053818  23.7590338
  17.9102046  42.2041865  24.9923773  11.6796246  41.8557674  26.1968367
  11.7440679  42.3178081  27.0326539  10.9707170  41.2255039  26.3250677
  26.0045636  38.6512379  20.3892628  25.2509344  38.0819778  20.2336633
  26.1393177  38.6175044  21.3363263   7.8811604  29.6017362  32.7261703
   7.4878549  29.0483560  33.4009347   8.6977744  29.9127940  33.1168220
  10.7979565  31.0175241  30.3181959  11.5389278  31.6182394  30.2386422
  11.0297488  30.2752878  29.7600002   5.9420903  36.2031608  28.5960189
   5.8274418  35.3016865  28.8967288   5.0865420  36.4495305  28.2445006
  13.0212740  44.1449348  30.1947690  12.5776595  43.3585727  29.8768594
  13.6829954  44.3328499  29.5291580   7.7799862  45.6745150  24.7208368
   8.3307287  45.5462213  23.9485362   6.9411338  45.9740039  24.3703261
  15.1193978  44.4252148  28.2229091  15.1012454  45.2461029  27.7309360
  16.0413899  44.3006223  28.4479232  11.5767033  41.9396278  29.0652599
  12.1095369  41.1784566  28.8351907  11.0481114  41.6469929  29.8076754
  17.9212591  39.2631291  21.6938458  17.2636266  39.9530552  21.7818586
  18.7252991  39.6527723  22.0372444  16.7318050  37.6175663  19.7442399
  17.2449932  38.2505655  20.2464109  17.3819274  37.0176859  19.3785759
  13.2098881  35.0925119  21.9900740  12.2921442  35.3140066  21.8322428
  13.6259025  35.1671429  21.1312447  17.4979846  42.5981665  17.8721542
  17.0442173  41.7572575  17.9286733  16.8673813  43.2343063  18.2096322
  15.9412786  44.4358161  18.8071360  16.2335760  44.9963219  18.0883726
  16.4511406  44.7286722  19.5624519  10.9046411  45.2138513  19.8964813
  10.8622590  45.4399359  18.9673345  11.8209110  44.9801887  20.0450615
  14.3512045  35.6822580  26.7945443  14.7061432  35.9094053  27.6539908
  14.9984176  36.0140957  26.1722698  20.0809782  38.8041016  17.4994772
  19.9427680  38.9942612  16.5715961  19.7246000  39.5660399  17.9562823
  20.1079161  40.8717543  22.5106043  20.5415668  40.7792832  23.3589097
  20.8210742  40.8475043  21.8726059  13.8407056  44.4719637  24.0439144
  13.8944078  45.0410573  24.8116860  12.9721837  44.6421522  23.6793181
   6.7205449  34.1737193  25.5263595   7.3928503  33.9654555  24.8776244
   5.8935236  33.9759279  25.0868827  20.9694711  40.9141244  25.0438929
  21.1630601  41.8187054  25.2898203  20.8695329  40.4548663  25.8777514
  12.6231021  30.7999134  27.5429256  11.9758937  31.4989084  27.4493732
  13.3932037  31.2335278  27.9105504  16.0309819  41.0647986  30.6179809
  15.8795326  40.8358538  29.7009893  16.0214499  42.0218588  30.6311154
  12.7995156  38.6379899  25.6026076  13.7287216  38.7891059  25.4295043
  12.3786186  38.7263920  24.7474722  11.5983488  42.6630564  23.3724613
  11.4594573  42.2949348  24.2450551  10.8098084  43.1778203  23.2008571
  12.1931640  47.7639660  14.7150150  12.3683395  47.2927703  15.5295772
  11.5064428  48.3905426  14.9431410  13.1488703  42.0412166  20.7613451
  12.8138535  42.0012936  21.6571101  12.6492648  41.3756882  20.2883861
   7.1232947  37.4479796  26.2866032   6.9852745  36.7160035  26.8877571
   8.0337870  37.3588696  26.0050220   9.7515247  37.1599756  25.7749712
  10.4614866  36.5192948  25.7336330   9.7084556  37.4112650  26.6975893
  17.7402026  44.0967109  28.6956291  17.6814572  43.4126329  28.0286874
  18.1421544  44.8386099  28.2436917   8.4644181  34.1464973  27.5945351
   7.9281538  33.6955712  28.2466948   7.8760890  34.2810882  26.8515816
   6.7592725  50.9129023  21.4890010   6.9989323  51.5447547  22.1669028
   5.9161921  50.5617063  21.7755369  17.7419433  42.0606693  26.9270271
  16.8546212  41.7232615  27.0496670  18.3117984  41.3289724  27.1639036
  11.2720587  46.7208145  23.8931514  11.1990758  47.5263117  24.4050818
  10.8297980  46.9200111  23.0679535  11.0610366  45.9579915  17.4034335
  10.2777888  46.5001595  17.4972560  11.7603112  46.4753895  17.8028577
  22.2236774  37.4714910  21.6886832  22.2126650  38.3539626  21.3180765
  21.3554153  37.1186461  21.4941369  13.7319270  46.6194979  26.0489673
  14.4447242  47.2542444  25.9765574  13.2409299  46.7158845  25.2329674
   8.7831184  44.3689423  26.8695243   9.4840643  45.0025906  27.0224638
   8.3126299  44.7104154  26.1090883  16.5832470  36.9234030  24.6947794
  15.9303920  37.1709938  24.0400246  16.9612850  36.1098168  24.3610271
  13.5439644  46.9593723  18.7975964  13.7262038  46.1415379  19.2603716
  14.3672630  47.1761416  18.3600854  13.8781809  45.8861908  16.0591012
  14.4069576  45.3754363  15.4461175  14.1410029  45.5704439  16.9236546
  12.6320043  37.6653841  31.1813831  11.9560680  37.5647971  31.8516206
  13.4547677  37.5093055  31.6449828   4.3798902  43.9025778  23.8026346
   4.9652339  43.1569466  23.9354250   4.1823740  44.2129734  24.6863010
   7.2337557  46.9377025  18.8188788   6.5647932  47.4223153  18.3352828
   7.0950427  47.1846246  19.7332167  11.3742826  48.9720769  25.4171447
  11.9261134  49.1352390  26.1820532  11.7149019  49.5625207  24.7451472
   5.8259591  33.3919051  29.6666366   6.4531630  33.0096128  30.2803890
   4.9687510  33.1733253  30.0322058  16.2253700  43.7982026  31.2720101
  16.7693604  44.4111984  30.7775056  15.6440545  44.3561605  31.7887114
  14.5111213  46.9202744  22.4035129  14.3862352  46.1192484  21.8946074
  15.1690304  47.4148938  21.9149099  16.5746121  44.7211764  24.0314679
  15.6276457  44.6017115  23.9593006  16.9228894  43.8334262  24.1140940
   8.9345695  30.6105903  27.8552921   9.4580096  30.8568200  28.6179230
   8.7158028  31.4425938  27.4356058  13.5792555  44.5164481  20.2319031
  13.4317517  43.5881188  20.4126601  14.4046048  44.5384571  19.7476106
  17.1826676  45.3393039  21.3183904  18.1073224  45.1335901  21.1808355
  17.0141980  45.0909440  22.2273246  10.1398240  31.5519598  25.5402591
   9.7995060  30.7527411  25.9423271   9.4337246  31.8521309  24.9679425
  12.0275804  32.7527920  23.8955910  11.7693582  33.6744990  23.8940241
  11.4960844  32.3558354  24.5856374  16.9721993  45.8578707  16.6745995
  17.1458870  45.2925129  15.9219848  17.4650884  46.6579602  16.4925485
   2.7898952  37.8693376  24.7409554   2.2452421  38.6453184  24.8729829
   3.6678302  38.2164180  24.5828676  22.8261384  38.6215130  18.2936295
  23.2692530  37.8722455  17.8955418  21.9487894  38.6125266  17.9110027
  17.9597165  45.1745471  13.7742894  18.6548070  45.7952164  13.9930208
  18.3020315  44.3240822  14.0495272   3.5764974  36.9963272  27.6339711
   2.8346710  37.1445907  28.2204342   3.2557719  37.2571538  26.7706461
  19.8588588  42.6245177  15.3030225  20.3839912  42.9632449  14.5779545
  19.7710941  41.6892192  15.1193359  11.5208637  46.5379250  27.4320101
  11.8295763  46.2928397  28.3042801  12.3184119  46.7425889  26.9438971
  11.5429249  48.6917160  19.6625478  11.1034239  48.1993539  20.3558334
  12.2937366  48.1490128  19.4217553   4.0221588  44.8828701  19.6650106
   4.8479608  44.5832473  19.2848749   3.6715640  44.1136323  20.1139894
   8.9903121  44.2355169  21.7347779   8.3683130  43.5725874  21.4350007
   9.6607988  44.2616301  21.0521427   9.0627649  32.7136957  31.3280285
   9.1115804  33.5899080  30.9458055   9.6050163  32.1714350  30.7551929
  19.5482494  43.2578080  30.6081422  18.7578038  43.2402219  30.0685922
  19.3115849  43.7966374  31.3630459  19.6680369  40.1070547  27.9214151
  19.7178374  39.9420554  28.8629674  19.5594293  39.2397806  27.5312032
  16.9584132  36.0901475  29.2373458  17.8593995  35.9507940  28.9457456
  17.0332106  36.2555930  30.1771635  11.2926937  33.4668329  28.0826644
  10.4230246  33.7601895  27.8109233  11.5286417  34.0508774  28.8033908
  21.1698566  42.5267488  28.1656173  20.8783375  42.8897469  29.0019634
  20.5570697  41.8134496  27.9869505  22.3694249  40.0920368  20.6858743
  23.2041140  40.5310172  20.8496303  22.5053377  39.6159021  19.8666989
  19.4185754  37.6500103  26.6336231  19.8939876  37.8427749  25.8255082
  18.4951320  37.7059289  26.3879614  13.9965971  29.6847946  25.5992064
  14.5147915  30.4208973  25.2738553  13.6421104  29.9911940  26.4338824
  18.1187423  34.5265863  24.8664536  19.0704846  34.6263961  24.8876760
  17.9490874  33.7344131  25.3762621  16.1401803  31.6121446  25.0523937
  15.5451735  31.8926459  24.3570426  15.8551500  32.1015347  25.8240678
  20.5975501  37.7471983  23.9806836  20.5651821  36.8087983  24.1666520
  21.2076125  37.8256019  23.2472661  20.7469990  34.5383026  24.0265119
  20.2309038  33.7541483  23.8395048  21.6309938  34.2101743  24.1911638
  26.4152051  38.8087989  23.1212873  27.1455440  38.5473278  23.6820576
  25.8058997  38.0716711  23.1614941  24.4967348  36.9495852  23.7187324
  23.7700512  36.8151817  23.1103815  24.0814635  37.2572681  24.5244042
  12.3197525  40.6685782  31.4834697  13.2400534  40.8464381  31.6774743
  12.2847108  39.7241827  31.3314396   5.3159597  38.5786816  24.1257478
   5.5345607  39.5103924  24.1445512   5.7285371  38.2194791  24.9112282
  10.1887462  34.1520022  33.5160227  10.0884189  35.1014379  33.4472318
   9.9709005  33.8238261  32.6436297  10.0518733  37.5817161  32.3325289
   9.5685814  38.3817521  32.5389178  10.1379672  37.5925106  31.3792733
   5.9792070  41.4721696  24.3693722   6.9335324  41.4405638  24.3023654
   5.7804594  41.0112319  25.1843948   6.5691452  40.0422812  26.9364520
   7.3884341  40.5366890  26.9599357   6.8428260  39.1254780  26.9082088
  22.1145143  33.1707704  21.0720755  22.7089634  32.9303440  20.3614064
  22.1871727  32.4514835  21.6994292   4.3342299  47.0141315  21.3863920
   4.1996767  46.2541716  20.8201918   3.9174361  47.7382215  20.9192709
  24.4216216  36.4773905  19.8464177  23.8615774  36.5467094  20.6195739
  23.8159719  36.3014890  19.1263673   7.4911425  47.9110632  21.5982363
   7.3743809  48.8556065  21.4961053   6.6703871  47.6084194  21.9868162
   1.8226366  34.3760946  27.6356717   2.4685230  33.8659900  28.1243942
   1.6143518  35.1129627  28.2100142  14.3479759  41.4441793  33.1348858
  15.2170918  41.6182445  32.7735493  13.8686510  42.2636210  33.0124587
   8.5165939  48.5638894  24.8138291   9.4193186  48.5962504  25.1304786
   8.2903309  47.6339345  24.8284627  10.2719541  47.3169881  21.4748370
   9.3215172  47.3171742  21.3612742  10.5752027  46.5702615  20.9584405
   6.1623857  31.5228563  31.7331731   7.0255319  31.1665367  31.9435056
   5.5889268  31.1842457  32.4207136  26.0072234  53.1530419  22.5394132
  26.6450644  53.0337166  21.8357472  25.8893077  54.1011263  22.5982084
  22.8161941  53.1057847  22.4755657  22.4780452  52.9898912  21.5876192
  23.6851709  52.7049012  22.4556663  18.6748756  54.9593323  18.4652548
  18.1113621  54.8683260  17.6968836  18.5601151  54.1393228  18.9455040
  23.2981724  54.2592699  28.4341863  23.2870364  53.8645497  27.5622366
  23.4602363  53.5258771  29.0275634  16.2213188  56.4544515  21.3036768
  17.0134480  56.1135340  20.8883068  16.4609838  56.5639490  22.2238922
  24.2548315  58.6264291  13.7767013  23.6036295  59.2118372  13.3901027
  25.0492678  59.1570486  13.8362050  18.1803942  55.7153428  14.1754147
  18.9534818  55.1682415  14.0367023  18.5329341  56.5797678  14.3868609
  20.0188985  57.0429811  27.3821046  19.7278851  57.9475441  27.2667713
  20.6545969  57.0846338  28.0965116  20.9445192  54.4206659  23.9722406
  21.5408764  54.1962682  23.2579369  21.0020163  53.6791405  24.5747854
  20.5170220  51.8746094  11.8072597  20.7695741  51.3527616  11.0456060
  19.5794779  51.7112240  11.9099281  25.5613503  50.8781873  19.6147340
  26.3476592  50.4601296  19.2637757  25.8252207  51.7827965  19.7828989
  25.7323580  56.3154723  14.3135997  25.0969413  56.3889350  15.0256902
  25.4020987  56.9048322  13.6355076  30.9621930  50.8157106  20.5180319
  31.6947102  50.2456323  20.7518148  30.2061286  50.4278706  20.9586824
  20.2366509  53.7774200  14.0096972  20.1202767  53.1019104  14.6778056
  20.3468769  53.2906574  13.1929125  22.5798050  53.2384348  17.7143661
  22.2156257  52.7114968  18.4256583  23.4365166  52.8482817  17.5410147
  28.4847350  44.5278680  24.9774927  28.1530675  45.3974091  24.7536142
  27.8892964  44.2114964  25.6568958  22.2203537  48.2674247  12.7105010
  22.3877939  49.1354484  13.0775481  22.0300706  48.4301529  11.7866299
  24.9778870  56.7291226  24.3770840  24.6779593  57.6316265  24.2686647
  24.6329929  56.4623409  25.2291993  18.4291351  53.1805023  20.4107545
  17.5041848  53.0481237  20.6185236  18.6775765  53.9599242  20.9077487
  28.3776014  49.2473766  22.0568278  27.4692891  49.1789175  21.7627038
  28.3263609  49.7245711  22.8850103  22.1992758  50.7231905  13.6951677
  22.0792383  51.1688955  14.5337157  21.5045346  51.0717222  13.1365215
  15.7900162  52.8238297  21.2451334  15.9192544  53.0772775  22.1590745
  15.1097614  53.4166005  20.9255989  19.9599650  63.4935546  17.3441808
  19.8823679  64.4443372  17.4230288  19.3561293  63.1481419  18.0016734
  22.4516879  50.6663412  30.0003175  21.6750213  51.2257332  29.9906039
  23.0907442  51.1520195  30.5218045  30.2437660  47.4490205  23.8346151
  29.6012040  47.7422738  23.1885946  29.7392589  47.3343125  24.6399348
  27.8977824  51.1953378  14.5232011  28.8095680  51.4280765  14.3479708
  27.3887471  51.7790422  13.9607089  20.7063252  53.4748865  29.5621142
  21.4477936  54.0133909  29.2855965  20.0000237  54.1015154  29.7192694
  26.1818591  55.6178006  28.1593303  26.5901947  55.1760416  27.4147936
  25.4595853  55.0430633  28.4127496  22.5349661  50.5550612  25.5326860
  23.3810857  50.9790026  25.6761509  22.4748299  49.8984237  26.2265423
  26.5047406  56.1779196  21.9145592  25.8756268  56.3424910  21.2121660
  26.1173068  56.5920806  22.6856556  30.3836638  57.1133634  19.2689956
  29.6987676  57.4932536  18.7186989  30.4680487  57.7228961  20.0021904
  25.6849107  48.2154981  27.1908034  25.4410039  48.9697041  26.6542310
  25.9609037  48.5940328  28.0255281  27.6387569  54.7593593  25.8685299
  27.8504465  55.4025353  25.1919681  27.5917318  53.9255910  25.4007230
  25.2413798  47.3711414  22.7721872  24.3798277  47.6692667  23.0638609
  25.2676233  47.5881813  21.8402904  22.0575368  55.9153604  19.1795677
  22.5213713  56.1941307  18.3900300  21.7932166  55.0137049  18.9968768
  18.9499449  55.4625086  22.1175440  19.5200806  55.8912354  21.4792925
  19.5407561  55.1807671  22.8159626  20.9944254  52.0376757  15.9885242
  21.6968297  52.4897800  16.4559169  20.6624882  51.3960576  16.6165136
  19.4424615  50.6288513  30.3636452  18.8123276  51.3104794  30.5971849
  19.3360703  50.5171595  29.4189590  14.7369588  50.2960309  21.2902376
  13.9468642  50.5517838  20.8142487  15.2280835  51.1108647  21.3954416
  28.7533397  57.6365549  24.0407657  29.5750841  57.2345736  23.7590338
  28.7495800  57.5333783  24.9923773  16.6884333  50.6604889  18.2485853
  15.8915497  50.7723583  18.7669348  16.4609925  50.9991541  17.3826743
  22.5190001  57.1849592  26.1968367  22.5834433  57.6469999  27.0326539
  21.8100925  56.5546957  26.3250677  13.0207291  50.5490800  23.7217367
  13.2715329  51.4337810  23.9874943  13.5566839  50.3695401  22.9492459
  36.8439390  53.9804297  20.3892628  36.0903099  53.4111695  20.2336633
  36.9786932  53.9466962  21.3363263  22.2338019  58.8517699  16.0647348
  22.0983693  59.6969235  16.4932195  22.7747831  59.0536977  15.3013281
  18.7205358  44.9309279  32.7261703  18.3272304  44.3775478  33.4009347
  19.5371498  45.2419858  33.1168220  15.6867416  56.3693137  16.6375273
  16.1991936  57.1636388  16.7880837  16.3390129  55.6719428  16.5708874
  17.4962301  59.4858894  18.7198026  17.6728929  60.4076858  18.5319010
  18.2919134  59.1717313  19.1492406  21.6373319  46.3467158  30.3181959
  22.3783033  46.9474312  30.2386422  21.8691242  45.6044796  29.7600002
  16.7814657  51.5323526  28.5960189  16.6668172  50.6308783  28.8967288
  15.9259175  51.7787222  28.2445006  23.8606495  59.4741266  30.1947690
  23.4170349  58.6877644  29.8768594  24.5223708  59.6620416  29.5291580
  18.6193616  61.0037068  24.7208368  19.1701041  60.8754131  23.9485362
  17.7805092  61.3031957  24.3703261  25.9587733  59.7544066  28.2229091
  25.9406208  60.5752947  27.7309360  26.8807653  59.6298141  28.4479232
  22.4160787  57.2688195  29.0652599  22.9489124  56.5076484  28.8351907
  21.8874868  56.9761847  29.8076754  25.5830482  42.3748261  24.5946241
  25.2394751  43.2649903  24.5185352  25.9509445  42.1849919  23.7315826
  13.6516333  54.6981792  17.4134843  14.4891555  55.1078800  17.1968551
  13.8294600  53.7581234  17.3835037  25.5480765  52.3656872  13.1018676
  25.0327388  53.1361477  13.3407064  25.2758073  51.6922009  13.7251738
  23.1327876  47.2106573  18.1603915  22.2769472  46.8213424  17.9809553
  23.5454828  47.2898534  17.3003700  24.6627022  44.7452916  22.5595474
  24.1591818  44.7083052  21.7463280  24.9557629  45.6545659  22.6192131
  20.9069908  44.8291646  21.5661656  21.7722905  44.6334455  21.2067546
  20.9747417  44.6001998  22.4931013  30.5215039  55.1189227  15.0371850
  29.7444482  54.7800387  14.5927012  31.2006520  55.1241850  14.3626815
  25.3367068  50.2383965  14.9278457  25.0317204  50.5530114  15.7788601
  26.2897510  50.3165384  14.9705790  23.7813500  56.3974188  16.5771411
  23.2534861  55.6626947  16.2644649  23.2801003  57.1748864  16.3311380
  28.7606346  54.5923208  21.6938458  28.1030020  55.2822470  21.7818586
  29.5646745  54.9819640  22.0372444  18.5132227  47.0593854  18.9378023
  19.0875979  46.8369036  18.2051216  19.1003210  47.1282549  19.6906624
  27.5711805  52.9467581  19.7442399  28.0843686  53.5797573  20.2464109
  28.2213029  52.3468777  19.3785759  18.8401815  49.0898315  12.9573908
  18.0039127  49.4273002  13.2783183  18.7006584  48.9547295  12.0201045
  20.8154895  43.9335103  17.6653092  20.1619308  43.6184120  17.0409707
  20.7735369  43.3110843  18.3912915  21.9266100  54.2154398   9.5806384
  21.0193162  53.9843652   9.7797533  22.4237132  53.4192017   9.7680366
  24.8334179  62.9251905  12.5003071  24.1595878  63.2283602  13.1088028
  25.2200001  63.7280986  12.1508528  24.0492636  50.4217037  21.9900740
  23.1315197  50.6431984  21.8322428  24.4652779  50.4963347  21.1312447
  24.8327683  51.8208452  17.1203420  25.5799502  52.3329849  16.8110542
  25.1019273  51.4992505  17.9807814  23.1054333  54.3166993  14.1030374
  22.1965553  54.0326026  14.2002844  23.1349417  54.7366072  13.2433681
  28.3373601  57.9273582  17.8721542  27.8835928  57.0864492  17.9286733
  27.7067568  58.5634981  18.2096322  27.2806520  48.8565568  19.1022209
  26.5429277  48.3442955  19.4332452  27.5333294  48.4165950  18.2905486
  26.7806540  59.7650079  18.8071360  27.0729514  60.3255136  18.0883726
  27.2905161  60.0578640  19.5624519  27.3818148  41.6341820  19.6963979
  27.6877025  40.7739184  19.4089894  28.1070753  42.2259441  19.4962973
  13.6742504  52.0372507  18.0845577  13.4766904  51.4441868  17.3596643
  13.1189168  51.7324717  18.8021515  21.6539228  51.9295614  20.2040170
  21.7087837  50.9769450  20.1282646  20.8430430  52.0855053  20.6881468
  22.8030421  55.8575737  11.4418453  22.3649851  55.1411596  10.9824090
  23.5440862  56.0851851  10.8803544  19.5931587  50.5472673  17.9630549
  18.7799453  50.8466844  18.3695741  20.0890582  50.1528362  18.6805031
  21.7440165  60.5430430  19.8964813  21.7016344  60.7691277  18.9673345
  22.6602864  60.3093805  20.0450615  25.1905799  51.0114498  26.7945443
  25.5455187  51.2385971  27.6539908  25.8377930  51.3432875  26.1722698
  30.9203536  54.1332934  17.4994772  30.7821435  54.3234530  16.5715961
  30.5639755  54.8952316  17.9562823  19.0845662  48.1191029  23.5791784
  19.7245042  47.9779788  22.8814747  18.2523193  47.8325542  23.2030386
  30.9472916  56.2009461  22.5106043  31.3809422  56.1084750  23.3589097
  31.6604496  56.1766961  21.8726059  19.8605966  57.4193459  19.6926776
  20.6546565  56.9243779  19.4909351  19.1497658  56.8911322  19.3294482
  24.6800811  59.8011555  24.0439144  24.7337833  60.3702491  24.8116860
  23.8115592  59.9713440  23.6793181  16.1688730  51.5636541  15.7686529
  15.2386318  51.5020996  15.9856491  16.2646202  51.0412494  14.9723170
  16.0874279  48.0891354  18.3564770  16.3481096  49.0036687  18.2473931
  16.9091451  47.6215796  18.5061383  17.5599204  49.5029111  25.5263595
  18.2322257  49.2946473  24.8776244  16.7328990  49.3051197  25.0868827
  31.8088465  56.2433161  25.0438929  32.0024355  57.1478972  25.2898203
  31.7089083  55.7840580  25.8777514  23.4624776  46.1291052  27.5429256
  22.8152691  46.8281002  27.4493732  24.2325791  46.5627196  27.9105504
  26.8703574  56.3939904  30.6179809  26.7189080  56.1650456  29.7009893
  26.8608253  57.3510505  30.6311154  23.6388910  53.9671817  25.6026076
  24.5680970  54.1182976  25.4295043  23.2179940  54.0555838  24.7474722
  22.4377242  57.9922481  23.3724613  22.2988328  57.6241266  24.2450551
  21.6491838  58.5070121  23.2008571  23.0325394  63.0931578  14.7150150
  23.2077150  62.6219621  15.5295772  22.3458182  63.7197344  14.9431410
  23.9882457  57.3704084  20.7613451  23.6532290  57.3304854  21.6571101
  23.4886403  56.7048800  20.2883861  17.9626701  52.7771714  26.2866032
  17.8246499  52.0451953  26.8877571  18.8731625  52.6880614  26.0050220
  26.9241649  54.7160118  11.0350511  26.3070820  53.9906946  10.9383563
  26.4558137  55.4769479  10.6917585  20.5909002  52.4891673  25.7749712
  21.3008620  51.8484865  25.7336330  20.5478310  52.7404568  26.6975893
  28.5795781  59.4259027  28.6956291  28.5208327  58.7418247  28.0286874
  28.9815299  60.1678017  28.2436917  19.3037936  49.4756891  27.5945351
  18.7675293  49.0247630  28.2466948  18.7154644  49.6102800  26.8515816
  17.5986479  66.2420940  21.4890010  17.8383078  66.8739465  22.1669028
  16.7555676  65.8908980  21.7755369  28.5813188  57.3898611  26.9270271
  27.6939967  57.0524532  27.0496670  29.1511739  56.6581642  27.1639036
  10.2342335  53.7222702  20.2513322  10.9213375  53.4084432  19.6634337
  10.0790464  54.6264067  19.9780573  15.0377057  48.6112899  24.6798346
  14.9535246  48.0038568  23.9448756  14.2159763  49.1021917  24.6807842
  22.1114341  62.0500063  23.8931514  22.0384513  62.8555034  24.4050818
  21.6691734  62.2492029  23.0679535  21.9004121  61.2871833  17.4034335
  21.1171643  61.8293513  17.4972560  22.5996866  61.8045813  17.8028577
  25.2100771  47.0966462  20.0468541  25.7069470  46.3436425  19.7269611
  24.4387752  47.1330779  19.4811750  33.0630528  52.8006828  21.6886832
  33.0520405  53.6831543  21.3180765  32.1947908  52.4478379  21.4941369
  24.5713025  61.9486897  26.0489673  25.2840997  62.5834362  25.9765574
  24.0803053  62.0450763  25.2329674  26.2930552  55.8538150  17.6206964
  25.3586830  55.9739612  17.4511669  26.4707220  54.9510616  17.3566974
  21.7935740  49.2383845  19.7740225  21.4233527  48.6854886  20.4621131
  22.2894832  48.6341979  19.2215225  29.6803103  51.6955469  18.1556998
  30.1463555  52.5283460  18.0817301  30.1310603  51.2300450  18.8602257
  19.6224938  59.6981340  26.8695243  20.3234398  60.3317823  27.0224638
  19.1520053  60.0396072  26.1090883  27.7479334  58.0399290  15.1543150
  28.0239178  57.9255885  16.0637024  26.8783833  57.6416775  15.1155323
  27.6519766  44.0636056  22.1947900  26.7382846  44.2940283  22.3630107
  28.0812867  44.1474500  23.0461932  27.4226224  52.2525948  24.6947794
  26.7697674  52.5001855  24.0400246  27.8006604  51.4390086  24.3610271
  24.3833398  62.2885641  18.7975964  24.5655793  61.4707297  19.2603716
  25.2066384  62.5053333  18.3600854  24.7175564  61.2153826  16.0591012
  25.2463330  60.7046281  15.4461175  24.9803783  60.8996356  16.9236546
  23.4713797  52.9945759  31.1813831  22.7954434  52.8939888  31.8516206
  24.2941431  52.8384973  31.6449828  15.2192656  59.2317695  23.8026346
  15.8046093  58.4861383  23.9354250  15.0217495  59.5421652  24.6863010
  18.0731312  62.2668943  18.8188788  17.4041687  62.7515070  18.3352828
  17.9344181  62.5138163  19.7332167   9.8110311  51.8023296  22.5230789
   9.8494411  51.2686886  23.3167907   9.3050604  51.2758501  21.9041766
  22.2136580  64.3012686  25.4171447  22.7654888  64.4644308  26.1820532
  22.5542774  64.8917124  24.7451472  17.1901073  46.6487836  26.0193331
  17.2542400  47.5102667  25.6070729  17.1268194  46.0361838  25.2865690
  16.6653346  48.7210969  29.6666366  17.2925385  48.3388046  30.2803890
  15.8081265  48.5025171  30.0322058  27.0647454  59.1273944  31.2720101
  27.6087358  59.7403902  30.7775056  26.4834299  59.6853522  31.7887114
  13.4418889  50.5287398  15.5984721  13.7372330  49.6198076  15.5451774
  12.5406924  50.5075137  15.2765723  25.3504967  62.2494662  22.4035129
  25.2256107  61.4484402  21.8946074  26.0084059  62.7440855  21.9149099
  16.9713136  48.6043394  21.5812269  16.2499721  49.2179362  21.4419742
  17.7606391  49.1401159  21.5028915  27.4139876  60.0503682  24.0314679
  26.4670211  59.9309033  23.9593006  27.7622649  59.1626180  24.1140940
  19.7739449  45.9397821  27.8552921  20.2973851  46.1860117  28.6179230
  19.5551782  46.7717856  27.4356058  15.1706730  48.2101495  15.7224046
  14.8419436  47.3298874  15.5399152  15.5246101  48.1549164  16.6100435
  24.4186309  59.8456398  20.2319031  24.2711272  58.9173106  20.4126601
  25.2439803  59.8676489  19.7476106  18.2848553  48.4974465  16.0899523
  18.6244626  49.0260387  15.3678132  18.7320674  48.8354871  16.8658090
  28.0220431  60.6684957  21.3183904  28.9466978  60.4627818  21.1808355
  27.8535734  60.4201358  22.2273246  20.9791994  46.8811516  25.5402591
  20.6388815  46.0819329  25.9423271  20.2731000  47.1813227  24.9679425
  21.6308466  43.9660828  23.9929914  22.4534535  43.4921307  23.8708805
  21.8746530  44.7451312  24.4928601  20.2716701  46.9949087  14.2892816
  20.9925063  47.3730340  13.7856533  19.6482005  47.7137964  14.3927794
  24.4147823  47.6994236  15.2251148  24.6311438  48.5818874  14.9239977
  23.9341891  47.3080449  14.4956790  19.1547045  50.6579949  21.8021893
  19.0091626  50.9720252  22.6946175  18.6772248  51.2764849  21.2492792
  21.0143428  47.6482497  21.8502783  21.0004996  46.7523590  21.5135081
  21.7315856  47.6553161  22.4841069  22.8669558  48.0819837  23.8955910
  22.6087336  49.0036908  23.8940241  22.3354599  47.6850272  24.5856374
  27.8115747  61.1870624  16.6745995  27.9852625  60.6217047  15.9219848
  28.3044638  61.9871519  16.4925485  13.6292707  53.1985293  24.7409554
  13.0846175  53.9745101  24.8729829  14.5072057  53.5456098  24.5828676
  20.4180324  46.5296877  17.1190353  20.5396235  45.6013524  17.3181240
  20.1282366  46.5435563  16.2068668  23.2871514  44.2151788  20.2557073
  23.3093211  44.2791121  19.3009052  23.7039573  43.3756296  20.4497579
  33.6655138  53.9507047  18.2936295  34.1086284  53.2014373  17.8955418
  32.7881649  53.9417184  17.9110027  28.7990920  60.5037389  13.7742894
  29.4941824  61.1244081  13.9930208  29.1414070  59.6532740  14.0495272
  14.4158729  52.3255190  27.6339711  13.6740465  52.4737825  28.2204342
  14.0951473  52.5863455  26.7706461  30.6982343  57.9537094  15.3030225
  31.2233667  58.2924367  14.5779545  30.6104695  57.0184110  15.1193359
  22.3602391  61.8671168  27.4320101  22.6689518  61.6220315  28.3042801
  23.1577873  62.0717806  26.9438971  22.3823003  64.0209078  19.6625478
  21.9427994  63.5285456  20.3558334  23.1331120  63.4782045  19.4217553
  14.8615342  60.2120618  19.6650106  15.6873362  59.9124390  19.2848749
  14.5109394  59.4428241  20.1139894  19.8296876  59.5647087  21.7347779
  19.2076885  58.9017792  21.4350007  20.5001743  59.5908219  21.0521427
  13.0623948  58.1306945  20.6239039  12.2255856  57.7029119  20.4423041
  13.0347593  58.3239388  21.5609831  19.9021403  48.0428875  31.3280285
  19.9509559  48.9190998  30.9458055  20.4443917  47.5006268  30.7551929
  30.3876249  58.5869998  30.6081422  29.5971793  58.5694137  30.0685922
  30.1509603  59.1258292  31.3630459  30.5074124  55.4362464  27.9214151
  30.5572129  55.2712472  28.8629674  30.3988047  54.5689723  27.5312032
  19.3910383  58.1151010  15.2106240  19.5398503  58.7986474  14.5572913
  20.1976826  58.0956100  15.7255696  27.7977886  51.4193392  29.2373458
  28.6987749  51.2799857  28.9457456  27.8725861  51.5847847  30.1771635
  22.1320692  48.7960247  28.0826644  21.2624001  49.0893813  27.8109233
  22.3680172  49.3800692  28.8033908  32.0092321  57.8559406  28.1656173
  31.7177129  58.2189386  29.0019634  31.3964452  57.1426414  27.9869505
  33.2088003  55.4212286  20.6858743  34.0434894  55.8602090  20.8496303
  33.3447132  54.9450939  19.8666989  30.2579509  52.9792020  26.6336231
  30.7333631  53.1719667  25.8255082  29.3345074  53.0351206  26.3879614
  17.1463016  54.1416188  16.2167309  16.9009057  53.2378518  16.4147519
  17.3158930  54.1433338  15.2746787  24.8359725  45.0139864  25.5992064
  25.3541669  45.7500891  25.2738553  24.4814858  45.3203857  26.4338824
  16.4158663  49.8744545  13.7153470  15.7227908  49.9488900  13.0593506
  16.1710415  49.1104889  14.2374987  25.0872320  41.4340147  21.1192961
  25.3674073  40.7663336  21.7453388  25.8722927  41.6269242  20.6067625
  22.8905788  60.6099140  12.6817987  22.3179755  61.2289328  12.2288459
  23.4638582  61.1598502  13.2157909  28.9581178  49.8557781  24.8664536
  29.9098601  49.9555878  24.8876760  28.7884628  49.0636049  25.3762621
  26.9795557  46.9413364  25.0523937  26.3845490  47.2218376  24.3570426
  26.6945254  47.4307265  25.8240678  26.1103048  60.8936291  13.8126570
  27.0433721  60.8281852  14.0159445  26.0226261  61.7292557  13.3541102
  28.7391065  60.2102161  10.7730517  28.6604696  59.8762025  11.6666275
  29.5600731  60.7023929  10.7721990  31.4369256  53.0763900  23.9806836
  31.4045576  52.1379901  24.1666520  32.0469879  53.1547937  23.2472661
  23.2752587  51.9459953  10.0234040  24.2211691  51.8166161  10.0922458
  22.8966832  51.2074615  10.5003468  31.5863744  49.8674944  24.0265119
  31.0702793  49.0833400  23.8395048  32.4703693  49.5393660  24.1911638
  29.2474471  43.6115959  19.9860932  29.0499292  43.3031047  20.8704264
  29.8574177  44.3377598  20.1158862  37.2545806  54.1379907  23.1212873
  37.9849194  53.8765195  23.6820576  36.6452751  53.4008629  23.1614941
  35.3361103  52.2787770  23.7187324  34.6094266  52.1443735  23.1103815
  34.9208390  52.5864598  24.5244042  23.1591279  55.9977699  31.4834697
  24.0794289  56.1756298  31.6774743  23.1240862  55.0533745  31.3314396
  12.3773444  51.1916293  20.4087971  12.0576228  50.3381601  20.1162345
  11.8306872  51.4064871  21.1645939  16.1553352  53.9078734  24.1257478
  16.3739361  54.8395842  24.1445512  16.5679125  53.5486708  24.9112282
  23.0757569  44.4146819  16.1133166  22.2658298  44.0693904  16.4888412
  23.7641986  44.1054363  16.7020778  25.0048118  43.4924866  17.7357463
  25.5579156  43.9120320  18.3947486  25.2418204  42.5660614  17.7780419
  21.0281217  49.4811940  33.5160227  20.9277944  50.4306297  33.4472318
  20.8102759  49.1530179  32.6436297  12.2461704  54.8119204  22.3781093
  11.5525176  54.3973157  21.8651047  12.9934695  54.8539741  21.7814512
  28.3826925  45.6025391  17.2436127  27.8025594  46.2610195  16.8614180
  28.1162858  44.7802736  16.8323545  26.8330491  45.0030449  19.4457448
  27.3330270  45.1146984  18.6371766  27.4766099  44.6991502  20.0858256
  20.8912487  52.9109079  32.3325289  20.4079569  53.7109439  32.5389178
  20.9773426  52.9217023  31.3792733  14.1598447  54.7437458  20.2547108
  14.1369135  54.8425146  19.3028991  14.4699083  55.5902609  20.5764274
  16.8185825  56.8013613  24.3693722  17.7729078  56.7697556  24.3023654
  16.6198348  56.3404237  25.1843948  17.4085207  55.3714729  26.9364520
  18.2278096  55.8658808  26.9599357  17.6822014  54.4546697  26.9082088
  27.1651803  47.7625482  16.2992476  26.2777658  48.0475132  16.0812670
  27.5805792  47.6019245  15.4519752  30.5166339  47.7872003  20.0146815
  31.2926729  48.2768455  20.2871432  29.7914473  48.2130057  20.4718684
  32.9538898  48.4999622  21.0720755  33.5483388  48.2595358  20.3614064
  33.0265481  47.7806752  21.6994292  15.1736053  62.3433233  21.3863920
  15.0390521  61.5833634  20.8201918  14.7568116  63.0674133  20.9192709
  26.3095016  57.5270156  10.3940495  27.0130866  57.7320159  11.0098151
  25.5857665  58.0946918  10.6589579  27.1392827  53.2780018  16.5142766
  27.0828028  53.7348569  15.6750398  27.6921169  52.5170702  16.3365608
  30.9497633  49.0669749  17.3392885  30.6934567  48.6666385  18.1701093
  30.3250501  49.7813543  17.2143024  35.2609970  51.8065823  19.8464177
  34.7009528  51.8759012  20.6195739  34.6553474  51.6306807  19.1263673
  18.3305179  63.2402550  21.5982363  18.2137563  64.1847982  21.4961053
  17.5097625  62.9376111  21.9868162  28.2181714  57.9652686  12.4438956
  29.0527318  57.5333884  12.2616430  28.0566057  57.7934699  13.3715850
  27.8727606  54.4684799  13.8095295  27.8176410  54.3029070  12.8683739
  27.2473661  55.1760832  13.9657485  12.6620121  49.7052863  27.6356717
  13.3078984  49.1951817  28.1243942  12.4537272  50.4421545  28.2100142
  25.1873513  56.7733711  33.1348858  26.0564673  56.9474363  32.7735493
  24.7080265  57.5928128  33.0124587  21.1823731  43.9692908  13.3880613
  21.1702401  44.9134748  13.5448884  22.0747153  43.7863053  13.0940074
  19.3559693  63.8930812  24.8138291  20.2586940  63.9254422  25.1304786
  19.1297063  62.9631263  24.8284627  21.1113295  62.6461798  21.4748370
  20.1608926  62.6463660  21.3612742  21.4145781  61.8994533  20.9584405
  24.9975851  40.5635684  17.6426550  24.2308247  40.0094171  17.7883232
  25.4086556  40.6357553  18.5040702  17.0017612  46.8520480  31.7331731
  17.8649073  46.4957285  31.9435056  16.4283023  46.5134375  32.4207136
  36.8465989  68.4822337  22.5394132  37.4844399  68.3629084  21.8357472
  36.7286832  69.4303181  22.5982084  33.6555695  68.4349765  22.4755657
  33.3174207  68.3190829  21.5876192  34.5245463  68.0340930  22.4556663
  29.5142511  70.2885241  18.4652548  28.9507376  70.1975178  17.6968836
  29.3994906  69.4685146  18.9455040  34.1375478  69.5884616  28.4341863
  34.1264119  69.1937415  27.5622366  34.2996118  68.8550689  29.0275634
  27.0606943  71.7836433  21.3036768  27.8528235  71.4427257  20.8883068
  27.3003593  71.8931408  22.2238922  35.0942070  73.9556209  13.7767013
  34.4430049  74.5410289  13.3901027  35.8886432  74.4862404  13.8362050
  29.0197697  71.0445346  14.1754147  29.7928573  70.4974333  14.0367023
  29.3723096  71.9089595  14.3868609  30.8582739  72.3721728  27.3821046
  30.5672605  73.2767359  27.2667713  31.4939724  72.4138256  28.0965116
  31.7838946  69.7498577  23.9722406  32.3802518  69.5254599  23.2579369
  31.8413918  69.0083322  24.5747854  31.3563974  67.2038012  11.8072597
  31.6089495  66.6819533  11.0456060  30.4188534  67.0404158  11.9099281
  36.4007257  66.2073790  19.6147340  37.1870347  65.7893214  19.2637757
  36.6645962  67.1119883  19.7828989  36.5717335  71.6446641  14.3135997
  35.9363168  71.7181267  15.0256902  36.2414741  72.2340240  13.6355076
  41.8015684  66.1449024  20.5180319  42.5340856  65.5748241  20.7518148
  41.0455040  65.7570624  20.9586824  31.0760263  69.1066118  14.0096972
  30.9596521  68.4311021  14.6778056  31.1862523  68.6198492  13.1929125
  33.4191804  68.5676265  17.7143661  33.0550011  68.0406886  18.4256583
  34.2758920  68.1774734  17.5410147  39.3241105  59.8570598  24.9774927
  38.9924430  60.7266009  24.7536142  38.7286718  59.5406882  25.6568958
  33.0597291  63.5966165  12.7105010  33.2271693  64.4646401  13.0775481
  32.8694460  63.7593447  11.7866299  35.8172624  72.0583144  24.3770840
  35.5173347  72.9608183  24.2686647  35.4723684  71.7915327  25.2291993
  29.2685106  68.5096941  20.4107545  28.3435602  68.3773155  20.6185236
  29.5169519  69.2891160  20.9077487  39.2169768  64.5765684  22.0568278
  38.3086645  64.5081092  21.7627038  39.1657364  65.0537629  22.8850103
  33.0386512  66.0523822  13.6951677  32.9186137  66.4980873  14.5337157
  32.3439100  66.4009140  13.1365215  26.6293917  68.1530214  21.2451334
  26.7586298  68.4064693  22.1590745  25.9491368  68.7457922  20.9255989
  30.7993404  78.8227464  17.3441808  30.7217434  79.7735289  17.4230288
  30.1955048  78.4773337  18.0016734  33.2910634  65.9955330  30.0003175
  32.5143968  66.5549250  29.9906039  33.9301197  66.4812113  30.5218045
  41.0831415  62.7782122  23.8346151  40.4405795  63.0714656  23.1885946
  40.5786343  62.6635043  24.6399348  38.7371578  66.5245296  14.5232011
  39.6489434  66.7572682  14.3479708  38.2281225  67.1082340  13.9607089
  31.5457006  68.8040783  29.5621142  32.2871691  69.3425827  29.2855965
  30.8393992  69.4307072  29.7192694  37.0212346  70.9469923  28.1593303
  37.4295702  70.5052334  27.4147936  36.2989607  70.3722551  28.4127496
  33.3743416  65.8842530  25.5326860  34.2204611  66.3081944  25.6761509
  33.3142054  65.2276154  26.2265423  37.3441160  71.5071114  21.9145592
  36.7150023  71.6716828  21.2121660  36.9566823  71.9212724  22.6856556
  41.2230392  72.4425552  19.2689956  40.5381431  72.8224453  18.7186989
  41.3074242  73.0520879  20.0021904  36.5242861  63.5446899  27.1908034
  36.2803793  64.2988959  26.6542310  36.8002792  63.9232246  28.0255281
  38.4781324  70.0885511  25.8685299  38.6898219  70.7317271  25.1919681
  38.4311072  69.2547827  25.4007230  36.0807553  62.7003332  22.7721872
  35.2192032  62.9984585  23.0638609  36.1069988  62.9173730  21.8402904
  32.8969122  71.2445522  19.1795677  33.3607468  71.5233225  18.3900300
  32.6325920  70.3428967  18.9968768  29.7893203  70.7917004  22.1175440
  30.3594560  71.2204272  21.4792925  30.3801315  70.5099588  22.8159626
  31.8338008  67.3668674  15.9885242  32.5362052  67.8189718  16.4559169
  31.5018637  66.7252493  16.6165136  30.2818370  65.9580431  30.3636452
  29.6517031  66.6396712  30.5971849  30.1754458  65.8463513  29.4189590
  25.5763342  65.6252227  21.2902376  24.7862396  65.8809756  20.8142487
  26.0674590  66.4400565  21.3954416  39.5927152  72.9657466  24.0407657
  40.4144596  72.5637654  23.7590338  39.5889555  72.8625700  24.9923773
  27.5278088  65.9896806  18.2485853  26.7309251  66.1015501  18.7669348
  27.3003680  66.3283459  17.3826743  33.3583755  72.5141510  26.1968367
  33.4228188  72.9761917  27.0326539  32.6494679  71.8838875  26.3250677
  23.8601045  65.8782718  23.7217367  24.1109084  66.7629728  23.9874943
  24.3960594  65.6987319  22.9492459  47.6833145  69.3096215  20.3892628
  46.9296853  68.7403613  20.2336633  47.8180686  69.2758879  21.3363263
  33.0731773  74.1809617  16.0647348  32.9377448  75.0261153  16.4932195
  33.6141586  74.3828895  15.3013281  29.5599113  60.2601197  32.7261703
  29.1666058  59.7067396  33.4009347  30.3765253  60.5711775  33.1168220
  26.5261170  71.6985055  16.6375273  27.0385691  72.4928305  16.7880837
  27.1783883  71.0011346  16.5708874  28.3356055  74.8150811  18.7198026
  28.5122683  75.7368776  18.5319010  29.1312889  74.5009231  19.1492406
  32.4767074  61.6759076  30.3181959  33.2176787  62.2766229  30.2386422
  32.7084996  60.9336714  29.7600002  27.6208412  66.8615443  28.5960189
  27.5061927  65.9600701  28.8967288  26.7652929  67.1079140  28.2445006
  34.7000249  74.8033184  30.1947690  34.2564104  74.0169562  29.8768594
  35.3617463  74.9912334  29.5291580  29.4587371  76.3328985  24.7208368
  30.0094796  76.2046049  23.9485362  28.6198846  76.6323874  24.3703261
  36.7981487  75.0835984  28.2229091  36.7799963  75.9044865  27.7309360
  37.7201408  74.9590059  28.4479232  33.2554542  72.5980113  29.0652599
  33.7882878  71.8368401  28.8351907  32.7268623  72.3053765  29.8076754
  36.4224237  57.7040179  24.5946241  36.0788506  58.5941821  24.5185352
  36.7903199  57.5141837  23.7315826  24.4910087  70.0273709  17.4134843
  25.3285309  70.4370718  17.1968551  24.6688355  69.0873152  17.3835037
  36.3874519  67.6948790  13.1018676  35.8721143  68.4653395  13.3407064
  36.1151828  67.0213926  13.7251738  33.9721630  62.5398491  18.1603915
  33.1163227  62.1505341  17.9809553  34.3848582  62.6190452  17.3003700
  35.5020777  60.0744834  22.5595474  34.9985573  60.0374969  21.7463280
  35.7951384  60.9837577  22.6192131  31.7463663  60.1583564  21.5661656
  32.6116660  59.9626373  21.2067546  31.8141172  59.9293916  22.4931013
  41.3608793  70.4481145  15.0371850  40.5838236  70.1092304  14.5927012
  42.0400274  70.4533768  14.3626815  36.1760822  65.5675882  14.9278457
  35.8710958  65.8822031  15.7788601  37.1291265  65.6457302  14.9705790
  34.6207254  71.7266106  16.5771411  34.0928616  70.9918865  16.2644649
  34.1194757  72.5040782  16.3311380  39.6000100  69.9215126  21.6938458
  38.9423775  70.6114387  21.7818586  40.4040500  70.3111558  22.0372444
  29.3525982  62.3885772  18.9378023  29.9269734  62.1660953  18.2051216
  29.9396964  62.4574466  19.6906624  38.4105559  68.2759499  19.7442399
  38.9237441  68.9089491  20.2464109  39.0606783  67.6760694  19.3785759
  29.6795569  64.4190233  12.9573908  28.8432881  64.7564919  13.2783183
  29.5400339  64.2839213  12.0201045  31.6548650  59.2627021  17.6653092
  31.0013062  58.9476038  17.0409707  31.6129124  58.6402761  18.3912915
  32.7659855  69.5446316   9.5806384  31.8586916  69.3135569   9.7797533
  33.2630886  68.7483935   9.7680366  35.6727933  78.2543823  12.5003071
  34.9989632  78.5575520  13.1088028  36.0593755  79.0572903  12.1508528
  34.8886390  65.7508954  21.9900740  33.9708951  65.9723901  21.8322428
  35.3046534  65.8255265  21.1312447  35.6721438  67.1500370  17.1203420
  36.4193257  67.6621767  16.8110542  35.9413027  66.8284423  17.9807814
  33.9448088  69.6458911  14.1030374  33.0359307  69.3617943  14.2002844
  33.9743172  70.0657989  13.2433681  39.1767355  73.2565500  17.8721542
  38.7229682  72.4156410  17.9286733  38.5461322  73.8926899  18.2096322
  38.1200275  64.1857486  19.1022209  37.3823032  63.6734872  19.4332452
  38.3727048  63.7457868  18.2905486  37.6200295  75.0941997  18.8071360
  37.9123269  75.6547054  18.0883726  38.1298915  75.3870558  19.5624519
  38.2211902  56.9633738  19.6963979  38.5270779  56.1031102  19.4089894
  38.9464507  57.5551358  19.4962973  24.5136258  67.3664425  18.0845577
  24.3160658  66.7733785  17.3596643  23.9582922  67.0616635  18.8021515
  32.4932982  67.2587531  20.2040170  32.5481592  66.3061368  20.1282646
  31.6824184  67.4146970  20.6881468  33.6424176  71.1867654  11.4418453
  33.2043606  70.4703513  10.9824090  34.3834617  71.4143769  10.8803544
  30.4325342  65.8764591  17.9630549  29.6193207  66.1758762  18.3695741
  30.9284336  65.4820280  18.6805031  32.5833920  75.8722348  19.8964813
  32.5410099  76.0983194  18.9673345  33.4996619  75.6385723  20.0450615
  36.0299554  66.3406415  26.7945443  36.3848941  66.5677889  27.6539908
  36.6771685  66.6724792  26.1722698  41.7597291  69.4624851  17.4994772
  41.6215189  69.6526447  16.5715961  41.4033509  70.2244234  17.9562823
  29.9239417  63.4482947  23.5791784  30.5638796  63.3071706  22.8814747
  29.0916947  63.1617460  23.2030386  41.7866670  71.5301378  22.5106043
  42.2203177  71.4376667  23.3589097  42.4998251  71.5058879  21.8726059
  30.6999721  72.7485377  19.6926776  31.4940319  72.2535697  19.4909351
  29.9891413  72.2203240  19.3294482  35.5194565  75.1303472  24.0439144
  35.5731587  75.6994409  24.8116860  34.6509346  75.3005357  23.6793181
  27.0082484  66.8928459  15.7686529  26.0780072  66.8312914  15.9856491
  27.1039956  66.3704411  14.9723170  26.9268033  63.4183271  18.3564770
  27.1874850  64.3328605  18.2473931  27.7485205  62.9507714  18.5061383
  28.3992958  64.8321029  25.5263595  29.0716012  64.6238391  24.8776244
  27.5722745  64.6343115  25.0868827  42.6482220  71.5725079  25.0438929
  42.8418110  72.4770890  25.2898203  42.5482838  71.1132498  25.8777514
  34.3018530  61.4582970  27.5429256  33.6546445  62.1572919  27.4493732
  35.0719546  61.8919114  27.9105504  37.7097328  71.7231822  30.6179809
  37.5582835  71.4942373  29.7009893  37.7002008  72.6802423  30.6311154
  34.4782665  69.2963734  25.6026076  35.4074725  69.4474894  25.4295043
  34.0573695  69.3847755  24.7474722  33.2770997  73.3214399  23.3724613
  33.1382082  72.9533183  24.2450551  32.4885593  73.8362038  23.2008571
  33.8719149  78.4223495  14.7150150  34.0470904  77.9511539  15.5295772
  33.1851937  79.0489262  14.9431410  34.8276212  72.6996002  20.7613451
  34.4926044  72.6596772  21.6571101  34.3280157  72.0340718  20.2883861
  28.8020456  68.1063632  26.2866032  28.6640254  67.3743870  26.8877571
  29.7125379  68.0172532  26.0050220  37.7635403  70.0452036  11.0350511
  37.1464574  69.3198864  10.9383563  37.2951892  70.8061396  10.6917585
  31.4302756  67.8183591  25.7749712  32.1402375  67.1776783  25.7336330
  31.3872065  68.0696486  26.6975893  39.4189535  74.7550944  28.6956291
  39.3602081  74.0710164  28.0286874  39.8209053  75.4969934  28.2436917
  30.1431690  64.8048809  27.5945351  29.6069047  64.3539547  28.2466948
  29.5548399  64.9394718  26.8515816  28.4380234  81.5712858  21.4890010
  28.6776832  82.2031382  22.1669028  27.5949430  81.2200898  21.7755369
  29.5533949  64.2637460  10.1571815  28.6763416  64.1426261   9.7934062
  30.0291702  63.4723539   9.9050704  39.4206942  72.7190528  26.9270271
  38.5333721  72.3816450  27.0496670  39.9905493  71.9873559  27.1639036
  21.0736089  69.0514620  20.2513322  21.7607129  68.7376350  19.6634337
  20.9184218  69.9555985  19.9780573  25.8770812  63.9404817  24.6798346
  25.7929000  63.3330486  23.9448756  25.0553518  64.4313835  24.6807842
  32.9508096  77.3791981  23.8931514  32.8778267  78.1846952  24.4050818
  32.5085489  77.5783946  23.0679535  32.7397875  76.6163751  17.4034335
  31.9565397  77.1585431  17.4972560  33.4390620  77.1337730  17.8028577
  36.0494525  62.4258380  20.0468541  36.5463225  61.6728342  19.7269611
  35.2781507  62.4622697  19.4811750  43.9024283  68.1298746  21.6886832
  43.8914159  69.0123461  21.3180765  43.0341662  67.7770296  21.4941369
  35.4106779  77.2778815  26.0489673  36.1234751  77.9126279  25.9765574
  34.9196808  77.3742681  25.2329674  37.1324306  71.1830067  17.6206964
  36.1980585  71.3031530  17.4511669  37.3100975  70.2802534  17.3566974
  32.6329494  64.5675763  19.7740225  32.2627282  64.0146803  20.4621131
  33.1288587  63.9633897  19.2215225  40.5196857  67.0247387  18.1556998
  40.9857310  67.8575378  18.0817301  40.9704358  66.5592368  18.8602257
  30.4618693  75.0273258  26.8695243  31.1628152  75.6609741  27.0224638
  29.9913808  75.3687990  26.1090883  38.5873089  73.3691208  15.1543150
  38.8632932  73.2547802  16.0637024  37.7177587  72.9708693  15.1155323
  38.4913520  59.3927974  22.1947900  37.5776600  59.6232200  22.3630107
  38.9206622  59.4766418  23.0461932  38.2619979  67.5817866  24.6947794
  37.6091429  67.8293773  24.0400246  38.6400359  66.7682004  24.3610271
  35.2227153  77.6177559  18.7975964  35.4049547  76.7999215  19.2603716
  36.0460139  77.8345251  18.3600854  35.5569318  76.5445744  16.0591012
  36.0857085  76.0338198  15.4461175  35.8197538  76.2288274  16.9236546
  34.3107552  68.3237677  31.1813831  33.6348189  68.2231806  31.8516206
  35.1335186  68.1676890  31.6449828  26.0586411  74.5609613  23.8026346
  26.6439848  73.8153301  23.9354250  25.8611249  74.8713570  24.6863010
  28.9125066  77.5960861  18.8188788  28.2435441  78.0806988  18.3352828
  28.7737936  77.8430081  19.7332167  20.6504066  67.1315213  22.5230789
  20.6888165  66.5978804  23.3167907  20.1444358  66.6050419  21.9041766
  33.0530335  79.6304604  25.4171447  33.6048643  79.7936226  26.1820532
  33.3936528  80.2209042  24.7451472  28.0294828  61.9779754  26.0193331
  28.0936154  62.8394585  25.6070729  27.9661948  61.3653755  25.2865690
  27.5047100  64.0502886  29.6666366  28.1319139  63.6679964  30.2803890
  26.6475019  63.8317088  30.0322058  37.9041209  74.4565862  31.2720101
  38.4481113  75.0695820  30.7775056  37.3228054  75.0145440  31.7887114
  24.2812643  65.8579315  15.5984721  24.5766084  64.9489994  15.5451774
  23.3800679  65.8367055  15.2765723  36.1898722  77.5786580  22.4035129
  36.0649861  76.7776319  21.8946074  36.8477813  78.0732773  21.9149099
  27.8106890  63.9335312  21.5812269  27.0893476  64.5471280  21.4419742
  28.6000146  64.4693077  21.5028915  38.2533630  75.3795600  24.0314679
  37.3063966  75.2600951  23.9593006  38.6016403  74.4918098  24.1140940
  30.6133204  61.2689739  27.8552921  31.1367605  61.5152035  28.6179230
  30.3945537  62.1009773  27.4356058  26.0100485  63.5393413  15.7224046
  25.6813191  62.6590792  15.5399152  26.3639855  63.4841082  16.6100435
  35.2580064  75.1748316  20.2319031  35.1105026  74.2465023  20.4126601
  36.0833557  75.1968407  19.7476106  29.1242308  63.8266383  16.0899523
  29.4638380  64.3552304  15.3678132  29.5714428  64.1646789  16.8658090
  38.8614185  75.9976875  21.3183904  39.7860733  75.7919736  21.1808355
  38.6929489  75.7493276  22.2273246  31.8185749  62.2103434  25.5402591
  31.4782569  61.4111247  25.9423271  31.1124755  62.5105145  24.9679425
  32.4702221  59.2952746  23.9929914  33.2928290  58.8213224  23.8708805
  32.7140284  60.0743230  24.4928601  31.1110455  62.3241005  14.2892816
  31.8318818  62.7022257  13.7856533  30.4875759  63.0429881  14.3927794
  35.2541578  63.0286154  15.2251148  35.4705192  63.9110791  14.9239977
  34.7735645  62.6372367  14.4956790  29.9940799  65.9871867  21.8021893
  29.8485380  66.3012170  22.6946175  29.5166003  66.6056767  21.2492792
  31.8537182  62.9774415  21.8502783  31.8398751  62.0815508  21.5135081
  32.5709610  62.9845078  22.4841069  33.7063313  63.4111755  23.8955910
  33.4481091  64.3328826  23.8940241  33.1748353  63.0142189  24.5856374
  38.6509502  76.5162542  16.6745995  38.8246379  75.9508965  15.9219848
  39.1438393  77.3163437  16.4925485  24.4686461  68.5277211  24.7409554
  23.9239930  69.3037019  24.8729829  25.3465811  68.8748016  24.5828676
  31.2574078  61.8588795  17.1190353  31.3789989  60.9305441  17.3181240
  30.9676120  61.8727481  16.2068668  34.1265268  59.5443705  20.2557073
  34.1486965  59.6083039  19.3009052  34.5433327  58.7048214  20.4497579
  44.5048893  69.2798965  18.2936295  44.9480039  68.5306290  17.8955418
  43.6275403  69.2709101  17.9110027  39.6384674  75.8329306  13.7742894
  40.3335579  76.4535999  13.9930208  39.9807824  74.9824658  14.0495272
  25.2552483  67.6547107  27.6339711  24.5134219  67.8029743  28.2204342
  24.9345228  67.9155373  26.7706461  41.5376097  73.2829012  15.3030225
  42.0627421  73.6216285  14.5779545  41.4498450  72.3476027  15.1193359
  33.1996146  77.1963086  27.4320101  33.5083272  76.9512232  28.3042801
  33.9971628  77.4009724  26.9438971  33.2216758  79.3500995  19.6625478
  32.7821748  78.8577374  20.3558334  33.9724875  78.8073963  19.4217553
  25.7009097  75.5412536  19.6650106  26.5267117  75.2416308  19.2848749
  25.3503149  74.7720159  20.1139894  30.6690630  74.8939004  21.7347779
  30.0470639  74.2309709  21.4350007  31.3395497  74.9200136  21.0521427
  23.9017702  73.4598863  20.6239039  23.0649610  73.0321037  20.4423041
  23.8741347  73.6531306  21.5609831  30.7415158  63.3720792  31.3280285
  30.7903313  64.2482915  30.9458055  31.2837672  62.8298185  30.7551929
  41.2270003  73.9161916  30.6081422  40.4365547  73.8986054  30.0685922
  40.9903358  74.4550209  31.3630459  41.3467878  70.7654382  27.9214151
  41.3965883  70.6004389  28.8629674  41.2381802  69.8981641  27.5312032
  30.2304137  73.4442928  15.2106240  30.3792257  74.1278392  14.5572913
  31.0370581  73.4248018  15.7255696  38.6371641  66.7485310  29.2373458
  39.5381503  66.6091775  28.9457456  38.7119615  66.9139765  30.1771635
  32.9714446  64.1252165  28.0826644  32.1017755  64.4185731  27.8109233
  33.2073926  64.7092610  28.8033908  42.8486075  73.1851324  28.1656173
  42.5570883  73.5481304  29.0019634  42.2358206  72.4718332  27.9869505
  44.0481757  70.7504203  20.6858743  44.8828649  71.1894007  20.8496303
  44.1840886  70.2742857  19.8666989  41.0973263  68.3083938  26.6336231
  41.5727385  68.5011584  25.8255082  40.1738829  68.3643124  26.3879614
  27.9856770  69.4708105  16.2167309  27.7402812  68.5670435  16.4147519
  28.1552685  69.4725256  15.2746787  35.6753480  60.3431782  25.5992064
  36.1935424  61.0792809  25.2738553  35.3208613  60.6495775  26.4338824
  27.2552418  65.2036463  13.7153470  26.5621663  65.2780818  13.0593506
  27.0104169  64.4396807  14.2374987  35.9266074  56.7632064  21.1192961
  36.2067828  56.0955253  21.7453388  36.7116681  56.9561160  20.6067625
  33.7299543  75.9391058  12.6817987  33.1573510  76.5581245  12.2288459
  34.3032336  76.4890420  13.2157909  39.7974932  65.1849698  24.8664536
  40.7492355  65.2847796  24.8876760  39.6278383  64.3927967  25.3762621
  37.8189312  62.2705281  25.0523937  37.2239244  62.5510294  24.3570426
  37.5339009  62.7599182  25.8240678  36.9496802  76.2228208  13.8126570
  37.8827476  76.1573770  14.0159445  36.8620015  77.0584475  13.3541102
  39.5784819  75.5394079  10.7730517  39.4998451  75.2053942  11.6666275
  40.3994486  76.0315847  10.7721990  42.2763010  68.4055818  23.9806836
  42.2439330  67.4671819  24.1666520  42.8863634  68.4839855  23.2472661
  34.1146341  67.2751871  10.0234040  35.0605446  67.1458079  10.0922458
  33.7360586  66.5366533  10.5003468  42.4257499  65.1966861  24.0265119
  41.9096547  64.4125318  23.8395048  43.3097447  64.8685578  24.1911638
  40.0868226  58.9407877  19.9860932  39.8893047  58.6322965  20.8704264
  40.6967931  59.6669516  20.1158862  48.0939560  69.4671825  23.1212873
  48.8242949  69.2057113  23.6820576  47.4846506  68.7300547  23.1614941
  46.1754857  67.6079687  23.7187324  45.4488021  67.4735652  23.1103815
  45.7602144  67.9156516  24.5244042  33.9985034  71.3269617  31.4834697
  34.9188043  71.5048216  31.6774743  33.9634617  70.3825662  31.3314396
  32.2989258  65.2001847   9.9588925  31.3920714  64.9034960  10.0351639
  32.5765239  64.9031665   9.0923211  23.2167199  66.5208211  20.4087971
  22.8969983  65.6673519  20.1162345  22.6700627  66.7356789  21.1645939
  26.9947106  69.2370652  24.1257478  27.2133116  70.1687759  24.1445512
  27.4072880  68.8778626  24.9112282  33.9151324  59.7438737  16.1133166
  33.1052052  59.3985822  16.4888412  34.6035741  59.4346281  16.7020778
  35.8441872  58.8216784  17.7357463  36.3972911  59.2412237  18.3947486
  36.0811959  57.8952532  17.7780419  31.8674971  64.8103857  33.5160227
  31.7671698  65.7598214  33.4472318  31.6496514  64.4822096  32.6436297
  31.0688043  62.0588783  10.1000904  31.9307207  62.3843681  10.3596722
  31.2538387  61.2720278   9.5873970  23.0855459  70.1411122  22.3781093
  22.3918930  69.7265075  21.8651047  23.8328450  70.1831659  21.7814512
  39.2220679  60.9317309  17.2436127  38.6419348  61.5902113  16.8614180
  38.9556612  60.1094654  16.8323545  37.6724246  60.3322367  19.4457448
  38.1724024  60.4438901  18.6371766  38.3159854  60.0283420  20.0858256
  31.7306242  68.2400996  32.3325289  31.2473323  69.0401356  32.5389178
  31.8167181  68.2508941  31.3792733  24.9992201  70.0729376  20.2547108
  24.9762889  70.1717063  19.3028991  25.3092838  70.9194527  20.5764274
  27.6579579  72.1305531  24.3693722  28.6122833  72.0989473  24.3023654
  27.4592103  71.6696155  25.1843948  28.2478961  70.7006647  26.9364520
  29.0671850  71.1950726  26.9599357  28.5215769  69.7838615  26.9082088
  38.0045557  63.0917399  16.2992476  37.1171412  63.3767050  16.0812670
  38.4199546  62.9311163  15.4519752  41.3560093  63.1163920  20.0146815
  42.1320484  63.6060373  20.2871432  40.6308228  63.5421975  20.4718684
  43.7932652  63.8291540  21.0720755  44.3877143  63.5887276  20.3614064
  43.8659236  63.1098670  21.6994292  26.0129808  77.6725150  21.3863920
  25.8784276  76.9125551  20.8201918  25.5961870  78.3966050  20.9192709
  37.1488771  72.8562074  10.3940495  37.8524621  73.0612077  11.0098151
  36.4251420  73.4238836  10.6589579  37.9786581  68.6071935  16.5142766
  37.9221782  69.0640487  15.6750398  38.5314924  67.8462620  16.3365608
  41.7891387  64.3961667  17.3392885  41.5328321  63.9958303  18.1701093
  41.1644255  65.1105461  17.2143024  46.1003725  67.1357740  19.8464177
  45.5403283  67.2050930  20.6195739  45.4947228  66.9598725  19.1263673
  29.1698934  78.5694468  21.5982363  29.0531318  79.5139900  21.4961053
  28.3491380  78.2668029  21.9868162  39.0575468  73.2944603  12.4438956
  39.8921072  72.8625802  12.2616430  38.8959811  73.1226617  13.3715850
  38.7121360  69.7976717  13.8095295  38.6570164  69.6320988  12.8683739
  38.0867416  70.5052749  13.9657485  23.5013875  65.0344781  27.6356717
  24.1472739  64.5243735  28.1243942  23.2931026  65.7713463  28.2100142
  36.0267268  72.1025628  33.1348858  36.8958427  72.2766281  32.7735493
  35.5474019  72.9220045  33.0124587  32.0217486  59.2984826  13.3880613
  32.0096156  60.2426665  13.5448884  32.9140908  59.1154971  13.0940074
  30.1953448  79.2222729  24.8138291  31.0980695  79.2546340  25.1304786
  29.9690818  78.2923180  24.8284627  31.9507050  77.9753716  21.4748370
  31.0002681  77.9755578  21.3612742  32.2539536  77.2286451  20.9584405
  35.8369605  55.8927602  17.6426550  35.0702001  55.3386089  17.7883232
  36.2480310  55.9649471  18.5040702  27.8411366  62.1812398  31.7331731
  28.7042828  61.8249203  31.9435056  27.2676777  61.8426293  32.4207136
  47.6859743  83.8114254  22.5394132  48.3238153  83.6921002  21.8357472
  47.5680586  84.7595098  22.5982084  44.4949450  83.7641682  22.4755657
  44.1567961  83.6482747  21.5876192  45.3639218  83.3632848  22.4556663
  40.3536265  85.6177159  18.4652548  39.7901130  85.5267096  17.6968836
  40.2388660  84.7977063  18.9455040  44.9769233  84.9176534  28.4341863
  44.9657873  84.5229332  27.5622366  45.1389872  84.1842607  29.0275634
  37.9000697  87.1128350  21.3036768  38.6921989  86.7719175  20.8883068
  38.1397347  87.2223325  22.2238922  45.9335824  89.2848127  13.7767013
  45.2823804  89.8702207  13.3901027  46.7280187  89.8154321  13.8362050
  39.8591451  86.3737264  14.1754147  40.6322327  85.8266251  14.0367023
  40.2116850  87.2381513  14.3868609  41.6976494  87.7013646  27.3821046
  41.4066360  88.6059277  27.2667713  42.3333478  87.7430174  28.0965116
  42.6232701  85.0790494  23.9722406  43.2196273  84.8546517  23.2579369
  42.6807672  84.3375240  24.5747854  42.1957729  82.5329930  11.8072597
  42.4483250  82.0111451  11.0456060  41.2582288  82.3696075  11.9099281
  47.2401012  81.5365708  19.6147340  48.0264101  81.1185131  19.2637757
  47.5039716  82.4411800  19.7828989  47.4111089  86.9738558  14.3135997
  46.7756922  87.0473185  15.0256902  47.0808496  87.5632157  13.6355076
  52.6409439  81.4740941  20.5180319  53.3734611  80.9040158  20.7518148
  51.8848795  81.0862542  20.9586824  41.9154018  84.4358036  14.0096972
  41.7990276  83.7602939  14.6778056  42.0256278  83.9490410  13.1929125
  44.2585559  83.8968183  17.7143661  43.8943766  83.3698804  18.4256583
  45.1152675  83.5066652  17.5410147  50.1634859  75.1862515  24.9774927
  49.8318184  76.0557926  24.7536142  49.5680473  74.8698799  25.6568958
  43.8991046  78.9258083  12.7105010  44.0665448  79.7938319  13.0775481
  43.7088215  79.0885364  11.7866299  46.6566379  87.3875061  24.3770840
  46.3567102  88.2900100  24.2686647  46.3117438  87.1207245  25.2291993
  40.1078860  83.8388858  20.4107545  39.1829357  83.7065072  20.6185236
  40.3563273  84.6183078  20.9077487  50.0563523  79.9057602  22.0568278
  49.1480400  79.8373010  21.7627038  50.0051118  80.3829547  22.8850103
  43.8780267  81.3815740  13.6951677  43.7579892  81.8272791  14.5337157
  43.1832855  81.7301058  13.1365215  37.4687671  83.4822132  21.2451334
  37.5980052  83.7356611  22.1590745  36.7885123  84.0749840  20.9255989
  41.6387159  94.1519382  17.3441808  41.5611188  95.1027207  17.4230288
  41.0348802  93.8065254  18.0016734  44.1304388  81.3247247  30.0003175
  43.3537722  81.8841167  29.9906039  44.7694951  81.8104030  30.5218045
  51.9225169  78.1074040  23.8346151  51.2799549  78.4006573  23.1885946
  51.4180098  77.9926960  24.6399348  49.5765333  81.8537213  14.5232011
  50.4883189  82.0864600  14.3479708  49.0674980  82.4374257  13.9607089
  42.3850761  84.1332701  29.5621142  43.1265445  84.6717745  29.2855965
  41.6787746  84.7598989  29.7192694  47.8606100  86.2761841  28.1593303
  48.2689456  85.8344252  27.4147936  47.1383362  85.7014469  28.4127496
  44.2137170  81.2134448  25.5326860  45.0598366  81.6373861  25.6761509
  44.1535808  80.5568072  26.2265423  48.1834915  86.8363032  21.9145592
  47.5543777  87.0008746  21.2121660  47.7960577  87.2504641  22.6856556
  52.0624147  87.7717470  19.2689956  51.3775185  88.1516371  18.7186989
  52.1467996  88.3812796  20.0021904  47.3636616  78.8738816  27.1908034
  47.1197548  79.6280877  26.6542310  47.6396546  79.2524164  28.0255281
  49.3175078  85.4177429  25.8685299  49.5291974  86.0609188  25.1919681
  49.2704827  84.5839745  25.4007230  46.9201307  78.0295249  22.7721872
  46.0585786  78.3276503  23.0638609  46.9463742  78.2465648  21.8402904
  43.7362877  86.5737440  19.1795677  44.2001222  86.8525143  18.3900300
  43.4719675  85.6720884  18.9968768  40.6286958  86.1208921  22.1175440
  41.1988315  86.5496190  21.4792925  41.2195070  85.8391506  22.8159626
  42.6731763  82.6960592  15.9885242  43.3755806  83.1481636  16.4559169
  42.3412391  82.0544411  16.6165136  41.1212124  81.2872349  30.3636452
  40.4910785  81.9688630  30.5971849  41.0148212  81.1755430  29.4189590
  36.4157097  80.9544145  21.2902376  35.6256151  81.2101673  20.8142487
  36.9068344  81.7692483  21.3954416  50.4320906  88.2949384  24.0407657
  51.2538350  87.8929571  23.7590338  50.4283309  88.1917618  24.9923773
  38.3671842  81.3188724  18.2485853  37.5703006  81.4307418  18.7669348
  38.1397434  81.6575376  17.3826743  44.1977510  87.8433427  26.1968367
  44.2621942  88.3053835  27.0326539  43.4888434  87.2130792  26.3250677
  34.6994800  81.2074635  23.7217367  34.9502838  82.0921645  23.9874943
  35.2354348  81.0279237  22.9492459  58.5226899  84.6388132  20.3892628
  57.7690608  84.0695531  20.2336633  58.6574441  84.6050797  21.3363263
  43.9125528  89.5101535  16.0647348  43.7771202  90.3553071  16.4932195
  44.4535340  89.7120812  15.3013281  40.3992867  75.5893115  32.7261703
  40.0059813  75.0359313  33.4009347  41.2159007  75.9003693  33.1168220
  37.3654925  87.0276973  16.6375273  37.8779445  87.8220223  16.7880837
  38.0177638  86.3303263  16.5708874  39.1749810  90.1442729  18.7198026
  39.3516438  91.0660694  18.5319010  39.9706643  89.8301148  19.1492406
  43.3160828  77.0050994  30.3181959  44.0570542  77.6058147  30.2386422
  43.5478751  76.2628632  29.7600002  38.4602166  82.1907361  28.5960189
  38.3455681  81.2892618  28.8967288  37.6046684  82.4371058  28.2445006
  45.5394004  90.1325101  30.1947690  45.0957858  89.3461480  29.8768594
  46.2011217  90.3204252  29.5291580  40.2981125  91.6620903  24.7208368
  40.8488550  91.5337966  23.9485362  39.4592601  91.9615792  24.3703261
  47.6375242  90.4127901  28.2229091  47.6193717  91.2336782  27.7309360
  48.5595162  90.2881976  28.4479232  44.0948296  87.9272031  29.0652599
  44.6276633  87.1660319  28.8351907  43.5662377  87.6345683  29.8076754
  47.2617991  73.0332097  24.5946241  46.9182260  73.9233738  24.5185352
  47.6296954  72.8433754  23.7315826  35.3303842  85.3565627  17.4134843
  36.1679064  85.7662635  17.1968551  35.5082109  84.4165069  17.3835037
  47.2268274  83.0240708  13.1018676  46.7114897  83.7945312  13.3407064
  46.9545582  82.3505844  13.7251738  44.8115385  77.8690409  18.1603915
  43.9556981  77.4797259  17.9809553  45.2242337  77.9482369  17.3003700
  46.3414531  75.4036752  22.5595474  45.8379327  75.3666887  21.7463280
  46.6345138  76.3129495  22.6192131  42.5857417  75.4875482  21.5661656
  43.4510414  75.2918290  21.2067546  42.6534926  75.2585833  22.4931013
  52.2002548  85.7773062  15.0371850  51.4231991  85.4384222  14.5927012
  52.8794029  85.7825686  14.3626815  47.0154577  80.8967800  14.9278457
  46.7104713  81.2113949  15.7788601  47.9685019  80.9749220  14.9705790
  45.4601009  87.0558023  16.5771411  44.9322370  86.3210783  16.2644649
  44.9588512  87.8332700  16.3311380  50.4393855  85.2507044  21.6938458
  49.7817529  85.9406305  21.7818586  51.2434254  85.6403476  22.0372444
  40.1919736  77.7177689  18.9378023  40.7663488  77.4952871  18.2051216
  40.7790719  77.7866384  19.6906624  49.2499314  83.6051416  19.7442399
  49.7631195  84.2381408  20.2464109  49.9000538  83.0052612  19.3785759
  40.5189324  79.7482150  12.9573908  39.6826636  80.0856837  13.2783183
  40.3794093  79.6131130  12.0201045  42.4942404  74.5918938  17.6653092
  41.8406816  74.2767956  17.0409707  42.4522878  73.9694679  18.3912915
  43.6053609  84.8738233   9.5806384  42.6980671  84.6427487   9.7797533
  44.1024641  84.0775853   9.7680366  46.5121688  93.5835741  12.5003071
  45.8383387  93.8867437  13.1088028  46.8987510  94.3864821  12.1508528
  45.7280145  81.0800872  21.9900740  44.8102706  81.3015819  21.8322428
  46.1440288  81.1547182  21.1312447  46.5115192  82.4792288  17.1203420
  47.2587011  82.9913685  16.8110542  46.7806782  82.1576340  17.9807814
  44.7841842  84.9750828  14.1030374  43.8753062  84.6909861  14.2002844
  44.8136926  85.3949907  13.2433681  50.0161110  88.5857418  17.8721542
  49.5623437  87.7448328  17.9286733  49.3855077  89.2218816  18.2096322
  48.9594029  79.5149404  19.1022209  48.2216786  79.0026790  19.4332452
  49.2120803  79.0749785  18.2905486  48.4594049  90.4233915  18.8071360
  48.7517023  90.9838972  18.0883726  48.9692670  90.7162476  19.5624519
  49.0605657  72.2925656  19.6963979  49.3664534  71.4323019  19.4089894
  49.7858262  72.8843276  19.4962973  35.3530013  82.6956342  18.0845577
  35.1554413  82.1025703  17.3596643  34.7976677  82.3908553  18.8021515
  43.3326736  82.5879449  20.2040170  43.3875346  81.6353285  20.1282646
  42.5217939  82.7438888  20.6881468  44.4817930  86.5159572  11.4418453
  44.0437360  85.7995431  10.9824090  45.2228371  86.7435687  10.8803544
  41.2719096  81.2056509  17.9630549  40.4586962  81.5050679  18.3695741
  41.7678091  80.8112197  18.6805031  43.4227674  91.2014266  19.8964813
  43.3803853  91.4275112  18.9673345  44.3390373  90.9677640  20.0450615
  46.8693308  81.6698333  26.7945443  47.2242696  81.8969806  27.6539908
  47.5165439  82.0016710  26.1722698  52.5991045  84.7916769  17.4994772
  52.4608944  84.9818365  16.5715961  52.2427264  85.5536152  17.9562823
  40.7633171  78.7774864  23.5791784  41.4032550  78.6363623  22.8814747
  39.9310702  78.4909378  23.2030386  52.6260425  86.8593296  22.5106043
  53.0596931  86.7668585  23.3589097  53.3392005  86.8350796  21.8726059
  41.5393475  88.0777295  19.6926776  42.3334074  87.5827615  19.4909351
  40.8285167  87.5495158  19.3294482  46.3588320  90.4595390  24.0439144
  46.4125342  91.0286326  24.8116860  45.4903101  90.6297275  23.6793181
  37.8476239  82.2220376  15.7686529  36.9173827  82.1604832  15.9856491
  37.9433711  81.6996329  14.9723170  37.7661788  78.7475189  18.3564770
  38.0268605  79.6620522  18.2473931  38.5878960  78.2799632  18.5061383
  39.2386713  80.1612946  25.5263595  39.9109766  79.9530308  24.8776244
  38.4116499  79.9635032  25.0868827  53.4875974  86.9016997  25.0438929
  53.6811864  87.8062807  25.2898203  53.3876592  86.4424416  25.8777514
  45.1412285  76.7874887  27.5429256  44.4940200  77.4864837  27.4493732
  45.9113300  77.2211031  27.9105504  48.5491083  87.0523739  30.6179809
  48.3976589  86.8234291  29.7009893  48.5395762  88.0094341  30.6311154
  45.3176419  84.6255652  25.6026076  46.2468479  84.7766812  25.4295043
  44.8967449  84.7139673  24.7474722  44.1164751  88.6506317  23.3724613
  43.9775837  88.2825101  24.2450551  43.3279347  89.1653956  23.2008571
  44.7112903  93.7515413  14.7150150  44.8864659  93.2803456  15.5295772
  44.0245691  94.3781179  14.9431410  45.6669966  88.0287919  20.7613451
  45.3319799  87.9888689  21.6571101  45.1673912  87.3632635  20.2883861
  39.6414210  83.4355549  26.2866032  39.5034008  82.7035788  26.8877571
  40.5519134  83.3464449  26.0050220  48.6029158  85.3743954  11.0350511
  47.9858328  84.6490782  10.9383563  48.1345646  86.1353314  10.6917585
  42.2696511  83.1475509  25.7749712  42.9796129  82.5068701  25.7336330
  42.2265819  83.3988403  26.6975893  50.2583290  90.0842862  28.6956291
  50.1995836  89.4002082  28.0286874  50.6602808  90.8261852  28.2436917
  40.9825445  80.1340727  27.5945351  40.4462802  79.6831465  28.2466948
  40.3942153  80.2686635  26.8515816  39.2773988  96.9004776  21.4890010
  39.5170587  97.5323300  22.1669028  38.4343185  96.5492816  21.7755369
  40.3927704  79.5929378  10.1571815  39.5157170  79.4718179   9.7934062
  40.8685457  78.8015456   9.9050704  50.2600697  88.0482446  26.9270271
  49.3727476  87.7108368  27.0496670  50.8299248  87.3165477  27.1639036
  31.9129844  84.3806538  20.2513322  32.6000884  84.0668268  19.6634337
  31.7577973  85.2847902  19.9780573  36.7164566  79.2696734  24.6798346
  36.6322755  78.6622404  23.9448756  35.8947272  79.7605753  24.6807842
  43.7901850  92.7083898  23.8931514  43.7172022  93.5138870  24.4050818
  43.3479243  92.9075864  23.0679535  43.5791630  91.9455668  17.4034335
  42.7959152  92.4877348  17.4972560  44.2784375  92.4629648  17.8028577
  46.8888280  77.7550298  20.0468541  47.3856979  77.0020260  19.7269611
  46.1175261  77.7914614  19.4811750  54.7418037  83.4590663  21.6886832
  54.7307914  84.3415379  21.3180765  53.8735417  83.1062214  21.4941369
  46.2500534  92.6070732  26.0489673  46.9628506  93.2418197  25.9765574
  45.7590562  92.7034598  25.2329674  47.9718061  86.5121985  17.6206964
  47.0374339  86.6323447  17.4511669  48.1494729  85.6094452  17.3566974
  43.4723249  79.8967681  19.7740225  43.1021036  79.3438721  20.4621131
  43.9682341  79.2925814  19.2215225  51.3590612  82.3539304  18.1556998
  51.8251064  83.1867296  18.0817301  51.8098112  81.8884286  18.8602257
  41.3012447  90.3565176  26.8695243  42.0021907  90.9901659  27.0224638
  40.8307562  90.6979907  26.1090883  49.4266843  88.6983126  15.1543150
  49.7026687  88.5839720  16.0637024  48.5571342  88.3000610  15.1155323
  49.3307275  74.7219891  22.1947900  48.4170355  74.9524118  22.3630107
  49.7600376  74.8058335  23.0461932  49.1013733  82.9109783  24.6947794
  48.4485183  83.1585691  24.0400246  49.4794113  82.0973921  24.3610271
  46.0620907  92.9469476  18.7975964  46.2443302  92.1291132  19.2603716
  46.8853893  93.1637169  18.3600854  46.3963073  91.8737662  16.0591012
  46.9250839  91.3630116  15.4461175  46.6591292  91.5580192  16.9236546
  45.1501306  83.6529594  31.1813831  44.4741943  83.5523724  31.8516206
  45.9728940  83.4968808  31.6449828  36.8980165  89.8901531  23.8026346
  37.4833602  89.1445219  23.9354250  36.7005004  90.2005488  24.6863010
  39.7518821  92.9252778  18.8188788  39.0829196  93.4098906  18.3352828
  39.6131690  93.1721999  19.7332167  31.4897820  82.4607131  22.5230789
  31.5281920  81.9270722  23.3167907  30.9838113  81.9342337  21.9041766
  43.8924089  94.9596522  25.4171447  44.4442397  95.1228143  26.1820532
  44.2330283  95.5500960  24.7451472  38.8688582  77.3071672  26.0193331
  38.9329909  78.1686502  25.6070729  38.8055703  76.6945673  25.2865690
  38.3440855  79.3794804  29.6666366  38.9712894  78.9971881  30.2803890
  37.4868774  79.1609006  30.0322058  48.7434963  89.7857779  31.2720101
  49.2874867  90.3987738  30.7775056  48.1621808  90.3437358  31.7887114
  35.1206398  81.1871233  15.5984721  35.4159839  80.2781912  15.5451774
  34.2194433  81.1658973  15.2765723  47.0292476  92.9078497  22.4035129
  46.9043616  92.1068237  21.8946074  47.6871567  93.4024691  21.9149099
  38.6500645  79.2627230  21.5812269  37.9287230  79.8763197  21.4419742
  39.4393900  79.7984995  21.5028915  49.0927385  90.7087517  24.0314679
  48.1457720  90.5892869  23.9593006  49.4410158  89.8210015  24.1140940
  41.4526958  76.5981656  27.8552921  41.9761360  76.8443953  28.6179230
  41.2339291  77.4301691  27.4356058  36.8494239  78.8685331  15.7224046
  36.5206945  77.9882710  15.5399152  37.2033610  78.8133000  16.6100435
  46.0973818  90.5040234  20.2319031  45.9498780  89.5756941  20.4126601
  46.9227312  90.5260324  19.7476106  39.9636062  79.1558301  16.0899523
  40.3032135  79.6844222  15.3678132  40.4108183  79.4938707  16.8658090
  49.7007940  91.3268792  21.3183904  50.6254487  91.1211654  21.1808355
  49.5323243  91.0785193  22.2273246  42.6579503  77.5395351  25.5402591
  42.3176324  76.7403164  25.9423271  41.9518509  77.8397062  24.9679425
  43.3095975  74.6244664  23.9929914  44.1322044  74.1505142  23.8708805
  43.5534039  75.4035148  24.4928601  41.9504209  77.6532922  14.2892816
  42.6712572  78.0314175  13.7856533  41.3269514  78.3721799  14.3927794
  46.0935332  78.3578071  15.2251148  46.3098947  79.2402709  14.9239977
  45.6129400  77.9664285  14.4956790  40.8334554  81.3163784  21.8021893
  40.6879134  81.6304087  22.6946175  40.3559757  81.9348685  21.2492792
  42.6930937  78.3066332  21.8502783  42.6792505  77.4107426  21.5135081
  43.4103365  78.3136996  22.4841069  44.5457067  78.7403673  23.8955910
  44.2874845  79.6620743  23.8940241  44.0142108  78.3434107  24.5856374
  49.4903256  91.8454460  16.6745995  49.6640134  91.2800882  15.9219848
  49.9832147  92.6455355  16.4925485  35.3080216  83.8569129  24.7409554
  34.7633684  84.6328937  24.8729829  36.1859566  84.2039933  24.5828676
  42.0967833  77.1880713  17.1190353  42.2183744  76.2597359  17.3181240
  41.8069875  77.2019399  16.2068668  44.9659023  74.8735623  20.2557073
  44.9880720  74.9374956  19.3009052  45.3827082  74.0340132  20.4497579
  55.3442647  84.6090883  18.2936295  55.7873793  83.8598208  17.8955418
  54.4669158  84.6001019  17.9110027  50.4778429  91.1621224  13.7742894
  51.1729333  91.7827917  13.9930208  50.8201579  90.3116575  14.0495272
  36.0946238  82.9839025  27.6339711  35.3527974  83.1321660  28.2204342
  35.7738982  83.2447291  26.7706461  52.3769852  88.6120930  15.3030225
  52.9021176  88.9508202  14.5779545  52.2892204  87.6767945  15.1193359
  44.0389900  92.5255003  27.4320101  44.3477027  92.2804150  28.3042801
  44.8365382  92.7301642  26.9438971  44.0610512  94.6792913  19.6625478
  43.6215503  94.1869292  20.3558334  44.8118629  94.1365881  19.4217553
  36.5402851  90.8704454  19.6650106  37.3660871  90.5708226  19.2848749
  36.1896903  90.1012076  20.1139894  41.5084385  90.2230922  21.7347779
  40.8864394  89.5601627  21.4350007  42.1789252  90.2492054  21.0521427
  34.7411457  88.7890780  20.6239039  33.9043365  88.3612955  20.4423041
  34.7135102  88.9823224  21.5609831  41.5808912  78.7012710  31.3280285
  41.6297068  79.5774833  30.9458055  42.1231426  78.1590103  30.7551929
  52.0663758  89.2453833  30.6081422  51.2759301  89.2277972  30.0685922
  51.8297112  89.7842127  31.3630459  52.1861633  86.0946300  27.9214151
  52.2359638  85.9296307  28.8629674  52.0775556  85.2273559  27.5312032
  41.0697892  88.7734845  15.2106240  41.2186012  89.4570310  14.5572913
  41.8764335  88.7539935  15.7255696  49.4765395  82.0777228  29.2373458
  50.3775258  81.9383693  28.9457456  49.5513370  82.2431683  30.1771635
  43.8108201  79.4544082  28.0826644  42.9411510  79.7477649  27.8109233
  44.0467681  80.0384527  28.8033908  53.6879830  88.5143241  28.1656173
  53.3964638  88.8773222  29.0019634  53.0751961  87.8010249  27.9869505
  54.8875512  86.0796121  20.6858743  55.7222403  86.5185925  20.8496303
  55.0234641  85.6034774  19.8666989  51.9367018  83.6375856  26.6336231
  52.4121140  83.8303502  25.8255082  51.0132583  83.6935042  26.3879614
  38.8250525  84.8000023  16.2167309  38.5796566  83.8962353  16.4147519
  38.9946439  84.8017173  15.2746787  46.5147234  75.6723699  25.5992064
  47.0329178  76.4084726  25.2738553  46.1602367  75.9787693  26.4338824
  38.0946172  80.5328381  13.7153470  37.4015417  80.6072736  13.0593506
  37.8497924  79.7688724  14.2374987  46.7659829  72.0923982  21.1192961
  47.0461582  71.4247171  21.7453388  47.5510435  72.2853078  20.6067625
  44.5693297  91.2682976  12.6817987  43.9967264  91.8873163  12.2288459
  45.1426091  91.8182338  13.2157909  50.6368687  80.5141616  24.8664536
  51.5886110  80.6139714  24.8876760  50.4672137  79.7219884  25.3762621
  48.6583066  77.5997199  25.0523937  48.0632998  77.8802212  24.3570426
  48.3732763  78.0891100  25.8240678  47.7890557  91.5520126  13.8126570
  48.7221230  91.4865688  14.0159445  47.7013770  92.3876393  13.3541102
  50.4178574  90.8685996  10.7730517  50.3392205  90.5345860  11.6666275
  51.2388240  91.3607764  10.7721990  53.1156765  83.7347736  23.9806836
  53.0833085  82.7963736  24.1666520  53.7257388  83.8131772  23.2472661
  44.9540096  82.6043789  10.0234040  45.8999200  82.4749997  10.0922458
  44.5754341  81.8658450  10.5003468  53.2651253  80.5258779  24.0265119
  52.7490302  79.7417236  23.8395048  54.1491202  80.1977496  24.1911638
  50.9261980  74.2699795  19.9860932  50.7286801  73.9614883  20.8704264
  51.5361686  74.9961434  20.1158862  58.9333315  84.7963742  23.1212873
  59.6636703  84.5349031  23.6820576  58.3240260  84.0592464  23.1614941
  57.0148612  82.9371605  23.7187324  56.2881775  82.8027570  23.1103815
  56.5995899  83.2448434  24.5244042  44.8378788  86.6561535  31.4834697
  45.7581798  86.8340134  31.6774743  44.8028371  85.7117580  31.3314396
  43.1383013  80.5293765   9.9588925  42.2314468  80.2326878  10.0351639
  43.4158994  80.2323583   9.0923211  34.0560953  81.8500128  20.4087971
  33.7363737  80.9965437  20.1162345  33.5094381  82.0648707  21.1645939
  37.8340861  84.5662569  24.1257478  38.0526870  85.4979677  24.1445512
  38.2466634  84.2070544  24.9112282  44.7545078  75.0730655  16.1133166
  43.9445807  74.7277740  16.4888412  45.4429495  74.7638198  16.7020778
  46.6835627  74.1508701  17.7357463  47.2366665  74.5704155  18.3947486
  46.9205713  73.2244450  17.7780419  42.7068726  80.1395775  33.5160227
  42.6065453  81.0890132  33.4472318  42.4890268  79.8114014  32.6436297
  41.9081797  77.3880700  10.1000904  42.7700961  77.7135598  10.3596722
  42.0932141  76.6012196   9.5873970  33.9249213  85.4703040  22.3781093
  33.2312685  85.0556993  21.8651047  34.6722204  85.5123576  21.7814512
  50.0614434  76.2609227  17.2436127  49.4813103  76.9194031  16.8614180
  49.7950366  75.4386571  16.8323545  48.5118000  75.6614284  19.4457448
  49.0117779  75.7730819  18.6371766  49.1553608  75.3575337  20.0858256
  42.5699996  83.5692914  32.3325289  42.0867078  84.3693274  32.5389178
  42.6560935  83.5800859  31.3792733  35.8385956  85.4021294  20.2547108
  35.8156644  85.5008981  19.3028991  36.1486592  86.2486444  20.5764274
  38.4973334  87.4597449  24.3693722  39.4516587  87.4281391  24.3023654
  38.2985857  86.9988072  25.1843948  39.0872716  86.0298565  26.9364520
  39.9065605  86.5242643  26.9599357  39.3609523  85.1130533  26.9082088
  48.8439312  78.4209317  16.2992476  47.9565167  78.7058968  16.0812670
  49.2593301  78.2603080  15.4519752  52.1953848  78.4455838  20.0146815
  52.9714238  78.9352290  20.2871432  51.4701982  78.8713892  20.4718684
  54.6326407  79.1583457  21.0720755  55.2270897  78.9179193  20.3614064
  54.7052990  78.4390588  21.6994292  36.8523562  93.0017068  21.3863920
  36.7178030  92.2417469  20.8201918  36.4355625  93.7257968  20.9192709
  47.9882525  88.1853992  10.3940495  48.6918375  88.3903994  11.0098151
  47.2645174  88.7530754  10.6589579  48.8180336  83.9363853  16.5142766
  48.7615537  84.3932404  15.6750398  49.3708678  83.1754538  16.3365608
  52.6285141  79.7253585  17.3392885  52.3722076  79.3250220  18.1701093
  52.0038010  80.4397379  17.2143024  56.9397479  82.4649658  19.8464177
  56.3797037  82.5342847  20.6195739  56.3340983  82.2890643  19.1263673
  40.0092688  93.8986385  21.5982363  39.8925072  94.8431818  21.4961053
  39.1885134  93.5959947  21.9868162  49.8969223  88.6236521  12.4438956
  50.7314827  88.1917719  12.2616430  49.7353566  88.4518535  13.3715850
  49.5515115  85.1268634  13.8095295  49.4963919  84.9612906  12.8683739
  48.9261170  85.8344667  13.9657485  34.3407630  80.3636699  27.6356717
  34.9866493  79.8535653  28.1243942  34.1324781  81.1005380  28.2100142
  46.8661022  87.4317546  33.1348858  47.7352182  87.6058198  32.7735493
  46.3867774  88.2511963  33.0124587  42.8611240  74.6276743  13.3880613
  42.8489910  75.5718583  13.5448884  43.7534662  74.4446889  13.0940074
  41.0347202  94.5514647  24.8138291  41.9374449  94.5838257  25.1304786
  40.8084572  93.6215098  24.8284627  42.7900804  93.3045634  21.4748370
  41.8396435  93.3047495  21.3612742  43.0933290  92.5578368  20.9584405
  46.6763360  71.2219520  17.6426550  45.9095756  70.6678007  17.7883232
  47.0874065  71.2941389  18.5040702  38.6805121  77.5104316  31.7331731
  39.5436582  77.1541121  31.9435056  38.1070532  77.1718210  32.4207136
  58.5253498  99.1406172  22.5394132  59.1631908  99.0212919  21.8357472
  58.4074341 100.0887016  22.5982084  55.3343204  99.0933600  22.4755657
  54.9961716  98.9774665  21.5876192  56.2032972  98.6924765  22.4556663
  51.1930020 100.9469077  18.4652548  50.6294885 100.8559013  17.6968836
  51.0782415 100.1268981  18.9455040  55.8162987 100.2468452  28.4341863
  55.8051628  99.8521250  27.5622366  55.9783627  99.5134524  29.0275634
  48.7394452 102.4420268  21.3036768  49.5315744 102.1011093  20.8883068
  48.9791102 102.5515243  22.2238922  56.7729579 104.6140044  13.7767013
  56.1217558 105.1994125  13.3901027  57.5673941 105.1446239  13.8362050
  50.6985206 101.7029181  14.1754147  51.4716082 101.1558168  14.0367023
  51.0510605 102.5673431  14.3868609  52.5370248 103.0305564  27.3821046
  52.2460114 103.9351194  27.2667713  53.1727233 103.0722091  28.0965116
  53.4626455 100.4082412  23.9722406  54.0590027 100.1838435  23.2579369
  53.5201427  99.6667158  24.5747854  53.0351483  97.8621847  11.8072597
  53.2877004  97.3403369  11.0456060  52.0976043  97.6987993  11.9099281
  58.0794766  96.8657626  19.6147340  58.8657856  96.4477049  19.2637757
  58.3433471  97.7703718  19.7828989  58.2504844 102.3030476  14.3135997
  57.6150677 102.3765103  15.0256902  57.9202250 102.8924075  13.6355076
  63.4803193  96.8032859  20.5180319  64.2128365  96.2332076  20.7518148
  62.7242549  96.4154460  20.9586824  52.7547772  99.7649953  14.0096972
  52.6384030  99.0894857  14.6778056  52.8650032  99.2782327  13.1929125
  55.0979313  99.2260101  17.7143661  54.7337520  98.6990722  18.4256583
  55.9546429  98.8358570  17.5410147  61.0028614  90.5154433  24.9774927
  60.6711939  91.3849844  24.7536142  60.4074227  90.1990717  25.6568958
  54.7384800  94.2550000  12.7105010  54.9059202  95.1230237  13.0775481
  54.5481969  94.4177282  11.7866299  57.4960133 102.7166979  24.3770840
  57.1960856 103.6192018  24.2686647  57.1511193 102.4499162  25.2291993
  50.9472615  99.1680776  20.4107545  50.0223111  99.0356990  20.6185236
  51.1957028  99.9474995  20.9077487  60.8957277  95.2349519  22.0568278
  59.9874154  95.1664928  21.7627038  60.8444873  95.7121464  22.8850103
  54.7174021  96.7107658  13.6951677  54.5973646  97.1564709  14.5337157
  54.0226609  97.0592975  13.1365215  48.3081426  98.8114050  21.2451334
  48.4373807  99.0648528  22.1590745  47.6278877  99.4041758  20.9255989
  52.4780913 109.4811300  17.3441808  52.4004943 110.4319125  17.4230288
  51.8742557 109.1357172  18.0016734  54.9698143  96.6539165  30.0003175
  54.1931477  97.2133085  29.9906039  55.6088706  97.1395948  30.5218045
  62.7618923  93.4365958  23.8346151  62.1193304  93.7298491  23.1885946
  62.2573852  93.3218878  24.6399348  60.4159087  97.1829131  14.5232011
  61.3276943  97.4156518  14.3479708  59.9068734  97.7666175  13.9607089
  53.2244515  99.4624618  29.5621142  53.9659200 100.0009662  29.2855965
  52.5181501 100.0890907  29.7192694  58.6999855 101.6053759  28.1593303
  59.1083211 101.1636169  27.4147936  57.9777116 101.0306386  28.4127496
  55.0530925  96.5426366  25.5326860  55.8992120  96.9665779  25.6761509
  54.9929563  95.8859990  26.2265423  59.0228669 102.1654949  21.9145592
  58.3937532 102.3300664  21.2121660  58.6354332 102.5796559  22.6856556
  62.9017901 103.1009387  19.2689956  62.2168940 103.4808289  18.7186989
  62.9861751 103.7104714  20.0021904  58.2030370  94.2030734  27.1908034
  57.9591302  94.9572794  26.6542310  58.4790301  94.5816081  28.0255281
  60.1568833 100.7469346  25.8685299  60.3685728 101.3901106  25.1919681
  60.1098581  99.9131663  25.4007230  57.7595062  93.3587167  22.7721872
  56.8979541  93.6568420  23.0638609  57.7857497  93.5757566  21.8402904
  54.5756631 101.9029357  19.1795677  55.0394977 102.1817060  18.3900300
  54.3113429 101.0012802  18.9968768  51.4680712 101.4500839  22.1175440
  52.0382069 101.8788107  21.4792925  52.0588824 101.1683424  22.8159626
  53.5125517  98.0252510  15.9885242  54.2149561  98.4773554  16.4559169
  53.1806146  97.3836329  16.6165136  51.9605879  96.6164266  30.3636452
  51.3304539  97.2980547  30.5971849  51.8541967  96.5047348  29.4189590
  47.2550851  96.2836062  21.2902376  46.4649905  96.5393591  20.8142487
  47.7462099  97.0984400  21.3954416  61.2714661 103.6241302  24.0407657
  62.0932105 103.2221489  23.7590338  61.2677064 103.5209536  24.9923773
  49.2065597  96.6480642  18.2485853  48.4096760  96.7599336  18.7669348
  48.9791189  96.9867294  17.3826743  55.0371264 103.1725345  26.1968367
  55.1015697 103.6345752  27.0326539  54.3282188 102.5422710  26.3250677
  45.5388554  96.5366553  23.7217367  45.7896593  97.4213563  23.9874943
  46.0748103  96.3571154  22.9492459  69.3620654  99.9680050  20.3892628
  68.6084362  99.3987448  20.2336633  69.4968195  99.9342715  21.3363263
  54.7519282 104.8393452  16.0647348  54.6164957 105.6844988  16.4932195
  55.2929095 105.0412730  15.3013281  51.2386622  90.9185032  32.7261703
  50.8453567  90.3651231  33.4009347  52.0552762  91.2295611  33.1168220
  48.2048679 102.3568890  16.6375273  48.7173200 103.1512141  16.7880837
  48.8571392 101.6595181  16.5708874  50.0143564 105.4734647  18.7198026
  50.1910192 106.3952611  18.5319010  50.8100398 105.1593066  19.1492406
  54.1554583  92.3342911  30.3181959  54.8964296  92.9350065  30.2386422
  54.3872505  91.5920549  29.7600002  49.2995921  97.5199279  28.5960189
  49.1849436  96.6184536  28.8967288  48.4440438  97.7662975  28.2445006
  56.3787758 105.4617019  30.1947690  55.9351613 104.6753398  29.8768594
  57.0404972 105.6496169  29.5291580  51.1374880 106.9912821  24.7208368
  51.6882305 106.8629884  23.9485362  50.2986355 107.2907710  24.3703261
  58.4768996 105.7419819  28.2229091  58.4587472 106.5628700  27.7309360
  59.3988917 105.6173894  28.4479232  54.9342051 103.2563948  29.0652599
  55.4670387 102.4952237  28.8351907  54.4056132 102.9637600  29.8076754
  58.1011746  88.3624014  24.5946241  57.7576015  89.2525656  24.5185352
  58.4690708  88.1725672  23.7315826  46.1697596 100.6857545  17.4134843
  47.0072818 101.0954553  17.1968551  46.3475864  99.7456987  17.3835037
  58.0662028  98.3532625  13.1018676  57.5508652  99.1237230  13.3407064
  57.7939337  97.6797762  13.7251738  55.6509139  93.1982326  18.1603915
  54.7950736  92.8089177  17.9809553  56.0636091  93.2774287  17.3003700
  57.1808286  90.7328669  22.5595474  56.6773082  90.6958805  21.7463280
  57.4738893  91.6421412  22.6192131  53.4251172  90.8167399  21.5661656
  54.2904169  90.6210208  21.2067546  53.4928681  90.5877751  22.4931013
  63.0396302 101.1064980  15.0371850  62.2625745 100.7676140  14.5927012
  63.7187783 101.1117603  14.3626815  57.8548331  96.2259718  14.9278457
  57.5498467  96.5405867  15.7788601  58.8078774  96.3041137  14.9705790
  56.2994763 102.3849941  16.5771411  55.7716125 101.6502700  16.2644649
  55.7982266 103.1624617  16.3311380  61.2787609 100.5798961  21.6938458
  60.6211284 101.2698223  21.7818586  62.0828009 100.9695393  22.0372444
  51.0313491  93.0469607  18.9378023  51.6057243  92.8244789  18.2051216
  51.6184473  93.1158302  19.6906624  60.0893068  98.9343334  19.7442399
  60.6024950  99.5673326  20.2464109  60.7394292  98.3344530  19.3785759
  51.3583078  95.0774068  12.9573908  50.5220390  95.4148755  13.2783183
  51.2187848  94.9423048  12.0201045  53.3336159  89.9210856  17.6653092
  52.6800571  89.6059873  17.0409707  53.2916633  89.2986597  18.3912915
  54.4447363 100.2030151   9.5806384  53.5374425  99.9719405   9.7797533
  54.9418395  99.4067770   9.7680366  56.5673899  96.4092790  21.9900740
  55.6496460  96.6307737  21.8322428  56.9834043  96.4839100  21.1312447
  57.3508947  97.8084205  17.1203420  58.0980766  98.3205602  16.8110542
  57.6200536  97.4868258  17.9807814  55.6235597 100.3042746  14.1030374
  54.7146816 100.0201779  14.2002844  55.6530681 100.7241825  13.2433681
  60.8554864 103.9149335  17.8721542  60.4017191 103.0740245  17.9286733
  60.2248831 104.5510734  18.2096322  59.7987784  94.8441322  19.1022209
  59.0610541  94.3318708  19.4332452  60.0514557  94.4041703  18.2905486
  59.2987804 105.7525832  18.8071360  59.5910778 106.3130889  18.0883726
  59.8086424 106.0454393  19.5624519  59.8999411  87.6217574  19.6963979
  60.2058288  86.7614937  19.4089894  60.6252016  88.2135194  19.4962973
  46.1923767  98.0248260  18.0845577  45.9948167  97.4317621  17.3596643
  45.6370431  97.7200470  18.8021515  54.1720491  97.9171367  20.2040170
  54.2269101  96.9645203  20.1282646  53.3611693  98.0730806  20.6881468
  55.3211685 101.8451490  11.4418453  54.8831115 101.1287349  10.9824090
  56.0622126 102.0727604  10.8803544  52.1112851  96.5348426  17.9630549
  51.2980716  96.8342597  18.3695741  52.6071845  96.1404115  18.6805031
  54.2621429 106.5306183  19.8964813  54.2197608 106.7567030  18.9673345
  55.1784128 106.2969558  20.0450615  57.7087063  96.9990251  26.7945443
  58.0636450  97.2261724  27.6539908  58.3559194  97.3308628  26.1722698
  63.4384800 100.1208687  17.4994772  63.3002698 100.3110283  16.5715961
  63.0821018 100.8828070  17.9562823  51.6026926  94.1066782  23.5791784
  52.2426305  93.9655541  22.8814747  50.7704456  93.8201295  23.2030386
  63.4654179 102.1885214  22.5106043  63.8990686 102.0960503  23.3589097
  64.1785760 102.1642714  21.8726059  52.3787230 103.4069212  19.6926776
  53.1727828 102.9119532  19.4909351  51.6678922 102.8787075  19.3294482
  57.1982074 105.7887308  24.0439144  57.2519096 106.3578244  24.8116860
  56.3296855 105.9589193  23.6793181  48.6869993  97.5512294  15.7686529
  47.7567581  97.4896750  15.9856491  48.7827465  97.0288247  14.9723170
  48.6055542  94.0767107  18.3564770  48.8662359  94.9912440  18.2473931
  49.4272714  93.6091549  18.5061383  50.0780467  95.4904864  25.5263595
  50.7503521  95.2822226  24.8776244  49.2510254  95.2926950  25.0868827
  64.3269729 102.2308914  25.0438929  64.5205619 103.1354725  25.2898203
  64.2270347 101.7716333  25.8777514  55.9806039  92.1166805  27.5429256
  55.3333954  92.8156755  27.4493732  56.7507055  92.5502949  27.9105504
  59.3884837 102.3815657  30.6179809  59.2370344 102.1526209  29.7009893
  59.3789517 103.3386259  30.6311154  56.1570174  99.9547570  25.6026076
  57.0862234 100.1058729  25.4295043  55.7361204 100.0431591  24.7474722
  54.9558506 103.9798234  23.3724613  54.8169591 103.6117019  24.2450551
  54.1673102 104.4945874  23.2008571  55.5506658 109.0807331  14.7150150
  55.7258413 108.6095374  15.5295772  54.8639446 109.7073097  14.9431410
  56.5063721 103.3579837  20.7613451  56.1713553 103.3180607  21.6571101
  56.0067666 102.6924553  20.2883861  50.4807965  98.7647467  26.2866032
  50.3427763  98.0327706  26.8877571  51.3912888  98.6756367  26.0050220
  59.4422912 100.7035871  11.0350511  58.8252083  99.9782699  10.9383563
  58.9739401 101.4645232  10.6917585  53.1090265  98.4767426  25.7749712
  53.8189884  97.8360619  25.7336330  53.0659573  98.7280321  26.6975893
  61.0977044 105.4134780  28.6956291  61.0389590 104.7294000  28.0286874
  61.4996562 106.1553770  28.2436917  51.8219199  95.4632644  27.5945351
  51.2856556  95.0123383  28.2466948  51.2335908  95.5978553  26.8515816
  50.1167743 112.2296694  21.4890010  50.3564341 112.8615218  22.1669028
  49.2736939 111.8784734  21.7755369  51.2321458  94.9221296  10.1571815
  50.3550925  94.8010096   9.7934062  51.7079211  94.1307374   9.9050704
  61.0994451 103.3774364  26.9270271  60.2121230 103.0400285  27.0496670
  61.6693002 102.6457395  27.1639036  42.7523598  99.7098455  20.2513322
  43.4394638  99.3960185  19.6634337  42.5971727 100.6139820  19.9780573
  47.5558321  94.5988652  24.6798346  47.4716509  93.9914321  23.9448756
  46.7341027  95.0897670  24.6807842  54.6295605 108.0375816  23.8931514
  54.5565776 108.8430787  24.4050818  54.1872998 108.2367782  23.0679535
  54.4185384 107.2747586  17.4034335  53.6352906 107.8169266  17.4972560
  55.1178129 107.7921566  17.8028577  57.7282034  93.0842215  20.0468541
  58.2250734  92.3312178  19.7269611  56.9569016  93.1206532  19.4811750
  65.5811792  98.7882581  21.6886832  65.5701668  99.6707296  21.3180765
  64.7129171  98.4354132  21.4941369  57.0894288 107.9362650  26.0489673
  57.8022260 108.5710115  25.9765574  56.5984317 108.0326516  25.2329674
  58.8111815 101.8413903  17.6206964  57.8768094 101.9615365  17.4511669
  58.9888484 100.9386369  17.3566974  54.3117003  95.2259598  19.7740225
  53.9414791  94.6730639  20.4621131  54.8076096  94.6217732  19.2215225
  62.1984366  97.6831222  18.1556998  62.6644819  98.5159214  18.0817301
  62.6491867  97.2176204  18.8602257  52.1406202 105.6857093  26.8695243
  52.8415661 106.3193576  27.0224638  51.6701317 106.0271825  26.1090883
  60.2660598 104.0275043  15.1543150  60.5420441 103.9131638  16.0637024
  59.3965096 103.6292528  15.1155323  60.1701029  90.0511809  22.1947900
  59.2564109  90.2816036  22.3630107  60.5994131  90.1350253  23.0461932
  59.9407488  98.2401701  24.6947794  59.2878938  98.4877608  24.0400246
  60.3187868  97.4265839  24.3610271  56.9014662 108.2761394  18.7975964
  57.0837056 107.4583050  19.2603716  57.7247648 108.4929086  18.3600854
  57.2356827 107.2029579  16.0591012  57.7644593 106.6922034  15.4461175
  57.4985047 106.8872109  16.9236546  55.9895061  98.9821512  31.1813831
  55.3135698  98.8815641  31.8516206  56.8122695  98.8260726  31.6449828
  47.7373920 105.2193448  23.8026346  48.3227357 104.4737136  23.9354250
  47.5398758 105.5297405  24.6863010  50.5912575 108.2544696  18.8188788
  49.9222950 108.7390824  18.3352828  50.4525445 108.5013916  19.7332167
  42.3291575  97.7899049  22.5230789  42.3675674  97.2562639  23.3167907
  41.8231867  97.2634254  21.9041766  54.7317844 110.2888439  25.4171447
  55.2836152 110.4520061  26.1820532  55.0724037 110.8792877  24.7451472
  49.7082337  92.6363589  26.0193331  49.7723663  93.4978420  25.6070729
  49.6449457  92.0237591  25.2865690  49.1834609  94.7086722  29.6666366
  49.8106648  94.3263799  30.2803890  48.3262528  94.4900924  30.0322058
  59.5828718 105.1149697  31.2720101  60.1268622 105.7279655  30.7775056
  59.0015563 105.6729275  31.7887114  45.9600152  96.5163151  15.5984721
  46.2553593  95.6073829  15.5451774  45.0588188  96.4950890  15.2765723
  57.8686231 108.2370415  22.4035129  57.7437370 107.4360155  21.8946074
  58.5265322 108.7316608  21.9149099  49.4894399  94.5919147  21.5812269
  48.7680985  95.2055115  21.4419742  50.2787655  95.1276912  21.5028915
  59.9321139 106.0379435  24.0314679  58.9851475 105.9184786  23.9593006
  60.2803912 105.1501933  24.1140940  52.2920713  91.9273574  27.8552921
  52.8155114  92.1735870  28.6179230  52.0733046  92.7593609  27.4356058
  47.6887994  94.1977249  15.7224046  47.3600700  93.3174627  15.5399152
  48.0427364  94.1424917  16.6100435  56.9367573 105.8332151  20.2319031
  56.7892535 104.9048859  20.4126601  57.7621066 105.8552242  19.7476106
  50.8029817  94.4850218  16.0899523  51.1425889  95.0136140  15.3678132
  51.2501937  94.8230624  16.8658090  60.5401694 106.6560710  21.3183904
  61.4648242 106.4503571  21.1808355  60.3716998 106.4077111  22.2273246
  53.4973258  92.8687269  25.5402591  53.1570078  92.0695082  25.9423271
  52.7912264  93.1688980  24.9679425  54.1489729  89.9536581  23.9929914
  54.9715799  89.4797060  23.8708805  54.3927793  90.7327065  24.4928601
  52.7897964  92.9824840  14.2892816  53.5106326  93.3606093  13.7856533
  52.1663268  93.7013717  14.3927794  56.9329087  93.6869989  15.2251148
  57.1492701  94.5694627  14.9239977  56.4523154  93.2956202  14.4956790
  51.6728308  96.6455702  21.8021893  51.5272889  96.9596005  22.6946175
  51.1953512  97.2640602  21.2492792  53.5324691  93.6358250  21.8502783
  53.5186260  92.7399343  21.5135081  54.2497119  93.6428914  22.4841069
  55.3850822  94.0695590  23.8955910  55.1268600  94.9912661  23.8940241
  54.8535862  93.6726025  24.5856374  60.3297011 107.1746377  16.6745995
  60.5033888 106.6092800  15.9219848  60.8225902 107.9747272  16.4925485
  46.1473970  99.1861046  24.7409554  45.6027438  99.9620854  24.8729829
  47.0253320  99.5331851  24.5828676  52.9361587  92.5172630  17.1190353
  53.0577498  91.5889277  17.3181240  52.6463629  92.5311316  16.2068668
  55.8052777  90.2027541  20.2557073  55.8274474  90.2666874  19.3009052
  56.2220836  89.3632049  20.4497579  66.1836402  99.9382800  18.2936295
  66.6267548  99.1890126  17.8955418  65.3062912  99.9292937  17.9110027
  61.3172183 106.4913142  13.7742894  62.0123088 107.1119834  13.9930208
  61.6595333 105.6408493  14.0495272  46.9339992  98.3130943  27.6339711
  46.1921728  98.4613578  28.2204342  46.6132737  98.5739208  26.7706461
  63.2163606 103.9412847  15.3030225  63.7414930 104.2800120  14.5779545
  63.1285959 103.0059863  15.1193359  54.8783655 107.8546921  27.4320101
  55.1870781 107.6096068  28.3042801  55.6759137 108.0593559  26.9438971
  54.9004267 110.0084831  19.6625478  54.4609257 109.5161209  20.3558334
  55.6512384 109.4657798  19.4217553  47.3796606 106.1996371  19.6650106
  48.2054626 105.9000143  19.2848749  47.0290658 105.4303994  20.1139894
  52.3478139 105.5522840  21.7347779  51.7258148 104.8893545  21.4350007
  53.0183006 105.5783972  21.0521427  45.5805211 104.1182698  20.6239039
  44.7437119 103.6904872  20.4423041  45.5528856 104.3115141  21.5609831
  52.4202667  94.0304628  31.3280285  52.4690822  94.9066751  30.9458055
  52.9625181  93.4882021  30.7551929  62.9057512 104.5745751  30.6081422
  62.1153056 104.5569890  30.0685922  62.6690867 105.1134045  31.3630459
  63.0255387 101.4238217  27.9214151  63.0753392 101.2588225  28.8629674
  62.9169311 100.5565476  27.5312032  51.9091646 104.1026763  15.2106240
  52.0579766 104.7862227  14.5572913  52.7158089 104.0831853  15.7255696
  60.3159150  97.4069145  29.2373458  61.2169012  97.2675610  28.9457456
  60.3907124  97.5723600  30.1771635  54.6501955  94.7836000  28.0826644
  53.7805264  95.0769566  27.8109233  54.8861435  95.3676445  28.8033908
  64.5273584 103.8435159  28.1656173  64.2358392 104.2065139  29.0019634
  63.9145715 103.1302167  27.9869505  65.7269266 101.4088039  20.6858743
  66.5616158 101.8477843  20.8496303  65.8628395 100.9326692  19.8666989
  62.7760772  98.9667773  26.6336231  63.2514894  99.1595420  25.8255082
  61.8526338  99.0226959  26.3879614  49.6644279 100.1291941  16.2167309
  49.4190321  99.2254271  16.4147519  49.8340194 100.1309091  15.2746787
  57.3540989  91.0015617  25.5992064  57.8722933  91.7376644  25.2738553
  56.9996122  91.3079610  26.4338824  48.9339927  95.8620298  13.7153470
  48.2409171  95.9364653  13.0593506  48.6891678  95.0980642  14.2374987
  57.6053583  87.4215900  21.1192961  57.8855337  86.7539089  21.7453388
  58.3904190  87.6144995  20.6067625  55.4087052 106.5974893  12.6817987
  54.8361019 107.2165081  12.2288459  55.9819845 107.1474255  13.2157909
  61.4762441  95.8433534  24.8664536  62.4279864  95.9431631  24.8876760
  61.3065892  95.0511802  25.3762621  59.4976821  92.9289117  25.0523937
  58.9026753  93.2094130  24.3570426  59.2126518  93.4183018  25.8240678
  58.6284311 106.8812044  13.8126570  59.5614984 106.8157605  14.0159445
  58.5407524 107.7168310  13.3541102  63.9550519  99.0639653  23.9806836
  63.9226839  98.1255654  24.1666520  64.5651143  99.1423690  23.2472661
  55.7933850  97.9335706  10.0234040  56.7392955  97.8041914  10.0922458
  55.4148095  97.1950368  10.5003468  64.1045008  95.8550697  24.0265119
  63.5884056  95.0709153  23.8395048  64.9884956  95.5269413  24.1911638
  61.7655735  89.5991712  19.9860932  61.5680556  89.2906800  20.8704264
  62.3755440  90.3253351  20.1158862  69.7727069 100.1255660  23.1212873
  70.5030458  99.8640948  23.6820576  69.1634015  99.3884382  23.1614941
  67.8542366  98.2663523  23.7187324  67.1275530  98.1319488  23.1103815
  67.4389653  98.5740351  24.5244042  55.6772543 101.9853452  31.4834697
  56.5975552 102.1632051  31.6774743  55.6422126 101.0409498  31.3314396
  53.9776767  95.8585683   9.9588925  53.0708223  95.5618795  10.0351639
  54.2552748  95.5615501   9.0923211  44.8954708  97.1792046  20.4087971
  44.5757492  96.3257354  20.1162345  44.3488136  97.3940624  21.1645939
  48.6734615  99.8954487  24.1257478  48.8920625 100.8271595  24.1445512
  49.0860389  99.5362461  24.9112282  55.5938833  90.4022572  16.1133166
  54.7839561  90.0569657  16.4888412  56.2823250  90.0930116  16.7020778
  57.5229381  89.4800619  17.7357463  58.0760420  89.8996073  18.3947486
  57.7599468  88.5536367  17.7780419  53.5462480  95.4687693  33.5160227
  53.4459207  96.4182050  33.4472318  53.3284022  95.1405932  32.6436297
  52.7475552  92.7172618  10.1000904  53.6094716  93.0427516  10.3596722
  52.9325896  91.9304114   9.5873970  44.7642968 100.7994958  22.3781093
  44.0706439 100.3848910  21.8651047  45.5115959 100.8415494  21.7814512
  60.9008188  91.5901144  17.2436127  60.3206857  92.2485948  16.8614180
  60.6344121  90.7678489  16.8323545  59.3511755  90.9906202  19.4457448
  59.8511533  91.1022737  18.6371766  59.9947363  90.6867255  20.0858256
  53.4093751  98.8984832  32.3325289  52.9260832  99.6985192  32.5389178
  53.4954690  98.9092777  31.3792733  46.6779710 100.7313211  20.2547108
  46.6550398 100.8300899  19.3028991  46.9880347 101.5778362  20.5764274
  49.3367088 102.7889366  24.3693722  50.2910342 102.7573309  24.3023654
  49.1379612 102.3279990  25.1843948  49.9266470 101.3590482  26.9364520
  50.7459359 101.8534561  26.9599357  50.2003278 100.4422451  26.9082088
  59.6833066  93.7501235  16.2992476  58.7958921  94.0350885  16.0812670
  60.0987055  93.5894998  15.4519752  63.0347602  93.7747756  20.0146815
  63.8107993  94.2644208  20.2871432  62.3095737  94.2005810  20.4718684
  65.4720161  94.4875375  21.0720755  66.0664652  94.2471111  20.3614064
  65.5446745  93.7682505  21.6994292  47.6917317 108.3308986  21.3863920
  47.5571785 107.5709387  20.8201918  47.2749379 109.0549886  20.9192709
  59.6574090  99.2655771  16.5142766  59.6009291  99.7224322  15.6750398
  60.2102433  98.5046455  16.3365608  63.4678896  95.0545502  17.3392885
  63.2115830  94.6542138  18.1701093  62.8431764  95.7689296  17.2143024
  67.7791234  97.7941576  19.8464177  67.2190792  97.8634765  20.6195739
  67.1734737  97.6182560  19.1263673  50.8486443 109.2278303  21.5982363
  50.7318827 110.1723735  21.4961053  50.0278889 108.9251864  21.9868162
  60.7362977 103.9528439  12.4438956  61.5708581 103.5209637  12.2616430
  60.5747320 103.7810452  13.3715850  60.3908869 100.4560552  13.8095295
  60.3357673 100.2904823  12.8683739  59.7654925 101.1636585  13.9657485
  45.1801384  95.6928616  27.6356717  45.8260248  95.1827570  28.1243942
  44.9718535  96.4297298  28.2100142  57.7054777 102.7609464  33.1348858
  58.5745936 102.9350116  32.7735493  57.2261528 103.5803881  33.0124587
  53.7004995  89.9568661  13.3880613  53.6883665  90.9010501  13.5448884
  54.5928417  89.7738806  13.0940074  51.8740957 109.8806565  24.8138291
  52.7768203 109.9130175  25.1304786  51.6478327 108.9507016  24.8284627
  53.6294559 108.6337551  21.4748370  52.6790190 108.6339413  21.3612742
  53.9327045 107.8870286  20.9584405  57.5157114  86.5511438  17.6426550
  56.7489510  85.9969924  17.7883232  57.9267819  86.6233306  18.5040702
  49.5198875  92.8396233  31.7331731  50.3830337  92.4833038  31.9435056
  48.9464286  92.5010128  32.4207136  69.3647252 114.4698090  22.5394132
  70.0025662 114.3504837  21.8357472  69.2468095 115.4178934  22.5982084
  66.1736959 114.4225518  22.4755657  65.8355470 114.3066582  21.5876192
  67.0426727 114.0216683  22.4556663  66.6556742 115.5760370  28.4341863
  66.6445382 115.1813168  27.5622366  66.8177381 114.8426442  29.0275634
  59.5788206 117.7712186  21.3036768  60.3709498 117.4303010  20.8883068
  59.8184856 117.8807161  22.2238922  63.3764003 118.3597481  27.3821046
  63.0853869 119.2643112  27.2667713  64.0120987 118.4014009  28.0965116
  64.3020210 115.7374330  23.9722406  64.8983782 115.5130352  23.2579369
  64.3595181 114.9959075  24.5747854  71.8422368 105.8446351  24.9774927
  71.5105693 106.7141762  24.7536142  71.2467982 105.5282635  25.6568958
  68.3353888 118.0458897  24.3770840  68.0354611 118.9483936  24.2686647
  67.9904947 117.7791080  25.2291993  61.7866369 114.4972694  20.4107545
  60.8616866 114.3648908  20.6185236  62.0350782 115.2766913  20.9077487
  71.7351032 110.5641437  22.0568278  70.8267909 110.4956845  21.7627038
  71.6838627 111.0413382  22.8850103  59.1475180 114.1405967  21.2451334
  59.2767561 114.3940446  22.1590745  58.4672632 114.7333675  20.9255989
  65.8091897 111.9831083  30.0003175  65.0325231 112.5425003  29.9906039
  66.4482460 112.4687866  30.5218045  73.6012678 108.7657875  23.8346151
  72.9587058 109.0590409  23.1885946  73.0967606 108.6510796  24.6399348
  64.0638270 114.7916536  29.5621142  64.8052954 115.3301580  29.2855965
  63.3575255 115.4182825  29.7192694  69.5393609 116.9345676  28.1593303
  69.9476965 116.4928087  27.4147936  68.8170871 116.3598304  28.4127496
  65.8924679 111.8718283  25.5326860  66.7385875 112.2957697  25.6761509
  65.8323317 111.2151908  26.2265423  69.0424125 109.5322652  27.1908034
  68.7985057 110.2864712  26.6542310  69.3184055 109.9107999  28.0255281
  70.9962587 116.0761264  25.8685299  71.2079483 116.7193024  25.1919681
  70.9492336 115.2423580  25.4007230  68.5988816 108.6879085  22.7721872
  67.7373295 108.9860338  23.0638609  68.6251251 108.9049483  21.8402904
  62.3074467 116.7792757  22.1175440  62.8775824 117.2080025  21.4792925
  62.8982579 116.4975341  22.8159626  62.7999633 111.9456184  30.3636452
  62.1698294 112.6272465  30.5971849  62.6935721 111.8339266  29.4189590
  58.0944606 111.6127980  21.2902376  57.3043660 111.8685509  20.8142487
  58.5855853 112.4276318  21.3954416  60.0459351 111.9772559  18.2485853
  59.2490514 112.0891254  18.7669348  59.8184943 112.3159212  17.3826743
  65.8765019 118.5017263  26.1968367  65.9409451 118.9637670  27.0326539
  65.1675943 117.8714628  26.3250677  56.3782309 111.8658471  23.7217367
  56.6290347 112.7505481  23.9874943  56.9141857 111.6863072  22.9492459
  62.0780376 106.2476950  32.7261703  61.6847322 105.6943149  33.4009347
  62.8946516 106.5587528  33.1168220  64.9948337 107.6634829  30.3181959
  65.7358050 108.2641982  30.2386422  65.2266260 106.9212467  29.7600002
  60.1389675 112.8491196  28.5960189  60.0243190 111.9476454  28.8967288
  59.2834193 113.0954893  28.2445006  67.2181513 120.7908937  30.1947690
  66.7745367 120.0045315  29.8768594  67.8798726 120.9788087  29.5291580
  61.9768634 122.3204738  24.7208368  62.5276059 122.1921802  23.9485362
  61.1380110 122.6199627  24.3703261  69.3162751 121.0711737  28.2229091
  69.2981226 121.8920618  27.7309360  70.2382671 120.9465812  28.4479232
  65.7735805 118.5855866  29.0652599  66.3064142 117.8244154  28.8351907
  65.2449886 118.2929518  29.8076754  68.9405500 103.6915932  24.5946241
  68.5969769 104.5817574  24.5185352  69.3084463 103.5017590  23.7315826
  66.4902894 108.5274244  18.1603915  65.6344490 108.1381094  17.9809553
  66.9029846 108.6066205  17.3003700  68.0202040 106.0620587  22.5595474
  67.5166836 106.0250722  21.7463280  68.3132647 106.9713330  22.6192131
  64.2644926 106.1459317  21.5661656  65.1297923 105.9502126  21.2067546
  64.3322435 105.9169669  22.4931013  61.8707245 108.3761525  18.9378023
  62.4450997 108.1536706  18.2051216  62.4578228 108.4450219  19.6906624
  64.1729913 105.2502774  17.6653092  63.5194325 104.9351791  17.0409707
  64.1310387 104.6278514  18.3912915  67.4067653 111.7384707  21.9900740
  66.4890215 111.9599654  21.8322428  67.8227797 111.8131018  21.1312447
  70.7393166 102.9509491  19.6963979  71.0452043 102.0906855  19.4089894
  71.4645771 103.5427111  19.4962973  57.0317522 113.3540178  18.0845577
  56.8341922 112.7609538  17.3596643  56.4764186 113.0492388  18.8021515
  65.0114245 113.2463284  20.2040170  65.0662855 112.2937121  20.1282646
  64.2005447 113.4022723  20.6881468  62.9506605 111.8640344  17.9630549
  62.1374471 112.1634515  18.3695741  63.4465600 111.4696033  18.6805031
  68.5480817 112.3282168  26.7945443  68.9030205 112.5553642  27.6539908
  69.1952948 112.6600545  26.1722698  62.4420680 109.4358700  23.5791784
  63.0820059 109.2947459  22.8814747  61.6098211 109.1493213  23.2030386
  59.4449297 109.4059025  18.3564770  59.7056114 110.3204358  18.2473931
  60.2666469 108.9383467  18.5061383  60.9174222 110.8196782  25.5263595
  61.5897275 110.6114144  24.8776244  60.0904008 110.6218868  25.0868827
  66.8199794 107.4458723  27.5429256  66.1727709 108.1448672  27.4493732
  67.5900809 107.8794867  27.9105504  70.2278592 117.7107575  30.6179809
  70.0764098 117.4818126  29.7009893  70.2183271 118.6678176  30.6311154
  66.9963928 115.2839488  25.6026076  67.9255988 115.4350647  25.4295043
  66.5754958 115.3723508  24.7474722  65.7952260 119.3090152  23.3724613
  65.6563346 118.9408936  24.2450551  65.0066856 119.8237791  23.2008571
  61.3201719 114.0939385  26.2866032  61.1821517 113.3619623  26.8877571
  62.2306643 114.0048285  26.0050220  63.9484020 113.8059344  25.7749712
  64.6583638 113.1652536  25.7336330  63.9053328 114.0572239  26.6975893
  71.9370798 120.7426697  28.6956291  71.8783345 120.0585917  28.0286874
  72.3390317 121.4845687  28.2436917  62.6612954 110.7924562  27.5945351
  62.1250311 110.3415300  28.2466948  62.0729662 110.9270471  26.8515816
  71.9388206 118.7066281  26.9270271  71.0514985 118.3692203  27.0496670
  72.5086757 117.9749312  27.1639036  53.5917353 115.0390373  20.2513322
  54.2788393 114.7252103  19.6634337  53.4365482 115.9431738  19.9780573
  58.3952075 109.9280570  24.6798346  58.3110264 109.3206239  23.9448756
  57.5734781 110.4189588  24.6807842  68.5675789 108.4134133  20.0468541
  69.0644488 107.6604095  19.7269611  67.7962770 108.4498450  19.4811750
  65.1510758 110.5551516  19.7740225  64.7808545 110.0022556  20.4621131
  65.6469850 109.9509650  19.2215225  62.9799956 121.0149011  26.8695243
  63.6809416 121.6485494  27.0224638  62.5095071 121.3563743  26.1090883
  71.0094784 105.3803727  22.1947900  70.0957863 105.6107953  22.3630107
  71.4387885 105.4642171  23.0461932  70.7801242 113.5693619  24.6947794
  70.1272692 113.8169526  24.0400246  71.1581622 112.7557757  24.3610271
  66.8288815 114.3113430  31.1813831  66.1529452 114.2107559  31.8516206
  67.6516449 114.1552643  31.6449828  58.5767674 120.5485366  23.8026346
  59.1621111 119.8029054  23.9354250  58.3792513 120.8589323  24.6863010
  53.1685329 113.1190966  22.5230789  53.2069429 112.5854557  23.3167907
  52.6625622 112.5926172  21.9041766  60.5476091 107.9655507  26.0193331
  60.6117418 108.8270338  25.6070729  60.4843212 107.3529509  25.2865690
  60.0228364 110.0378639  29.6666366  60.6500403 109.6555717  30.2803890
  59.1656283 109.8192841  30.0322058  70.4222472 120.4441615  31.2720101
  70.9662376 121.0571573  30.7775056  69.8409317 121.0021193  31.7887114
  56.7993907 111.8455069  15.5984721  57.0947348 110.9365747  15.5451774
  55.8981942 111.8242808  15.2765723  60.3288154 109.9211065  21.5812269
  59.6074739 110.5347033  21.4419742  61.1181409 110.4568830  21.5028915
  63.1314467 107.2565492  27.8552921  63.6548869 107.5027788  28.6179230
  62.9126800 108.0885526  27.4356058  58.5281748 109.5269166  15.7224046
  58.1994454 108.6466545  15.5399152  58.8821119 109.4716835  16.6100435
  64.3367012 108.1979187  25.5402591  63.9963833 107.3987000  25.9423271
  63.6306018 108.4980898  24.9679425  64.9883484 105.2828499  23.9929914
  65.8109553 104.8088977  23.8708805  65.2321548 106.0618983  24.4928601
  62.5122063 111.9747620  21.8021893  62.3666643 112.2887923  22.6946175
  62.0347266 112.5932520  21.2492792  64.3718446 108.9650168  21.8502783
  64.3580014 108.0691261  21.5135081  65.0890874 108.9720831  22.4841069
  66.2244576 109.3987508  23.8955910  65.9662354 110.3204579  23.8940241
  65.6929617 109.0017942  24.5856374  56.9867725 114.5152964  24.7409554
  56.4421193 115.2912772  24.8729829  57.8647075 114.8623769  24.5828676
  63.7755342 107.8464548  17.1190353  63.8971253 106.9181194  17.3181240
  63.4857384 107.8603234  16.2068668  66.6446532 105.5319458  20.2557073
  66.6668229 105.5958792  19.3009052  67.0614591 104.6923967  20.4497579
  57.7733747 113.6422860  27.6339711  57.0315483 113.7905496  28.2204342
  57.4526491 113.9031126  26.7706461  65.7177409 123.1838839  27.4320101
  66.0264536 122.9387985  28.3042801  66.5152891 123.3885477  26.9438971
  56.4198965 119.4474616  20.6239039  55.5830874 119.0196790  20.4423041
  56.3922611 119.6407059  21.5609831  63.2596421 109.3596545  31.3280285
  63.3084577 110.2358668  30.9458055  63.8018935 108.8173938  30.7551929
  73.7451267 119.9037669  30.6081422  72.9546810 119.8861808  30.0685922
  73.5084621 120.4425962  31.3630459  73.8649142 116.7530135  27.9214151
  73.9147147 116.5880142  28.8629674  73.7563065 115.8857394  27.5312032
  71.1552904 112.7361063  29.2373458  72.0562767 112.5967528  28.9457456
  71.2300879 112.9015518  30.1771635  65.4895710 110.1127918  28.0826644
  64.6199019 110.4061484  27.8109233  65.7255190 110.6968363  28.8033908
  75.3667339 119.1727077  28.1656173  75.0752147 119.5357057  29.0019634
  74.7539470 118.4594085  27.9869505  73.6154527 114.2959691  26.6336231
  74.0908648 114.4887337  25.8255082  72.6920092 114.3518877  26.3879614
  68.1934743 106.3307535  25.5992064  68.7116687 107.0668562  25.2738553
  67.8389876 106.6371528  26.4338824  68.4447338 102.7507817  21.1192961
  68.7249091 102.0831006  21.7453388  69.2297944 102.9436913  20.6067625
  72.3156196 111.1725451  24.8664536  73.2673619 111.2723549  24.8876760
  72.1459646 110.3803720  25.3762621  70.3370575 108.2581034  25.0523937
  69.7420507 108.5386047  24.3570426  70.0520272 108.7474935  25.8240678
  74.9438762 111.1842614  24.0265119  74.4277811 110.4001071  23.8395048
  75.8278711 110.8561331  24.1911638  72.6049489 104.9283630  19.9860932
  72.4074310 104.6198718  20.8704264  73.2149195 105.6545269  20.1158862
  66.5166297 117.3145370  31.4834697  67.4369307 117.4923969  31.6774743
  66.4815880 116.3701415  31.3314396  55.7348462 112.5083964  20.4087971
  55.4151246 111.6549272  20.1162345  55.1881890 112.7232542  21.1645939
  59.5128370 115.2246405  24.1257478  59.7314379 116.1563513  24.1445512
  59.9254143 114.8654379  24.9112282  66.4332587 105.7314490  16.1133166
  65.6233316 105.3861575  16.4888412  67.1217004 105.4222034  16.7020778
  68.3623136 104.8092537  17.7357463  68.9154174 105.2287990  18.3947486
  68.5993222 103.8828285  17.7780419  64.3856235 110.7979610  33.5160227
  64.2852962 111.7473967  33.4472318  64.1677777 110.4697849  32.6436297
  55.6036722 116.1286875  22.3781093  54.9100194 115.7140828  21.8651047
  56.3509713 116.1707412  21.7814512  70.1905509 106.3198120  19.4457448
  70.6905288 106.4314654  18.6371766  70.8341117 106.0159173  20.0858256
  64.2487505 114.2276749  32.3325289  63.7654587 115.0277109  32.5389178
  64.3348444 114.2384694  31.3792733  57.5173465 116.0605129  20.2547108
  57.4944153 116.1592816  19.3028991  57.8274101 116.9070280  20.5764274
  60.1760842 118.1181284  24.3693722  61.1304096 118.0865226  24.3023654
  59.9773366 117.6571908  25.1843948  60.7660225 116.6882400  26.9364520
  61.5853114 117.1826479  26.9599357  61.0397032 115.7714368  26.9082088
  56.0195139 111.0220534  27.6356717  56.6654002 110.5119488  28.1243942
  55.8112290 111.7589216  28.2100142  68.5448531 118.0901381  33.1348858
  69.4139691 118.2642034  32.7735493  68.0655283 118.9095798  33.0124587
  62.7134711 125.2098482  24.8138291  63.6161958 125.2422093  25.1304786
  62.4872081 124.2798933  24.8284627  68.3550869 101.8803355  17.6426550
  67.5883265 101.3261842  17.7883232  68.7661574 101.9525224  18.5040702
  60.3592630 108.1688151  31.7331731  61.2224091 107.8124956  31.9435056
  59.7858041 107.8302046  32.4207136  72.9174131 121.5768868  32.7261703
  72.5241076 121.0235066  33.4009347  73.7340271 121.8879446  33.1168220
  75.8342092 122.9926747  30.3181959  76.5751805 123.5933900  30.2386422
  76.0660014 122.2504385  29.7600002  70.8622118 125.3670557  29.6666366
  71.4894157 124.9847634  30.2803890  70.0050037 125.1484759  30.0322058
  74.0990176 124.6888463  31.3280285  74.1478331 125.5650586  30.9458055
  74.6412690 124.1465856  30.7551929  75.2249989 126.1271528  33.5160227
  75.1246716 127.0765885  33.4472318  75.0071531 125.7989767  32.6436297
  66.8588893 126.3512452  27.6356717  67.5047757 125.8411406  28.1243942
  66.6506044 127.0881133  28.2100142  71.1986384 123.4980069  31.7331731
  72.0617846 123.1416874  31.9435056  70.6251795 123.1593964  32.4207136
  28.5795782  36.4321149  15.4201598  28.5208328  35.7480369  14.7532181
  28.9815300  37.1740139  14.9682224  27.0647456  36.1336066  17.9965408
  27.6087360  36.7466025  17.5020363  26.4834301  36.6915645  18.5132421
  30.3876250  35.5932121  17.3326729  29.5971794  35.5756259  16.7931229
  30.1509605  36.1320414  18.0875766  32.0092322  34.8621528  14.8901479
  31.7177130  35.2251509  15.7264940  31.3964453  34.1488537  14.7114811
  25.1873514  33.7795833  19.8594164  26.0564674  33.9536486  19.4980799
  24.7080266  34.5990250  19.7369894  36.8465990  45.4884459   9.2639439
  37.4844400  45.3691207   8.5602779  36.7286833  46.4365303   9.3227391
  33.6555696  45.4411887   9.2000964  33.3174208  45.3252952   8.3121499
  34.5245465  45.0403052   9.1801970  34.1375479  46.5946739  15.1587169
  34.1264120  46.1999537  14.2867673  34.2996119  45.8612812  15.7520941
  27.0606944  48.7898555   8.0282075  27.8528236  48.4489380   7.6128374
  27.3003594  48.8993530   8.9484228  30.8582740  49.3783851  14.1066353
  30.5672606  50.2829482  13.9913019  31.4939725  49.4200378  14.8210423
  31.7838947  46.7560699  10.6967713  32.3802520  46.5316722   9.9824676
  31.8413919  46.0145445  11.2993161  41.8015686  43.1511146   7.2425626
  42.5340858  42.5810363   7.4763455  41.0455041  42.7632747   7.6832131
  39.3241106  36.8632720  11.7020234  38.9924431  37.7328131  11.4781449
  38.7286719  36.5469004  12.3814264  35.8172626  49.0645266  11.1016147
  35.5173349  49.9670305  10.9931954  35.4723685  48.7977450  11.9537300
  39.2169769  41.5827807   8.7813584  38.3086647  41.5143215   8.4872345
  39.1657365  42.0599752   9.6095410  30.7993405  55.8289587   4.0687115
  30.7217435  56.7797412   4.1475595  30.1955049  55.4835459   4.7262041
  33.2910635  43.0017452  16.7248481  32.5143969  43.5611372  16.7151346
  33.9301198  43.4874235  17.2463352  41.0831416  39.7844245  10.5591458
  40.4405796  40.0776778   9.9131253  40.5786344  39.6697165  11.3644655
  31.5457007  45.8102906  16.2866448  32.2871692  46.3487949  16.0101272
  30.8393993  46.4369194  16.4438000  37.0212347  47.9532046  14.8838610
  37.4295703  47.5114457  14.1393242  36.2989609  47.3784674  15.1372803
  33.3743417  42.8904653  12.2572167  34.2204612  43.3144066  12.4006816
  33.3142055  42.2338277  12.9510730  37.3441162  48.5133237   8.6390899
  36.7150024  48.6778951   7.9366967  36.9566824  48.9274846   9.4101863
  41.2230394  49.4487674   5.9935263  40.5381432  49.8286576   5.4432296
  41.3074243  50.0583001   6.7267210  36.5242862  40.5509021  13.9153341
  36.2803794  41.3051082  13.3787616  36.8002793  40.9294369  14.7500588
  38.4781325  47.0947633  12.5930606  38.6898220  47.7379393  11.9164987
  38.4311073  46.2609950  12.1252536  29.7893205  47.7979126   8.8420747
  30.3594562  48.2266395   8.2038232  30.3801317  47.5161711   9.5404933
  30.2818371  42.9642554  17.0881758  29.6517032  43.6458835  17.3217155
  30.1754459  42.8525635  16.1434897  39.5927153  49.9719589  10.7652963
  40.4144597  49.5699776  10.4835645  39.5889556  49.8687823  11.7169079
  33.3583757  49.5203632  12.9213674  33.4228189  49.9824039  13.7571846
  32.6494681  48.8900997  13.0495984  47.6833146  46.3158337   7.1137935
  46.9296855  45.7465735   6.9581939  47.8180687  46.2821002   8.0608570
  29.5599114  37.2663320  19.4507009  29.1666059  36.7129518  20.1254654
  30.3765254  37.5773898  19.8413527  32.4767075  38.6821199  17.0427266
  33.2176788  39.2828352  16.9631729  32.7084998  37.9398836  16.4845309
  27.6208413  43.8677566  15.3205496  27.5061928  42.9662823  15.6212595
  26.7652931  44.1141263  14.9690312  34.7000251  51.8095306  16.9192996
  34.2564105  51.0231685  16.6013901  35.3617464  51.9974457  16.2536887
  29.4587372  53.3391108  11.4453675  30.0094797  53.2108171  10.6730669
  28.6198848  53.6385997  11.0948568  36.7981489  52.0898106  14.9474398
  36.7799964  52.9106987  14.4554667  37.7201409  51.9652181  15.1724539
  33.2554543  49.6042236  15.7897906  33.7882880  48.8430524  15.5597214
  32.7268624  49.3115887  16.5322060  39.6000102  46.9277249   8.4183764
  38.9423776  47.6176510   8.5063893  40.4040501  47.3173681   8.7617751
  38.4105560  45.2821621   6.4687706  38.9237442  45.9151613   6.9709416
  39.0606784  44.6822817   6.1031066  34.8886391  42.7571077   8.7146047
  33.9708953  42.9786024   8.5567735  35.3046535  42.8317387   7.8557754
  39.1767357  50.2627623   4.5966849  38.7229684  49.4218533   4.6532039
  38.5461323  50.8989021   4.9341629  37.6200296  52.1004119   5.5316667
  37.9123270  52.6609177   4.8129032  38.1298916  52.3932680   6.2869826
  32.5833921  52.8784471   6.6210120  32.5410100  53.1045317   5.6918652
  33.4996620  52.6447845   6.7695921  36.0299555  43.3468538  13.5190749
  36.3848943  43.5740011  14.3785215  36.6771686  43.6786915  12.8968005
  41.7597292  46.4686974   4.2240078  41.6215190  46.6588570   3.2961267
  41.4033511  47.2306357   4.6808129  41.7866671  48.5363501   9.2351350
  42.2203178  48.4438790  10.0834404  42.4998252  48.5121001   8.5971366
  35.5194566  52.1365595  10.7684450  35.5731589  52.7056531  11.5362166
  34.6509348  52.3067480  10.4038487  28.3992960  41.8383151  12.2508902
  29.0716013  41.6300513  11.6021551  27.5722746  41.6405237  11.8114134
  42.6482221  48.5787202  11.7684235  42.8418111  49.4833012  12.0143510
  42.5482839  48.1194621  12.6022820  34.3018532  38.4645092  14.2674562
  33.6546447  39.1635042  14.1739039  35.0719547  38.8981236  14.6350811
  37.7097330  48.7293944  17.3425116  37.5582836  48.5004496  16.4255199
  37.7002009  49.6864546  17.3556461  34.4782666  46.3025857  12.3271382
  35.4074726  46.4537017  12.1540350  34.0573696  46.3909878  11.4720029
  33.2770998  50.3276522  10.0969920  33.1382084  49.9595306  10.9695858
  32.4885594  50.8424161   9.9253878  33.8719150  55.4285618   1.4395456
  34.0470905  54.9573661   2.2541079  33.1851938  56.0551384   1.6676717
  34.8276213  49.7058124   7.4858758  34.4926046  49.6658894   8.3816408
  34.3280159  49.0402840   7.0129168  28.8020457  45.1125754  13.0111339
  28.6640255  44.3805993  13.6122878  29.7125380  45.0234654  12.7295527
  31.4302758  44.8245714  12.4995018  32.1402376  44.1838906  12.4581637
  31.3872066  45.0758608  13.4221199  39.4189536  51.7613067  15.4201598
  39.3602082  51.0772287  14.7532181  39.8209055  52.5032057  14.9682224
  30.1431692  41.8110931  14.3190658  29.6069049  41.3601670  14.9712254
  29.5548400  41.9456840  13.5761122  28.4380235  58.5774981   8.2135317
  28.6776833  59.2093505   8.8914335  27.5949432  58.2263021   8.5000676
  39.4206944  49.7252651  13.6515577  38.5333722  49.3878573  13.7741976
  39.9905495  48.9935682  13.8884343  32.9508097  54.3854103  10.6176821
  32.8778268  55.1909075  11.1296125  32.5085490  54.5846069   9.7924842
  32.7397877  53.6225873   4.1279642  31.9565398  54.1647553   4.2217867
  33.4390622  54.1399853   4.5273883  43.9024284  45.1360868   8.4132139
  43.8914160  46.0185584   8.0426072  43.0341664  44.7832419   8.2186676
  35.4106780  54.2840937  12.7734979  36.1234753  54.9188402  12.7010881
  34.9196809  54.3804803  11.9574981  30.4618694  52.0335381  13.5940550
  31.1628153  52.6671864  13.7469944  29.9913809  52.3750112  12.8336189
  38.2619980  44.5879988  11.4193100  37.6091430  44.8355896  10.7645553
  38.6400360  43.7744126  11.0855578  35.2227154  54.6239681   5.5221271
  35.4049548  53.8061337   5.9849023  36.0460140  54.8407374   5.0846161
  35.5569319  53.5507866   2.7836319  36.0857086  53.0400321   2.1706481
  35.8197539  53.2350397   3.6481852  34.3107553  45.3299799  17.9059137
  33.6348190  45.2293929  18.5761513  35.1335187  45.1739013  18.3695135
  26.0586412  51.5671736  10.5271653  26.6439849  50.8215424  10.6599557
  25.8611251  51.8775692  11.4108317  28.9125067  54.6022983   5.5434095
  28.2435443  55.0869111   5.0598135  28.7737937  54.8492204   6.4577474
  33.0530336  56.6366727  12.1416753  33.6048644  56.7998348  12.9065839
  33.3936529  57.2271164  11.4696778  27.5047102  41.0565009  16.3911672
  28.1319140  40.6742086  17.0049197  26.6475020  40.8379211  16.7567365
  37.9041210  51.4627984  17.9965408  38.4481114  52.0757942  17.5020363
  37.3228055  52.0207563  18.5132421  36.1898723  54.5848702   9.1280436
  36.0649863  53.7838442   8.6191381  36.8477814  55.0794896   8.6394406
  38.2533632  52.3857722  10.7559986  37.3063967  52.2663073  10.6838312
  38.6016405  51.4980220  10.8386247  30.6133205  38.2751861  14.5798228
  31.1367607  38.5214158  15.3424537  30.3945538  39.1071896  14.1601365
  35.2580065  52.1810438   6.9564338  35.1105027  51.2527146   7.1371908
  36.0833558  52.2030529   6.4721413  38.8614187  53.0038997   8.0429211
  39.7860734  52.7981859   7.9053662  38.6929490  52.7555398   8.9518552
  31.8185750  39.2165556  12.2647898  31.4782570  38.4173369  12.6668578
  31.1124756  39.5167267  11.6924731  33.7063314  40.4173878  10.6201217
  33.4481092  41.3390948  10.6185547  33.1748355  40.0204312  11.3101681
  38.6509503  53.5224665   3.3991302  38.8246380  52.9571087   2.6465155
  39.1438394  54.3225560   3.2170792  24.4686463  45.5339334  11.4654861
  23.9239931  46.3099142  11.5975135  25.3465813  45.8810138  11.3073982
  44.5048894  46.2861088   5.0181602  44.9480040  45.5368413   4.6200725
  43.6275404  46.2771224   4.6355334  39.6384675  52.8391429   0.4988200
  40.3335580  53.4598122   0.7175515  39.9807826  51.9886780   0.7740578
  25.2552485  44.6609230  14.3585018  24.5134221  44.8091865  14.9449648
  24.9345229  44.9217496  13.4951767  41.5376098  50.2891135   2.0275531
  42.0627423  50.6278407   1.3024851  41.4498451  49.3538150   1.8438666
  33.1996147  54.2025208  14.1565408  33.5083274  53.9574355  15.0288107
  33.9971629  54.4071847  13.6684278  33.2216759  56.3563118   6.3870784
  32.7821750  55.8639497   7.0803641  33.9724876  55.8136086   6.1462860
  25.7009098  52.5474659   6.3895412  26.5267118  52.2478431   6.0094056
  25.3503150  51.7782281   6.8385201  30.6690631  51.9001127   8.4593086
  30.0470641  51.2371832   8.1595314  31.3395498  51.9262259   7.7766734
  30.7415159  40.3782915  18.0525592  30.7903314  41.2545038  17.6703362
  31.2837673  39.8360308  17.4797235  41.2270005  50.9224038  17.3326729
  40.4365548  50.9048177  16.7931229  40.9903359  51.4612332  18.0875766
  41.3467880  47.7716505  14.6459458  41.3965885  47.6066512  15.5874980
  41.2381803  46.9043764  14.2557338  38.6371642  43.7547433  15.9618764
  39.5381505  43.6153897  15.6702762  38.7119617  43.9201887  16.9016942
  32.9714447  41.1314287  14.8071951  32.1017757  41.4247853  14.5354539
  33.2073928  41.7154732  15.5279214  42.8486076  50.1913446  14.8901479
  42.5570885  50.5543427  15.7264940  42.2358208  49.4780454  14.7114811
  44.0481759  47.7566326   7.4104049  44.8828650  48.1956130   7.5741610
  44.1840888  47.2804979   6.5912295  41.0973265  45.3146061  13.3581537
  41.5727386  45.5073707  12.5500389  40.1738830  45.3705247  13.1124921
  35.6753481  37.3493904  12.3237371  36.1935425  38.0854931  11.9983860
  35.3208614  37.6557898  13.1584130  39.7974934  42.1911821  11.5909843
  40.7492357  42.2909918  11.6122067  39.6278384  41.3990089  12.1007927
  37.8189313  39.2767404  11.7769244  37.2239245  39.5572417  11.0815732
  37.5339010  39.7661305  12.5485985  42.2763011  45.4117941  10.7052142
  42.2439332  44.4733941  10.8911826  42.8863635  45.4901977   9.9717967
  42.4257500  42.2028984  10.7510426  41.9096549  41.4187441  10.5640354
  43.3097448  41.8747701  10.9156945  48.0939561  46.4733947   9.8458179
  48.8242950  46.2119235  10.4065883  47.4846507  45.7362669   9.8860247
  46.1754858  44.6141810  10.4432630  45.4488022  44.4797775   9.8349122
  45.7602145  44.9218639  11.2489348  33.9985035  48.3331740  18.2080003
  34.9188044  48.5110339  18.4020050  33.9634618  47.3887785  18.0559703
  26.9947107  46.2432774  10.8502785  27.2133117  47.1749882  10.8690818
  27.4072881  45.8840749  11.6357588  31.8674973  41.8165980  20.2405534
  31.7671700  42.7660337  20.1717625  31.6496515  41.4884219  19.3681604
  31.7306243  45.2463119  19.0570595  31.2473324  46.0463479  19.2634484
  31.8167182  45.2571064  18.1038039  27.6579580  49.1367654  11.0939029
  28.6122834  49.1051596  11.0268961  27.4592104  48.6758277  11.9089255
  28.2478962  47.7068770  13.6609827  29.0671851  48.2012848  13.6844664
  28.5215770  46.7900738  13.6327394  43.7932653  40.8353662   7.7966062
  44.3877144  40.5949398   7.0859370  43.8659237  40.1160793   8.4239598
  26.0129809  54.6787273   8.1109227  25.8784277  53.9187674   7.5447225
  25.5961871  55.4028173   7.6438016  46.1003726  44.1419863   6.5709483
  45.5403284  44.2113052   7.3441045  45.4947229  43.9660848   5.8508979
  29.1698935  55.5756590   8.3227670  29.0531319  56.5202023   8.2206360
  28.3491381  55.2730152   8.7113469  23.5013877  42.0406904  14.3602024
  24.1472740  41.5305857  14.8489249  23.2931028  42.7775585  14.9345449
  36.0267269  49.1087751  19.8594164  36.8958428  49.2828403  19.4980799
  35.5474020  49.9282168  19.7369894  30.1953449  56.2284852  11.5383598
  31.0980696  56.2608462  11.8550093  29.9690819  55.2985303  11.5529934
  31.9507051  54.9815839   8.1993677  31.0002682  54.9817700   8.0858049
  32.2539537  54.2348573   7.6829711  27.8411368  39.1874521  18.4577038
  28.7042829  38.8311325  18.6680363  27.2676778  38.8488415  19.1452442
  47.6859745  60.8176377   9.2639439  48.3238155  60.6983124   8.5602779
  47.5680587  61.7657221   9.3227391  44.4949451  60.7703805   9.2000964
  44.1567962  60.6544870   8.3121499  45.3639219  60.3694970   9.1801970
  40.3536267  62.6239281   5.1897855  39.7901132  62.5329218   4.4214142
  40.2388662  61.8039186   5.6700347  44.9769234  61.9238657  15.1587169
  44.9657875  61.5291455  14.2867673  45.1389873  61.1904729  15.7520941
  37.9000698  64.1190473   8.0282075  38.6921990  63.7781298   7.6128374
  38.1397349  64.2285448   8.9484228  45.9335825  66.2910249   0.5012319
  45.2823805  66.8764330   0.1146333  46.7280188  66.8216444   0.5607357
  39.8591452  63.3799386   0.8999454  40.6322328  62.8328373   0.7612330
  40.2116851  64.2443636   1.1113915  41.6976495  64.7075769  14.1066353
  41.4066361  65.6121399  13.9913019  42.3333479  64.7492296  14.8210423
  42.6232702  62.0852617  10.6967713  43.2196274  61.8608639   9.9824676
  42.6807673  61.3437363  11.2993161  42.1957730  59.5392052  -1.4682096
  42.4483251  59.0173574  -2.2298633  41.2582289  59.3758198  -1.3655413
  47.2401013  58.5427831   6.3392647  48.0264102  58.1247254   5.9883064
  47.5039717  59.4473923   6.5074295  47.4111090  63.9800681   1.0381304
  46.7756923  64.0535308   1.7502208  47.0808497  64.5694280   0.3600383
  52.6409440  58.4803064   7.2425626  53.3734612  57.9102281   7.4763455
  51.8848796  58.0924664   7.6832131  41.9154019  61.4420158   0.7342279
  41.7990277  60.7665062   1.4023363  42.0256279  60.9552532  -0.0825568
  44.2585560  60.9030305   4.4388968  43.8943767  60.3760926   5.1501889
  45.1152676  60.5128775   4.2655453  50.1634861  52.1924638  11.7020234
  49.8318185  53.0620049  11.4781449  49.5680474  51.8760922  12.3814264
  43.8991047  55.9320205  -0.5649684  44.0665449  56.8000442  -0.1979212
  43.7088216  56.0947487  -1.4888394  46.6566380  64.3937184  11.1016147
  46.3567103  65.2962223  10.9931954  46.3117440  64.1269367  11.9537300
  40.1078862  60.8450981   7.1352851  39.1829358  60.7127195   7.3430543
  40.3563275  61.6245200   7.6322794  50.0563524  56.9119724   8.7813584
  49.1480401  56.8435133   8.4872345  50.0051120  57.3891669   9.6095410
  43.8780268  58.3877863   0.4196983  43.7579893  58.8334913   1.2582464
  43.1832856  58.7363180  -0.1389479  37.4687673  60.4884254   7.9696640
  37.5980054  60.7418733   8.8836052  36.7885124  61.0811962   7.6501295
  41.6387160  71.1581504   4.0687115  41.5611190  72.1089330   4.1475595
  41.0348803  70.8127377   4.7262041  44.1304390  58.3309370  16.7248481
  43.3537724  58.8903290  16.7151346  44.7694953  58.8166153  17.2463352
  51.9225170  55.1136163  10.5591458  51.2799550  55.4068696   9.9131253
  51.4180099  54.9989083  11.3644655  49.5765334  58.8599336   1.2477317
  50.4883190  59.0926723   1.0725015  49.0674981  59.4436380   0.6852396
  42.3850762  61.1394823  16.2866448  43.1265446  61.6779867  16.0101272
  41.6787747  61.7661112  16.4438000  47.8606102  63.2823964  14.8838610
  48.2689458  62.8406374  14.1393242  47.1383363  62.7076591  15.1372803
  44.2137172  58.2196570  12.2572167  45.0598367  58.6435984  12.4006816
  44.1535809  57.5630195  12.9510730  48.1834916  63.8425154   8.6390899
  47.5543779  64.0070868   7.9366967  47.7960578  64.2566764   9.4101863
  52.0624148  64.7779592   5.9935263  51.3775186  65.1578494   5.4432296
  52.1467997  65.3874919   6.7267210  47.3636617  55.8800939  13.9153341
  47.1197549  56.6342999  13.3787616  47.6396547  56.2586286  14.7500588
  49.3175080  62.4239551  12.5930606  49.5291975  63.0671311  11.9164987
  49.2704828  61.5901868  12.1252536  46.9201309  55.0357372   9.4967178
  46.0585788  55.3338625   9.7883916  46.9463743  55.2527771   8.5648211
  43.7362878  63.5799562   5.9040984  44.2001224  63.8587265   5.1145606
  43.4719676  62.6783007   5.7214075  40.6286959  63.1271044   8.8420747
  41.1988316  63.5558312   8.2038232  41.2195071  62.8453629   9.5404933
  42.6731764  59.7022715   2.7130549  43.3755807  60.1543758   3.1804475
  42.3412393  59.0606534   3.3410442  41.1212126  58.2934471  17.0881758
  40.4910786  58.9750752  17.3217155  41.0148214  58.1817553  16.1434897
  36.4157098  57.9606267   8.0147683  35.6256152  58.2163796   7.5387793
  36.9068345  58.7754605   8.1199723  50.4320908  65.3011507  10.7652963
  51.2538351  64.8991694  10.4835645  50.4283311  65.1979741  11.7169079
  38.3671843  58.3250847   4.9731159  37.5703007  58.4369541   5.4914655
  38.1397436  58.6637499   4.1072050  44.1977511  64.8495550  12.9213674
  44.2621944  65.3115957  13.7571846  43.4888435  64.2192915  13.0495984
  34.6994801  58.2136758  10.4462673  34.9502840  59.0983768  10.7120249
  35.2354349  58.0341359   9.6737765  58.5226901  61.6450255   7.1137935
  57.7690609  61.0757653   6.9581939  58.6574442  61.6112920   8.0608570
  43.9125529  66.5163657   2.7892654  43.7771204  67.3615193   3.2177502
  44.4535341  66.7182935   2.0258588  40.3992868  52.5955237  19.4507009
  40.0059814  52.0421436  20.1254654  41.2159009  52.9065816  19.8413527
  37.3654926  64.0339095   3.3620579  37.8779447  64.8282346   3.5126144
  38.0177639  63.3365386   3.2954181  39.1749811  67.1504852   5.4443333
  39.3516439  68.0722816   5.2564316  39.9706644  66.8363271   5.8737712
  43.3160829  54.0113116  17.0427266  44.0570543  54.6120269  16.9631729
  43.5478752  53.2690754  16.4845309  38.4602167  59.1969484  15.3205496
  38.3455683  58.2954741  15.6212595  37.6046685  59.4433180  14.9690312
  45.5394005  67.1387224  16.9192996  45.0957859  66.3523602  16.6013901
  46.2011219  67.3266374  16.2536887  40.2981126  68.6683025  11.4453675
  40.8488551  68.5400089  10.6730669  39.4592602  68.9677914  11.0948568
  47.6375243  67.4190024  14.9474398  47.6193719  68.2398905  14.4554667
  48.5595163  67.2944099  15.1724539  44.0948297  64.9334153  15.7897906
  44.6276634  64.1722441  15.5597214  43.5662378  64.6407805  16.5322060
  47.2617992  50.0394219  11.3191548  46.9182262  50.9295861  11.2430658
  47.6296955  49.8495877  10.4561133  35.3303843  62.3627750   4.1380150
  36.1679065  62.7724758   3.9213858  35.5082111  61.4227192   4.1080344
  47.2268275  60.0302830  -0.1736017  46.7114898  60.8007435   0.0652370
  46.9545584  59.3567967   0.4497044  44.8115386  54.8752531   4.8849221
  43.9556982  54.4859382   4.7054860  45.2242338  54.9544492   4.0249007
  46.3414533  52.4098874   9.2840781  45.8379328  52.3729010   8.4708586
  46.6345140  53.3191617   9.3437438  42.5857419  52.4937604   8.2906963
  43.4510415  52.2980413   7.9312852  42.6534928  52.2647956   9.2176319
  52.2002549  62.7835185   1.7617156  51.4231992  62.4446345   1.3172318
  52.8794030  62.7887808   1.0872121  47.0154578  57.9029922   1.6523764
  46.7104714  58.2176072   2.5033907  47.9685020  57.9811342   1.6951097
  45.4601010  64.0620146   3.3016718  44.9322372  63.3272905   2.9889955
  44.9588513  64.8394822   3.0556686  50.4393856  62.2569166   8.4183764
  49.7817531  62.9468428   8.5063893  51.2434255  62.6465598   8.7617751
  40.1919738  54.7239812   5.6623330  40.7663490  54.5014994   4.9296522
  40.7790720  54.7928507   6.4151931  49.2499315  60.6113539   6.4687706
  49.7631197  61.2443531   6.9709416  49.9000539  60.0114734   6.1031066
  40.5189325  56.7544273  -0.3180785  39.6826637  57.0918960   0.0028490
  40.3794094  56.6193253  -1.2553648  42.4942405  51.5981061   4.3898399
  41.8406818  51.2830078   3.7655014  42.4522880  50.9756801   5.1158222
  43.6053610  61.8800356  -3.6948309  42.6980672  61.6489609  -3.4957160
  44.1024642  61.0837975  -3.5074327  46.5121689  70.5897863  -0.7751623
  45.8383388  70.8929560  -0.1666665  46.8987511  71.3926944  -1.1246166
  45.7280146  58.0862995   8.7146047  44.8102707  58.3077942   8.5567735
  46.1440289  58.1609305   7.8557754  46.5115194  59.4854410   3.8448727
  47.2587012  59.9975807   3.5355849  46.7806783  59.1638463   4.7053120
  44.7841844  61.9812951   0.8275681  43.8753063  61.6971984   0.9248151
  44.8136928  62.4012029  -0.0321012  50.0161111  65.5919540   4.5966849
  49.5623438  64.7510450   4.6532039  49.3855078  66.2280939   4.9341629
  48.9594031  56.5211526   5.8267516  48.2216787  56.0088913   6.1577759
  49.2120804  56.0811908   5.0150793  48.4594050  67.4296037   5.5316667
  48.7517025  67.9901094   4.8129032  48.9692671  67.7224598   6.2869826
  49.0605658  49.2987778   6.4209285  49.3664535  48.4385142   6.1335200
  49.7858263  49.8905399   6.2208279  35.3530014  59.7018465   4.8090883
  35.1554414  59.1087826   4.0841950  34.7976678  59.3970675   5.5266822
  43.3326738  59.5941572   6.9285476  43.3875348  58.6415408   6.8527953
  42.5217940  59.7501011   7.4126775  44.4817932  63.5221695  -1.8336240
  44.0437361  62.8057554  -2.2930603  45.2228372  63.7497809  -2.3951149
  41.2719098  58.2118631   4.6875855  40.4586963  58.5112802   5.0941047
  41.7678092  57.8174320   5.4050338  43.4227676  68.2076388   6.6210120
  43.3803854  68.4337234   5.6918652  44.3390374  67.9739763   6.7695921
  46.8693309  58.6760456  13.5190749  47.2242697  58.9031929  14.3785215
  47.5165441  59.0078833  12.8968005  52.5991046  61.7978892   4.2240078
  52.4608945  61.9880488   3.2961267  52.2427265  62.5598274   4.6808129
  40.7633172  55.7836987  10.3037090  41.4032552  55.6425746   9.6060054
  39.9310703  55.4971500   9.9275692  52.6260426  63.8655419   9.2351350
  53.0596933  63.7730708  10.0834404  53.3392007  63.8412919   8.5971366
  41.5393476  65.0839417   6.4172083  42.3334075  64.5889737   6.2154658
  40.8285169  64.5557280   6.0539788  46.3588321  67.4657513  10.7684450
  46.4125343  68.0348449  11.5362166  45.4903102  67.6359398  10.4038487
  37.8476240  59.2282499   2.4931835  36.9173828  59.1666954   2.7101798
  37.9433712  58.7058452   1.6968477  37.7661789  55.7537312   5.0810077
  38.0268606  56.6682645   4.9719238  38.5878961  55.2861754   5.2306690
  39.2386714  57.1675069  12.2508902  39.9109768  56.9592431  11.6021551
  38.4116501  56.9697155  11.8114134  53.4875975  63.9079119  11.7684235
  53.6811866  64.8124930  12.0143510  53.3876594  63.4486538  12.6022820
  45.1412286  53.7937010  14.2674562  44.4940201  54.4926960  14.1739039
  45.9113302  54.2273154  14.6350811  48.5491084  64.0585862  17.3425116
  48.3976591  63.8296414  16.4255199  48.5395764  65.0156463  17.3556461
  45.3176421  61.6317775  12.3271382  46.2468481  61.7828934  12.1540350
  44.8967451  61.7201796  11.4720029  44.1164752  65.6568439  10.0969920
  43.9775838  65.2887224  10.9695858  43.3279349  66.1716079   9.9253878
  44.7112904  70.7577536   1.4395456  44.8864660  70.2865579   2.2541079
  44.0245692  71.3843302   1.6676717  45.6669967  65.0350042   7.4858758
  45.3319800  64.9950812   8.3816408  45.1673913  64.3694758   7.0129168
  39.6414211  60.4417672  13.0111339  39.5034009  59.7097911  13.6122878
  40.5519135  60.3526572  12.7295527  48.6029159  62.3806076  -2.2404183
  47.9858330  61.6552904  -2.3371130  48.1345648  63.1415437  -2.5837108
  42.2696512  60.1537631  12.4995018  42.9796131  59.5130823  12.4581637
  42.2265820  60.4050526  13.4221199  50.2583291  67.0904985  15.4201598
  50.1995837  66.4064205  14.7532181  50.6602809  67.8323975  14.9682224
  40.9825446  57.1402849  14.3190658  40.4462803  56.6893588  14.9712254
  40.3942155  57.2748758  13.5761122  39.2773990  73.9066898   8.2135317
  39.5170588  74.5385423   8.8914335  38.4343186  73.5554938   8.5000676
  50.2600698  65.0544569  13.6515577  49.3727477  64.7170490  13.7741976
  50.8299249  64.3227600  13.8884343  31.9129845  61.3868660   6.9758629
  32.6000885  61.0730390   6.3879644  31.7577974  62.2910025   6.7025880
  36.7164567  56.2758857  11.4043652  36.6322756  55.6684526  10.6694062
  35.8947274  56.7667875  11.4053149  43.7901851  69.7146021  10.6176821
  43.7172023  70.5200992  11.1296125  43.3479245  69.9137987   9.7924842
  43.5791631  68.9517791   4.1279642  42.7959153  69.4939471   4.2217867
  44.2784376  69.4691771   4.5273883  46.8888281  54.7612420   6.7713847
  47.3856981  54.0082383   6.4514918  46.1175263  54.7976737   6.2057057
  54.7418039  60.4652786   8.4132139  54.7307915  61.3477501   8.0426072
  53.8735418  60.1124337   8.2186676  46.2500535  69.6132855  12.7734979
  46.9628507  70.2480320  12.7010881  45.7590564  69.7096721  11.9574981
  47.9718062  63.5184108   4.3452271  47.0374341  63.6385570   4.1756975
  48.1494730  62.6156574   4.0812281  43.4723250  56.9029803   6.4985532
  43.1021037  56.3500844   7.1866438  43.9682342  56.2987937   5.9460532
  51.3590613  59.3601427   4.8802305  51.8251065  60.1929418   4.8062608
  51.8098114  58.8946408   5.5847563  41.3012448  67.3627298  13.5940550
  42.0021908  67.9963781  13.7469944  40.8307563  67.7042030  12.8336189
  49.4266844  65.7045248   1.8788457  49.7026688  65.5901843   2.7882331
  48.5571343  65.3062733   1.8400630  49.3307276  51.7282014   8.9193206
  48.4170356  51.9586241   9.0875413  49.7600377  51.8120458   9.7707239
  49.1013734  59.9171906  11.4193100  48.4485185  60.1647813  10.7645553
  49.4794114  59.1036044  11.0855578  46.0620908  69.9531599   5.5221271
  46.2443303  69.1353255   5.9849023  46.8853894  70.1699291   5.0846161
  46.3963074  68.8799784   2.7836319  46.9250840  68.3692239   2.1706481
  46.6591293  68.5642314   3.6481852  45.1501307  60.6591717  17.9059137
  44.4741945  60.5585846  18.5761513  45.9728941  60.5030931  18.3695135
  36.8980167  66.8963653  10.5271653  37.4833603  66.1507341  10.6599557
  36.7005005  67.2067610  11.4108317  39.7518822  69.9314901   5.5434095
  39.0829197  70.4161028   5.0598135  39.6131691  70.1784121   6.4577474
  31.4897821  59.4669254   9.2476096  31.5281921  58.9332844  10.0413214
  30.9838114  58.9404459   8.6287073  43.8924090  71.9658644  12.1416753
  44.4442398  72.1290266  12.9065839  44.2330284  72.5563082  11.4696778
  38.8688584  54.3133794  12.7438638  38.9329910  55.1748625  12.3316036
  38.8055704  53.7007796  12.0110997  38.3440856  56.3856927  16.3911672
  38.9712895  56.0034004  17.0049197  37.4868775  56.1671129  16.7567365
  48.7434965  66.7919902  17.9965408  49.2874869  67.4049860  17.5020363
  48.1621810  67.3499480  18.5132421  35.1206399  58.1933356   2.3230027
  35.4159840  57.2844034   2.2697081  34.2194435  58.1721095   2.0011030
  47.0292478  69.9140620   9.1280436  46.9043617  69.1130360   8.6191381
  47.6871569  70.4086813   8.6394406  38.6500646  56.2689352   8.3057576
  37.9287232  56.8825320   8.1665049  39.4393902  56.8047117   8.2274222
  49.0927386  67.7149640  10.7559986  48.1457722  67.5954991  10.6838312
  49.4410159  66.8272138  10.8386247  41.4526959  53.6043779  14.5798228
  41.9761361  53.8506075  15.3424537  41.2339293  54.4363814  14.1601365
  36.8494240  55.8747453   2.4469352  36.5206947  54.9944832   2.2644458
  37.2033611  55.8195122   3.3345742  46.0973819  67.5102356   6.9564338
  45.9498782  66.5819064   7.1371908  46.9227313  67.5322447   6.4721413
  39.9636064  56.1620423   2.8144830  40.3032136  56.6906344   2.0923438
  40.4108184  56.5000829   3.5903397  49.7007941  68.3330915   8.0429211
  50.6254489  68.1273776   7.9053662  49.5323245  68.0847316   8.9518552
  42.6579504  54.5457474  12.2647898  42.3176325  53.7465287  12.6668578
  41.9518511  54.8459185  11.6924731  43.3095976  51.6306786  10.7175221
  44.1322046  51.1567265  10.5954111  43.5534040  52.4097270  11.2173907
  41.9504211  54.6595045   1.0138123  42.6712573  55.0376298   0.5101840
  41.3269515  55.3783922   1.1173101  46.0935334  55.3640194   1.9496455
  46.3098948  56.2464832   1.6485283  45.6129401  54.9726407   1.2202097
  40.8334555  58.3225907   8.5267200  40.6879136  58.6366210   9.4191481
  40.3559759  58.9410807   7.9738098  42.6930938  55.3128455   8.5748089
  42.6792507  54.4169548   8.2380387  43.4103366  55.3199119   9.2086375
  44.5457069  55.7465795  10.6201217  44.2874846  56.6682866  10.6185547
  44.0142109  55.3496230  11.3101681  49.4903257  68.8516582   3.3991302
  49.6640135  68.2863005   2.6465155  49.9832149  69.6517477   3.2170792
  35.3080217  60.8631251  11.4654861  34.7633685  61.6391059  11.5975135
  36.1859567  61.2102056  11.3073982  42.0967834  54.1942835   3.8435659
  42.2183745  53.2659481   4.0426547  41.8069876  54.2081521   2.9313975
  44.9659024  51.8797746   6.9802379  44.9880721  51.9437079   6.0254359
  45.3827083  51.0402254   7.1742885  55.3442649  61.6153005   5.0181602
  55.7873795  60.8660330   4.6200725  54.4669159  61.6063142   4.6355334
  50.4778430  68.1683347   0.4988200  51.1729334  68.7890039   0.7175515
  50.8201580  67.3178698   0.7740578  36.0946239  59.9901148  14.3585018
  35.3527975  60.1383783  14.9449648  35.7738983  60.2509413  13.4951767
  52.3769853  65.6183052   2.0275531  52.9021177  65.9570325   1.3024851
  52.2892206  64.6830068   1.8438666  44.0389902  69.5317126  14.1565408
  44.3477028  69.2866273  15.0288107  44.8365384  69.7363764  13.6684278
  44.0610514  71.6855036   6.3870784  43.6215504  71.1931414   7.0803641
  44.8118631  71.1428003   6.1462860  36.5402853  67.8766576   6.3895412
  37.3660873  67.5770348   6.0094056  36.1896905  67.1074199   6.8385201
  41.5084386  67.2293045   8.4593086  40.8864395  66.5663750   8.1595314
  42.1789253  67.2554177   7.7766734  34.7411458  65.7952903   7.3484346
  33.9043366  65.3675077   7.1668347  34.7135103  65.9885346   8.2855137
  41.5808913  55.7074833  18.0525592  41.6297069  56.5836955  17.6703362
  42.1231428  55.1652226  17.4797235  52.0663759  66.2515956  17.3326729
  51.2759303  66.2340095  16.7931229  51.8297114  66.7904250  18.0875766
  52.1861634  63.1008422  14.6459458  52.2359639  62.9358430  15.5874980
  52.0775557  62.2335681  14.2557338  41.0697893  65.7796968   1.9351547
  41.2186013  66.4632432   1.2818219  41.8764336  65.7602058   2.4501002
  49.4765396  59.0839350  15.9618764  50.3775259  58.9445815  15.6702762
  49.5513371  59.2493805  16.9016942  43.8108202  56.4606205  14.8071951
  42.9411511  56.7539771  14.5354539  44.0467682  57.0446650  15.5279214
  53.6879831  65.5205364  14.8901479  53.3964639  65.8835344  15.7264940
  53.0751962  64.8072372  14.7114811  54.8875513  63.0858244   7.4104049
  55.7222405  63.5248048   7.5741610  55.0234642  62.6096897   6.5912295
  51.9367019  60.6437978  13.3581537  52.4121141  60.8365625  12.5500389
  51.0132585  60.6997164  13.1124921  38.8250526  61.8062146   2.9412615
  38.5796568  60.9024476   3.1392826  38.9946440  61.8079296   1.9992093
  46.5147236  52.6785822  12.3237371  47.0329180  53.4146849  11.9983860
  46.1602368  52.9849815  13.1584130  38.0946173  57.5390503   0.4398777
  37.4015418  57.6134858  -0.2161187  37.8497925  56.7750847   0.9620294
  46.7659830  49.0986105   7.8438268  47.0461584  48.4309294   8.4698694
  47.5510437  49.2915200   7.3312932  44.5693298  68.2745098  -0.5936706
  43.9967265  68.8935286  -1.0466234  45.1426092  68.8244460  -0.0596784
  50.6368688  57.5203739  11.5909843  51.5886111  57.6201836  11.6122067
  50.4672139  56.7282007  12.1007927  48.6583068  54.6059322  11.7769244
  48.0633000  54.8864334  11.0815732  48.3732764  55.0953223  12.5485985
  47.7890558  68.5582249   0.5371876  48.7221231  68.4927810   0.7404752
  47.7013771  69.3938515   0.0786409  50.4178575  67.8748119  -2.5024176
  50.3392206  67.5407982  -1.6088418  51.2388242  68.3669887  -2.5032704
  53.1156766  60.7409858  10.7052142  53.0833086  59.8025859  10.8911826
  53.7257390  60.8193895   9.9717967  44.9540097  59.6105911  -3.2520654
  45.8999202  59.4812119  -3.1832235  44.5754342  58.8720573  -2.7751225
  53.2651254  57.5320902  10.7510426  52.7490303  56.7479358  10.5640354
  54.1491203  57.2039618  10.9156945  50.9261981  51.2761917   6.7106238
  50.7286802  50.9677005   7.5949570  51.5361687  52.0023556   6.8404168
  58.9333316  61.8025865   9.8458179  59.6636704  61.5411153  10.4065883
  58.3240261  61.0654587   9.8860247  57.0148613  59.9433728  10.4432630
  56.2881777  59.8089693   9.8349122  56.5995900  60.2510556  11.2489348
  44.8378789  63.6623657  18.2080003  45.7581799  63.8402256  18.4020050
  44.8028372  62.7179703  18.0559703  34.0560954  58.8562251   7.1333278
  33.7363739  58.0027559   6.8407652  33.5094383  59.0710829   7.8891245
  37.8340862  61.5724692  10.8502785  38.0526872  62.5041800  10.8690818
  38.2466636  61.2132666  11.6357588  44.7545080  52.0792777   2.8378473
  43.9445808  51.7339862   3.2133719  45.4429497  51.7700321   3.4266085
  46.6835628  51.1570824   4.4602770  47.2366667  51.5766277   5.1192793
  46.9205714  50.2306572   4.5025726  42.7068727  57.1457898  20.2405534
  42.6065454  58.0952255  20.1717625  42.4890269  56.8176137  19.3681604
  33.9249214  62.4765162   9.1026400  33.2312686  62.0619115   8.5896354
  34.6722205  62.5185699   8.5059819  50.0614435  53.2671349   3.9681434
  49.4813104  53.9256153   3.5859486  49.7950368  52.4448694   3.5568851
  48.5118001  52.6676407   6.1702754  49.0117780  52.7792941   5.3617073
  49.1553609  52.3637460   6.8103563  42.5699997  60.5755037  19.0570595
  42.0867079  61.3755397  19.2634484  42.6560936  60.5862981  18.1038039
  35.8385957  62.4083416   6.9792415  35.8156645  62.5071104   6.0274298
  36.1486593  63.2548567   7.3009581  38.4973335  64.4659571  11.0939029
  39.4516588  64.4343514  11.0268961  38.2985858  64.0050195  11.9089255
  39.0872717  63.0360687  13.6609827  39.9065606  63.5304766  13.6844664
  39.3609525  62.1192655  13.6327394  48.8439313  55.4271440   3.0237782
  47.9565168  55.7121090   2.8057977  49.2593302  55.2665203   2.1765059
  52.1953849  55.4517961   6.7392121  52.9714239  55.9414413   7.0116738
  51.4701983  55.8776015   7.1963991  54.6326408  56.1645580   7.7966062
  55.2270899  55.9241316   7.0859370  54.7052992  55.4452710   8.4239598
  36.8523564  70.0079191   8.1109227  36.7178031  69.2479592   7.5447225
  36.4355626  70.7320091   7.6438016  47.9882527  65.1916114  -2.8814198
  48.6918377  65.3966117  -2.2656542  47.2645175  65.7592876  -2.6165114
  48.8180337  60.9425976   3.2388072  48.7615538  61.3994527   2.3995705
  49.3708679  60.1816660   3.0610915  52.6285143  56.7315707   4.0638192
  52.3722077  56.3312343   4.8946400  52.0038011  57.4459501   3.9388331
  56.9397481  59.4711781   6.5709483  56.3797039  59.5404970   7.3441045
  56.3340984  59.2952765   5.8508979  40.0092689  70.9048508   8.3227670
  39.8925074  71.8493940   8.2206360  39.1885136  70.6022069   8.7113469
  49.8969224  65.6298643  -0.8315738  50.7314828  65.1979842  -1.0138263
  49.7353567  65.4580657   0.0961157  49.5515116  62.1330757   0.5340602
  49.4963920  61.9675028  -0.4070954  48.9261171  62.8406790   0.6902791
  34.3407631  57.3698821  14.3602024  34.9866495  56.8597775  14.8489249
  34.1324782  58.1067503  14.9345449  46.8661023  64.4379669  19.8594164
  47.7352183  64.6120321  19.4980799  46.3867775  65.2574085  19.7369894
  42.8611242  51.6338866   0.1125920  42.8489911  52.5780706   0.2694191
  43.7534663  51.4509011  -0.1814619  41.0347204  71.5576770  11.5383598
  41.9374450  71.5900380  11.8550093  40.8084574  70.6277221  11.5529934
  42.7900806  70.3107756   8.1993677  41.8396437  70.3109618   8.0858049
  43.0933292  69.5640491   7.6829711  46.6763361  48.2281642   4.3671857
  45.9095757  47.6740129   4.5128539  47.0874066  48.3003511   5.2286008
  38.6805122  54.5166438  18.4577038  39.5436584  54.1603243  18.6680363
  38.1070533  54.1780333  19.1452442  58.5253499  76.1468295   9.2639439
  59.1631909  76.0275042   8.5602779  58.4074342  77.0949139   9.3227391
  55.3343205  76.0995723   9.2000964  54.9961717  75.9836787   8.3121499
  56.2032974  75.6986888   9.1801970  51.1930021  77.9531199   5.1897855
  50.6294886  77.8621136   4.4214142  51.0782416  77.1331104   5.6700347
  55.8162988  77.2530574  15.1587169  55.8051629  76.8583373  14.2867673
  55.9783628  76.5196647  15.7520941  48.7394453  79.4482391   8.0282075
  49.5315745  79.1073215   7.6128374  48.9791103  79.5577366   8.9484228
  56.7729580  81.6202167   0.5012319  56.1217560  82.2056247   0.1146333
  57.5673943  82.1508362   0.5607357  50.6985207  78.7091304   0.8999454
  51.4716083  78.1620291   0.7612330  51.0510606  79.5735553   1.1113915
  52.5370249  80.0367686  14.1066353  52.2460115  80.9413317  13.9913019
  53.1727234  80.0784214  14.8210423  53.4626456  77.4144535  10.6967713
  54.0590029  77.1900557   9.9824676  53.5201428  76.6729280  11.2993161
  53.0351485  74.8683970  -1.4682096  53.2877005  74.3465491  -2.2298633
  52.0976044  74.7050116  -1.3655413  58.0794768  73.8719748   6.3392647
  58.8657857  73.4539172   5.9883064  58.3433472  74.7765841   6.5074295
  58.2504845  79.3092599   1.0381304  57.6150678  79.3827225   1.7502208
  57.9202251  79.8986198   0.3600383  63.4803195  73.8094982   7.2425626
  64.2128367  73.2394198   7.4763455  62.7242550  73.4216582   7.6832131
  52.7547773  76.7712076   0.7342279  52.6384032  76.0956979   1.4023363
  52.8650033  76.2844450  -0.0825568  55.0979314  76.2322223   4.4388968
  54.7337522  75.7052844   5.1501889  55.9546430  75.8420692   4.2655453
  61.0028615  67.5216556  11.7020234  60.6711940  68.3911967  11.4781449
  60.4074228  67.2052840  12.3814264  54.7384801  71.2612123  -0.5649684
  54.9059204  72.1292359  -0.1979212  54.5481970  71.4239405  -1.4888394
  57.4960135  79.7229102  11.1016147  57.1960858  80.6254141  10.9931954
  57.1511194  79.4561285  11.9537300  50.9472616  76.1742899   7.1352851
  50.0223113  76.0419113   7.3430543  51.1957029  76.9537118   7.6322794
  60.8957278  72.2411642   8.7813584  59.9874156  72.1727050   8.4872345
  60.8444874  72.7183587   9.6095410  54.7174022  73.7169780   0.4196983
  54.5973647  74.1626831   1.2582464  54.0226611  74.0655098  -0.1389479
  48.3081427  75.8176172   7.9696640  48.4373808  76.0710651   8.8836052
  47.6278878  76.4103880   7.6501295  52.4780914  86.4873422   4.0687115
  52.4004944  87.4381247   4.1475595  51.8742558  86.1419295   4.7262041
  54.9698144  73.6601288  16.7248481  54.1931478  74.2195208  16.7151346
  55.6088707  74.1458071  17.2463352  62.7618925  70.4428080  10.5591458
  62.1193305  70.7360613   9.9131253  62.2573853  70.3281001  11.3644655
  60.4159088  74.1891254   1.2477317  61.3276945  74.4218640   1.0725015
  59.9068735  74.7728298   0.6852396  53.2244516  76.4686741  16.2866448
  53.9659201  77.0071785  16.0101272  52.5181502  77.0953030  16.4438000
  58.6999856  78.6115881  14.8838610  59.1083212  78.1698292  14.1393242
  57.9777118  78.0368509  15.1372803  55.0530926  73.5488488  12.2572167
  55.8992121  73.9727902  12.4006816  54.9929564  72.8922112  12.9510730
  59.0228671  79.1717072   8.6390899  58.3937533  79.3362786   7.9366967
  58.6354333  79.5858682   9.4101863  62.9017903  80.1071510   5.9935263
  62.2168941  80.4870411   5.4432296  62.9861752  80.7166836   6.7267210
  58.2030371  71.2092856  13.9153341  57.9591303  71.9634917  13.3787616
  58.4790302  71.5878204  14.7500588  60.1568834  77.7531469  12.5930606
  60.3685729  78.3963229  11.9164987  60.1098582  76.9193785  12.1252536
  57.7595063  70.3649289   9.4967178  56.8979542  70.6630543   9.7883916
  57.7857498  70.5819688   8.5648211  54.5756633  78.9091480   5.9040984
  55.0394978  79.1879183   5.1145606  54.3113431  78.0074925   5.7214075
  51.4680714  78.4562962   8.8420747  52.0382071  78.8850230   8.2038232
  52.0588825  78.1745546   9.5404933  53.5125519  75.0314632   2.7130549
  54.2149562  75.4835676   3.1804475  53.1806147  74.3898451   3.3410442
  51.9605880  73.6226389  17.0881758  51.3304541  74.3042670  17.3217155
  51.8541968  73.5109471  16.1434897  47.2550853  73.2898185   8.0147683
  46.4649907  73.5455714   7.5387793  47.7462100  74.1046523   8.1199723
  61.2714662  80.6303424  10.7652963  62.0932106  80.2283612  10.4835645
  61.2677065  80.5271658  11.7169079  49.2065598  73.6542764   4.9731159
  48.4096761  73.7661459   5.4914655  48.9791190  73.9929417   4.1072050
  55.0371266  80.1787468  12.9213674  55.1015698  80.6407875  13.7571846
  54.3282189  79.5484832  13.0495984  45.5388556  73.5428676  10.4462673
  45.7896594  74.4275685  10.7120249  46.0748104  73.3633277   9.6737765
  69.3620655  76.9742173   7.1137935  68.6084364  76.4049571   6.9581939
  69.4968196  76.9404837   8.0608570  54.7519283  81.8455575   2.7892654
  54.6164958  82.6907111   3.2177502  55.2929096  82.0474853   2.0258588
  51.2386623  67.9247155  19.4507009  50.8453568  67.3713353  20.1254654
  52.0552763  68.2357733  19.8413527  48.2048681  79.3631013   3.3620579
  48.7173201  80.1574263   3.5126144  48.8571393  78.6657304   3.2954181
  50.0143565  82.4796769   5.4443333  50.1910194  83.4014734   5.2564316
  50.8100399  82.1655189   5.8737712  54.1554584  69.3405034  17.0427266
  54.8964297  69.9412187  16.9631729  54.3872507  68.5982672  16.4845309
  49.2995922  74.5261401  15.3205496  49.1849437  73.6246658  15.6212595
  48.4440440  74.7725098  14.9690312  56.3787760  82.4679142  16.9192996
  55.9351614  81.6815520  16.6013901  57.0404973  82.6558292  16.2536887
  51.1374881  83.9974943  11.4453675  51.6882306  83.8692007  10.6730669
  50.2986357  84.2969832  11.0948568  58.4768998  82.7481941  14.9474398
  58.4587473  83.5690823  14.4554667  59.3988918  82.6236017  15.1724539
  54.9342052  80.2626071  15.7897906  55.4670389  79.5014359  15.5597214
  54.4056133  79.9699723  16.5322060  58.1011747  65.3686137  11.3191548
  57.7576016  66.2587779  11.2430658  58.4690709  65.1787795  10.4561133
  46.1697597  77.6919667   4.1380150  47.0072819  78.1016676   3.9213858
  46.3475865  76.7519110   4.1080344  58.0662030  75.3594748  -0.1736017
  57.5508653  76.1299353   0.0652370  57.7939338  74.6859884   0.4497044
  55.6509141  70.2044449   4.8849221  54.7950737  69.8151299   4.7054860
  56.0636092  70.2836410   4.0249007  57.1808287  67.7390792   9.2840781
  56.6773083  67.7020927   8.4708586  57.4738894  68.6483535   9.3437438
  53.4251173  67.8229522   8.2906963  54.2904170  67.6272330   7.9312852
  53.4928682  67.5939874   9.2176319  63.0396304  78.1127103   1.7617156
  62.2625746  77.7738262   1.3172318  63.7187785  78.1179726   1.0872121
  57.8548333  73.2321840   1.6523764  57.5498468  73.5467989   2.5033907
  58.8078775  73.3103260   1.6951097  56.2994765  79.3912063   3.3016718
  55.7716126  78.6564823   2.9889955  55.7982267  80.1686740   3.0556686
  61.2787611  77.5861084   8.4183764  60.6211285  78.2760345   8.5063893
  62.0828010  77.9757516   8.7617751  51.0313492  70.0531730   5.6623330
  51.6057244  69.8306911   4.9296522  51.6184475  70.1220424   6.4151931
  60.0893069  75.9405457   6.4687706  60.6024951  76.5735448   6.9709416
  60.7394293  75.3406652   6.1031066  51.3583079  72.0836191  -0.3180785
  50.5220392  72.4210877   0.0028490  51.2187849  71.9485171  -1.2553648
  53.3336160  66.9272979   4.3898399  52.6800572  66.6121996   3.7655014
  53.2916634  66.3048719   5.1158222  54.4447365  77.2092274  -3.6948309
  53.5374426  76.9781527  -3.4957160  54.9418397  76.4129893  -3.5074327
  56.5673900  73.4154912   8.7146047  55.6496462  73.6369859   8.5567735
  56.9834044  73.4901223   7.8557754  57.3508948  74.8146328   3.8448727
  58.0980767  75.3267725   3.5355849  57.6200538  74.4930381   4.7053120
  55.6235598  77.3104869   0.8275681  54.7146817  77.0263901   0.9248151
  55.6530682  77.7303947  -0.0321012  60.8554866  80.9211458   4.5966849
  60.4017193  80.0802368   4.6532039  60.2248832  81.5572856   4.9341629
  59.7987785  71.8503444   5.8267516  59.0610542  71.3380830   6.1577759
  60.0514559  71.4103826   5.0150793  59.2987805  82.7587955   5.5316667
  59.5910779  83.3193012   4.8129032  59.8086425  83.0516516   6.2869826
  59.8999412  64.6279696   6.4209285  60.2058289  63.7677060   6.1335200
  60.6252017  65.2197316   6.2208279  46.1923769  75.0310383   4.8090883
  45.9948168  74.4379743   4.0841950  45.6370433  74.7262593   5.5266822
  54.1720492  74.9233489   6.9285476  54.2269102  73.9707326   6.8527953
  53.3611694  75.0792928   7.4126775  55.3211686  78.8513612  -1.8336240
  54.8831116  78.1349471  -2.2930603  56.0622127  79.0789727  -2.3951149
  52.1112852  73.5410549   4.6875855  51.2980718  73.8404719   5.0941047
  52.6071846  73.1466238   5.4050338  54.2621430  83.5368306   6.6210120
  54.2197609  83.7629152   5.6918652  55.1784129  83.3031680   6.7695921
  57.7087064  74.0052373  13.5190749  58.0636452  74.2323847  14.3785215
  58.3559195  74.3370750  12.8968005  63.4384801  77.1270809   4.2240078
  63.3002699  77.3172405   3.2961267  63.0821020  77.8890192   4.6808129
  51.6026927  71.1128904  10.3037090  52.2426306  70.9717664   9.6060054
  50.7704457  70.8263418   9.9275692  63.4654180  79.1947336   9.2351350
  63.8990687  79.1022625  10.0834404  64.1785761  79.1704837   8.5971366
  52.3787231  80.4131335   6.4172083  53.1727829  79.9181655   6.2154658
  51.6678923  79.8849198   6.0539788  57.1982075  82.7949430  10.7684450
  57.2519098  83.3640367  11.5362166  56.3296857  82.9651315  10.4038487
  48.6869994  74.5574417   2.4931835  47.7567582  74.4958872   2.7101798
  48.7827466  74.0350369   1.6968477  48.6055543  71.0829229   5.0810077
  48.8662361  71.9974563   4.9719238  49.4272716  70.6153672   5.2306690
  50.0780469  72.4966987  12.2508902  50.7503522  72.2884349  11.6021551
  49.2510255  72.2989073  11.8114134  64.3269730  79.2371037  11.7684235
  64.5205620  80.1416847  12.0143510  64.2270348  78.7778456  12.6022820
  55.9806041  69.1228928  14.2674562  55.3333956  69.8218877  14.1739039
  56.7507056  69.5565071  14.6350811  59.3884839  79.3877780  17.3425116
  59.2370345  79.1588331  16.4255199  59.3789518  80.3448381  17.3556461
  56.1570175  76.9609692  12.3271382  57.0862235  77.1120852  12.1540350
  55.7361205  77.0493713  11.4720029  54.9558507  80.9860357  10.0969920
  54.8169593  80.6179141  10.9695858  54.1673103  81.5007996   9.9253878
  55.5506659  86.0869453   1.4395456  55.7258414  85.6157497   2.2541079
  54.8639447  86.7135220   1.6676717  56.5063722  80.3641960   7.4858758
  56.1713555  80.3242730   8.3816408  56.0067668  79.6986675   7.0129168
  50.4807966  75.7709590  13.0111339  50.3427764  75.0389828  13.6122878
  51.3912889  75.6818490  12.7295527  59.4422914  77.7097994  -2.2404183
  58.8252084  76.9844822  -2.3371130  58.9739402  78.4707354  -2.5837108
  53.1090267  75.4829549  12.4995018  53.8189885  74.8422741  12.4581637
  53.0659575  75.7342444  13.4221199  61.0977045  82.4196902  15.4201598
  61.0389591  81.7356122  14.7532181  61.4996564  83.1615892  14.9682224
  51.8219201  72.4694767  14.3190658  51.2856558  72.0185505  14.9712254
  51.2335909  72.6040676  13.5761122  50.1167744  89.2358816   8.2135317
  50.3564342  89.8677340   8.8914335  49.2736941  88.8846856   8.5000676
  51.2321460  71.9283418  -3.1182878  50.3550926  71.8072219  -3.4820632
  51.7079213  71.1369497  -3.3703990  61.0994453  80.3836486  13.6515577
  60.2121231  80.0462408  13.7741976  61.6693004  79.6519517  13.8884343
  42.7523600  76.7160578   6.9758629  43.4394639  76.4022308   6.3879644
  42.5971728  77.6201943   6.7025880  47.5558322  71.6050774  11.4043652
  47.4716511  70.9976444  10.6694062  46.7341028  72.0959793  11.4053149
  54.6295606  85.0437939  10.6176821  54.5565777  85.8492910  11.1296125
  54.1872999  85.2429904   9.7924842  54.4185386  84.2809709   4.1279642
  53.6352907  84.8231389   4.2217867  55.1178131  84.7983688   4.5273883
  57.7282036  70.0904338   6.7713847  58.2250735  69.3374300   6.4514918
  56.9569017  70.1268655   6.2057057  65.5811793  75.7944704   8.4132139
  65.5701669  76.6769419   8.0426072  64.7129173  75.4416254   8.2186676
  57.0894289  84.9424773  12.7734979  57.8022262  85.5772237  12.7010881
  56.5984318  85.0388639  11.9574981  58.8111816  78.8476025   4.3452271
  57.8768095  78.9677488   4.1756975  58.9888485  77.9448492   4.0812281
  54.3117004  72.2321721   6.4985532  53.9414792  71.6792761   7.1866438
  54.8076097  71.6279854   5.9460532  62.1984368  74.6893345   4.8802305
  62.6644820  75.5221336   4.8062608  62.6491868  74.2238326   5.5847563
  52.1406203  82.6919216  13.5940550  52.8415662  83.3255699  13.7469944
  51.6701318  83.0333948  12.8336189  60.2660599  81.0337166   1.8788457
  60.5420443  80.9193760   2.7882331  59.3965098  80.6354651   1.8400630
  60.1701030  67.0573932   8.9193206  59.2564110  67.2878158   9.0875413
  60.5994132  67.1412376   9.7707239  59.9407489  75.2463823  11.4193100
  59.2878939  75.4939731  10.7645553  60.3187869  74.4327962  11.0855578
  56.9014663  85.2823517   5.5221271  57.0837057  84.4645173   5.9849023
  57.7247649  85.4991209   5.0846161  57.2356828  84.2091702   2.7836319
  57.7644595  83.6984156   2.1706481  57.4985048  83.8934232   3.6481852
  55.9895062  75.9883635  17.9059137  55.3135699  75.8877764  18.5761513
  56.8122696  75.8322848  18.3695135  47.7373921  82.2255571  10.5271653
  48.3227358  81.4799259  10.6599557  47.5398760  82.5359528  11.4108317
  50.5912576  85.2606818   5.5434095  49.9222952  85.7452946   5.0598135
  50.4525446  85.5076039   6.4577474  42.3291576  74.7961171   9.2476096
  42.3675675  74.2624762  10.0413214  41.8231869  74.2696377   8.6287073
  54.7317845  87.2950562  12.1416753  55.2836153  87.4582183  12.9065839
  55.0724038  87.8855000  11.4696778  49.7082338  69.6425712  12.7438638
  49.7723665  70.5040543  12.3316036  49.6449458  69.0299713  12.0110997
  49.1834611  71.7148844  16.3911672  49.8106649  71.3325922  17.0049197
  48.3262529  71.4963046  16.7567365  59.5828719  82.1211820  17.9965408
  60.1268623  82.7341778  17.5020363  59.0015564  82.6791398  18.5132421
  45.9600153  73.5225273   2.3230027  46.2553594  72.6135952   2.2697081
  45.0588189  73.5013013   2.0011030  57.8686232  85.2432538   9.1280436
  57.7437372  84.4422277   8.6191381  58.5265323  85.7378731   8.6394406
  49.4894400  71.5981270   8.3057576  48.7680986  72.2117238   8.1665049
  50.2787656  72.1339035   8.2274222  59.9321141  83.0441558  10.7559986
  58.9851476  82.9246909  10.6838312  60.2803914  82.1564056  10.8386247
  52.2920714  68.9335697  14.5798228  52.8155116  69.1797993  15.3424537
  52.0733047  69.7655731  14.1601365  47.6887995  71.2039371   2.4469352
  47.3600701  70.3236750   2.2644458  48.0427366  71.1487040   3.3345742
  56.9367574  82.8394274   6.9564338  56.7892536  81.9110981   7.1371908
  57.7621067  82.8614365   6.4721413  50.8029818  71.4912341   2.8144830
  51.1425891  72.0198262   2.0923438  51.2501939  71.8292747   3.5903397
  60.5401696  83.6622833   8.0429211  61.4648243  83.4565694   7.9053662
  60.3716999  83.4139234   8.9518552  53.4973259  69.8749392  12.2647898
  53.1570079  69.0757205  12.6668578  52.7912265  70.1751102  11.6924731
  54.1489731  66.9598704  10.7175221  54.9715800  66.4859182  10.5954111
  54.3927794  67.7389188  11.2173907  52.7897965  69.9886962   1.0138123
  53.5106328  70.3668215   0.5101840  52.1663269  70.7075839   1.1173101
  56.9329088  70.6932111   1.9496455  57.1492703  71.5756749   1.6485283
  56.4523155  70.3018325   1.2202097  51.6728310  73.6517825   8.5267200
  51.5272890  73.9658128   9.4191481  51.1953513  74.2702725   7.9738098
  53.5324692  70.6420373   8.5748089  53.5186261  69.7461466   8.2380387
  54.2497121  70.6491036   9.2086375  55.3850823  71.0757713  10.6201217
  55.1268601  71.9974784  10.6185547  54.8535863  70.6788147  11.3101681
  60.3297012  84.1808500   3.3991302  60.5033889  83.6154922   2.6465155
  60.8225903  84.9809395   3.2170792  46.1473972  76.1923169  11.4654861
  45.6027440  76.9682977  11.5975135  47.0253322  76.5393974  11.3073982
  52.9361588  69.5234753   3.8435659  53.0577500  68.5951399   4.0426547
  52.6463631  69.5373439   2.9313975  55.8052779  67.2089663   6.9802379
  55.8274476  67.2728996   6.0254359  56.2220838  66.3694172   7.1742885
  66.1836403  76.9444923   5.0181602  66.6267549  76.1952248   4.6200725
  65.3062913  76.9355059   4.6355334  61.3172184  83.4975264   0.4988200
  62.0123089  84.1181957   0.7175515  61.6595334  82.6470616   0.7740578
  46.9339994  75.3193065  14.3585018  46.1921730  75.4675701  14.9449648
  46.6132738  75.5801331  13.4951767  63.2163607  80.9474970   2.0275531
  63.7414932  81.2862243   1.3024851  63.1285960  80.0121985   1.8438666
  54.8783656  84.8609044  14.1565408  55.1870783  84.6158190  15.0288107
  55.6759138  85.0655682  13.6684278  54.9004268  87.0146953   6.3870784
  54.4609259  86.5223332   7.0803641  55.6512385  86.4719921   6.1462860
  47.3796607  83.2058494   6.3895412  48.2054627  82.9062266   6.0094056
  47.0290659  82.4366117   6.8385201  52.3478140  82.5584962   8.4593086
  51.7258150  81.8955667   8.1595314  53.0183007  82.5846094   7.7766734
  45.5805212  81.1244821   7.3484346  44.7437121  80.6966995   7.1668347
  45.5528858  81.3177264   8.2855137  52.4202668  71.0366750  18.0525592
  52.4690823  71.9128873  17.6703362  52.9625182  70.4944143  17.4797235
  62.9057514  81.5807874  17.3326729  62.1153057  81.5632012  16.7931229
  62.6690868  82.1196167  18.0875766  63.0255389  78.4300340  14.6459458
  63.0753394  78.2650347  15.5874980  62.9169312  77.5627599  14.2557338
  51.9091647  81.1088886   1.9351547  52.0579768  81.7924350   1.2818219
  52.7158091  81.0893976   2.4501002  60.3159151  74.4131268  15.9618764
  61.2169014  74.2737733  15.6702762  60.3907125  74.5785723  16.9016942
  54.6501956  71.7898123  14.8071951  53.7805266  72.0831689  14.5354539
  54.8861437  72.3738568  15.5279214  64.5273585  80.8497281  14.8901479
  64.2358394  81.2127262  15.7264940  63.9145717  80.1364290  14.7114811
  65.7269268  78.4150161   7.4104049  66.5616159  78.8539965   7.5741610
  65.8628397  77.9388814   6.5912295  62.7760774  75.9729896  13.3581537
  63.2514895  76.1657542  12.5500389  61.8526339  76.0289082  13.1124921
  49.6644280  77.1354063   2.9412615  49.4190322  76.2316393   3.1392826
  49.8340195  77.1371214   1.9992093  57.3540990  68.0077740  12.3237371
  57.8722934  68.7438767  11.9983860  56.9996123  68.3141733  13.1584130
  48.9339928  72.8682421   0.4398777  48.2409173  72.9426776  -0.2161187
  48.6891680  72.1042764   0.9620294  57.6053584  64.4278022   7.8438268
  57.8855338  63.7601211   8.4698694  58.3904191  64.6207118   7.3312932
  55.4087053  83.6037016  -0.5936706  54.8361020  84.2227203  -1.0466234
  55.9819846  84.1536378  -0.0596784  61.4762443  72.8495656  11.5909843
  62.4279866  72.9493754  11.6122067  61.3065893  72.0573925  12.1007927
  59.4976822  69.9351239  11.7769244  58.9026754  70.2156252  11.0815732
  59.2126519  70.4245140  12.5485985  58.6284313  83.8874166   0.5371876
  59.5614986  83.8219728   0.7404752  58.5407525  84.7230433   0.0786409
  63.9550520  76.0701776  10.7052142  63.9226841  75.1317777  10.8911826
  64.5651144  76.1485813   9.9717967  55.7933851  74.9397829  -3.2520654
  56.7392956  74.8104037  -3.1832235  55.4148096  74.2012491  -2.7751225
  64.1045009  72.8612819  10.7510426  63.5884058  72.0771276  10.5640354
  64.9884957  72.5331536  10.9156945  61.7655736  66.6053835   6.7106238
  61.5680557  66.2968923   7.5949570  62.3755441  67.3315474   6.8404168
  69.7727070  77.1317783   9.8458179  70.5030459  76.8703071  10.4065883
  69.1634016  76.3946505   9.8860247  67.8542367  75.2725645  10.4432630
  67.1275531  75.1381610   9.8349122  67.4389654  75.5802474  11.2489348
  55.6772544  78.9915575  18.2080003  56.5975553  79.1694174  18.4020050
  55.6422127  78.0471620  18.0559703  53.9776768  72.8647805  -3.3165768
  53.0708224  72.5680918  -3.2403055  54.2552749  72.5677623  -4.1831482
  44.8954709  74.1854169   7.1333278  44.5757493  73.3319477   6.8407652
  44.3488137  74.4002747   7.8891245  48.6734616  76.9016610  10.8502785
  48.8920626  77.8333717  10.8690818  49.0860390  76.5424584  11.6357588
  55.5938834  67.4084695   2.8378473  54.7839563  67.0631780   3.2133719
  56.2823251  67.0992239   3.4266085  57.5229382  66.4862742   4.4602770
  58.0760421  66.9058195   5.1192793  57.7599469  65.5598490   4.5025726
  53.5462482  72.4749815  20.2405534  53.4459209  73.4244172  20.1717625
  53.3284024  72.1468054  19.3681604  52.7475553  69.7234740  -3.1753789
  53.6094717  70.0489639  -2.9157972  52.9325897  68.9366236  -3.6880723
  44.7642969  77.8057080   9.1026400  44.0706440  77.3911033   8.5896354
  45.5115960  77.8477617   8.5059819  60.9008190  68.5963267   3.9681434
  60.3206859  69.2548071   3.5859486  60.6344122  67.7740612   3.5568851
  59.3511756  67.9968325   6.1702754  59.8511534  68.1084859   5.3617073
  59.9947364  67.6929377   6.8103563  53.4093752  75.9046954  19.0570595
  52.9260833  76.7047314  19.2634484  53.4954691  75.9154899  18.1038039
  46.6779711  77.7375334   6.9792415  46.6550399  77.8363021   6.0274298
  46.9880348  78.5840485   7.3009581  49.3367089  79.7951489  11.0939029
  50.2910343  79.7635431  11.0268961  49.1379613  79.3342113  11.9089255
  49.9266471  78.3652605  13.6609827  50.7459360  78.8596684  13.6844664
  50.2003279  77.4484573  13.6327394  59.6833068  70.7563357   3.0237782
  58.7958923  71.0413008   2.8057977  60.0987057  70.5957121   2.1765059
  63.0347604  70.7809878   6.7392121  63.8107994  71.2706331   7.0116738
  62.3095738  71.2067932   7.1963991  65.4720162  71.4937497   7.7966062
  66.0664653  71.2533233   7.0859370  65.5446746  70.7744628   8.4239598
  47.6917318  85.3371108   8.1109227  47.5571786  84.5771509   7.5447225
  47.2749380  86.0612008   7.6438016  59.6574091  76.2717893   3.2388072
  59.6009293  76.7286445   2.3995705  60.2102434  75.5108578   3.0610915
  63.4678897  72.0607625   4.0638192  63.2115831  71.6604261   4.8946400
  62.8431765  72.7751419   3.9388331  67.7791235  74.8003698   6.5709483
  67.2190793  74.8696888   7.3441045  67.1734738  74.6244683   5.8508979
  50.8486444  86.2340425   8.3227670  50.7318828  87.1785858   8.2206360
  50.0278890  85.9313987   8.7113469  60.7362978  80.9590561  -0.8315738
  61.5708582  80.5271760  -1.0138263  60.5747321  80.7872575   0.0961157
  60.3908871  77.4622674   0.5340602  60.3357674  77.2966946  -0.4070954
  59.7654926  78.1698707   0.6902791  45.1801386  72.6990739  14.3602024
  45.8260249  72.1889693  14.8489249  44.9718537  73.4359420  14.9345449
  57.7054778  79.7671586  19.8594164  58.5745937  79.9412239  19.4980799
  57.2261529  80.5866003  19.7369894  53.7004996  66.9630783   0.1125920
  53.6883666  67.9072623   0.2694191  54.5928418  66.7800929  -0.1814619
  51.8740958  86.8868687  11.5383598  52.7768205  86.9192298  11.8550093
  51.6478328  85.9569138  11.5529934  53.6294560  85.6399674   8.1993677
  52.6790191  85.6401535   8.0858049  53.9327046  84.8932408   7.6829711
  57.5157116  63.5573560   4.3671857  56.7489511  63.0032047   4.5128539
  57.9267821  63.6295429   5.2286008  49.5198877  69.8458356  18.4577038
  50.3830338  69.4895161  18.6680363  48.9464287  69.5072251  19.1452442
  69.3647254  91.4760212   9.2639439  70.0025663  91.3566960   8.5602779
  69.2468096  92.4241056   9.3227391  66.1736960  91.4287640   9.2000964
  65.8355471  91.3128705   8.3121499  67.0426728  91.0278805   9.1801970
  66.6556743  92.5822492  15.1587169  66.6445384  92.1875290  14.2867673
  66.8177382  91.8488565  15.7520941  59.5788207  94.7774308   8.0282075
  60.3709499  94.4365133   7.6128374  59.8184858  94.8869283   8.9484228
  63.3764004  95.3659604  14.1066353  63.0853870  96.2705235  13.9913019
  64.0120988  95.4076132  14.8210423  64.3020211  92.7436452  10.6967713
  64.8983783  92.5192475   9.9824676  64.3595182  92.0021198  11.2993161
  71.8422369  82.8508473  11.7020234  71.5105694  83.7203884  11.4781449
  71.2467983  82.5344757  12.3814264  68.3353889  95.0521019  11.1016147
  68.0354612  95.9546058  10.9931954  67.9904949  94.7853203  11.9537300
  61.7866371  91.5034816   7.1352851  60.8616867  91.3711030   7.3430543
  62.0350784  92.2829036   7.6322794  71.7351033  87.5703560   8.7813584
  70.8267910  87.5018968   8.4872345  71.6838629  88.0475505   9.6095410
  59.1475182  91.1468090   7.9696640  59.2767563  91.4002569   8.8836052
  58.4672633  91.7395798   7.6501295  65.8091899  88.9893205  16.7248481
  65.0325233  89.5487125  16.7151346  66.4482462  89.4749988  17.2463352
  73.6012679  85.7719998  10.5591458  72.9587059  86.0652531   9.9131253
  73.0967608  85.6572918  11.3644655  64.0638271  91.7978659  16.2866448
  64.8052955  92.3363703  16.0101272  63.3575256  92.4244947  16.4438000
  69.5393611  93.9407799  14.8838610  69.9476967  93.4990210  14.1393242
  68.8170872  93.3660427  15.1372803  65.8924681  88.8780406  12.2572167
  66.7385876  89.3019819  12.4006816  65.8323318  88.2214030  12.9510730
  69.0424126  86.5384774  13.9153341  68.7985058  87.2926835  13.3787616
  69.3184056  86.9170122  14.7500588  70.9962589  93.0823387  12.5930606
  71.2079484  93.7255146  11.9164987  70.9492337  92.2485703  12.1252536
  68.5988818  85.6941207   9.4967178  67.7373297  85.9922461   9.7883916
  68.6251252  85.9111606   8.5648211  62.3074468  93.7854879   8.8420747
  62.8775825  94.2142148   8.2038232  62.8982580  93.5037464   9.5404933
  62.7999635  88.9518307  17.0881758  62.1698295  89.6334588  17.3217155
  62.6935723  88.8401388  16.1434897  58.0944607  88.6190103   8.0147683
  57.3043661  88.8747631   7.5387793  58.5855854  89.4338441   8.1199723
  60.0459352  88.9834682   4.9731159  59.2490516  89.0953376   5.4914655
  59.8184945  89.3221334   4.1072050  65.8765020  95.5079385  12.9213674
  65.9409453  95.9699792  13.7571846  65.1675944  94.8776750  13.0495984
  56.3782310  88.8720593  10.4462673  56.6290348  89.7567603  10.7120249
  56.9141858  88.6925195   9.6737765  62.0780377  83.2539073  19.4507009
  61.6847323  82.7005271  20.1254654  62.8946518  83.5649651  19.8413527
  64.9948338  84.6696952  17.0427266  65.7358052  85.2704105  16.9631729
  65.2266261  83.9274589  16.4845309  60.1389676  89.8553319  15.3205496
  60.0243192  88.9538576  15.6212595  59.2834194  90.1017016  14.9690312
  67.2181514  97.7971059  16.9192996  66.7745368  97.0107438  16.6013901
  67.8798728  97.9850210  16.2536887  61.9768635  99.3266861  11.4453675
  62.5276060  99.1983924  10.6730669  61.1380111  99.6261750  11.0948568
  69.3162752  98.0773859  14.9474398  69.2981228  98.8982740  14.4554667
  70.2382672  97.9527934  15.1724539  65.7735806  95.5917989  15.7897906
  66.3064143  94.8306277  15.5597214  65.2449887  95.2991640  16.5322060
  68.9405501  80.6978055  11.3191548  68.5969771  81.5879696  11.2430658
  69.3084464  80.5079712  10.4561133  66.4902895  85.5336366   4.8849221
  65.6344491  85.1443217   4.7054860  66.9029847  85.6128327   4.0249007
  68.0202042  83.0682710   9.2840781  67.5166837  83.0312845   8.4708586
  68.3132649  83.9775452   9.3437438  64.2644928  83.1521439   8.2906963
  65.1297924  82.9564248   7.9312852  64.3322437  82.9231791   9.2176319
  61.8707247  85.3823647   5.6623330  62.4450999  85.1598829   4.9296522
  62.4578229  85.4512342   6.4151931  64.1729914  82.2564896   4.3898399
  63.5194327  81.9413913   3.7655014  64.1310389  81.6340637   5.1158222
  67.4067655  88.7446830   8.7146047  66.4890216  88.9661777   8.5567735
  67.8227798  88.8193140   7.8557754  70.7393167  79.9571614   6.4209285
  71.0452044  79.0968977   6.1335200  71.4645772  80.5489234   6.2208279
  57.0317523  90.3602300   4.8090883  56.8341923  89.7671661   4.0841950
  56.4764187  90.0554511   5.5266822  65.0114247  90.2525407   6.9285476
  65.0662857  89.2999243   6.8527953  64.2005449  90.4084846   7.4126775
  62.9506607  88.8702467   4.6875855  62.1374472  89.1696637   5.0941047
  63.4465601  88.4758155   5.4050338  68.5480818  89.3344291  13.5190749
  68.9030206  89.5615764  14.3785215  69.1952950  89.6662668  12.8968005
  62.4420681  86.4420822  10.3037090  63.0820061  86.3009581   9.6060054
  61.6098212  86.1555336   9.9275692  59.4449298  86.4121147   5.0810077
  59.7056115  87.3266480   4.9719238  60.2666470  85.9445590   5.2306690
  60.9174223  87.8258904  12.2508902  61.5897277  87.6176266  11.6021551
  60.0904010  87.6280990  11.8114134  66.8199795  84.4520845  14.2674562
  66.1727710  85.1510795  14.1739039  67.5900811  84.8856989  14.6350811
  70.2278593  94.7169697  17.3425116  70.0764100  94.4880249  16.4255199
  70.2183273  95.6740299  17.3556461  66.9963930  92.2901610  12.3271382
  67.9255990  92.4412770  12.1540350  66.5754960  92.3785631  11.4720029
  65.7952261  96.3152275  10.0969920  65.6563347  95.9471059  10.9695858
  65.0066858  96.8299914   9.9253878  61.3201720  91.1001507  13.0111339
  61.1821518  90.3681746  13.6122878  62.2306644  91.0110407  12.7295527
  63.9484021  90.8121467  12.4995018  64.6583640  90.1714659  12.4581637
  63.9053329  91.0634361  13.4221199  71.9370800  97.7488820  15.4201598
  71.8783346  97.0648040  14.7532181  72.3390318  98.4907810  14.9682224
  62.6612955  87.7986684  14.3190658  62.1250312  87.3477423  14.9712254
  62.0729664  87.9332593  13.5761122  71.9388207  95.7128404  13.6515577
  71.0514986  95.3754326  13.7741976  72.5086758  94.9811435  13.8884343
  53.5917354  92.0452496   6.9758629  54.2788394  91.7314226   6.3879644
  53.4365483  92.9493860   6.7025880  58.3952076  86.9342692  11.4043652
  58.3110265  86.3268362  10.6694062  57.5734783  87.4251710  11.4053149
  68.5675790  85.4196256   6.7713847  69.0644490  84.6666218   6.4514918
  67.7962772  85.4560572   6.2057057  65.1510759  87.5613639   6.4985532
  64.7808546  87.0084679   7.1866438  65.6469851  86.9571772   5.9460532
  62.9799957  98.0211134  13.5940550  63.6809417  98.6547617  13.7469944
  62.5095072  98.3625865  12.8336189  71.0094785  82.3865849   8.9193206
  70.0957865  82.6170076   9.0875413  71.4387886  82.4704293   9.7707239
  70.7801243  90.5755741  11.4193100  70.1272694  90.8231649  10.7645553
  71.1581623  89.7619879  11.0855578  66.8288816  91.3175552  17.9059137
  66.1529453  91.2169682  18.5761513  67.6516450  91.1614766  18.3695135
  58.5767676  97.5547489  10.5271653  59.1621112  96.8091177  10.6599557
  58.3792514  97.8651445  11.4108317  53.1685330  90.1253089   9.2476096
  53.2069430  89.5916680  10.0413214  52.6625623  89.5988294   8.6287073
  60.5476093  84.9717629  12.7438638  60.6117419  85.8332460  12.3316036
  60.4843213  84.3591631  12.0110997  60.0228365  87.0440762  16.3911672
  60.6500404  86.6617839  17.0049197  59.1656284  86.8254964  16.7567365
  70.4222474  97.4503737  17.9965408  70.9662378  98.0633695  17.5020363
  69.8409319  98.0083316  18.5132421  56.7993908  88.8517191   2.3230027
  57.0947349  87.9427870   2.2697081  55.8981944  88.8304931   2.0011030
  60.3288155  86.9273188   8.3057576  59.6074741  87.5409155   8.1665049
  61.1181411  87.4630953   8.2274222  63.1314468  84.2627614  14.5798228
  63.6548870  84.5089911  15.3424537  62.9126802  85.0947649  14.1601365
  58.5281749  86.5331289   2.4469352  58.1994456  85.6528668   2.2644458
  58.8821120  86.4778957   3.3345742  64.3367013  85.2041309  12.2647898
  63.9963834  84.4049122  12.6668578  63.6306020  85.5043020  11.6924731
  64.9883485  82.2890622  10.7175221  65.8109555  81.8151100  10.5954111
  65.2321549  83.0681105  11.2173907  62.5122064  88.9809742   8.5267200
  62.3666645  89.2950045   9.4191481  62.0347268  89.5994643   7.9738098
  64.3718447  85.9712290   8.5748089  64.3580016  85.0753384   8.2380387
  65.0890875  85.9782954   9.2086375  66.2244578  86.4049631  10.6201217
  65.9662355  87.3266701  10.6185547  65.6929618  86.0080065  11.3101681
  56.9867726  91.5215087  11.4654861  56.4421194  92.2974895  11.5975135
  57.8647076  91.8685891  11.3073982  63.7755343  84.8526671   3.8435659
  63.8971254  83.9243317   4.0426547  63.4857385  84.8665357   2.9313975
  66.6446533  82.5381581   6.9802379  66.6668230  82.6020914   6.0254359
  67.0614592  81.6986090   7.1742885  57.7733748  90.6484983  14.3585018
  57.0315484  90.7967618  14.9449648  57.4526492  90.9093249  13.4951767
  65.7177411 100.1900961  14.1565408  66.0264537  99.9450108  15.0288107
  66.5152893 100.3947600  13.6684278  56.4198967  96.4536738   7.3484346
  55.5830875  96.0258913   7.1668347  56.3922612  96.6469182   8.2855137
  63.2596422  86.3658668  18.0525592  63.3084578  87.2420791  17.6703362
  63.8018937  85.8236061  17.4797235  73.7451268  96.9099791  17.3326729
  72.9546812  96.8923930  16.7931229  73.5084623  97.4488085  18.0875766
  73.8649143  93.7592258  14.6459458  73.9147148  93.5942265  15.5874980
  73.7563066  92.8919517  14.2557338  71.1552905  89.7423186  15.9618764
  72.0562768  89.6029651  15.6702762  71.2300880  89.9077640  16.9016942
  65.4895711  87.1190040  14.8071951  64.6199020  87.4123606  14.5354539
  65.7255191  87.7030485  15.5279214  75.3667340  96.1789199  14.8901479
  75.0752148  96.5419180  15.7264940  74.7539471  95.4656207  14.7114811
  73.6154528  91.3021814  13.3581537  74.0908650  91.4949460  12.5500389
  72.6920094  91.3581000  13.1124921  68.1934745  83.3369657  12.3237371
  68.7116689  84.0730684  11.9983860  67.8389877  83.6433651  13.1584130
  68.4447339  79.7569940   7.8438268  68.7249093  79.0893129   8.4698694
  69.2297946  79.9499035   7.3312932  72.3156197  88.1787574  11.5909843
  73.2673620  88.2785672  11.6122067  72.1459648  87.3865842  12.1007927
  70.3370577  85.2643157  11.7769244  69.7420509  85.5448170  11.0815732
  70.0520273  85.7537058  12.5485985  74.9438763  88.1904737  10.7510426
  74.4277812  87.4063194  10.5640354  75.8278712  87.8623454  10.9156945
  72.6049490  81.9345753   6.7106238  72.4074311  81.6260841   7.5949570
  73.2149196  82.6607391   6.8404168  66.5166298  94.3207493  18.2080003
  67.4369308  94.4986092  18.4020050  66.4815881  93.3763538  18.0559703
  55.7348463  89.5146086   7.1333278  55.4151248  88.6611395   6.8407652
  55.1881892  89.7294664   7.8891245  59.5128371  92.2308527  10.8502785
  59.7314381  93.1625635  10.8690818  59.9254145  91.8716502  11.6357588
  66.4332589  82.7376613   2.8378473  65.6233317  82.3923698   3.2133719
  67.1217006  82.4284156   3.4266085  68.3623137  81.8154659   4.4602770
  68.9154176  82.2350113   5.1192793  68.5993223  80.8890408   4.5025726
  64.3856236  87.8041733  20.2405534  64.2852963  88.7536090  20.1717625
  64.1677778  87.4759972  19.3681604  55.6036723  93.1348998   9.1026400
  54.9100195  92.7202951   8.5896354  56.3509714  93.1769534   8.5059819
  70.1905510  83.3260242   6.1702754  70.6905289  83.4376777   5.3617073
  70.8341118  83.0221295   6.8103563  64.2487506  91.2338872  19.0570595
  63.7654588  92.0339232  19.2634484  64.3348445  91.2446817  18.1038039
  57.5173466  93.0667252   6.9792415  57.4944154  93.1654939   6.0274298
  57.8274102  93.9132402   7.3009581  60.1760844  95.1243407  11.0939029
  61.1304097  95.0927349  11.0268961  59.9773367  94.6634030  11.9089255
  60.7660226  93.6944523  13.6609827  61.5853115  94.1888601  13.6844664
  61.0397034  92.7776491  13.6327394  56.0195140  88.0282657  14.3602024
  56.6654004  87.5181611  14.8489249  55.8112291  88.7651338  14.9345449
  68.5448532  95.0963504  19.8594164  69.4139692  95.2704156  19.4980799
  68.0655284  95.9157921  19.7369894  62.7134713 102.2160605  11.5383598
  63.6161959 102.2484215  11.8550093  62.4872083 101.2861056  11.5529934
  68.3550870  78.8865478   4.3671857  67.5883266  78.3323964   4.5128539
  68.7661575  78.9587347   5.2286008  60.3592631  85.1750274  18.4577038
  61.2224093  84.8187078  18.6680363  59.7858042  84.8364168  19.1452442
  72.9174132  98.5830990  19.4507009  72.5241077  98.0297189  20.1254654
  73.7340272  98.8941569  19.8413527  75.8342093  99.9988869  17.0427266
  76.5751806 100.5996022  16.9631729  76.0660016  99.2566507  16.4845309
  70.8622120 102.3732680  16.3911672  71.4894158 101.9909757  17.0049197
  70.0050038 102.1546882  16.7567365  74.0990177 101.6950586  18.0525592
  74.1478332 102.5712708  17.6703362  74.6412691 101.1527979  17.4797235
  75.2249991 103.1333651  20.2405534  75.1246718 104.0828008  20.1717625
  75.0071533 102.8051890  19.3681604  66.8588895 103.3574574  14.3602024
  67.5047758 102.8473528  14.8489249  66.6506046 104.0943256  14.9345449
  71.1986386 100.5042191  18.4577038  72.0617847 100.1478996  18.6680363
  70.6251796 100.1656086  19.1452442  50.2583292  44.0967107   2.1446904
  50.1995838  43.4126327   1.4777487  50.6602810  44.8386097   1.6927530
  48.7434966  43.7982024   4.7210714  49.2874870  44.4111983   4.2265669
  48.1621811  44.3561603   5.2377727  52.0663760  43.2578078   4.0572036
  51.2759304  43.2402217   3.5176535  51.8297115  43.7966372   4.8121072
  53.6879832  42.5267486   1.6146786  53.3964640  42.8897467   2.4510247
  53.0751963  41.8134495   1.4360118  46.8661025  41.4441791   6.5839471
  47.7352184  41.6182444   6.2226106  46.3867776  42.2636208   6.4615200
  58.5253500  53.1530417  -4.0115254  59.1631910  53.0337165  -4.7151914
  58.4074343  54.1011261  -3.9527302  55.3343207  53.1057845  -4.0753730
  54.9961718  52.9898910  -4.9633195  56.2032975  52.7049010  -4.0952724
  55.8162990  54.2592697   1.8832476  55.8051630  53.8645495   1.0112979
  55.9783629  53.5258770   2.4766247  48.7394454  56.4544513  -5.2472618
  49.5315746  56.1135338  -5.6626319  48.9791104  56.5639488  -4.3270465
  52.5370251  57.0429809   0.8311660  52.2460117  57.9475440   0.7158326
  53.1727235  57.0846336   1.5455729  53.4626458  54.4206657  -2.5786981
  54.0590030  54.1962680  -3.2930018  53.5201429  53.6791403  -1.9761533
  63.4803196  50.8157104  -6.0329068  64.2128368  50.2456321  -5.7991238
  62.7242552  50.4278705  -5.5922562  61.0028616  44.5278678  -1.5734459
  60.6711941  45.3974089  -1.7973244  60.4074230  44.2114962  -0.8940429
  57.4960136  56.7291224  -2.1738547  57.1960859  57.6316263  -2.2822739
  57.1511195  56.4623408  -1.3217394  60.8957280  49.2473765  -4.4941109
  59.9874157  49.1789173  -4.7882348  60.8444875  49.7245709  -3.6659284
  52.4780916  63.4935545  -9.2067579  52.4004945  64.4443370  -9.1279098
  51.8742559  63.1481417  -8.5492653  54.9698145  50.6663410   3.4493788
  54.1931479  51.2257330   3.4396653  55.6088708  51.1520193   3.9708658
  62.7618926  47.4490203  -2.7163235  62.1193306  47.7422736  -3.3623441
  62.2573855  47.3343123  -1.9110039  53.2244518  53.4748863   3.0111755
  53.9659202  54.0133907   2.7346579  52.5181503  54.1015152   3.1683307
  58.6999857  55.6178004   1.6083917  59.1083213  55.1760414   0.8638549
  57.9777119  55.0430631   1.8618109  55.0530927  50.5550611  -1.0182527
  55.8992123  50.9790024  -0.8747878  54.9929565  49.8984235  -0.3243963
  59.0228672  56.1779195  -4.6363795  58.3937534  56.3424909  -5.3387727
  58.6354334  56.5920804  -3.8652831  62.9017904  57.1133632  -7.2819431
  62.2168942  57.4932534  -7.8322397  62.9861753  57.7228959  -6.5487483
  58.2030373  48.2154979   0.6398647  57.9591305  48.9697040   0.1032923
  58.4790303  48.5940327   1.4745894  60.1568835  54.7593591  -0.6824087
  60.3685731  55.4025351  -1.3589706  60.1098584  53.9255908  -1.1502157
  51.4680715  55.4625084  -4.4333946  52.0382072  55.8912353  -5.0716462
  52.0588827  55.1807669  -3.7349761  51.9605881  50.6288512   3.8127065
  51.3304542  51.3104793   4.0462462  51.8541969  50.5171593   2.8680203
  61.2714663  57.6365547  -2.5101730  62.0932107  57.2345734  -2.7919048
  61.2677066  57.5333781  -1.5585614  55.0371267  57.1849590  -0.3541019
  55.1015699  57.6469997   0.4817152  54.3282191  56.5546955  -0.2258710
  69.3620656  53.9804295  -6.1616758  68.6084365  53.4111693  -6.3172754
  69.4968198  53.9466960  -5.2146124  51.2386624  44.9309278   6.1752316
  50.8453570  44.3775476   6.8499960  52.0552764  45.2419856   6.5658834
  54.1554585  46.3467157   3.7672573  54.8964299  46.9474310   3.6877035
  54.3872508  45.6044794   3.2090615  49.2995923  51.5323524   2.0450802
  49.1849438  50.6308781   2.3457901  48.4440441  51.7787221   1.6935619
  56.3787761  59.4741264   3.6438303  55.9351615  58.6877643   3.3259207
  57.0404974  59.6620415   2.9782194  51.1374882  61.0037066  -1.8301019
  51.6882307  60.8754129  -2.6024025  50.2986358  61.3031955  -2.1806126
  58.4768999  59.7544064   1.6719704  58.4587474  60.5752945   1.1799973
  59.3988919  59.6298139   1.8969845  54.9342053  57.2688194   2.5143213
  55.4670390  56.5076482   2.2842521  54.4056134  56.9761845   3.2567367
  61.2787612  54.5923207  -4.8570929  60.6211286  55.2822468  -4.7690800
  62.0828011  54.9819638  -4.5136943  60.0893071  52.9467579  -6.8066987
  60.6024952  53.5797571  -6.3045278  60.7394295  52.3468775  -7.1723627
  56.5673902  50.4217035  -4.5608647  55.6496463  50.6431982  -4.7186959
  56.9834045  50.4963345  -5.4196939  60.8554867  57.9273581  -8.6787845
  60.4017194  57.0864491  -8.6222654  60.2248834  58.5634979  -8.3413065
  59.2987806  59.7650077  -7.7438027  59.5910780  60.3255134  -8.4625661
  59.8086427  60.0578638  -6.9884867  54.2621431  60.5430428  -6.6544573
  54.2197610  60.7691275  -7.5836041  55.1784130  60.3093803  -6.5058772
  57.7087065  51.0114496   0.2436056  58.0636453  51.2385969   1.1030522
  58.3559196  51.3432873  -0.3786689  63.4384802  54.1332932  -9.0514615
  63.3002701  54.3234528  -9.9793426  63.0821021  54.8952315  -8.5946564
  63.4654182  56.2009459  -4.0403344  63.8990688  56.1084748  -3.1920290
  64.1785762  56.1766959  -4.6783328  57.1982077  59.8011553  -2.5070243
  57.2519099  60.3702489  -1.7392527  56.3296858  59.9713438  -2.8716206
  50.0780470  49.5029109  -1.0245792  50.7503523  49.2946471  -1.6733143
  49.2510256  49.3051195  -1.4640559  64.3269731  56.2433160  -1.5070458
  64.5205621  57.1478970  -1.2611183  64.2270349  55.7840579  -0.6731873
  55.9806042  46.1291050   0.9919869  55.3333957  46.8281000   0.8984346
  56.7507057  46.5627194   1.3596117  59.3884840  56.3939902   4.0670422
  59.2370346  56.1650454   3.1500506  59.3789519  57.3510504   4.0801767
  56.1570176  53.9671815  -0.9483311  57.0862236  54.1182975  -1.1214344
  55.7361206  54.0555836  -1.8034665  54.9558508  57.9922479  -3.1784774
  54.8169594  57.6241264  -2.3058835  54.1673104  58.5070119  -3.3500816
  55.5506660  63.0931576 -11.8359237  55.7258416  62.6219619 -11.0213614
  54.8639448  63.7197342 -11.6077976  56.5063723  57.3704082  -5.7895936
  56.1713556  57.3304852  -4.8938286  56.0067669  56.7048798  -6.2625526
  50.4807967  52.7771712  -0.2643355  50.3427765  52.0451951   0.3368184
  51.3912891  52.6880612  -0.5459167  53.1090268  52.4891672  -0.7759675
  53.8189886  51.8484864  -0.8173057  53.0659576  52.7404566   0.1466506
  61.0977047  59.4259025   2.1446904  61.0389593  58.7418245   1.4777487
  61.4996565  60.1678015   1.6927530  51.8219202  49.4756889   1.0435965
  51.2856559  49.0247628   1.6957561  51.2335910  49.6102798   0.3006429
  50.1167745  66.2420939  -5.0619377  50.3564344  66.8739463  -4.3840358
  49.2736942  65.8908979  -4.7754018  61.0994454  57.3898609   0.3760884
  60.2121233  57.0524531   0.4987283  61.6693005  56.6581640   0.6129649
  54.6295607  62.0500061  -2.6577873  54.5565779  62.8555033  -2.1458568
  54.1873000  62.2492027  -3.4829851  54.4185387  61.2871831  -9.1475051
  53.6352909  61.8293511  -9.0536827  55.1178132  61.8045811  -8.7480810
  65.5811794  52.8006826  -4.8622554  65.5701671  53.6831542  -5.2328621
  64.7129174  52.4478377  -5.0568017  57.0894291  61.9486895  -0.5019714
  57.8022263  62.5834360  -0.5743813  56.5984319  62.0450761  -1.3179712
  52.1406204  59.6981339   0.3185857  52.8415664  60.3317822   0.4715251
  51.6701319  60.0396070  -0.4418504  59.9407490  52.2525946  -1.8561593
  59.2878940  52.5001854  -2.5109140  60.3187870  51.4390084  -2.1899116
  56.9014664  62.2885639  -7.7533423  57.0837059  61.4707295  -7.2905670
  57.7247650  62.5053332  -8.1908533  57.2356830  61.2153824 -10.4918374
  57.7644596  60.7046279 -11.1048212  57.4985049  60.8996355  -9.6272841
  55.9895063  52.9945757   4.6304444  55.3135700  52.8939886   5.3006819
  56.8122697  52.8384971   5.0940441  47.7373922  59.2317694  -2.7483041
  48.3227359  58.4861382  -2.6155136  47.5398761  59.5421650  -1.8646377
  50.5912578  62.2668941  -7.7320598  49.9222953  62.7515069  -8.2156558
  50.4525447  62.5138162  -6.8177220  54.7317846  64.3012685  -1.1337940
  55.2836154  64.4644306  -0.3688855  55.0724040  64.8917122  -1.8057915
  49.1834612  48.7210967   3.1156979  49.8106651  48.3388044   3.7294503
  48.3262531  48.5025169   3.4812672  59.5828720  59.1273942   4.7210714
  60.1268624  59.7403900   4.2265669  59.0015565  59.6853521   5.2377727
  57.8686233  62.2494660  -4.1474258  57.7437373  61.4484400  -4.6563312
  58.5265325  62.7440853  -4.6360288  59.9321142  60.0503680  -2.5194708
  58.9851477  59.9309031  -2.5916381  60.2803915  59.1626178  -2.4368446
  52.2920715  45.9397819   1.3043534  52.8155117  46.1860116   2.0669844
  52.0733048  46.7717854   0.8846672  56.9367575  59.8456396  -6.3190355
  56.7892538  58.9173104  -6.1382785  57.7621069  59.8676487  -6.8033280
  60.5401697  60.6684955  -5.2325483  61.4648244  60.4627816  -5.3701032
  60.3717000  60.4201356  -4.3236141  53.4973260  46.8811514  -1.0106795
  53.1570081  46.0819327  -0.6086115  52.7912266  47.1813225  -1.5829962
  55.3850824  48.0819835  -2.6553477  55.1268602  49.0036906  -2.6569146
  54.8535865  47.6850270  -1.9653013  60.3297013  61.1870623  -9.8763391
  60.5033891  60.6217045 -10.6289539  60.8225904  61.9871517 -10.0583901
  46.1473973  53.1985292  -1.8099832  45.6027441  53.9745100  -1.6779558
  47.0253323  53.5456096  -1.9680711  66.1836404  53.9507046  -8.2573092
  66.6267550  53.2014371  -8.6553968  65.3062915  53.9417182  -8.6399360
  61.3172186  60.5037387 -12.7766493  62.0123090  61.1244080 -12.5579178
  61.6595336  59.6532738 -12.5014115  46.9339995  52.3255188   1.0830324
  46.1921731  52.4737823   1.6694955  46.6132739  52.5863454   0.2197074
  63.2163609  57.9537093 -11.2479162  63.7414933  58.2924365 -11.9729842
  63.1285961  57.0184108 -11.4316028  54.8783657  61.8671166   0.8810714
  55.1870784  61.6220313   1.7533414  55.6759139  62.0717805   0.3929585
  54.9004269  64.0209076  -6.8883909  54.4609260  63.5285455  -6.1951052
  55.6512386  63.4782043  -7.1291834  47.3796608  60.2120617  -6.8859281
  48.2054628  59.9124389  -7.2660637  47.0290660  59.4428239  -6.4369492
  52.3478142  59.5647085  -4.8161607  51.7258151  58.9017790  -5.1159379
  53.0183009  59.5908217  -5.4987960  52.4202669  48.0428873   4.7770899
  52.4690825  48.9190996   4.3948668  52.9625183  47.5006266   4.2042542
  62.9057515  58.5869996   4.0572036  62.1153059  58.5694135   3.5176535
  62.6690869  59.1258290   4.8121072  63.0255390  55.4362463   1.3704764
  63.0753395  55.2712470   2.3120287  62.9169313  54.5689722   0.9802645
  60.3159152  51.4193391   2.6864071  61.2169015  51.2799855   2.3948069
  60.3907127  51.5847845   3.6262248  54.6501958  48.7960245   1.5317257
  53.7805267  49.0893811   1.2599846  54.8861438  49.3800690   2.2524521
  64.5273587  57.8559404   1.6146786  64.2358395  58.2189385   2.4510247
  63.9145718  57.1426412   1.4360118  65.7269269  55.4212284  -5.8650644
  66.5616160  55.8602088  -5.7013084  65.8628398  54.9450937  -6.6842398
  62.7760775  52.9792019   0.0826844  63.2514897  53.1719665  -0.7254305
  61.8526340  53.0351205  -0.1629773  57.3540991  45.0139862  -0.9517322
  57.8722935  45.7500889  -1.2770834  56.9996124  45.3203856  -0.1170563
  61.4762444  49.8557779  -1.6844851  62.4279867  49.9555876  -1.6632627
  61.3065894  49.0636047  -1.1746766  59.4976823  46.9413362  -1.4985450
  58.9026756  47.2218375  -2.1938961  59.2126520  47.4307263  -0.7268709
  63.9550522  53.0763898  -2.5702551  63.9226842  52.1379899  -2.3842867
  64.5651145  53.1547935  -3.3036726  64.1045010  49.8674942  -2.5244268
  63.5884059  49.0833399  -2.7114339  64.9884959  49.5393659  -2.3597748
  69.7727072  54.1379905  -3.4296514  70.5030460  53.8765193  -2.8688811
  69.1634017  53.4008627  -3.3894446  67.8542369  52.2787768  -2.8322063
  67.1275532  52.1443733  -3.4405571  67.4389656  52.5864597  -2.0265345
  55.6772545  55.9977698   4.9325310  56.5975555  56.1756297   5.1265357
  55.6422128  55.0533743   4.7805009  48.6734618  53.9078732  -2.4251909
  48.8920627  54.8395840  -2.4063875  49.0860391  53.5486707  -1.6397105
  53.5462483  49.4811938   6.9650840  53.4459210  50.4306295   6.8962931
  53.3284025  49.1530177   6.0926910  53.4093753  52.9109077   5.7815902
  52.9260835  53.7109437   5.9879791  53.4954692  52.9217022   4.8283346
  49.3367091  56.8013612  -2.1815664  50.2910344  56.7697554  -2.2485733
  49.1379614  56.3404235  -1.3665438  49.9266473  55.3714728   0.3855133
  50.7459362  55.8658806   0.4089971  50.2003280  54.4546696   0.3572701
  65.4720164  48.4999620  -5.4788631  66.0664654  48.2595356  -6.1895323
  65.5446747  47.7806751  -4.8515095  47.6917319  62.3433231  -5.1645467
  47.5571787  61.5833632  -5.7307468  47.2749382  63.0674131  -5.6316678
  67.7791236  51.8065821  -6.7045210  67.2190794  51.8759010  -5.9313648
  67.1734740  51.6306806  -7.4245714  50.8486445  63.2402548  -4.9527024
  50.7318829  64.1847981  -5.0548334  50.0278891  62.9376110  -4.5641225
  45.1801387  49.7052861   1.0847330  45.8260250  49.1951815   1.5734556
  44.9718538  50.4421543   1.6590756  57.7054779  56.7733709   6.5839471
  58.5745939  56.9474361   6.2226106  57.2261531  57.5928126   6.4615200
  51.8740959  63.8930810  -1.7371095  52.7768206  63.9254420  -1.4204600
  51.6478329  62.9631261  -1.7224760  53.6294561  62.6461796  -5.0761017
  52.6790192  62.6463658  -5.1896645  53.9327047  61.8994531  -5.5924982
  49.5198878  46.8520479   5.1822345  50.3830339  46.4957283   5.3925669
  48.9464289  46.5134373   5.8697749  69.3647255  68.4822335  -4.0115254
  70.0025665  68.3629082  -4.7151914  69.2468098  69.4303179  -3.9527302
  66.1736961  68.4349763  -4.0753730  65.8355473  68.3190828  -4.9633195
  67.0426729  68.0340928  -4.0952724  66.6556744  69.5884615   1.8832476
  66.6445385  69.1937413   1.0112979  66.8177384  68.8550687   2.4766247
  59.5788209  71.7836431  -5.2472618  60.3709501  71.4427256  -5.6626319
  59.8184859  71.8931406  -4.3270465  63.3764005  72.3721727   0.8311660
  63.0853871  73.2767357   0.7158326  64.0120990  72.4138254   1.5455729
  64.3020212  69.7498575  -2.5786981  64.8983784  69.5254597  -3.2930018
  64.3595184  69.0083321  -1.9761533  71.8422371  59.8570596  -1.5734459
  71.5105696  60.7266007  -1.7973244  71.2467984  59.5406880  -0.8940429
  68.3353890  72.0583142  -2.1738547  68.0354613  72.9608181  -2.2822739
  67.9904950  71.7915325  -1.3217394  61.7866372  68.5096939  -6.1401842
  60.8616868  68.3773153  -5.9324150  62.0350785  69.2891158  -5.6431900
  71.7351034  64.5765682  -4.4941109  70.8267911  64.5081091  -4.7882348
  71.6838630  65.0537627  -3.6659284  59.1475183  68.1530212  -5.3058053
  59.2767564  68.4064691  -4.3918641  58.4672634  68.7457920  -5.6253398
  65.8091900  65.9955328   3.4493788  65.0325234  66.5549248   3.4396653
  66.4482463  66.4812111   3.9708658  73.6012680  62.7782121  -2.7163235
  72.9587061  63.0714654  -3.3623441  73.0967609  62.6635041  -1.9110039
  64.0638272  68.8040781   3.0111755  64.8052957  69.3425825   2.7346579
  63.3575258  69.4307070   3.1683307  69.5393612  70.9469922   1.6083917
  69.9476968  70.5052332   0.8638549  68.8170873  70.3722549   1.8618109
  65.8924682  65.8842528  -1.0182527  66.7385877  66.3081942  -0.8747878
  65.8323320  65.2276153  -0.3243963  69.0424127  63.5446897   0.6398647
  68.7985059  64.2988957   0.1032923  69.3184058  63.9232244   1.4745894
  70.9962590  70.0885509  -0.6824087  71.2079485  70.7317269  -1.3589706
  70.9492338  69.2547826  -1.1502157  68.5988819  62.7003330  -3.7787515
  67.7373298  62.9984583  -3.4870778  68.6251254  62.9173729  -4.7106483
  62.3074469  70.7917002  -4.4333946  62.8775826  71.2204270  -5.0716462
  62.8982581  70.5099587  -3.7349761  62.7999636  65.9580429   3.8127065
  62.1698297  66.6396710   4.0462462  62.6935724  65.8463511   2.8680203
  58.0944608  65.6252225  -5.2607011  57.3043662  65.8809754  -5.7366900
  58.5855856  66.4400563  -5.1554970  60.0459354  65.9896805  -8.3023534
  59.2490517  66.1015499  -7.7840038  59.8184946  66.3283457  -9.1682644
  65.8765021  72.5141508  -0.3541019  65.9409454  72.9761915   0.4817152
  65.1675945  71.8838873  -0.2258710  56.3782311  65.8782716  -2.8292020
  56.6290350  66.7629726  -2.5634444  56.9141860  65.6987317  -3.6016928
  62.0780379  60.2601195   6.1752316  61.6847324  59.7067394   6.8499960
  62.8946519  60.5711774   6.5658834  64.9948340  61.6759074   3.7672573
  65.7358053  62.2766227   3.6877035  65.2266262  60.9336712   3.2090615
  60.1389678  66.8615442   2.0450802  60.0243193  65.9600699   2.3457901
  59.2834195  67.1079138   1.6935619  67.2181515  74.8033182   3.6438303
  66.7745370  74.0169560   3.3259207  67.8798729  74.9912332   2.9782194
  61.9768637  76.3328983  -1.8301019  62.5276062  76.2046047  -2.6024025
  61.1380112  76.6323872  -2.1806126  69.3162753  75.0835982   1.6719704
  69.2981229  75.9044863   1.1799973  70.2382674  74.9590057   1.8969845
  65.7735808  72.5980111   2.5143213  66.3064144  71.8368399   2.2842521
  65.2449889  72.3053763   3.2567367  68.9405503  57.7040177  -1.9563146
  68.5969772  58.5941819  -2.0324035  69.3084465  57.5141835  -2.8193561
  66.4902896  62.5398489  -8.3905472  65.6344493  62.1505339  -8.5699833
  66.9029848  62.6190450  -9.2505687  68.0202043  60.0744832  -3.9913912
  67.5166839  60.0374968  -4.8046107  68.3132650  60.9837575  -3.9317256
  64.2644929  60.1583562  -4.9847731  65.1297926  59.9626371  -5.3441841
  64.3322438  59.9293914  -4.0578374  61.8707248  62.3885770  -7.6131364
  62.4451000  62.1660952  -8.3458171  62.4578230  62.4574465  -6.8602763
  64.1729916  59.2627019  -8.8856294  63.5194328  58.9476036  -9.5099680
  64.1310390  58.6402759  -8.1596471  67.4067656  65.7508952  -4.5608647
  66.4890217  65.9723899  -4.7186959  67.8227800  65.8255263  -5.4196939
  70.7393168  56.9633736  -6.8545408  71.0452045  56.1031100  -7.1419493
  71.4645773  57.5551357  -7.0546414  57.0317524  67.3664423  -8.4663810
  56.8341924  66.7733784  -9.1912743  56.4764188  67.0616633  -7.7487871
  65.0114248  67.2587529  -6.3469217  65.0662858  66.3061366  -6.4226740
  64.2005450  67.4146969  -5.8627918  62.9506608  65.8764589  -8.5878838
  62.1374473  66.1758760  -8.1813646  63.4465602  65.4820278  -7.8704356
  68.5480820  66.3406414   0.2436056  68.9030207  66.5677887   1.1030522
  69.1952951  66.6724790  -0.3786689  62.4420683  63.4482945  -2.9717603
  63.0820062  63.3071704  -3.6694640  61.6098213  63.1617458  -3.3479001
  59.4449299  63.4183270  -8.1944616  59.7056116  64.3328603  -8.3035456
  60.2666471  62.9507712  -8.0448003  60.9174224  64.8321027  -1.0245792
  61.5897278  64.6238389  -1.6733143  60.0904011  64.6343113  -1.4640559
  66.8199796  61.4582968   0.9919869  66.1727711  62.1572917   0.8984346
  67.5900812  61.8919112   1.3596117  70.2278594  71.7231820   4.0670422
  70.0764101  71.4942372   3.1500506  70.2183274  72.6802421   4.0801767
  66.9963931  69.2963733  -0.9483311  67.9255991  69.4474892  -1.1214344
  66.5754961  69.3847754  -1.8034665  65.7952263  73.3214397  -3.1784774
  65.6563348  72.9533182  -2.3058835  65.0066859  73.8362037  -3.3500816
  61.3201722  68.1063630  -0.2643355  61.1821520  67.3743869   0.3368184
  62.2306645  68.0172530  -0.5459167  63.9484022  67.8183589  -0.7759675
  64.6583641  67.1776781  -0.8173057  63.9053330  68.0696484   0.1466506
  71.9370801  74.7550943   2.1446904  71.8783347  74.0710163   1.4777487
  72.3390319  75.4969933   1.6927530  62.6612956  64.8048807   1.0435965
  62.1250313  64.3539546   1.6957561  62.0729665  64.9394716   0.3006429
  71.9388208  72.7190526   0.3760884  71.0514987  72.3816448   0.4987283
  72.5086759  71.9873558   0.6129649  53.5917355  69.0514618  -6.2996065
  54.2788395  68.7376348  -6.8875049  53.4365484  69.9555983  -6.5728813
  58.3952078  63.9404815  -1.8711041  58.3110266  63.3330484  -2.6060631
  57.5734784  64.4313833  -1.8701545  68.5675791  62.4258378  -6.5040846
  69.0644491  61.6728341  -6.8239776  67.7962773  62.4622695  -7.0697637
  65.1510760  64.5675761  -6.7769161  64.7808548  64.0146802  -6.0888256
  65.6469853  63.9633895  -7.3294161  62.9799959  75.0273256   0.3185857
  63.6809418  75.6609739   0.4715251  62.5095074  75.3687988  -0.4418504
  71.0094786  59.3927972  -4.3561487  70.0957866  59.6232199  -4.1879280
  71.4387888  59.4766416  -3.5047455  70.7801245  67.5817864  -1.8561593
  70.1272695  67.8293771  -2.5109140  71.1581625  66.7682002  -2.1899116
  66.8288818  68.3237675   4.6304444  66.1529455  68.2231804   5.3006819
  67.6516452  68.1676889   5.0940441  58.5767677  74.5609611  -2.7483041
  59.1621114  73.8153299  -2.6155136  58.3792515  74.8713568  -1.8646377
  53.1685332  67.1315212  -4.0278598  53.2069431  66.5978802  -3.2341479
  52.6625624  66.6050417  -4.6467620  60.5476094  61.9779752  -0.5316055
  60.6117420  62.8394583  -0.9438658  60.4843214  61.3653754  -1.2643697
  60.0228366  64.0502885   3.1156979  60.6500405  63.6679962   3.7294503
  59.1656285  63.8317087   3.4812672  70.4222475  74.4565860   4.7210714
  70.9662379  75.0695818   4.2265669  69.8409320  75.0145438   5.2377727
  56.7993909  65.8579314 -10.9524666  57.0947350  64.9489992 -11.0057612
  55.8981945  65.8367053 -11.2743664  60.3288156  63.9335310  -4.9697118
  59.6074742  64.5471278  -5.1089644  61.1181412  64.4693075  -5.0480472
  63.1314470  61.2689737   1.3043534  63.6548871  61.5152033   2.0669844
  62.9126803  62.1009772   0.8846672  58.5281751  63.5393411 -10.8285341
  58.1994457  62.6590790 -11.0110235  58.8821121  63.4841080  -9.9408952
  64.3367015  62.2103432  -1.0106795  63.9963835  61.4111245  -0.6086115
  63.6306021  62.5105143  -1.5829962  64.9883486  59.2952744  -2.5579472
  65.8109556  58.8213223  -2.6800582  65.2321550  60.0743228  -2.0580786
  62.5122065  65.9871865  -4.7487494  62.3666646  66.3012168  -3.8563212
  62.0347269  66.6056765  -5.3016595  64.3718448  62.9774413  -4.7006604
  64.3580017  62.0815506  -5.0374306  65.0890876  62.9845077  -4.0668318
  66.2244579  63.4111753  -2.6553477  65.9662357  64.3328824  -2.6569146
  65.6929619  63.0142188  -1.9653013  56.9867727  68.5277209  -1.8099832
  56.4421195  69.3037017  -1.6779558  57.8647077  68.8748014  -1.9680711
  63.7755344  61.8588793  -9.4319034  63.8971255  60.9305439  -9.2328146
  63.4857386  61.8727479 -10.3440719  66.6446534  59.5443704  -6.2952314
  66.6668231  59.6083037  -7.2500335  67.0614593  58.7048212  -6.1011808
  57.7733749  67.6547106   1.0830324  57.0315485  67.8029741   1.6694955
  57.4526494  67.9155371   0.2197074  65.7177412  77.1963084   0.8810714
  66.0264538  76.9512231   1.7533414  66.5152894  77.4009722   0.3929585
  56.4198968  73.4598861  -5.9270347  55.5830876  73.0321035  -6.1086346
  56.3922613  73.6531304  -4.9899556  63.2596424  63.3720791   4.7770899
  63.3084579  64.2482913   4.3948668  63.8018938  62.8298184   4.2042542
  73.7451269  73.9161914   4.0572036  72.9546813  73.8986053   3.5176535
  73.5084624  74.4550208   4.8121072  73.8649144  70.7654380   1.3704764
  73.9147149  70.6004388   2.3120287  73.7563068  69.8981639   0.9802645
  71.1552907  66.7485308   2.6864071  72.0562769  66.6091773   2.3948069
  71.2300881  66.9139763   3.6262248  65.4895712  64.1252163   1.5317257
  64.6199021  64.4185729   1.2599846  65.7255192  64.7092608   2.2524521
  75.3667341  73.1851322   1.6146786  75.0752149  73.5481302   2.4510247
  74.7539472  72.4718330   1.4360118  73.6154529  68.3083936   0.0826844
  74.0908651  68.5011583  -0.7254305  72.6920095  68.3643122  -0.1629773
  68.1934746  60.3431780  -0.9517322  68.7116690  61.0792807  -1.2770834
  67.8389879  60.6495773  -0.1170563  68.4447340  56.7632062  -5.4316426
  68.7249094  56.0955252  -4.8055999  69.2297947  56.9561158  -5.9441762
  72.3156198  65.1849696  -1.6844851  73.2673621  65.2847794  -1.6632627
  72.1459649  64.3927965  -1.1746766  70.3370578  62.2705280  -1.4985450
  69.7420510  62.5510292  -2.1938961  70.0520275  62.7599181  -0.7268709
  74.9438765  65.1966860  -2.5244268  74.4277813  64.4125316  -2.7114339
  75.8278713  64.8685576  -2.3597748  72.6049492  58.9407875  -6.5648455
  72.4074313  58.6322963  -5.6805123  73.2149197  59.6669514  -6.4350525
  66.5166300  71.3269615   4.9325310  67.4369309  71.5048214   5.1265357
  66.4815883  70.3825661   4.7805009  55.7348465  66.5208209  -6.1421415
  55.4151249  65.6673517  -6.4347041  55.1881893  66.7356787  -5.3863448
  59.5128372  69.2370650  -2.4251909  59.7314382  70.1687758  -2.4063875
  59.9254146  68.8778624  -1.6397105  66.4332590  59.7438735 -10.4376220
  65.6233318  59.3985820 -10.0620974  67.1217007  59.4346279  -9.8488609
  68.3623138  58.8216782  -8.8151924  68.9154177  59.2412235  -8.1561901
  68.5993225  57.8952530  -8.7728968  64.3856237  64.8103856   6.9650840
  64.2852964  65.7598213   6.8962931  64.1677780  64.4822095   6.0926910
  55.6036725  70.1411120  -4.1728294  54.9100196  69.7265073  -4.6858339
  56.3509716  70.1831657  -4.7694875  70.1905512  60.3322365  -7.1051939
  70.6905290  60.4438899  -7.9137620  70.8341120  60.0283418  -6.4651131
  64.2487508  68.2400995   5.7815902  63.7654589  69.0401355   5.9879791
  64.3348447  68.2508939   4.8283346  57.5173467  70.0729374  -6.2962279
  57.4944155  70.1717061  -7.2480396  57.8274104  70.9194525  -5.9745113
  60.1760845  72.1305529  -2.1815664  61.1304099  72.0989472  -2.2485733
  59.9773369  71.6696153  -1.3665438  60.7660227  70.7006645   0.3855133
  61.5853116  71.1950724   0.4089971  61.0397035  69.7838613   0.3572701
  56.0195141  65.0344779   1.0847330  56.6654005  64.5243733   1.5734556
  55.8112292  65.7713461   1.6590756  68.5448534  72.1025627   6.5839471
  69.4139693  72.2766279   6.2226106  68.0655285  72.9220043   6.4615200
  62.7134714  79.2222728  -1.7371095  63.6161960  79.2546338  -1.4204600
  62.4872084  78.2923179  -1.7224760  68.3550871  55.8927600  -8.9082837
  67.5883267  55.3386087  -8.7626154  68.7661576  55.9649469  -8.0468685
  60.3592632  62.1812396   5.1822345  61.2224094  61.8249201   5.3925669
  59.7858043  61.8426291   5.8697749  72.9174133  75.5893113   6.1752316
  72.5241079  75.0359311   6.8499960  73.7340273  75.9003691   6.5658834
  75.8342094  77.0050992   3.7672573  76.5751808  77.6058145   3.6877035
  76.0660017  76.2628630   3.2090615  70.8622121  79.3794802   3.1156979
  71.4894160  78.9971880   3.7294503  70.0050040  79.1609004   3.4812672
  74.0990178  78.7012708   4.7770899  74.1478334  79.5774831   4.3948668
  74.6412692  78.1590101   4.2042542  75.2249992  80.1395773   6.9650840
  75.1246719  81.0890130   6.8962931  75.0071534  79.8114012   6.0926910
  66.8588896  80.3636697   1.0847330  67.5047759  79.8535651   1.5734556
  66.6506047  81.1005378   1.6590756  71.1986387  77.5104314   5.1822345
  72.0617848  77.1541119   5.3925669  70.6251798  77.1718209   5.8697749
  71.9370802  51.7613065 -11.1307789  71.8783348  51.0772285 -11.7977206
  72.3390321  52.5032055 -11.5827163  70.4222476  51.4627982  -8.5543979
  70.9662380  52.0757941  -9.0489024  69.8409321  52.0207561  -8.0376966
  73.7451271  50.9224036  -9.2182658  72.9546814  50.9048175  -9.7578158
  73.5084625  51.4612330  -8.4633621  75.3667342  50.1913444 -11.6607908
  75.0752151  50.5543425 -10.8244447  74.7539474  49.4780453 -11.8394575
  68.5448535  49.1087749  -6.6915222  69.4139694  49.2828401  -7.0528588
  68.0655286  49.9282166  -6.8139493  72.9174134  52.5955235  -7.1002377
  72.5241080  52.0421434  -6.4254733  73.7340275  52.9065814  -6.7095860
  75.8342095  54.0113115  -9.5082121  76.5751809  54.6120268  -9.5877658
  76.0660018  53.2690752 -10.0664078  70.8622122  56.3856925 -10.1597714
  71.4894161  56.0034002  -9.5460190  70.0050041  56.1671127  -9.7942022
  74.0990179  55.7074831  -8.4983795  74.1478335  56.5836954  -8.8806025
  74.6412694  55.1652224  -9.0712151  75.2249993  57.1457896  -6.3103853
  75.1246720  58.0952253  -6.3791762  75.0071535  56.8176135  -7.1827783
  66.8588897  57.3698819 -12.1907363  67.5047761  56.8597773 -11.7020138
  66.6506048  58.1067501 -11.6163938  71.1986388  54.5166436  -8.0932349
  72.0617850  54.1603241  -7.8829024  70.6251799  54.1780331  -7.4056945
   4.3258125  99.9680052  46.9402012   3.5721833  99.3987450  46.7846016
   4.4605666  99.9342716  47.8872647   0.6906737 101.4088040  47.2368126
   1.5253628 101.8477844  47.4005687   0.8265866 100.9326694  46.4176372
   4.7364540 100.1255662  49.6722256   5.4667928  99.8640950  50.2329960
   4.1271485  99.3884384  49.7124324   2.8179837  98.2663524  50.2696707
   2.0913000  98.1319489  49.6613199   2.4027124  98.5740353  51.0753425
   2.7428704  97.7941578  46.3973560   2.1828262  97.8634767  47.1705122
   2.1372208  97.6182562  45.6773056   3.9042971 103.6915934  51.1455625
   3.5607240 104.5817575  51.0694735   4.2721933 103.5017591  50.2825210
   5.7030636 102.9509493  46.2473362   6.0089513 102.0906856  45.9599277
   6.4283241 103.5427113  46.0472356   3.4084808 102.7507819  47.6702345
   3.6886562 102.0831008  48.2962771   4.1935415 102.9436915  47.1577009
   7.5686960 104.9283632  46.5370315   7.3711781 104.6198720  47.4213647
   8.1786665 105.6545271  46.6668245   3.3188339 101.8803357  44.1935934
   2.5520735 101.3261844  44.3392616   3.7299044 101.9525226  45.0550085
   4.3258126  76.9742175  33.6647319   3.5721834  76.4049573  33.5091323
   4.4605667  76.9404839  34.6117953   0.6906738  78.4150163  33.9613433
   1.5253630  78.8539967  34.1250993   0.8265867  77.9388816  33.1421679
   4.7364541  77.1317784  36.3967563   5.4667929  76.8703073  36.9575266
   4.1271486  76.3946506  36.4369631   2.8179838  75.2725647  36.9942014
   2.0913002  75.1381612  36.3858506   2.4027125  75.5802476  37.7998732
   2.7428706  74.8003700  33.1218867   2.1828264  74.8696889  33.8950429
   2.1372209  74.6244685  32.4018363   4.3284724  91.4760214  35.8148823
   4.9663134  91.3566961  35.1112163   4.2105567  92.4241058  35.8736775
   1.1374430  91.4287642  35.7510347   0.7992942  91.3128707  34.8630882
   2.0064199  91.0278807  35.7311353   1.6194213  92.5822494  41.7096553
   1.6082854  92.1875292  40.8377056   1.7814853  91.8488567  42.3030324
   3.8825993  89.2011668  32.8902031   4.6689082  88.7831091  32.5392448
   4.1464697  90.1057760  33.0583679   9.2834420  89.1386901  33.7935009
  10.0159592  88.5686118  34.0272839   8.5273775  88.7508502  34.2341515
   0.9010539  91.5614143  30.9898352   0.5368747  91.0344764  31.7011273
   1.7577655  91.1712612  30.8164837   6.8059840  82.8508475  38.2529618
   6.4743165  83.7203886  38.0290833   6.2105453  82.5344759  38.9323648
   3.2991360  95.0521021  37.6525530   2.9992083  95.9546060  37.5441338
   2.9542419  94.7853204  38.5046683   6.6988503  87.5703561  35.3322968
   5.7905381  87.5018970  35.0381729   6.6476099  88.0475506  36.1604793
   8.5650150  85.7720000  37.1100842   7.9224530  86.0652533  36.4640636
   8.0605078  85.6572920  37.9154038   6.2190313  89.5183173  27.7986701
   7.1308170  89.7510560  27.6234399   5.7099961  90.1020217  27.2361780
   4.5031081  93.9407801  41.4347994   4.9114437  93.4990211  40.6902626
   3.7808343  93.3660428  41.6882186   0.8562151  88.8780408  38.8081551
   1.7023346  89.3019821  38.9516200   0.7960789  88.2214032  39.5020114
   4.8259896  94.5008991  35.1900282   4.1968758  94.6654706  34.4876350
   4.4385558  94.9150601  35.9611246   8.7049128  95.4363429  32.5444646
   8.0200166  95.8162331  31.9941680   8.7892977  96.0458756  33.2776594
   4.0061596  86.5384776  40.4662724   3.7622528  87.2926836  39.9297000
   4.2821527  86.9170124  41.3009971   5.9600059  93.0823388  39.1439990
   6.1716954  93.7255148  38.4674371   5.9129808  92.2485705  38.6761920
   3.5626288  85.6941209  36.0476562   2.7010767  85.9922463  36.3393299
   3.5888723  85.9111608  35.1157595   7.0745887  95.9595344  37.3162347
   7.8963331  95.5575531  37.0345029   7.0708290  95.8563578  38.2678463
  15.1651880  92.3034092  33.6647319  14.4115589  91.7341490  33.5091323
  15.2999421  92.2696757  34.6117953   2.1818985  97.7971061  43.4702380
   1.7382839  97.0107440  43.1523284   2.8436198  97.9850212  42.8046271
   4.2800223  98.0773861  41.4983781   4.2618698  98.8982742  41.0064050
   5.2020143  97.9527936  41.7233922   3.9042972  80.6978056  37.8700931
   3.5607241  81.5879698  37.7940042   4.2721934  80.5079714  37.0070516
   1.4540366  85.5336368  31.4358605   0.5981962  85.1443219  31.2564244
   1.8667317  85.6128329  30.5758390   2.9839512  83.0682712  35.8350165
   2.4804308  83.0312847  35.0217970   3.2770119  83.9775454  35.8946821
   8.8427529  93.4419022  28.3126540   8.0656971  93.1030182  27.8681702
   9.5219010  93.4471645  27.6381505   3.6579558  88.5613760  28.2033148
   3.3529693  88.8759909  29.0543291   4.6110000  88.6395179  28.2460481
   7.0818836  92.9153003  34.9693148   6.4242510  93.6052265  35.0573277
   7.8859235  93.3049435  35.3127134   5.8924294  91.2697376  33.0197090
   6.4056176  91.9027368  33.5218799   6.5425518  90.6698572  32.6540450
   2.3705125  88.7446832  35.2655430   1.4527687  88.9661779  35.1077118
   2.7865269  88.8193142  34.4067138   3.1540173  90.1438247  30.3958110
   3.9011992  90.6559645  30.0865233   3.4231763  89.8222300  31.2562504
   6.6586091  96.2503378  31.1476232   6.2048418  95.4094287  31.2041423
   6.0280057  96.8864776  31.4851012   5.6019010  87.1795364  32.3776900
   4.8641767  86.6672750  32.7087142   5.8545784  86.7395745  31.5660177
   5.1019030  98.0879874  32.0826050   5.3942004  98.6484931  31.3638416
   5.6117650  98.3808435  32.8379210   5.7030638  79.9571616  32.9718669
   6.0089514  79.0968979  32.6844584   6.4283242  80.5489236  32.7717663
   3.5118289  89.3344293  40.0700133   3.8667677  89.5615766  40.9294599
   4.1590420  89.6662670  39.4477388   9.2416026  92.4562729  30.7749462
   9.1033924  92.6464325  29.8470651   8.8852245  93.2182112  31.2317513
   9.2685405  94.5239256  35.7860733   9.7021912  94.4314545  36.6343787
   9.9816986  94.4996756  35.1480749   3.0013300  98.1241350  37.3193834
   3.0550323  98.6932286  38.0871550   2.1328082  98.2943235  36.9547871
  10.1300955  94.5662956  38.3193619  10.3236845  95.4708767  38.5652894
  10.0301573  94.1070375  39.1532204   1.7837266  84.4520847  40.8183946
   1.1365181  85.1510797  40.7248423   2.5538281  84.8856991  41.1860194
   5.1916064  94.7169699  43.8934499   5.0401570  94.4880251  42.9764583
   5.1820743  95.6740301  43.9065844   1.9601400  92.2901612  38.8780766
   2.8893460  92.4412772  38.7049733   1.5392430  92.3785633  38.0229412
   2.3094947  95.6933879  34.0368141   1.9744780  95.6534649  34.9325791
   1.8098893  95.0278595  33.5638551   6.9008270  97.7488822  41.9710981
   6.8420816  97.0648042  41.3041564   7.3027789  98.4907812  41.5191607
   6.9025678  95.7128406  40.2024961   6.0152456  95.3754327  40.3251360
   7.4724229  94.9811437  40.4393726   3.5313261  85.4196257  33.3223231
   4.0281960  84.6666220  33.0024301   2.7600242  85.4560574  32.7566440
  11.3843018  91.1236623  34.9641523  11.3732894  92.0061338  34.5935456
  10.5160398  90.7708174  34.7696060   2.8925514 100.2716692  39.3244363
   3.6053487 100.9064157  39.2520264   2.4015543 100.3680558  38.5084365
   4.6143041  94.1767945  30.8961654   3.6799320  94.2969407  30.7266359
   4.7919710  93.2740411  30.6321664   8.0015593  90.0185264  31.4311689
   8.4676045  90.8513256  31.3571991   8.4523093  89.5530246  32.1356947
   6.0691824  96.3629085  28.4297841   6.3451668  96.2485680  29.3391715
   5.1996323  95.9646570  28.3910014   5.9732255  82.3865851  35.4702590
   5.0595335  82.6170078  35.6384797   6.4025357  82.4704295  36.3216622
   5.7438714  90.5755743  37.9702484   5.0910164  90.8231650  37.3154937
   6.1219094  89.7619881  37.6364961   1.7926287  91.3175554  44.4568521
   1.1166924  91.2169683  45.1270896   2.6153921  91.1614768  44.9204518
   0.5349070 102.6242481  38.6926137   1.0867378 102.7874103  39.4575222
   0.8755263 103.2146919  38.0206162   5.3859944  97.4503739  44.5474791
   5.9299848  98.0633697  44.0529746   4.8046789  98.0083317  45.0641804
   3.6717457 100.5724457  35.6789819   3.5468597  99.7714197  35.1700765
   4.3296548 101.0670650  35.1903789   5.7352366  98.3733477  37.3069369
   4.7882701  98.2538828  37.2347696   6.0835139  97.4855975  37.3895631
   2.7398799  98.1686193  33.5073722   2.5923761  97.2402901  33.6881292
   3.5652292  98.1906284  33.0230797   6.3432921  98.9914752  34.5938594
   7.2679468  98.7857613  34.4563045   6.1748224  98.7431153  35.5027936
   2.7360313  86.0224031  28.5005839   2.9523928  86.9048669  28.1994667
   2.2554380  85.6310244  27.7711481   1.1882048  86.4049632  37.1710600
   0.9299826  87.3266703  37.1694931   0.6567089  86.0080067  37.8611064
   6.1328237  99.5100419  29.9500686   6.3065114  98.9446842  29.1974538
   6.6257128 100.3101314  29.7680176   1.6084004  82.5381583  33.5311763
   1.6305701  82.6020916  32.5763742   2.0252063  81.6986091  33.7252269
  11.9867628  92.2736842  31.5690985  12.4298774  91.5244168  31.1710109
  11.1094138  92.2646979  31.1864717   9.0194833  96.2766889  28.5784915
   9.5446157  96.6154162  27.8534235   8.9317185  95.3413905  28.3948049
   0.6814881 100.1900963  40.7074791   0.9902008  99.9450110  41.5797491
   1.4790363 100.3947602  40.2193662   8.7088739  96.9099793  43.8836113
   7.9184282  96.8923932  43.3440612   8.4722093  97.4488087  44.6385149
   8.8286614  93.7592259  41.1968841   8.8784619  93.5942267  42.1384364
   8.7200537  92.8919518  40.8066722   6.1190376  89.7423187  42.5128148
   7.0200239  89.6029652  42.2212146   6.1938351  89.9077642  43.4526325
  10.3304810  96.1789201  41.4410863  10.0389619  96.5419181  42.2774324
   9.7176942  95.4656209  41.2624195  11.5300493  93.7442081  33.9613433
  12.3647384  94.1831885  34.1250993  11.6659622  93.2680734  33.1421679
   8.5791999  91.3021816  39.9090921   9.0546120  91.4949462  39.1009772
   7.6557564  91.3581001  39.6634304   3.1572215  83.3369659  38.8746755
   3.6754159  84.0730686  38.5493243   2.8027348  83.6433652  39.7093514
   3.4084809  79.7569942  34.3947651   3.6886563  79.0893131  35.0208078
   4.1935416  79.9499037  33.8822315   7.2793668  88.1787576  38.1419226
   8.2311091  88.2785673  38.1631450   7.1097118  87.3865844  38.6517311
   5.3008047  85.2643159  38.3278627   4.7057979  85.5448172  37.6325116
   5.0157744  85.7537060  39.0995368   9.7581745  91.3993695  37.2561526
   9.7258066  90.4609696  37.4421210  10.3682369  91.4777732  36.5227351
   9.9076234  88.1904739  37.3019809   9.3915283  87.4063195  37.1149738
  10.7916182  87.8623455  37.4666329   7.5686961  81.9345754  33.2615622
   7.3711782  81.6260843  34.1458954   8.1786666  82.6607393  33.3913552
  15.5758295  92.4609702  36.3967563  16.3061684  92.1994990  36.9575266
  14.9665241  91.7238424  36.4369631  13.6573592  90.6017565  36.9942014
  12.9306756  90.4673530  36.3858506  13.2420879  90.9094393  37.7998732
   1.4803769  94.3207494  44.7589387   2.4006778  94.4986093  44.9529434
   1.4453352  93.3763540  44.6069086   1.3970059  82.7376614  29.3887857
   0.5870788  82.3923699  29.7643103   2.0854476  82.4284158  29.9775468
   3.3260608  81.8154661  31.0112153   3.8791646  82.2350115  31.6702176
   3.5630694  80.8890409  31.0535109   6.7039415  83.9255186  30.5190818
   6.1238084  84.5839990  30.1368870   6.4375347  83.1032531  30.1078235
   5.1542981  83.3260244  32.7212138   5.6542759  83.4376779  31.9126457
   5.7978589  83.0221297  33.3612946   5.4864293  86.0855277  29.5747166
   4.5990148  86.3704927  29.3567361   5.9018282  85.9249040  28.7274443
   8.8378829  86.1101798  33.2901505   9.6139219  86.5998250  33.5626122
   8.1126963  86.5359852  33.7473375  11.2751387  86.8229417  34.3475446
  11.8695878  86.5825153  33.6368754  11.3477971  86.1036548  34.9748982
   5.4605316  91.6009813  29.7897456   5.4040518  92.0578364  28.9505088
   6.0133659  90.8400497  29.6120299   9.2710122  87.3899545  30.6147575
   9.0147057  86.9896180  31.4455783   8.6462990  88.1043338  30.4897715
  13.5822460  90.1295618  33.1218867  13.0222018  90.1988807  33.8950429
  12.9765963  89.9536602  32.4018363   6.1940096  92.7914594  27.0849985
   6.1388899  92.6258865  26.1438429   5.5686151  93.4990627  27.2412175
   3.5086003  95.0963506  46.4103548   4.3777162  95.2704158  46.0490183
   3.0292754  95.9157923  46.2879277   3.3188341  78.8865480  30.9181240
   2.5520736  78.3323966  31.0637923   3.7299046  78.9587348  31.7795392
  15.1678479 106.8052132  35.8148823  15.8056889 106.6858879  35.1112163
  15.0499321 107.7532976  35.8736775  11.9768185 106.7579560  35.7510347
  11.6386696 106.6420625  34.8630882  12.8457953 106.3570725  35.7311353
  12.4587968 107.9114412  41.7096553  12.4476609 107.5167210  40.8377056
  12.6208607 107.1780484  42.3030324  14.7219747 104.5303586  32.8902031
  15.5082836 104.1123009  32.5392448  14.9858451 105.4349678  33.0583679
  20.1228174 104.4678819  33.7935009  20.8553346 103.8978036  34.0272839
  19.3667530 104.0800419  34.2341515  11.7404294 106.8906060  30.9898352
  11.3762501 106.3636681  31.7011273  12.5971410 106.5004529  30.8164837
  17.6453595  98.1800393  38.2529618  17.3136919  99.0495804  38.0290833
  17.0499208  97.8636677  38.9323648  17.5382258 102.8995479  35.3322968
  16.6299135 102.8310887  35.0381729  17.4869854 103.3767424  36.1604793
  11.6123124 104.3185125  43.2757865  10.8356458 104.8779045  43.2660730
  12.2513687 104.8041908  43.7972735  19.4043904 101.1011917  37.1100842
  18.7618285 101.3944451  36.4640636  18.8998833 100.9864838  37.9154038
  17.0584068 104.8475091  27.7986701  17.9701924 105.0802477  27.6234399
  16.5493715 105.4312135  27.2361780  11.6955906 104.2072325  38.8081551
  12.5417101 104.6311739  38.9516200  11.6354543 103.5505950  39.5020114
  14.8455351 101.8676694  40.4662724  14.6016283 102.6218754  39.9297000
  15.1215281 102.2462041  41.3009971  16.7993814 108.4115306  39.1439990
  17.0110709 109.0547066  38.4674371  16.7523562 107.5777623  38.6761920
  14.4020043 101.0233127  36.0476562  13.5404522 101.3214380  36.3393299
  14.4282477 101.2403526  35.1157595   8.6030860 104.2810226  43.6391142
   7.9729520 104.9626507  43.8726539   8.4966948 104.1693308  42.6944280
  26.0045635 107.6326010  33.6647319  25.2509343 107.0633408  33.5091323
  26.1393176 107.5988674  34.6117953   7.8811602  98.5830992  46.0016393
   7.4878548  98.0297191  46.6764037   8.6977743  98.8941571  46.3922911
  10.7979563  99.9988871  43.5936650  11.5389277 100.5996024  43.5141112
  11.0297486  99.2566509  43.0354692  14.7436726  96.0269974  37.8700931
  14.4000996  96.9171616  37.7940042  15.1115689  95.8371632  37.0070516
  12.2934120 100.8628286  31.4358605  11.4375716 100.4735136  31.2564244
  12.7061072 100.9420247  30.5758390  13.8233267  98.3974629  35.8350165
  13.3198062  98.3604764  35.0217970  14.1163874  99.3067372  35.8946821
  10.0676153  98.4813359  34.8416346  10.9329149  98.2856168  34.4822236
  10.1353662  98.2523711  35.7685703  19.6821283 108.7710940  28.3126540
  18.9050726 108.4322099  27.8681702  20.3612764 108.7763563  27.6381505
  14.4973312 103.8905677  28.2033148  14.1923448 104.2051826  29.0543291
  15.4503754 103.9687097  28.2460481  17.9212590 108.2444921  34.9693148
  17.2636265 108.9344182  35.0573277  18.7252989 108.6341353  35.3127134
   7.6738472 100.7115567  32.2132713   8.2482224 100.4890748  31.4805906
   8.2609454 100.7804261  32.9661314  16.7318049 106.5989294  33.0197090
  17.2449931 107.2319286  33.5218799  17.3819273 105.9990489  32.6540450
   9.9761139  97.5856816  30.9407783   9.3225552  97.2705833  30.3164397
   9.9341614  96.9632556  31.6667606  13.2098880 104.0738749  35.2655430
  12.2921441 104.2953696  35.1077118  13.6259023 104.1485060  34.4067138
  13.9933928 105.4730165  30.3958110  14.7405746 105.9851562  30.0865233
  14.2625517 105.1514218  31.2562504  16.4412765 102.5087281  32.3776900
  15.7035521 101.9964667  32.7087142  16.6939538 102.0687663  31.5660177
  16.5424392  95.2863533  32.9718669  16.8483269  94.4260897  32.6844584
  17.2676997  95.8781153  32.7717663  10.8145472 105.5817326  33.4794860
  10.8694082 104.6291163  33.4037337  10.0036674 105.7376765  33.9636159
   8.7537832 104.1994386  31.2385239   7.9405697 104.4988557  31.6450431
   9.2496826 103.8050075  31.9559721  14.3512043 104.6636211  40.0700133
  14.7061431 104.8907684  40.9294599  14.9984175 104.9954587  39.4477388
  20.0809780 107.7854646  30.7749462  19.9427679 107.9756242  29.8470651
  19.7245999 108.5474029  31.2317513   8.2451906 101.7712742  36.8546474
   8.8851286 101.6301501  36.1569437   7.4129437 101.4847255  36.4785076
  20.1079160 109.8531173  35.7860733  20.5415667 109.7606463  36.6343787
  20.8210741 109.8288674  35.1480749   5.2480523 101.7413067  31.6319461
   5.5087340 102.6558400  31.5228621   6.0697695 101.2737509  31.7816074
   6.7205448 103.1550824  38.8018285   7.3928502 102.9468186  38.1530934
   5.8935235 102.9572910  38.3623518  20.9694709 109.8954874  38.3193619
  21.1630600 110.8000685  38.5652894  20.8695328 109.4362293  39.1532204
  12.6231020  99.7812765  40.8183946  11.9758935 100.4802714  40.7248423
  13.3932036 100.2148909  41.1860194  12.7995155 107.6193530  38.8780766
  13.7287215 107.7704689  38.7049733  12.3786185 107.7077550  38.0229412
   9.7515246 106.1413386  39.0504402  10.4614865 105.5006578  39.0091020
   9.7084554 106.3926281  39.9730583   8.4644180 103.1278604  40.8700042
   7.9281537 102.6769342  41.5221638   7.8760889 103.2624513  40.1270506
   4.1983301 102.2634612  37.9553036   4.1141490 101.6560281  37.2203446
   3.3766008 102.7543630  37.9562532  14.3707015 100.7488175  33.3223231
  14.8675715  99.9958137  33.0024301  13.5993997 100.7852492  32.7566440
  22.2236773 106.4528541  34.9641523  22.2126649 107.3353256  34.5935456
  21.3554152 106.1000092  34.7696060  10.9541984 102.8905558  33.0494916
  10.5839771 102.3376599  33.7375821  11.4501076 102.2863692  32.4969916
  18.8409347 105.3477182  31.4311689  19.3069799 106.1805173  31.3571991
  19.2916848 104.8822163  32.1356947  16.8126010  97.7157769  35.4702590
  15.8989090  97.9461995  35.6384797  17.2419111  97.7996213  36.3216622
  16.5832468 105.9047661  37.9702484  15.9303919 106.1523568  37.3154937
  16.9612848 105.0911799  37.6364961  12.6320041 106.6467472  44.4568521
  11.9560679 106.5461601  45.1270896  13.4547675 106.4906685  44.9204518
   6.3507318 100.3009549  39.2948022   6.4148644 101.1624380  38.8825419
   6.2874438  99.6883551  38.5620380   5.8259590 102.3732681  42.9421056
   6.4531629 101.9909759  43.5558580   4.9687509 102.1546883  43.3076749
   6.1319380 102.2565107  34.8566959   5.4105966 102.8701075  34.7174433
   6.9212636 102.7922872  34.7783605   8.9345693  99.5919534  41.1307611
   9.4580095  99.8381830  41.8933921   8.7158027 100.4239568  40.7110749
  10.1398238 100.5333229  38.8157282   9.7995059  99.7341042  39.2177962
   9.4337245 100.8334940  38.2434115  10.7914710  97.6182541  37.2684605
  11.6140780  97.1443019  37.1463495  11.0352774  98.3973025  37.7683291
  13.5754068 101.3515949  28.5005839  13.7917682 102.2340586  28.1994667
  13.0948135 100.9602162  27.7711481   8.3153289 104.3101662  35.0776583
   8.1697870 104.6241965  35.9700865   7.8378493 104.9286562  34.5247482
  10.1749672 101.3004210  35.1257473  10.1611241 100.4045303  34.7889771
  10.8922100 101.3074874  35.7595759  12.0275803 101.7341550  37.1710600
  11.7693580 102.6558621  37.1694931  11.4960843 101.3371985  37.8611064
   9.5786568 100.1818590  30.3945043   9.7002479  99.2535236  30.5935931
   9.2888610 100.1957276  29.4823358  12.4477758  97.8673501  33.5311763
  12.4699455  97.9312834  32.5763742  12.8645817  97.0278009  33.7252269
  22.8261383 107.6028760  31.5690985  23.2692529 106.8536085  31.1710109
  21.9487893 107.5938896  31.1864717   9.0627647 101.6950587  44.6034976
   9.1115803 102.5712710  44.2212745   9.6050162 101.1527981  44.0306619
  19.6680368 109.0884177  41.1968841  19.7178373 108.9234185  42.1384364
  19.5594291 108.2211436  40.8066722  16.9584131 105.0715105  42.5128148
  17.8593993 104.9321570  42.2212146  17.0332105 105.2369560  43.4526325
  11.2926936 102.4481960  41.3581334  10.4230245 102.7415526  41.0863923
  11.5286416 103.0322405  42.0788598  22.3694247 109.0733998  33.9613433
  23.2041139 109.5123802  34.1250993  22.5053376 108.5972652  33.1421679
  19.4185753 106.6313733  39.9090921  19.8939875 106.8241380  39.1009772
  18.4951319 106.6872919  39.6634304  13.9965970  98.6661577  38.8746755
  14.5147914  99.4022604  38.5493243  13.6421102  98.9725570  39.7093514
  14.2478564  95.0861859  34.3947651  14.5280318  94.4185048  35.0208078
  15.0329171  95.2790955  33.8822315  18.1187422 103.5079493  38.1419226
  19.0704845 103.6077591  38.1631450  17.9490873 102.7157762  38.6517311
  16.1401802 100.5935077  38.3278627  15.5451734 100.8740089  37.6325116
  15.8551498 101.0828977  39.0995368  20.5975500 106.7285613  37.2561526
  20.5651820 105.7901614  37.4421210  21.2076124 106.8069650  36.5227351
  20.7469988 103.5196656  37.3019809  20.2309037 102.7355113  37.1149738
  21.6309937 103.1915373  37.4666329  18.4080715  97.2637672  33.2615622
  18.2105537  96.9552760  34.1458954  19.0180421  97.9899311  33.3913552
  26.4152050 107.7901620  36.3967563  27.1455438 107.5286908  36.9575266
  25.8058995 107.0530342  36.4369631  24.4967347 105.9309482  36.9942014
  23.7700511 105.7965447  36.3858506  24.0814634 106.2386311  37.7998732
  12.2363814  98.0668532  29.3887857  11.4264542  97.7215617  29.7643103
  12.9248231  97.7576076  29.9775468  14.1654362  97.1446579  31.0112153
  14.7185401  97.5642032  31.6702176  14.4024448  96.2182327  31.0535109
  10.1887461 103.1333653  46.7914917  10.0884188 104.0828009  46.7227008
   9.9709003 102.8051891  45.9190987  17.5433169  99.2547104  30.5190818
  16.9631838  99.9131908  30.1368870  17.2769102  98.4324449  30.1078235
  15.9936735  98.6552162  32.7212138  16.4936514  98.7668696  31.9126457
  16.6372343  98.3513215  33.3612946  16.3258047 101.4147194  29.5747166
  15.4383902 101.6996845  29.3567361  16.7412036 101.2540958  28.7274443
  19.6772583 101.4393715  33.2901505  20.4532973 101.9290168  33.5626122
  18.9520717 101.8651770  33.7473375  22.1145142 102.1521335  34.3475446
  22.7089633 101.9117071  33.6368754  22.1871726 101.4328465  34.9748982
  16.2999071 106.9301730  29.7897456  16.2434272 107.3870282  28.9505088
  16.8527413 106.1692415  29.6120299  20.1103877 102.7191462  30.6147575
  19.8540811 102.3188098  31.4455783  19.4856745 103.4335256  30.4897715
  24.4216215 105.4587535  33.1218867  23.8615773 105.5280725  33.8950429
  23.8159718 105.2828520  32.4018363  17.0333850 108.1206512  27.0849985
  16.9782654 107.9550783  26.1438429  16.4079905 108.8282545  27.2412175
   1.8226365 103.3574576  40.9111407   2.4685229 102.8473530  41.3998633
   1.6143516 104.0943258  41.4854833  10.3429976  97.6214621  26.6635304
  10.3308645  98.5656461  26.8203574  11.2353397  97.4384766  26.3694765
  14.1582095  94.2157397  30.9181240  13.3914491  93.6615884  31.0637923
  14.5692800  94.2879266  31.7795392   6.1623856 100.5042193  45.0086422
   7.0255318 100.1478998  45.2189746   5.5889267 100.1656088  45.6961826
  25.5830481 111.3561892  37.8700931  25.2394750 112.2463533  37.7940042
  25.9509443 111.1663549  37.0070516  27.3818147 110.6155451  32.9718669
  27.6877023 109.7552814  32.6844584  28.1070751 111.2073071  32.7717663
  25.0872318 110.4153777  34.3947651  25.3674072 109.7476966  35.0208078
  25.8722925 110.6082873  33.8822315  29.2474470 112.5929590  33.2615622
  29.0499291 112.2844678  34.1458954  29.8574175 113.3191229  33.3913552
  24.9975850 109.5449315  30.9181240  24.2308245 108.9907802  31.0637923
  25.4086555 109.6171184  31.7795392   4.3258127  53.9804297  20.3892625
   3.5721835  53.4111695  20.2336630   4.4605668  53.9466962  21.3363260
   0.6906740  55.4212286  20.6858740   1.5253631  55.8602090  20.8496300
   0.8265868  54.9450939  19.8666985   4.7364542  54.1379907  23.1212869
   5.4667931  53.8765195  23.6820573   4.1271488  53.4008629  23.1614937
   2.8179839  52.2787770  23.7187321   2.0913003  52.1443735  23.1103812
   2.4027126  52.5864598  24.5244039   2.7428707  51.8065823  19.8464173
   2.1828265  51.8759012  20.6195736   2.1372210  51.6306807  19.1263670
   4.3284725  68.4822337  22.5394129   4.9663135  68.3629084  21.8357469
   4.2105568  69.4303181  22.5982081   1.1374432  68.4349765  22.4755654
   0.7992943  68.3190829  21.5876189   2.0064200  68.0340930  22.4556660
   1.6194215  69.5884616  28.4341859   1.6082855  69.1937415  27.5622363
   1.7814854  68.8550689  29.0275631   3.8825994  66.2073790  19.6147337
   4.6689083  65.7893214  19.2637754   4.1464698  67.1119883  19.7828986
   9.2834421  66.1449024  20.5180316  10.0159593  65.5748241  20.7518145
   8.5273777  65.7570624  20.9586821   0.9010541  68.5676265  17.7143658
   0.5368748  68.0406886  18.4256580   1.7577657  68.1774734  17.5410144
   6.8059841  59.8570598  24.9774924   6.4743166  60.7266009  24.7536139
   6.2105455  59.5406882  25.6568955   3.2991361  72.0583144  24.3770837
   2.9992084  72.9608183  24.2686644   2.9542420  71.7915327  25.2291990
   6.6988505  64.5765684  22.0568274   5.7905382  64.5081092  21.7627035
   6.6476100  65.0537629  22.8850100   8.5650151  62.7782122  23.8346148
   7.9224531  63.0714656  23.1885943   8.0605080  62.6635043  24.6399345
   6.2190315  66.5245296  14.5232008   7.1308171  66.7572682  14.3479705
   5.7099962  67.1082340  13.9607086   4.5031082  70.9469923  28.1593300
   4.9114438  70.5052334  27.4147933   3.7808344  70.3722551  28.4127493
   0.8562152  65.8842530  25.5326857   1.7023348  66.3081944  25.6761506
   0.7960790  65.2276154  26.2265420   4.8259897  71.5071114  21.9145589
   4.1968759  71.6716828  21.2121657   4.4385559  71.9212724  22.6856553
   8.7049129  72.4425552  19.2689953   8.0200167  72.8224453  18.7186986
   8.7892978  73.0520879  20.0021901   4.0061598  63.5446899  27.1908031
   3.7622530  64.2988959  26.6542306   4.2821528  63.9232246  28.0255278
   5.9600061  70.0885511  25.8685296   6.1716956  70.7317271  25.1919677
   5.9129809  69.2547827  25.4007226   3.5626289  62.7003332  22.7721868
   2.7010769  62.9984585  23.0638606   3.5888724  62.9173730  21.8402901
   7.0745888  72.9657466  24.0407654   7.8963332  72.5637654  23.7590335
   7.0708291  72.8625700  24.9923769  15.1651882  69.3096215  20.3892625
  14.4115590  68.7403613  20.2336630  15.2999423  69.2758879  21.3363260
   2.1818986  74.8033184  30.1947687   1.7382840  74.0169562  29.8768591
   2.8436200  74.9912334  29.5291577   4.2800224  75.0835984  28.2229088
   4.2618699  75.9044865  27.7309357   5.2020144  74.9590059  28.4479229
   3.9042973  57.7040179  24.5946238   3.5607243  58.5941821  24.5185349
   4.2721936  57.5141837  23.7315823   1.4540367  62.5398491  18.1603911
   0.5981963  62.1505341  17.9809550   1.8667319  62.6190452  17.3003697
   2.9839514  60.0744834  22.5595471   2.4804309  60.0374969  21.7463277
   3.2770120  60.9837577  22.6192128   8.8427530  70.4481145  15.0371847
   8.0656973  70.1092304  14.5927009   9.5219011  70.4533768  14.3626812
   3.6579559  65.5675882  14.9278454   3.3529695  65.8822031  15.7788597
   4.6110001  65.6457302  14.9705787   7.0818837  69.9215126  21.6938455
   6.4242511  70.6114387  21.7818583   7.8859236  70.3111558  22.0372441
   5.8924296  68.2759499  19.7442396   6.4056177  68.9089491  20.2464106
   6.5425520  67.6760694  19.3785756   2.3705127  65.7508954  21.9900737
   1.4527688  65.9723901  21.8322425   2.7865270  65.8255265  21.1312444
   3.1540174  67.1500370  17.1203417   3.9011993  67.6621767  16.8110539
   3.4231764  66.8284423  17.9807811   6.6586092  73.2565500  17.8721539
   6.2048419  72.4156410  17.9286729   6.0280059  73.8926899  18.2096319
   5.6019011  64.1857486  19.1022206   4.8641768  63.6734872  19.4332449
   5.8545785  63.7457868  18.2905483   5.1019031  75.0941997  18.8071357
   5.3942006  75.6547054  18.0883723   5.6117652  75.3870558  19.5624516
   5.7030639  56.9633738  19.6963976   6.0089516  56.1031102  19.4089891
   6.4283244  57.5551358  19.4962970   3.5118290  66.3406415  26.7945440
   3.8667678  66.5677889  27.6539905   4.1590421  66.6724792  26.1722695
   9.2416027  69.4624851  17.4994769   9.1033926  69.6526447  16.5715958
   8.8852246  70.2244234  17.9562820   9.2685407  71.5301378  22.5106040
   9.7021913  71.4376667  23.3589094   9.9816987  71.5058879  21.8726056
   3.0013302  75.1303472  24.0439141   3.0550324  75.6994409  24.8116857
   2.1328083  75.3005357  23.6793178  10.1300956  71.5725079  25.0438925
  10.3236846  72.4770890  25.2898200  10.0301574  71.1132498  25.8777510
   1.7837267  61.4582970  27.5429253   1.1365182  62.1572919  27.4493729
   2.5538282  61.8919114  27.9105501   5.1916065  71.7231822  30.6179806
   5.0401571  71.4942373  29.7009890   5.1820744  72.6802423  30.6311151
   1.9601401  69.2963734  25.6026072   2.8893461  69.4474894  25.4295040
   1.5392431  69.3847755  24.7474719   2.3094948  72.6996002  20.7613448
   1.9744781  72.6596772  21.6571098   1.8098894  72.0340718  20.2883858
   6.9008272  74.7550944  28.6956288   6.8420818  74.0710164  28.0286871
   7.3027790  75.4969934  28.2436914   6.9025679  72.7190528  26.9270268
   6.0152458  72.3816450  27.0496666   7.4724230  71.9873559  27.1639033
   3.5313262  62.4258380  20.0468538   4.0281962  61.6728342  19.7269608
   2.7600243  62.4622697  19.4811747  11.3843019  68.1298746  21.6886829
  11.3732896  69.0123461  21.3180762  10.5160399  67.7770296  21.4941366
   2.8925516  77.2778815  26.0489669   3.6053488  77.9126279  25.9765571
   2.4015544  77.3742681  25.2329671   4.6143043  71.1830067  17.6206961
   3.6799321  71.3031530  17.4511665   4.7919711  70.2802534  17.3566971
   8.0015594  67.0247387  18.1556995   8.4676046  67.8575378  18.0817298
   8.4523095  66.5592368  18.8602254   6.0691825  73.3691208  15.1543147
   6.3451669  73.2547802  16.0637021   5.1996324  72.9708693  15.1155320
   5.9732257  59.3927974  22.1947897   5.0595337  59.6232200  22.3630104
   6.4025358  59.4766418  23.0461929   5.7438715  67.5817866  24.6947791
   5.0910165  67.8293773  24.0400243   6.1219095  66.7682004  24.3610268
   1.7926288  68.3237677  31.1813828   1.1166925  68.2231806  31.8516203
   2.6153922  68.1676890  31.6449825   0.5349071  79.6304604  25.4171444
   1.0867379  79.7936226  26.1820529   0.8755265  80.2209042  24.7451469
   5.3859945  74.4565862  31.2720098   5.9299849  75.0695820  30.7775053
   4.8046790  75.0145440  31.7887111   3.6717458  77.5786580  22.4035126
   3.5468598  76.7776319  21.8946071   4.3296550  78.0732773  21.9149096
   5.7352367  75.3795600  24.0314676   4.7882702  75.2600951  23.9593003
   6.0835140  74.4918098  24.1140937   2.7398800  75.1748316  20.2319028
   2.5923763  74.2465023  20.4126598   3.5652294  75.1968407  19.7476103
   6.3432922  75.9976875  21.3183901   7.2679469  75.7919736  21.1808352
   6.1748225  75.7493276  22.2273242   2.7360314  63.0286154  15.2251145
   2.9523929  63.9110791  14.9239974   2.2554382  62.6372367  14.4956787
   1.1882049  63.4111755  23.8955907   0.9299827  64.3328826  23.8940237
   0.6567090  63.0142189  24.5856371   6.1328238  76.5162542  16.6745992
   6.3065116  75.9508965  15.9219845   6.6257129  77.3163437  16.4925482
   1.6084005  59.5443705  20.2557070   1.6305702  59.6083039  19.3009049
   2.0252064  58.7048214  20.4497576  11.9867629  69.2798965  18.2936292
  12.4298775  68.5306290  17.8955415  11.1094140  69.2709101  17.9110024
   9.0194834  73.2829012  15.3030221   9.5446158  73.6216285  14.5779541
   8.9317186  72.3476027  15.1193356   0.6814882  77.1963086  27.4320098
   0.9902009  76.9512232  28.3042798   1.4790364  77.4009724  26.9438968
   8.7088740  73.9161916  30.6081419   7.9184284  73.8986054  30.0685919
   8.4722094  74.4550209  31.3630456   8.8286615  70.7654382  27.9214148
   8.8784620  70.6004389  28.8629671   8.7200538  69.8981641  27.5312029
   6.1190377  66.7485310  29.2373455   7.0200240  66.6091775  28.9457452
   6.1938352  66.9139765  30.1771632  10.3304812  73.1851324  28.1656169
  10.0389620  73.5481304  29.0019630   9.7176943  72.4718332  27.9869502
  11.5300494  70.7504203  20.6858740  12.3647385  71.1894007  20.8496300
  11.6659623  70.2742857  19.8666985   8.5792000  68.3083938  26.6336227
   9.0546122  68.5011584  25.8255079   7.6557565  68.3643124  26.3879611
   3.1572216  60.3431782  25.5992061   3.6754160  61.0792809  25.2738550
   2.8027349  60.6495775  26.4338820   3.4084811  56.7632064  21.1192958
   3.6886564  56.0955253  21.7453384   4.1935418  56.9561160  20.6067622
   7.2793669  65.1849698  24.8664533   8.2311092  65.2847796  24.8876757
   7.1097119  64.3927967  25.3762617   5.3008048  62.2705281  25.0523934
   4.7057981  62.5510294  24.3570423   5.0157745  62.7599182  25.8240675
   9.7581747  68.4055818  23.9806833   9.7258067  67.4671819  24.1666517
  10.3682370  68.4839855  23.2472658   9.9076235  65.1966861  24.0265116
   9.3915284  64.4125318  23.8395045  10.7916184  64.8685578  24.1911635
   7.5686962  58.9407877  19.9860929   7.3711783  58.6322965  20.8704261
   8.1786668  59.6669516  20.1158858  15.5758297  69.4671825  23.1212869
  16.3061685  69.2057113  23.6820573  14.9665242  68.7300547  23.1614937
  13.6573594  67.6079687  23.7187321  12.9306757  67.4735652  23.1103812
  13.2420881  67.9156516  24.5244039   1.4803770  71.3269617  31.4834694
   2.4006780  71.5048216  31.6774740   1.4453353  70.3825662  31.3314393
   1.3970060  59.7438737  16.1133163   0.5870789  59.3985822  16.4888409
   2.0854477  59.4346281  16.7020775   3.3260609  58.8216784  17.7357460
   3.8791647  59.2412237  18.3947483   3.5630695  57.8952532  17.7780416
   6.7039416  60.9317309  17.2436124   6.1238085  61.5902113  16.8614177
   6.4375349  60.1094654  16.8323542   5.1542982  60.3322367  19.4457444
   5.6542761  60.4438901  18.6371763   5.7978590  60.0283420  20.0858253
   5.4864294  63.0917399  16.2992472   4.5990149  63.3767050  16.0812667
   5.9018283  62.9311163  15.4519749   8.8378830  63.1163920  20.0146812
   9.6139220  63.6060373  20.2871428   8.1126964  63.5421975  20.4718681
  11.2751389  63.8291540  21.0720752  11.8695879  63.5887276  20.3614061
  11.3477972  63.1098670  21.6994289   5.4605318  68.6071935  16.5142763
   5.4040519  69.0640487  15.6750395   6.0133660  67.8462620  16.3365605
   9.2710124  64.3961667  17.3392882   9.0147058  63.9958303  18.1701090
   8.6462992  65.1105461  17.2143021  13.5822461  67.1357740  19.8464173
  13.0222019  67.2050930  20.6195736  12.9765965  66.9598725  19.1263670
   6.1940097  69.7976717  13.8095292   6.1388901  69.6320988  12.8683736
   5.5686152  70.5052749  13.9657481   3.5086004  72.1025628  33.1348855
   4.3777164  72.2766281  32.7735489   3.0292756  72.9220045  33.0124584
   3.3188342  55.8927602  17.6426547   2.5520738  55.3386089  17.7883229
   3.7299047  55.9649471  18.5040699  15.1678480  83.8114254  22.5394129
  15.8056890  83.6921002  21.8357469  15.0499323  84.7595098  22.5982081
  11.9768186  83.7641682  22.4755654  11.6386698  83.6482747  21.5876189
  12.8457954  83.3632848  22.4556660  12.4587969  84.9176534  28.4341859
  12.4476610  84.5229332  27.5622363  12.6208609  84.1842607  29.0275631
   9.1795230  87.7013646  27.3821043   8.8885096  88.6059277  27.2667710
   9.8152215  87.7430174  28.0965113  10.1051437  85.0790494  23.9722403
  10.7015009  84.8546517  23.2579366  10.1626409  84.3375240  24.5747851
  14.7219748  81.5365708  19.6147337  15.5082838  81.1185131  19.2637754
  14.9858453  82.4411800  19.7828986  20.1228175  81.4740941  20.5180316
  20.8553347  80.9040158  20.7518145  19.3667531  81.0862542  20.9586821
  11.7404295  83.8968183  17.7143658  11.3762502  83.3698804  18.4256580
  12.5971411  83.5066652  17.5410144  17.6453596  75.1862515  24.9774924
  17.3136921  76.0557926  24.7536139  17.0499209  74.8698799  25.6568955
  14.1385115  87.3875061  24.3770837  13.8385838  88.2900100  24.2686644
  13.7936175  87.1207245  25.2291990   7.5897597  83.8388858  20.4107542
   6.6648093  83.7065072  20.6185233   7.8382010  84.6183078  20.9077484
  17.5382259  79.9057602  22.0568274  16.6299136  79.8373010  21.7627035
  17.4869855  80.3829547  22.8850100  11.6123125  81.3247247  30.0003172
  10.8356459  81.8841167  29.9906036  12.2513688  81.8104030  30.5218042
  19.4043906  78.1074040  23.8346148  18.7618286  78.4006573  23.1885943
  18.8998834  77.9926960  24.6399345  17.0584069  81.8537213  14.5232008
  17.9701925  82.0864600  14.3479705  16.5493716  82.4374257  13.9607086
   9.8669497  84.1332701  29.5621139  10.6084182  84.6717745  29.2855962
   9.1606483  84.7598989  29.7192690  15.3424837  86.2761841  28.1593300
  15.7508193  85.8344252  27.4147933  14.6202098  85.7014469  28.4127493
  11.6955907  81.2134448  25.5326857  12.5417102  81.6373861  25.6761506
  11.6354545  80.5568072  26.2265420  15.6653651  86.8363032  21.9145589
  15.0362514  87.0008746  21.2121657  15.2779314  87.2504641  22.6856553
  19.5442883  87.7717470  19.2689953  18.8593922  88.1516371  18.7186986
  19.6286733  88.3812796  20.0021901  14.8455352  78.8738816  27.1908031
  14.6016284  79.6280877  26.6542306  15.1215283  79.2524164  28.0255278
  16.7993815  85.4177429  25.8685296  17.0110710  86.0609188  25.1919677
  16.7523563  84.5839745  25.4007226  14.4020044  78.0295249  22.7721868
  13.5404523  78.3276503  23.0638606  14.4282479  78.2465648  21.8402901
  11.2181613  86.5737440  19.1795674  11.6819959  86.8525143  18.3900297
  10.9538411  85.6720884  18.9968765   8.1105694  86.1208921  22.1175437
   8.6807052  86.5496190  21.4792922   8.7013806  85.8391506  22.8159623
   8.6030861  81.2872349  30.3636449   7.9729522  81.9688630  30.5971846
   8.4966949  81.1755430  29.4189587  17.9139643  88.2949384  24.0407654
  18.7357087  87.8929571  23.7590335  17.9102046  88.1917618  24.9923769
  11.6796246  87.8433427  26.1968364  11.7440679  88.3053835  27.0326536
  10.9707170  87.2130792  26.3250674   2.1813536  81.2074635  23.7217364
   2.4321575  82.0921645  23.9874940   2.7173085  81.0279237  22.9492455
  26.0045636  84.6388132  20.3892625  25.2509344  84.0695531  20.2336630
  26.1393177  84.6050797  21.3363260   7.8811604  75.5893115  32.7261700
   7.4878549  75.0359313  33.4009344   8.6977744  75.9003693  33.1168217
  10.7979565  77.0050994  30.3181956  11.5389278  77.6058147  30.2386419
  11.0297488  76.2628632  29.7599999   5.9420903  82.1907361  28.5960186
   5.8274418  81.2892618  28.8967285   5.0865420  82.4371058  28.2445003
  13.0212740  90.1325101  30.1947687  12.5776595  89.3461480  29.8768591
  13.6829954  90.3204252  29.5291577   7.7799862  91.6620903  24.7208365
   8.3307287  91.5337966  23.9485359   6.9411338  91.9615792  24.3703258
  15.1193978  90.4127901  28.2229088  15.1012454  91.2336782  27.7309357
  16.0413899  90.2881976  28.4479229  11.5767033  87.9272031  29.0652596
  12.1095369  87.1660319  28.8351904  11.0481114  87.6345683  29.8076751
  14.7436728  73.0332097  24.5946238  14.4000997  73.9233738  24.5185349
  15.1115690  72.8433754  23.7315823  12.2934121  77.8690409  18.1603911
  11.4375718  77.4797259  17.9809550  12.7061073  77.9482369  17.3003697
  13.8233268  75.4036752  22.5595471  13.3198064  75.3666887  21.7463277
  14.1163875  76.3129495  22.6192128  10.0676154  75.4875482  21.5661653
  10.9329151  75.2918290  21.2067542  10.1353663  75.2585833  22.4931010
  19.6821284  85.7773062  15.0371847  18.9050727  85.4384222  14.5927009
  20.3612765  85.7825686  14.3626812  14.4973314  80.8967800  14.9278454
  14.1923449  81.2113949  15.7788597  15.4503756  80.9749220  14.9705787
  17.9212591  85.2507044  21.6938455  17.2636266  85.9406305  21.7818583
  18.7252991  85.6403476  22.0372441   7.6738473  77.7177689  18.9378020
   8.2482225  77.4952871  18.2051213   8.2609455  77.7866384  19.6906621
  16.7318050  83.6051416  19.7442396  17.2449932  84.2381408  20.2464106
  17.3819274  83.0052612  19.3785756   9.9761141  74.5918938  17.6653089
   9.3225553  74.2767956  17.0409704   9.9341615  73.9694679  18.3912912
  13.2098881  81.0800872  21.9900737  12.2921442  81.3015819  21.8322425
  13.6259025  81.1547182  21.1312444  13.9933929  82.4792288  17.1203417
  14.7405748  82.9913685  16.8110539  14.2625518  82.1576340  17.9807811
  17.4979846  88.5857418  17.8721539  17.0442173  87.7448328  17.9286729
  16.8673813  89.2218816  18.2096319  16.4412766  79.5149404  19.1022206
  15.7035523  79.0026790  19.4332449  16.6939539  79.0749785  18.2905483
  15.9412786  90.4233915  18.8071357  16.2335760  90.9838972  18.0883723
  16.4511406  90.7162476  19.5624516  16.5424393  72.2925656  19.6963976
  16.8483270  71.4323019  19.4089891  17.2676998  72.8843276  19.4962970
  10.8145473  82.5879449  20.2040167  10.8694083  81.6353285  20.1282643
  10.0036675  82.7438888  20.6881465   8.7537833  81.2056509  17.9630546
   7.9405698  81.5050679  18.3695738   9.2496827  80.8112197  18.6805028
  14.3512045  81.6698333  26.7945440  14.7061432  81.8969806  27.6539905
  14.9984176  82.0016710  26.1722695  20.0809782  84.7916769  17.4994769
  19.9427680  84.9818365  16.5715958  19.7246000  85.5536152  17.9562820
   8.2451908  78.7774864  23.5791781   8.8851287  78.6363623  22.8814744
   7.4129438  78.4909378  23.2030383  20.1079161  86.8593296  22.5106040
  20.5415668  86.7668585  23.3589094  20.8210742  86.8350796  21.8726056
  13.8407056  90.4595390  24.0439141  13.8944078  91.0286326  24.8116857
  12.9721837  90.6297275  23.6793178   5.2480524  78.7475189  18.3564767
   5.5087341  79.6620522  18.2473928   6.0697696  78.2799632  18.5061380
   6.7205449  80.1612946  25.5263592   7.3928503  79.9530308  24.8776241
   5.8935236  79.9635032  25.0868824  20.9694711  86.9016997  25.0438925
  21.1630601  87.8062807  25.2898200  20.8695329  86.4424416  25.8777510
  12.6231021  76.7874887  27.5429253  11.9758937  77.4864837  27.4493729
  13.3932037  77.2211031  27.9105501  16.0309819  87.0523739  30.6179806
  15.8795326  86.8234291  29.7009890  16.0214499  88.0094341  30.6311151
  12.7995156  84.6255652  25.6026072  13.7287216  84.7766812  25.4295040
  12.3786186  84.7139673  24.7474719  11.5983488  88.6506317  23.3724610
  11.4594573  88.2825101  24.2450548  10.8098084  89.1653956  23.2008568
  13.1488703  88.0287919  20.7613448  12.8138535  87.9888689  21.6571098
  12.6492648  87.3632635  20.2883858   7.1232947  83.4355549  26.2866029
   6.9852745  82.7035788  26.8877568   8.0337870  83.3464449  26.0050217
   9.7515247  83.1475509  25.7749709  10.4614866  82.5068701  25.7336327
   9.7084556  83.3988403  26.6975889  17.7402026  90.0842862  28.6956288
  17.6814572  89.4002082  28.0286871  18.1421544  90.8261852  28.2436914
   8.4644181  80.1340727  27.5945348   7.9281538  79.6831465  28.2466945
   7.8760890  80.2686635  26.8515813  17.7419433  88.0482446  26.9270268
  16.8546212  87.7108368  27.0496666  18.3117984  87.3165477  27.1639033
   4.1983303  79.2696734  24.6798343   4.1141491  78.6622404  23.9448753
   3.3766009  79.7605753  24.6807839  11.2720587  92.7083898  23.8931511
  11.1990758  93.5138870  24.4050815  10.8297980  92.9075864  23.0679532
  14.3707016  77.7550298  20.0468538  14.8675716  77.0020260  19.7269608
  13.5993998  77.7914614  19.4811747  22.2236774  83.4590663  21.6886829
  22.2126650  84.3415379  21.3180762  21.3554153  83.1062214  21.4941366
  13.7319270  92.6070732  26.0489669  14.4447242  93.2418197  25.9765571
  13.2409299  92.7034598  25.2329671  15.4536797  86.5121985  17.6206961
  14.5193076  86.6323447  17.4511665  15.6313466  85.6094452  17.3566971
  10.9541985  79.8967681  19.7740222  10.5839773  79.3438721  20.4621128
  11.4501078  79.2925814  19.2215222  18.8409348  82.3539304  18.1556995
  19.3069801  83.1867296  18.0817298  19.2916849  81.8884286  18.8602254
   8.7831184  90.3565176  26.8695240   9.4840643  90.9901659  27.0224634
   8.3126299  90.6979907  26.1090880  16.9085580  88.6983126  15.1543147
  17.1845423  88.5839720  16.0637021  16.0390078  88.3000610  15.1155320
  16.8126011  74.7219891  22.1947897  15.8989091  74.9524118  22.3630104
  17.2419113  74.8058335  23.0461929  16.5832470  82.9109783  24.6947791
  15.9303920  83.1585691  24.0400243  16.9612850  82.0973921  24.3610268
  12.6320043  83.6529594  31.1813828  11.9560680  83.5523724  31.8516203
  13.4547677  83.4968808  31.6449825  11.3742826  94.9596522  25.4171444
  11.9261134  95.1228143  26.1820529  11.7149019  95.5500960  24.7451469
   6.3507319  77.3071672  26.0193328   6.4148645  78.1686502  25.6070726
   6.2874439  76.6945673  25.2865687   5.8259591  79.3794804  29.6666363
   6.4531630  78.9971881  30.2803887   4.9687510  79.1609006  30.0322055
  16.2253700  89.7857779  31.2720098  16.7693604  90.3987738  30.7775053
  15.6440545  90.3437358  31.7887111  14.5111213  92.9078497  22.4035126
  14.3862352  92.1068237  21.8946071  15.1690304  93.4024691  21.9149096
   6.1319381  79.2627230  21.5812266   5.4105967  79.8763197  21.4419739
   6.9212637  79.7984995  21.5028912  16.5746121  90.7087517  24.0314676
  15.6276457  90.5892869  23.9593003  16.9228894  89.8210015  24.1140937
   8.9345695  76.5981656  27.8552918   9.4580096  76.8443953  28.6179227
   8.7158028  77.4301691  27.4356055  13.5792555  90.5040234  20.2319028
  13.4317517  89.5756941  20.4126598  14.4046048  90.5260324  19.7476103
  17.1826676  91.3268792  21.3183901  18.1073224  91.1211654  21.1808352
  17.0141980  91.0785193  22.2273242  10.1398240  77.5395351  25.5402588
   9.7995060  76.7403164  25.9423268   9.4337246  77.8397062  24.9679422
  10.7914712  74.6244664  23.9929911  11.6140781  74.1505142  23.8708802
  11.0352775  75.4035148  24.4928598  13.5754069  78.3578071  15.2251145
  13.7917683  79.2402709  14.9239974  13.0948136  77.9664285  14.4956787
   8.3153290  81.3163784  21.8021890   8.1697871  81.6304087  22.6946172
   7.8378494  81.9348685  21.2492789  10.1749673  78.3066332  21.8502780
  10.1611242  77.4107426  21.5135078  10.8922101  78.3136996  22.4841066
  12.0275804  78.7403673  23.8955907  11.7693582  79.6620743  23.8940237
  11.4960844  78.3434107  24.5856371  16.9721993  91.8454460  16.6745992
  17.1458870  91.2800882  15.9219845  17.4650884  92.6455355  16.4925482
   2.7898952  83.8569129  24.7409551   2.2452421  84.6328937  24.8729826
   3.6678302  84.2039933  24.5828673   9.5786569  77.1880713  17.1190350
   9.7002480  76.2597359  17.3181237   9.2888611  77.2019399  16.2068665
  12.4477759  74.8735623  20.2557070  12.4699456  74.9374956  19.3009049
  12.8645819  74.0340132  20.4497576  22.8261384  84.6090883  18.2936292
  23.2692530  83.8598208  17.8955415  21.9487894  84.6001019  17.9110024
   3.5764974  82.9839025  27.6339708   2.8346710  83.1321660  28.2204338
   3.2557719  83.2447291  26.7706457  19.8588588  88.6120930  15.3030221
  20.3839912  88.9508202  14.5779541  19.7710941  87.6767945  15.1193356
  11.5208637  92.5255003  27.4320098  11.8295763  92.2804150  28.3042798
  12.3184119  92.7301642  26.9438968   9.0627649  78.7012710  31.3280282
   9.1115804  79.5774833  30.9458052   9.6050163  78.1590103  30.7551926
  19.5482494  89.2453833  30.6081419  18.7578038  89.2277972  30.0685919
  19.3115849  89.7842127  31.3630456  19.6680369  86.0946300  27.9214148
  19.7178374  85.9296307  28.8629671  19.5594293  85.2273559  27.5312029
  16.9584132  82.0777228  29.2373455  17.8593995  81.9383693  28.9457452
  17.0332106  82.2431683  30.1771632  11.2926937  79.4544082  28.0826641
  10.4230246  79.7477649  27.8109229  11.5286417  80.0384527  28.8033905
  21.1698566  88.5143241  28.1656169  20.8783375  88.8773222  29.0019630
  20.5570697  87.8010249  27.9869502  22.3694249  86.0796121  20.6858740
  23.2041140  86.5185925  20.8496300  22.5053377  85.6034774  19.8666985
  19.4185754  83.6375856  26.6336227  19.8939876  83.8303502  25.8255079
  18.4951320  83.6935042  26.3879611  13.9965971  75.6723699  25.5992061
  14.5147915  76.4084726  25.2738550  13.6421104  75.9787693  26.4338820
  14.2478565  72.0923982  21.1192958  14.5280319  71.4247171  21.7453384
  15.0329172  72.2853078  20.6067622  18.1187423  80.5141616  24.8664533
  19.0704846  80.6139714  24.8876757  17.9490874  79.7219884  25.3762617
  16.1401803  77.5997199  25.0523934  15.5451735  77.8802212  24.3570423
  15.8551500  78.0891100  25.8240675  20.5975501  83.7347736  23.9806833
  20.5651821  82.7963736  24.1666517  21.2076125  83.8131772  23.2472658
  20.7469990  80.5258779  24.0265116  20.2309038  79.7417236  23.8395045
  21.6309938  80.1977496  24.1911635  18.4080717  74.2699795  19.9860929
  18.2105538  73.9614883  20.8704261  19.0180422  74.9961434  20.1158858
  26.4152051  84.7963742  23.1212869  27.1455440  84.5349031  23.6820573
  25.8058997  84.0592464  23.1614937  24.4967348  82.9371605  23.7187321
  23.7700512  82.8027570  23.1103812  24.0814635  83.2448434  24.5244039
  12.3197525  86.6561535  31.4834694  13.2400534  86.8340134  31.6774740
  12.2847108  85.7117580  31.3314393   5.3159597  84.5662569  24.1257475
   5.5345607  85.4979677  24.1445509   5.7285371  84.2070544  24.9112279
  12.2363815  75.0730655  16.1133163  11.4264543  74.7277740  16.4888409
  12.9248232  74.7638198  16.7020775  14.1654363  74.1508701  17.7357460
  14.7185402  74.5704155  18.3947483  14.4024450  73.2244450  17.7780416
  10.1887462  80.1395775  33.5160224  10.0884189  81.0890132  33.4472315
   9.9709005  79.8114014  32.6436294  17.5433170  76.2609227  17.2436124
  16.9631839  76.9194031  16.8614177  17.2769103  75.4386571  16.8323542
  15.9936737  75.6614284  19.4457444  16.4936515  75.7730819  18.6371763
  16.6372345  75.3575337  20.0858253  10.0518733  83.5692914  32.3325285
   9.5685814  84.3693274  32.5389174  10.1379672  83.5800859  31.3792729
   5.9792070  87.4597449  24.3693719   6.9335324  87.4281391  24.3023651
   5.7804594  86.9988072  25.1843945   6.5691452  86.0298565  26.9364517
   7.3884341  86.5242643  26.9599354   6.8428260  85.1130533  26.9082084
  16.3258048  78.4209317  16.2992472  15.4383903  78.7058968  16.0812667
  16.7412037  78.2603080  15.4519749  19.6772585  78.4455838  20.0146812
  20.4532975  78.9352290  20.2871428  18.9520719  78.8713892  20.4718681
  22.1145143  79.1583457  21.0720752  22.7089634  78.9179193  20.3614061
  22.1871727  78.4390588  21.6994289  16.2999072  83.9363853  16.5142763
  16.2434274  84.3932404  15.6750395  16.8527415  83.1754538  16.3365605
  20.1103878  79.7253585  17.3392882  19.8540812  79.3250220  18.1701090
  19.4856746  80.4397379  17.2143021  24.4216216  82.4649658  19.8464173
  23.8615774  82.5342847  20.6195736  23.8159719  82.2890643  19.1263670
  17.0333851  85.1268634  13.8095292  16.9782655  84.9612906  12.8683736
  16.4079907  85.8344667  13.9657481   1.8226366  80.3636699  27.6356714
   2.4685230  79.8535653  28.1243939   1.6143518  81.1005380  28.2100139
  14.3479759  87.4317546  33.1348855  15.2170918  87.6058198  32.7735489
  13.8686510  88.2511963  33.0124584  10.3429977  74.6276743  13.3880610
  10.3308647  75.5718583  13.5448881  11.2353399  74.4446889  13.0940071
   8.5165939  94.5514647  24.8138288   9.4193186  94.5838257  25.1304783
   8.2903309  93.6215098  24.8284624  14.1582096  71.2219520  17.6426547
  13.3914492  70.6678007  17.7883229  14.5692801  71.2941389  18.5040699
   6.1623857  77.5104316  31.7331728   7.0255319  77.1541121  31.9435053
   5.5889268  77.1718210  32.4207132  26.0072234  99.1406172  22.5394129
  26.6450644  99.0212919  21.8357469  25.8893077 100.0887016  22.5982081
  22.8161941  99.0933600  22.4755654  22.4780452  98.9774665  21.5876189
  23.6851709  98.6924765  22.4556660  23.2981724 100.2468452  28.4341859
  23.2870364  99.8521250  27.5622363  23.4602363  99.5134524  29.0275631
  20.0188985 103.0305564  27.3821043  19.7278851 103.9351194  27.2667710
  20.6545969 103.0722091  28.0965113  20.9445192 100.4082412  23.9722403
  21.5408764 100.1838435  23.2579366  21.0020163  99.6667158  24.5747851
  25.5613503  96.8657626  19.6147337  26.3476592  96.4477049  19.2637754
  25.8252207  97.7703718  19.7828986  30.9621930  96.8032859  20.5180316
  31.6947102  96.2332076  20.7518145  30.2061286  96.4154460  20.9586821
  22.5798050  99.2260101  17.7143658  22.2156257  98.6990722  18.4256580
  23.4365166  98.8358570  17.5410144  28.4847350  90.5154433  24.9774924
  28.1530675  91.3849844  24.7536139  27.8892964  90.1990717  25.6568955
  24.9778870 102.7166979  24.3770837  24.6779593 103.6192018  24.2686644
  24.6329929 102.4499162  25.2291990  18.4291351  99.1680776  20.4107542
  17.5041848  99.0356990  20.6185233  18.6775765  99.9474995  20.9077484
  28.3776014  95.2349519  22.0568274  27.4692891  95.1664928  21.7627035
  28.3263609  95.7121464  22.8850100  22.4516879  96.6539165  30.0003172
  21.6750213  97.2133085  29.9906036  23.0907442  97.1395948  30.5218042
  30.2437660  93.4365958  23.8346148  29.6012040  93.7298491  23.1885943
  29.7392589  93.3218878  24.6399345  27.8977824  97.1829131  14.5232008
  28.8095680  97.4156518  14.3479705  27.3887471  97.7666175  13.9607086
  20.7063252  99.4624618  29.5621139  21.4477936 100.0009662  29.2855962
  20.0000237 100.0890907  29.7192690  26.1818591 101.6053759  28.1593300
  26.5901947 101.1636169  27.4147933  25.4595853 101.0306386  28.4127493
  22.5349661  96.5426366  25.5326857  23.3810857  96.9665779  25.6761506
  22.4748299  95.8859990  26.2265420  26.5047406 102.1654949  21.9145589
  25.8756268 102.3300664  21.2121657  26.1173068 102.5796559  22.6856553
  30.3836638 103.1009387  19.2689953  29.6987676 103.4808289  18.7186986
  30.4680487 103.7104714  20.0021901  25.6849107  94.2030734  27.1908031
  25.4410039  94.9572794  26.6542306  25.9609037  94.5816081  28.0255278
  27.6387569 100.7469346  25.8685296  27.8504465 101.3901106  25.1919677
  27.5917318  99.9131663  25.4007226  25.2413798  93.3587167  22.7721868
  24.3798277  93.6568420  23.0638606  25.2676233  93.5757566  21.8402901
  22.0575368 101.9029357  19.1795674  22.5213713 102.1817060  18.3900297
  21.7932166 101.0012802  18.9968765  18.9499449 101.4500839  22.1175437
  19.5200806 101.8788107  21.4792922  19.5407561 101.1683424  22.8159623
  19.4424615  96.6164266  30.3636449  18.8123276  97.2980547  30.5971846
  19.3360703  96.5047348  29.4189587  28.7533397 103.6241302  24.0407654
  29.5750841 103.2221489  23.7590335  28.7495800 103.5209536  24.9923769
  22.5190001 103.1725345  26.1968364  22.5834433 103.6345752  27.0326536
  21.8100925 102.5422710  26.3250674  13.0207291  96.5366553  23.7217364
  13.2715329  97.4213563  23.9874940  13.5566839  96.3571154  22.9492455
  36.8439390  99.9680050  20.3892625  36.0903099  99.3987448  20.2336630
  36.9786932  99.9342715  21.3363260  18.7205358  90.9185032  32.7261700
  18.3272304  90.3651231  33.4009344  19.5371498  91.2295611  33.1168217
  21.6373319  92.3342911  30.3181956  22.3783033  92.9350065  30.2386419
  21.8691242  91.5920549  29.7599999  16.7814657  97.5199279  28.5960186
  16.6668172  96.6184536  28.8967285  15.9259175  97.7662975  28.2445003
  23.8606495 105.4617019  30.1947687  23.4170349 104.6753398  29.8768591
  24.5223708 105.6496169  29.5291577  18.6193616 106.9912821  24.7208365
  19.1701041 106.8629884  23.9485359  17.7805092 107.2907710  24.3703258
  25.9587733 105.7419819  28.2229088  25.9406208 106.5628700  27.7309357
  26.8807653 105.6173894  28.4479229  22.4160787 103.2563948  29.0652596
  22.9489124 102.4952237  28.8351904  21.8874868 102.9637600  29.8076751
  25.5830482  88.3624014  24.5946238  25.2394751  89.2525656  24.5185349
  25.9509445  88.1725672  23.7315823  23.1327876  93.1982326  18.1603911
  22.2769472  92.8089177  17.9809550  23.5454828  93.2774287  17.3003697
  24.6627022  90.7328669  22.5595471  24.1591818  90.6958805  21.7463277
  24.9557629  91.6421412  22.6192128  20.9069908  90.8167399  21.5661653
  21.7722905  90.6210208  21.2067542  20.9747417  90.5877751  22.4931010
  30.5215039 101.1064980  15.0371847  29.7444482 100.7676140  14.5927009
  31.2006520 101.1117603  14.3626812  25.3367068  96.2259718  14.9278454
  25.0317204  96.5405867  15.7788597  26.2897510  96.3041137  14.9705787
  28.7606346 100.5798961  21.6938455  28.1030020 101.2698223  21.7818583
  29.5646745 100.9695393  22.0372441  18.5132227  93.0469607  18.9378020
  19.0875979  92.8244789  18.2051213  19.1003210  93.1158302  19.6906621
  27.5711805  98.9343334  19.7442396  28.0843686  99.5673326  20.2464106
  28.2213029  98.3344530  19.3785756  20.8154895  89.9210856  17.6653089
  20.1619308  89.6059873  17.0409704  20.7735369  89.2986597  18.3912912
  24.0492636  96.4092790  21.9900737  23.1315197  96.6307737  21.8322425
  24.4652779  96.4839100  21.1312444  24.8327683  97.8084205  17.1203417
  25.5799502  98.3205602  16.8110539  25.1019273  97.4868258  17.9807811
  28.3373601 103.9149335  17.8721539  27.8835928 103.0740245  17.9286729
  27.7067568 104.5510734  18.2096319  27.2806520  94.8441322  19.1022206
  26.5429277  94.3318708  19.4332449  27.5333294  94.4041703  18.2905483
  26.7806540 105.7525832  18.8071357  27.0729514 106.3130889  18.0883723
  27.2905161 106.0454393  19.5624516  27.3818148  87.6217574  19.6963976
  27.6877025  86.7614937  19.4089891  28.1070753  88.2135194  19.4962970
  21.6539228  97.9171367  20.2040167  21.7087837  96.9645203  20.1282643
  20.8430430  98.0730806  20.6881465  19.5931587  96.5348426  17.9630546
  18.7799453  96.8342597  18.3695738  20.0890582  96.1404115  18.6805028
  25.1905799  96.9990251  26.7945440  25.5455187  97.2261724  27.6539905
  25.8377930  97.3308628  26.1722695  30.9203536 100.1208687  17.4994769
  30.7821435 100.3110283  16.5715958  30.5639755 100.8828070  17.9562820
  19.0845662  94.1066782  23.5791781  19.7245042  93.9655541  22.8814744
  18.2523193  93.8201295  23.2030383  30.9472916 102.1885214  22.5106040
  31.3809422 102.0960503  23.3589094  31.6604496 102.1642714  21.8726056
  24.6800811 105.7887308  24.0439141  24.7337833 106.3578244  24.8116857
  23.8115592 105.9589193  23.6793178  16.0874279  94.0767107  18.3564767
  16.3481096  94.9912440  18.2473928  16.9091451  93.6091549  18.5061380
  17.5599204  95.4904864  25.5263592  18.2322257  95.2822226  24.8776241
  16.7328990  95.2926950  25.0868824  31.8088465 102.2308914  25.0438925
  32.0024355 103.1354725  25.2898200  31.7089083 101.7716333  25.8777510
  23.4624776  92.1166805  27.5429253  22.8152691  92.8156755  27.4493729
  24.2325791  92.5502949  27.9105501  26.8703574 102.3815657  30.6179806
  26.7189080 102.1526209  29.7009890  26.8608253 103.3386259  30.6311151
  23.6388910  99.9547570  25.6026072  24.5680970 100.1058729  25.4295040
  23.2179940 100.0431591  24.7474719  22.4377242 103.9798234  23.3724610
  22.2988328 103.6117019  24.2450548  21.6491838 104.4945874  23.2008568
  23.9882457 103.3579837  20.7613448  23.6532290 103.3180607  21.6571098
  23.4886403 102.6924553  20.2883858  17.9626701  98.7647467  26.2866029
  17.8246499  98.0327706  26.8877568  18.8731625  98.6756367  26.0050217
  20.5909002  98.4767426  25.7749709  21.3008620  97.8360619  25.7336327
  20.5478310  98.7280321  26.6975889  28.5795781 105.4134780  28.6956288
  28.5208327 104.7294000  28.0286871  28.9815299 106.1553770  28.2436914
  19.3037936  95.4632644  27.5945348  18.7675293  95.0123383  28.2466945
  18.7154644  95.5978553  26.8515813  28.5813188 103.3774364  26.9270268
  27.6939967 103.0400285  27.0496666  29.1511739 102.6457395  27.1639033
  15.0377057  94.5988652  24.6798343  14.9535246  93.9914321  23.9448753
  14.2159763  95.0897670  24.6807839  22.1114341 108.0375816  23.8931511
  22.0384513 108.8430787  24.4050815  21.6691734 108.2367782  23.0679532
  25.2100771  93.0842215  20.0468538  25.7069470  92.3312178  19.7269608
  24.4387752  93.1206532  19.4811747  33.0630528  98.7882581  21.6886829
  33.0520405  99.6707296  21.3180762  32.1947908  98.4354132  21.4941366
  24.5713025 107.9362650  26.0489669  25.2840997 108.5710115  25.9765571
  24.0803053 108.0326516  25.2329671  26.2930552 101.8413903  17.6206961
  25.3586830 101.9615365  17.4511665  26.4707220 100.9386369  17.3566971
  21.7935740  95.2259598  19.7740222  21.4233527  94.6730639  20.4621128
  22.2894832  94.6217732  19.2215222  29.6803103  97.6831222  18.1556995
  30.1463555  98.5159214  18.0817298  30.1310603  97.2176204  18.8602254
  19.6224938 105.6857093  26.8695240  20.3234398 106.3193576  27.0224634
  19.1520053 106.0271825  26.1090880  27.7479334 104.0275043  15.1543147
  28.0239178 103.9131638  16.0637021  26.8783833 103.6292528  15.1155320
  27.6519766  90.0511809  22.1947897  26.7382846  90.2816036  22.3630104
  28.0812867  90.1350253  23.0461929  27.4226224  98.2401701  24.6947791
  26.7697674  98.4877608  24.0400243  27.8006604  97.4265839  24.3610268
  23.4713797  98.9821512  31.1813828  22.7954434  98.8815641  31.8516203
  24.2941431  98.8260726  31.6449825  22.2136580 110.2888439  25.4171444
  22.7654888 110.4520061  26.1820529  22.5542774 110.8792877  24.7451469
  17.1901073  92.6363589  26.0193328  17.2542400  93.4978420  25.6070726
  17.1268194  92.0237591  25.2865687  16.6653346  94.7086722  29.6666363
  17.2925385  94.3263799  30.2803887  15.8081265  94.4900924  30.0322055
  27.0647454 105.1149697  31.2720098  27.6087358 105.7279655  30.7775053
  26.4834299 105.6729275  31.7887111  25.3504967 108.2370415  22.4035126
  25.2256107 107.4360155  21.8946071  26.0084059 108.7316608  21.9149096
  16.9713136  94.5919147  21.5812266  16.2499721  95.2055115  21.4419739
  17.7606391  95.1276912  21.5028912  27.4139876 106.0379435  24.0314676
  26.4670211 105.9184786  23.9593003  27.7622649 105.1501933  24.1140937
  19.7739449  91.9273574  27.8552918  20.2973851  92.1735870  28.6179227
  19.5551782  92.7593609  27.4356055  24.4186309 105.8332151  20.2319028
  24.2711272 104.9048859  20.4126598  25.2439803 105.8552242  19.7476103
  28.0220431 106.6560710  21.3183901  28.9466978 106.4503571  21.1808352
  27.8535734 106.4077111  22.2273242  20.9791994  92.8687269  25.5402588
  20.6388815  92.0695082  25.9423268  20.2731000  93.1688980  24.9679422
  21.6308466  89.9536581  23.9929911  22.4534535  89.4797060  23.8708802
  21.8746530  90.7327065  24.4928598  24.4147823  93.6869989  15.2251145
  24.6311438  94.5694627  14.9239974  23.9341891  93.2956202  14.4956787
  19.1547045  96.6455702  21.8021890  19.0091626  96.9596005  22.6946172
  18.6772248  97.2640602  21.2492789  21.0143428  93.6358250  21.8502780
  21.0004996  92.7399343  21.5135078  21.7315856  93.6428914  22.4841066
  22.8669558  94.0695590  23.8955907  22.6087336  94.9912661  23.8940237
  22.3354599  93.6726025  24.5856371  27.8115747 107.1746377  16.6745992
  27.9852625 106.6092800  15.9219845  28.3044638 107.9747272  16.4925482
  13.6292707  99.1861046  24.7409551  13.0846175  99.9620854  24.8729826
  14.5072057  99.5331851  24.5828673  20.4180324  92.5172630  17.1190350
  20.5396235  91.5889277  17.3181237  20.1282366  92.5311316  16.2068665
  23.2871514  90.2027541  20.2557070  23.3093211  90.2666874  19.3009049
  23.7039573  89.3632049  20.4497576  33.6655138  99.9382800  18.2936292
  34.1086284  99.1890126  17.8955415  32.7881649  99.9292937  17.9110024
  14.4158729  98.3130943  27.6339708  13.6740465  98.4613578  28.2204338
  14.0951473  98.5739208  26.7706457  30.6982343 103.9412847  15.3030221
  31.2233667 104.2800120  14.5779541  30.6104695 103.0059863  15.1193356
  22.3602391 107.8546921  27.4320098  22.6689518 107.6096068  28.3042798
  23.1577873 108.0593559  26.9438968  19.9021403  94.0304628  31.3280282
  19.9509559  94.9066751  30.9458052  20.4443917  93.4882021  30.7551926
  30.3876249 104.5745751  30.6081419  29.5971793 104.5569890  30.0685919
  30.1509603 105.1134045  31.3630456  30.5074124 101.4238217  27.9214148
  30.5572129 101.2588225  28.8629671  30.3988047 100.5565476  27.5312029
  27.7977886  97.4069145  29.2373455  28.6987749  97.2675610  28.9457452
  27.8725861  97.5723600  30.1771632  22.1320692  94.7836000  28.0826641
  21.2624001  95.0769566  27.8109229  22.3680172  95.3676445  28.8033905
  32.0092321 103.8435159  28.1656169  31.7177129 104.2065139  29.0019630
  31.3964452 103.1302167  27.9869502  33.2088003 101.4088039  20.6858740
  34.0434894 101.8477843  20.8496300  33.3447132 100.9326692  19.8666985
  30.2579509  98.9667773  26.6336227  30.7333631  99.1595420  25.8255079
  29.3345074  99.0226959  26.3879611  24.8359725  91.0015617  25.5992061
  25.3541669  91.7376644  25.2738550  24.4814858  91.3079610  26.4338820
  25.0872320  87.4215900  21.1192958  25.3674073  86.7539089  21.7453384
  25.8722927  87.6144995  20.6067622  28.9581178  95.8433534  24.8664533
  29.9098601  95.9431631  24.8876757  28.7884628  95.0511802  25.3762617
  26.9795557  92.9289117  25.0523934  26.3845490  93.2094130  24.3570423
  26.6945254  93.4183018  25.8240675  31.4369256  99.0639653  23.9806833
  31.4045576  98.1255654  24.1666517  32.0469879  99.1423690  23.2472658
  31.5863744  95.8550697  24.0265116  31.0702793  95.0709153  23.8395045
  32.4703693  95.5269413  24.1911635  29.2474471  89.5991712  19.9860929
  29.0499292  89.2906800  20.8704261  29.8574177  90.3253351  20.1158858
  37.2545806 100.1255660  23.1212869  37.9849194  99.8640948  23.6820573
  36.6452751  99.3884382  23.1614937  35.3361103  98.2663523  23.7187321
  34.6094266  98.1319488  23.1103812  34.9208390  98.5740351  24.5244039
  23.1591279 101.9853452  31.4834694  24.0794289 102.1632051  31.6774740
  23.1240862 101.0409498  31.3314393  16.1553352  99.8954487  24.1257475
  16.3739361 100.8271595  24.1445509  16.5679125  99.5362461  24.9112279
  23.0757569  90.4022572  16.1133163  22.2658298  90.0569657  16.4888409
  23.7641986  90.0930116  16.7020775  25.0048118  89.4800619  17.7357460
  25.5579156  89.8996073  18.3947483  25.2418204  88.5536367  17.7780416
  21.0281217  95.4687693  33.5160224  20.9277944  96.4182050  33.4472315
  20.8102759  95.1405932  32.6436294  28.3826925  91.5901144  17.2436124
  27.8025594  92.2485948  16.8614177  28.1162858  90.7678489  16.8323542
  26.8330491  90.9906202  19.4457444  27.3330270  91.1022737  18.6371763
  27.4766099  90.6867255  20.0858253  20.8912487  98.8984832  32.3325285
  20.4079569  99.6985192  32.5389174  20.9773426  98.9092777  31.3792729
  16.8185825 102.7889366  24.3693719  17.7729078 102.7573309  24.3023651
  16.6198348 102.3279990  25.1843945  17.4085207 101.3590482  26.9364517
  18.2278096 101.8534561  26.9599354  17.6822014 100.4422451  26.9082084
  27.1651803  93.7501235  16.2992472  26.2777658  94.0350885  16.0812667
  27.5805792  93.5894998  15.4519749  30.5166339  93.7747756  20.0146812
  31.2926729  94.2644208  20.2871428  29.7914473  94.2005810  20.4718681
  32.9538898  94.4875375  21.0720752  33.5483388  94.2471111  20.3614061
  33.0265481  93.7682505  21.6994289  27.1392827  99.2655771  16.5142763
  27.0828028  99.7224322  15.6750395  27.6921169  98.5046455  16.3365605
  30.9497633  95.0545502  17.3392882  30.6934567  94.6542138  18.1701090
  30.3250501  95.7689296  17.2143021  35.2609970  97.7941576  19.8464173
  34.7009528  97.8634765  20.6195736  34.6553474  97.6182560  19.1263670
  27.8727606 100.4560552  13.8095292  27.8176410 100.2904823  12.8683736
  27.2473661 101.1636585  13.9657481  12.6620121  95.6928616  27.6356714
  13.3078984  95.1827570  28.1243939  12.4537272  96.4297298  28.2100139
  25.1873513 102.7609464  33.1348855  26.0564673 102.9350116  32.7735489
  24.7080265 103.5803881  33.0124584  21.1823731  89.9568661  13.3880610
  21.1702401  90.9010501  13.5448881  22.0747153  89.7738806  13.0940071
  19.3559693 109.8806565  24.8138288  20.2586940 109.9130175  25.1304783
  19.1297063 108.9507016  24.8284624  24.9975851  86.5511438  17.6426547
  24.2308247  85.9969924  17.7883229  25.4086556  86.6233306  18.5040699
  17.0017612  92.8396233  31.7331728  17.8649073  92.4833038  31.9435053
  16.4283023  92.5010128  32.4207132  36.8465989 114.4698090  22.5394129
  37.4844399 114.3504837  21.8357469  36.7286832 115.4178934  22.5982081
  33.6555695 114.4225518  22.4755654  33.3174207 114.3066582  21.5876189
  34.5245463 114.0216683  22.4556660  34.1375478 115.5760370  28.4341859
  34.1264119 115.1813168  27.5622363  34.2996118 114.8426442  29.0275631
  36.4007257 112.1949544  19.6147337  37.1870347 111.7768967  19.2637754
  36.6645962 113.0995636  19.7828986  41.8015684 112.1324777  20.5180316
  42.5340856 111.5623994  20.7518145  41.0455040 111.7446377  20.9586821
  33.4191804 114.5552018  17.7143658  33.0550011 114.0282639  18.4256580
  34.2758920 114.1650487  17.5410144  39.3241105 105.8446351  24.9774924
  38.9924430 106.7141762  24.7536139  38.7286718 105.5282635  25.6568955
  39.2169768 110.5641437  22.0568274  38.3086645 110.4956845  21.7627035
  39.1657364 111.0413382  22.8850100  33.2910634 111.9831083  30.0003172
  32.5143968 112.5425003  29.9906036  33.9301197 112.4687866  30.5218042
  41.0831415 108.7657875  23.8346148  40.4405795 109.0590409  23.1885943
  40.5786343 108.6510796  24.6399345  38.7371578 112.5121049  14.5232008
  39.6489434 112.7448435  14.3479705  38.2281225 113.0958093  13.9607086
  33.3743416 111.8718283  25.5326857  34.2204611 112.2957697  25.6761506
  33.3142054 111.2151908  26.2265420  36.5242861 109.5322652  27.1908031
  36.2803793 110.2864712  26.6542306  36.8002792 109.9107999  28.0255278
  38.4781324 116.0761264  25.8685296  38.6898219 116.7193024  25.1919677
  38.4311072 115.2423580  25.4007226  36.0807553 108.6879085  22.7721868
  35.2192032 108.9860338  23.0638606  36.1069988 108.9049483  21.8402901
  30.2818370 111.9456184  30.3636449  29.6517031 112.6272465  30.5971846
  30.1754458 111.8339266  29.4189587  47.6833145 115.2971968  20.3892625
  46.9296853 114.7279366  20.2336630  47.8180686 115.2634632  21.3363260
  29.5599113 106.2476950  32.7261700  29.1666058 105.6943149  33.4009344
  30.3765253 106.5587528  33.1168217  32.4767074 107.6634829  30.3181956
  33.2176787 108.2641982  30.2386419  32.7084996 106.9212467  29.7599999
  36.4224237 103.6915932  24.5946238  36.0788506 104.5817574  24.5185349
  36.7903199 103.5017590  23.7315823  33.9721630 108.5274244  18.1603911
  33.1163227 108.1381094  17.9809550  34.3848582 108.6066205  17.3003697
  35.5020777 106.0620587  22.5595471  34.9985573 106.0250722  21.7463277
  35.7951384 106.9713330  22.6192128  31.7463663 106.1459317  21.5661653
  32.6116660 105.9502126  21.2067542  31.8141172 105.9169669  22.4931010
  41.3608793 116.4356898  15.0371847  40.5838236 116.0968057  14.5927009
  42.0400274 116.4409521  14.3626812  36.1760822 111.5551635  14.9278454
  35.8710958 111.8697784  15.7788597  37.1291265 111.6333055  14.9705787
  39.6000100 115.9090879  21.6938455  38.9423775 116.5990140  21.7818583
  40.4040500 116.2987311  22.0372441  29.3525982 108.3761525  18.9378020
  29.9269734 108.1536706  18.2051213  29.9396964 108.4450219  19.6906621
  38.4105559 114.2635252  19.7442396  38.9237441 114.8965244  20.2464106
  39.0606783 113.6636447  19.3785756  31.6548650 105.2502774  17.6653089
  31.0013062 104.9351791  17.0409704  31.6129124 104.6278514  18.3912912
  34.8886390 111.7384707  21.9900737  33.9708951 111.9599654  21.8322425
  35.3046534 111.8131018  21.1312444  35.6721438 113.1376123  17.1203417
  36.4193257 113.6497520  16.8110539  35.9413027 112.8160176  17.9807811
  38.1200275 110.1733239  19.1022206  37.3823032 109.6610625  19.4332449
  38.3727048 109.7333621  18.2905483  38.2211902 102.9509491  19.6963976
  38.5270779 102.0906855  19.4089891  38.9464507 103.5427111  19.4962970
  32.4932982 113.2463284  20.2040167  32.5481592 112.2937121  20.1282643
  31.6824184 113.4022723  20.6881465  30.4325342 111.8640344  17.9630546
  29.6193207 112.1634515  18.3695738  30.9284336 111.4696033  18.6805028
  36.0299554 112.3282168  26.7945440  36.3848941 112.5553642  27.6539905
  36.6771685 112.6600545  26.1722695  41.7597291 115.4500604  17.4994769
  41.6215189 115.6402200  16.5715958  41.4033509 116.2119987  17.9562820
  29.9239417 109.4358700  23.5791781  30.5638796 109.2947459  22.8814744
  29.0916947 109.1493213  23.2030383  41.7866670 117.5177131  22.5106040
  42.2203177 117.4252420  23.3589094  42.4998251 117.4934632  21.8726056
  26.9268033 109.4059025  18.3564767  27.1874850 110.3204358  18.2473928
  27.7485205 108.9383467  18.5061380  28.3992958 110.8196782  25.5263592
  29.0716012 110.6114144  24.8776241  27.5722745 110.6218868  25.0868824
  42.6482220 117.5600832  25.0438925  42.8418110 118.4646643  25.2898200
  42.5482838 117.1008251  25.8777510  34.3018530 107.4458723  27.5429253
  33.6546445 108.1448672  27.4493729  35.0719546 107.8794867  27.9105501
  34.4782665 115.2839488  25.6026072  35.4074725 115.4350647  25.4295040
  34.0573695 115.3723508  24.7474719  31.4302756 113.8059344  25.7749709
  32.1402375 113.1652536  25.7336327  31.3872065 114.0572239  26.6975889
  30.1431690 110.7924562  27.5945348  29.6069047 110.3415300  28.2466945
  29.5548399 110.9270471  26.8515813  25.8770812 109.9280570  24.6798343
  25.7929000 109.3206239  23.9448753  25.0553518 110.4189588  24.6807839
  36.0494525 108.4134133  20.0468538  36.5463225 107.6604095  19.7269608
  35.2781507 108.4498450  19.4811747  43.9024283 114.1174499  21.6886829
  43.8914159 114.9999214  21.3180762  43.0341662 113.7646049  21.4941366
  32.6329494 110.5551516  19.7740222  32.2627282 110.0022556  20.4621128
  33.1288587 109.9509650  19.2215222  40.5196857 113.0123140  18.1556995
  40.9857310 113.8451131  18.0817298  40.9704358 112.5468121  18.8602254
  38.4913520 105.3803727  22.1947897  37.5776600 105.6107953  22.3630104
  38.9206622 105.4642171  23.0461929  38.2619979 113.5693619  24.6947791
  37.6091429 113.8169526  24.0400243  38.6400359 112.7557757  24.3610268
  34.3107552 114.3113430  31.1813828  33.6348189 114.2107559  31.8516203
  35.1335186 114.1552643  31.6449825  28.0294828 107.9655507  26.0193328
  28.0936154 108.8270338  25.6070726  27.9661948 107.3529509  25.2865687
  27.5047100 110.0378639  29.6666363  28.1319139 109.6555717  30.2803887
  26.6475019 109.8192841  30.0322055  27.8106890 109.9211065  21.5812266
  27.0893476 110.5347033  21.4419739  28.6000146 110.4568830  21.5028912
  30.6133204 107.2565492  27.8552918  31.1367605 107.5027788  28.6179227
  30.3945537 108.0885526  27.4356055  31.8185749 108.1979187  25.5402588
  31.4782569 107.3987000  25.9423268  31.1124755 108.4980898  24.9679422
  32.4702221 105.2828499  23.9929911  33.2928290 104.8088977  23.8708802
  32.7140284 106.0618983  24.4928598  35.2541578 109.0161907  15.2251145
  35.4705192 109.8986544  14.9239974  34.7735645 108.6248120  14.4956787
  29.9940799 111.9747620  21.8021890  29.8485380 112.2887923  22.6946172
  29.5166003 112.5932520  21.2492789  31.8537182 108.9650168  21.8502780
  31.8398751 108.0691261  21.5135078  32.5709610 108.9720831  22.4841066
  33.7063313 109.3987508  23.8955907  33.4481091 110.3204579  23.8940237
  33.1748353 109.0017942  24.5856371  31.2574078 107.8464548  17.1190350
  31.3789989 106.9181194  17.3181237  30.9676120 107.8603234  16.2068665
  34.1265268 105.5319458  20.2557070  34.1486965 105.5958792  19.3009049
  34.5433327 104.6923967  20.4497576  44.5048893 115.2674718  18.2936292
  44.9480039 114.5182043  17.8955415  43.6275403 115.2584854  17.9110024
  30.7415158 109.3596545  31.3280282  30.7903313 110.2358668  30.9458052
  31.2837672 108.8173938  30.7551926  41.3467878 116.7530135  27.9214148
  41.3965883 116.5880142  28.8629671  41.2381802 115.8857394  27.5312029
  38.6371641 112.7361063  29.2373455  39.5381503 112.5967528  28.9457452
  38.7119615 112.9015518  30.1771632  32.9714446 110.1127918  28.0826641
  32.1017755 110.4061484  27.8109229  33.2073926 110.6968363  28.8033905
  44.0481757 116.7379956  20.6858740  44.8828649 117.1769760  20.8496300
  44.1840886 116.2618610  19.8666985  41.0973263 114.2959691  26.6336227
  41.5727385 114.4887337  25.8255079  40.1738829 114.3518877  26.3879611
  35.6753480 106.3307535  25.5992061  36.1935424 107.0668562  25.2738550
  35.3208613 106.6371528  26.4338820  35.9266074 102.7507817  21.1192958
  36.2067828 102.0831006  21.7453384  36.7116681 102.9436913  20.6067622
  39.7974932 111.1725451  24.8664533  40.7492355 111.2723549  24.8876757
  39.6278383 110.3803720  25.3762617  37.8189312 108.2581034  25.0523934
  37.2239244 108.5386047  24.3570423  37.5339009 108.7474935  25.8240675
  42.2763010 114.3931571  23.9806833  42.2439330 113.4547572  24.1666517
  42.8863634 114.4715608  23.2472658  42.4257499 111.1842614  24.0265116
  41.9096547 110.4001071  23.8395045  43.3097447 110.8561331  24.1911635
  40.0868226 104.9283630  19.9860929  39.8893047 104.6198718  20.8704261
  40.6967931 105.6545269  20.1158858  48.0939560 115.4547578  23.1212869
  48.8242949 115.1932866  23.6820573  47.4846506 114.7176300  23.1614937
  46.1754857 113.5955440  23.7187321  45.4488021 113.4611405  23.1103812
  45.7602144 113.9032269  24.5244039  33.9151324 105.7314490  16.1133163
  33.1052052 105.3861575  16.4888409  34.6035741 105.4222034  16.7020775
  35.8441872 104.8092537  17.7357460  36.3972911 105.2287990  18.3947483
  36.0811959 103.8828285  17.7780416  31.8674971 110.7979610  33.5160224
  31.7671698 111.7473967  33.4472315  31.6496514 110.4697849  32.6436294
  39.2220679 106.9193062  17.2436124  38.6419348 107.5777866  16.8614177
  38.9556612 106.0970407  16.8323542  37.6724246 106.3198120  19.4457444
  38.1724024 106.4314654  18.6371763  38.3159854 106.0159173  20.0858253
  38.0045557 109.0793152  16.2992472  37.1171412 109.3642803  16.0812667
  38.4199546 108.9186916  15.4519749  41.3560093 109.1039673  20.0146812
  42.1320484 109.5936126  20.2871428  40.6308228 109.5297728  20.4718681
  43.7932652 109.8167293  21.0720752  44.3877143 109.5763029  20.3614061
  43.8659236 109.0974423  21.6994289  37.9786581 114.5947688  16.5142763
  37.9221782 115.0516240  15.6750395  38.5314924 113.8338373  16.3365605
  41.7891387 110.3837420  17.3392882  41.5328321 109.9834056  18.1701090
  41.1644255 111.0981214  17.2143021  46.1003725 113.1233493  19.8464173
  45.5403283 113.1926683  20.6195736  45.4947228 112.9474478  19.1263670
  38.7121360 115.7852470  13.8095292  38.6570164 115.6196741  12.8683736
  38.0867416 116.4928502  13.9657481  23.5013875 111.0220534  27.6356714
  24.1472739 110.5119488  28.1243939  23.2931026 111.7589216  28.2100139
  32.0217486 105.2860579  13.3880610  32.0096156 106.2302418  13.5448881
  32.9140908 105.1030724  13.0940071  35.8369605 101.8803355  17.6426547
  35.0702001 101.3261842  17.7883229  36.2480310 101.9525224  18.5040699
  27.8411366 108.1688151  31.7331728  28.7042828 107.8124956  31.9435053
  27.2676777 107.8302046  32.4207132  47.2617991 119.0207850  24.5946238
  46.9182260 119.9109491  24.5185349  47.6296954 118.8309507  23.7315823
  49.0605657 118.2801409  19.6963976  49.3664534 117.4198772  19.4089891
  49.7858262 118.8719029  19.4962970  46.7659829 118.0799735  21.1192958
  47.0461582 117.4122924  21.7453384  47.5510435 118.2728831  20.6067622
  50.9261980 120.2575548  19.9860929  50.7286801 119.9490636  20.8704261
  51.5361686 120.9837187  20.1158858  46.6763360 117.2095273  17.6426547
  45.9095756 116.6553760  17.7883229  47.0874065 117.2817142  18.5040699
   6.9008273  51.7613067  15.4201595   6.8420819  51.0772287  14.7532178
   7.3027791  52.5032057  14.9682221   5.3859947  51.4627984  17.9965405
   5.9299851  52.0757942  17.5020360   4.8046792  52.0207563  18.5132418
   8.7088741  50.9224038  17.3326726   7.9184285  50.9048177  16.7931225
   8.4722096  51.4612332  18.0875763  10.3304813  50.1913446  14.8901476
  10.0389621  50.5543427  15.7264937   9.7176944  49.4780454  14.7114808
   3.5086005  49.1087751  19.8594161   4.3777165  49.2828403  19.4980796
   3.0292757  49.9282168  19.7369891  15.1678481  60.8176377   9.2639436
  15.8056891  60.6983124   8.5602776  15.0499324  61.7657221   9.3227388
  11.9768187  60.7703805   9.2000961  11.6386699  60.6544870   8.3121495
  12.8457956  60.3694970   9.1801967  12.4587970  61.9238657  15.1587166
  12.4476611  61.5291455  14.2867670  12.6208610  61.1904729  15.7520938
   9.1795232  64.7075769  14.1066350   8.8885097  65.6121399  13.9913016
   9.8152216  64.7492296  14.8210420  10.1051438  62.0852617  10.6967710
  10.7015011  61.8608639   9.9824673  10.1626410  61.3437363  11.2993158
  20.1228177  58.4803064   7.2425622  20.8553349  57.9102281   7.4763452
  19.3667532  58.0924664   7.6832128  17.6453597  52.1924638  11.7020231
  17.3136922  53.0620049  11.4781446  17.0499210  51.8760922  12.3814261
  14.1385117  64.3937184  11.1016144  13.8385840  65.2962223  10.9931951
  13.7936176  64.1269367  11.9537297  17.5382260  56.9119724   8.7813581
  16.6299138  56.8435133   8.4872342  17.4869856  57.3891669   9.6095407
  11.6123126  58.3309370  16.7248478  10.8356460  58.8903290  16.7151343
  12.2513689  58.8166153  17.2463348  19.4043907  55.1136163  10.5591455
  18.7618287  55.4068696   9.9131250  18.8998835  54.9989083  11.3644652
   9.8669498  61.1394823  16.2866445  10.6084183  61.6779867  16.0101269
   9.1606484  61.7661112  16.4437997  15.3424838  63.2823964  14.8838607
  15.7508194  62.8406374  14.1393239  14.6202100  62.7076591  15.1372800
  11.6955908  58.2196570  12.2572164  12.5417103  58.6435984  12.4006813
  11.6354546  57.5630195  12.9510727  15.6653653  63.8425154   8.6390896
  15.0362515  64.0070868   7.9366964  15.2779315  64.2566764   9.4101860
  19.5442885  64.7779592   5.9935259  18.8593923  65.1578494   5.4432293
  19.6286734  65.3874919   6.7267207  14.8455353  55.8800939  13.9153337
  14.6016285  56.6342999  13.3787613  15.1215284  56.2586286  14.7500584
  16.7993816  62.4239551  12.5930603  17.0110711  63.0671311  11.9164984
  16.7523565  61.5901868  12.1252533   8.1105696  63.1271044   8.8420744
   8.6807053  63.5558312   8.2038229   8.7013808  62.8453629   9.5404930
   8.6030862  58.2934471  17.0881755   7.9729523  58.9750752  17.3217152
   8.4966950  58.1817553  16.1434894  17.9139644  65.3011507  10.7652960
  18.7357088  64.8991694  10.4835642  17.9102047  65.1979741  11.7169076
  11.6796248  64.8495550  12.9213671  11.7440680  65.3115957  13.7571843
  10.9707172  64.2192915  13.0495981  26.0045637  61.6450255   7.1137932
  25.2509346  61.0757653   6.9581936  26.1393178  61.6112920   8.0608567
   7.8811605  52.5955237  19.4507006   7.4878551  52.0421436  20.1254651
   8.6977745  52.9065816  19.8413524  10.7979566  54.0113116  17.0427263
  11.5389279  54.6120269  16.9631725  11.0297489  53.2690754  16.4845306
   5.9420904  59.1969484  15.3205493   5.8274419  58.2954741  15.6212592
   5.0865422  59.4433180  14.9690309  13.0212742  67.1387224  16.9192993
  12.5776596  66.3523602  16.6013898  13.6829955  67.3266374  16.2536884
   7.7799863  68.6683025  11.4453672   8.3307288  68.5400089  10.6730666
   6.9411339  68.9677914  11.0948565  15.1193980  67.4190024  14.9474395
  15.1012455  68.2398905  14.4554664  16.0413900  67.2944099  15.1724536
  11.5767034  64.9334153  15.7897903  12.1095371  64.1722441  15.5597211
  11.0481115  64.6407805  16.5322057  17.9212593  62.2569166   8.4183761
  17.2636267  62.9468428   8.5063890  18.7252992  62.6465598   8.7617748
  16.7318051  60.6113539   6.4687703  17.2449933  61.2443531   6.9709413
  17.3819275  60.0114734   6.1031063  13.2098882  58.0862995   8.7146043
  12.2921444  58.3077942   8.5567732  13.6259026  58.1609305   7.8557751
  17.4979848  65.5919540   4.5966846  17.0442175  64.7510450   4.6532036
  16.8673814  66.2280939   4.9341626  15.9412787  67.4296037   5.5316664
  16.2335761  67.9901094   4.8129029  16.4511407  67.7224598   6.2869823
  14.3512046  58.6760456  13.5190746  14.7061434  58.9031929  14.3785212
  14.9984177  59.0078833  12.8968001  20.0809783  61.7978892   4.2240075
  19.9427681  61.9880488   3.2961264  19.7246002  62.5598274   4.6808126
  20.1079162  63.8655419   9.2351347  20.5415669  63.7730708  10.0834401
  20.8210743  63.8412919   8.5971363  13.8407057  67.4657513  10.7684447
  13.8944080  68.0348449  11.5362163  12.9721839  67.6359398  10.4038484
   6.7205451  57.1675069  12.2508899   7.3928504  56.9592431  11.6021547
   5.8935237  56.9697155  11.8114131  20.9694712  63.9079119  11.7684232
  21.1630602  64.8124930  12.0143507  20.8695330  63.4486538  12.6022817
  12.6231023  53.7937010  14.2674559  11.9758938  54.4926960  14.1739036
  13.3932038  54.2273154  14.6350808  16.0309821  64.0585862  17.3425113
  15.8795327  63.8296414  16.4255196  16.0214500  65.0156463  17.3556458
  12.7995157  61.6317775  12.3271379  13.7287217  61.7828934  12.1540346
  12.3786187  61.7201796  11.4720026  11.5983489  65.6568439  10.0969917
  11.4594575  65.2887224  10.9695855  10.8098085  66.1716079   9.9253875
  13.1488704  65.0350042   7.4858755  12.8138537  64.9950812   8.3816404
  12.6492650  64.3694758   7.0129165   7.1232948  60.4417672  13.0111336
   6.9852746  59.7097911  13.6122875   8.0337871  60.3526572  12.7295523
   9.7515249  60.1537631  12.4995015  10.4614867  59.5130823  12.4581634
   9.7084557  60.4050526  13.4221196  17.7402027  67.0904985  15.4201595
  17.6814573  66.4064205  14.7532178  18.1421546  67.8323975  14.9682221
   8.4644183  57.1402849  14.3190655   7.9281540  56.6893588  14.9712251
   7.8760891  57.2748758  13.5761119  17.7419435  65.0544569  13.6515574
  16.8546213  64.7170490  13.7741973  18.3117986  64.3227600  13.8884340
  11.2720588  69.7146021  10.6176817  11.1990759  70.5200992  11.1296122
  10.8297981  69.9137987   9.7924839  22.2236775  60.4652786   8.4132136
  22.2126651  61.3477501   8.0426069  21.3554155  60.1124337   8.2186673
  13.7319271  69.6132855  12.7734976  14.4447244  70.2480320  12.7010878
  13.2409300  69.7096721  11.9574978   8.7831185  67.3627298  13.5940547
   9.4840645  67.9963781  13.7469941   8.3126300  67.7042030  12.8336186
  16.5832471  59.9171906  11.4193097  15.9303921  60.1647813  10.7645550
  16.9612851  59.1036044  11.0855575  12.6320044  60.6591717  17.9059134
  11.9560681  60.5585846  18.5761510  13.4547678  60.5030931  18.3695132
  11.3742827  71.9658644  12.1416750  11.9261135  72.1290266  12.9065836
  11.7149020  72.5563082  11.4696775   5.8259593  56.3856927  16.3911669
   6.4531631  56.0034004  17.0049194   4.9687512  56.1671129  16.7567362
  16.2253701  66.7919902  17.9965405  16.7693605  67.4049860  17.5020360
  15.6440546  67.3499480  18.5132418  14.5111214  69.9140620   9.1280433
  14.3862354  69.1130360   8.6191378  15.1690305  70.4086813   8.6394402
  16.5746123  67.7149640  10.7559983  15.6276458  67.5954991  10.6838309
  16.9228896  66.8272138  10.8386244   8.9345696  53.6043779  14.5798224
   9.4580098  53.8506075  15.3424534   8.7158029  54.4363814  14.1601362
  13.5792556  67.5102356   6.9564335  13.4317518  66.5819064   7.1371905
  14.4046049  67.5322447   6.4721410  17.1826678  68.3330915   8.0429208
  18.1073225  68.1273776   7.9053659  17.0141981  68.0847316   8.9518549
  10.1398241  54.5457474  12.2647895   9.7995061  53.7465287  12.6668575
   9.4337247  54.8459185  11.6924728  12.0275805  55.7465795  10.6201214
  11.7693583  56.6682866  10.6185544  11.4960846  55.3496230  11.3101678
  16.9721994  68.8516582   3.3991299  17.1458871  68.2863005   2.6465151
  17.4650885  69.6517477   3.2170789   2.7898954  60.8631251  11.4654858
   2.2452422  61.6391059  11.5975132   3.6678304  61.2102056  11.3073979
  22.8261385  61.6153005   5.0181599  23.2692531  60.8660330   4.6200722
  21.9487895  61.6063142   4.6355331   3.5764976  59.9901148  14.3585015
   2.8346712  60.1383783  14.9449645   3.2557720  60.2509413  13.4951764
  19.8588590  65.6183052   2.0275528  20.3839914  65.9570325   1.3024848
  19.7710942  64.6830068   1.8438663  11.5208638  69.5317126  14.1565405
  11.8295765  69.2866273  15.0288104  12.3184120  69.7363764  13.6684275
   9.0627650  55.7074833  18.0525589   9.1115805  56.5836955  17.6703359
   9.6050164  55.1652226  17.4797232  19.5482496  66.2515956  17.3326726
  18.7578039  66.2340095  16.7931225  19.3115850  66.7904250  18.0875763
  19.6680371  63.1008422  14.6459455  19.7178376  62.9358430  15.5874977
  19.5594294  62.2335681  14.2557335  16.9584133  59.0839350  15.9618761
  17.8593996  58.9445815  15.6702759  17.0332108  59.2493805  16.9016939
  11.2926938  56.4606205  14.8071948  10.4230248  56.7539771  14.5354536
  11.5286419  57.0446650  15.5279211  21.1698567  65.5205364  14.8901476
  20.8783376  65.8835344  15.7264937  20.5570699  64.8072372  14.7114808
  22.3694250  63.0858244   7.4104046  23.2041141  63.5248048   7.5741607
  22.5053379  62.6096897   6.5912292  19.4185756  60.6437978  13.3581534
  19.8939877  60.8365625  12.5500385  18.4951321  60.6997164  13.1124918
  13.9965972  52.6785822  12.3237368  14.5147916  53.4146849  11.9983857
  13.6421105  52.9849815  13.1584127  18.1187425  57.5203739  11.5909840
  19.0704848  57.6201836  11.6122064  17.9490875  56.7282007  12.1007924
  16.1401804  54.6059322  11.7769241  15.5451736  54.8864334  11.0815729
  15.8551501  55.0953223  12.5485982  20.5975502  60.7409858  10.7052139
  20.5651823  59.8025859  10.8911823  21.2076126  60.8193895   9.9717964
  20.7469991  57.5320902  10.7510423  20.2309040  56.7479358  10.5640351
  21.6309939  57.2039618  10.9156942  26.4152052  61.8025865   9.8458176
  27.1455441  61.5411153  10.4065879  25.8058998  61.0654587   9.8860244
  24.4967349  59.9433728  10.4432627  23.7700513  59.8089693   9.8349119
  24.0814636  60.2510556  11.2489345  12.3197526  63.6623657  18.2080000
  13.2400535  63.8402256  18.4020047  12.2847109  62.7179703  18.0559700
   5.3159598  61.5724692  10.8502782   5.5345608  62.5041800  10.8690815
   5.7285372  61.2132666  11.6357585  10.1887464  57.1457898  20.2405530
  10.0884191  58.0952255  20.1717622   9.9709006  56.8176137  19.3681601
  10.0518734  60.5755037  19.0570592   9.5685816  61.3755397  19.2634481
  10.1379673  60.5862981  18.1038036   5.9792071  64.4659571  11.0939026
   6.9335325  64.4343514  11.0268957   5.7804595  64.0050195  11.9089252
   6.5691453  63.0360687  13.6609824   7.3884342  63.5304766  13.6844661
   6.8428261  62.1192655  13.6327391  22.1145144  56.1645580   7.7966059
  22.7089635  55.9241316   7.0859367  22.1871728  55.4452710   8.4239595
  24.4216217  59.4711781   6.5709480  23.8615775  59.5404970   7.3441042
  23.8159721  59.2952765   5.8508976   1.8226368  57.3698821  14.3602021
   2.4685231  56.8597775  14.8489246   1.6143519  58.1067503  14.9345446
  14.3479760  64.4379669  19.8594161  15.2170919  64.6120321  19.4980796
  13.8686511  65.2574085  19.7369891   8.5165940  71.5576770  11.5383595
   9.4193187  71.5900380  11.8550090   8.2903310  70.6277221  11.5529931
   6.1623859  54.5166438  18.4577035   7.0255320  54.1603243  18.6680359
   5.5889269  54.1780333  19.1452439  26.0072236  76.1468295   9.2639436
  26.6450646  76.0275042   8.5602776  25.8893078  77.0949139   9.3227388
  22.8161942  76.0995723   9.2000961  22.4780453  75.9836787   8.3121495
  23.6851710  75.6986888   9.1801967  23.2981725  77.2530574  15.1587166
  23.2870366  76.8583373  14.2867670  23.4602364  76.5196647  15.7520938
  20.0188986  80.0367686  14.1066350  19.7278852  80.9413317  13.9913016
  20.6545970  80.0784214  14.8210420  20.9445193  77.4144535  10.6967710
  21.5408765  77.1900557   9.9824673  21.0020164  76.6729280  11.2993158
  25.5613504  73.8719748   6.3392644  26.3476593  73.4539172   5.9883061
  25.8252208  74.7765841   6.5074292  30.9621931  73.8094982   7.2425622
  31.6947103  73.2394198   7.4763452  30.2061287  73.4216582   7.6832128
  22.5798051  76.2322223   4.4388965  22.2156258  75.7052844   5.1501886
  23.4365167  75.8420692   4.2655450  28.4847352  67.5216556  11.7020231
  28.1530676  68.3911967  11.4781446  27.8892965  67.2052840  12.3814261
  24.9778871  79.7229102  11.1016144  24.6779594  80.6254141  10.9931951
  24.6329931  79.4561285  11.9537297  18.4291353  76.1742899   7.1352848
  17.5041849  76.0419113   7.3430540  18.6775766  76.9537118   7.6322791
  28.3776015  72.2411642   8.7813581  27.4692892  72.1727050   8.4872342
  28.3263611  72.7183587   9.6095407  22.4516881  73.6601288  16.7248478
  21.6750215  74.2195208  16.7151343  23.0907444  74.1458071  17.2463348
  30.2437661  70.4428080  10.5591455  29.6012042  70.7360613   9.9131250
  29.7392590  70.3281001  11.3644652  27.8977825  74.1891254   1.2477314
  28.8095681  74.4218640   1.0725012  27.3887472  74.7728298   0.6852393
  20.7063253  76.4686741  16.2866445  21.4477937  77.0071785  16.0101269
  20.0000238  77.0953030  16.4437997  26.1818593  78.6115881  14.8838607
  26.5901949  78.1698292  14.1393239  25.4595854  78.0368509  15.1372800
  22.5349663  73.5488488  12.2572164  23.3810858  73.9727902  12.4006813
  22.4748300  72.8922112  12.9510727  26.5047407  79.1717072   8.6390896
  25.8756270  79.3362786   7.9366964  26.1173069  79.5858682   9.4101860
  30.3836639  80.1071510   5.9935259  29.6987677  80.4870411   5.4432293
  30.4680488  80.7166836   6.7267207  25.6849108  71.2092856  13.9153337
  25.4410040  71.9634917  13.3787613  25.9609038  71.5878204  14.7500584
  27.6387571  77.7531469  12.5930603  27.8504466  78.3963229  11.9164984
  27.5917319  76.9193785  12.1252533  25.2413800  70.3649289   9.4967175
  24.3798279  70.6630543   9.7883913  25.2676234  70.5819688   8.5648208
  22.0575369  78.9091480   5.9040981  22.5213715  79.1879183   5.1145603
  21.7932167  78.0074925   5.7214071  18.9499450  78.4562962   8.8420744
  19.5200807  78.8850230   8.2038229  19.5407562  78.1745546   9.5404930
  19.4424617  73.6226389  17.0881755  18.8123277  74.3042670  17.3217152
  19.3360705  73.5109471  16.1434894  28.7533399  80.6303424  10.7652960
  29.5750842  80.2283612  10.4835642  28.7495802  80.5271658  11.7169076
  22.5190002  80.1787468  12.9213671  22.5834435  80.6407875  13.7571843
  21.8100926  79.5484832  13.0495981  13.0207292  73.5428676  10.4462670
  13.2715331  74.4275685  10.7120246  13.5566841  73.3633277   9.6737762
  36.8439392  76.9742173   7.1137932  36.0903100  76.4049571   6.9581936
  36.9786933  76.9404837   8.0608567  18.7205359  67.9247155  19.4507006
  18.3272305  67.3713353  20.1254651  19.5371500  68.2357733  19.8413524
  21.6373320  69.3405034  17.0427263  22.3783034  69.9412187  16.9631725
  21.8691243  68.5982672  16.4845306  16.7814658  74.5261401  15.3205493
  16.6668174  73.6246658  15.6212592  15.9259176  74.7725098  14.9690309
  23.8606496  82.4679142  16.9192993  23.4170350  81.6815520  16.6013898
  24.5223710  82.6558292  16.2536884  18.6193617  83.9974943  11.4453672
  19.1701042  83.8692007  10.6730666  17.7805093  84.2969832  11.0948565
  25.9587734  82.7481941  14.9474395  25.9406210  83.5690823  14.4554664
  26.8807654  82.6236017  15.1724536  22.4160788  80.2626071  15.7897903
  22.9489125  79.5014359  15.5597211  21.8874869  79.9699723  16.5322057
  25.5830483  65.3686137  11.3191545  25.2394753  66.2587779  11.2430655
  25.9509446  65.1787795  10.4561130  23.1327877  70.2044449   4.8849218
  22.2769473  69.8151299   4.7054857  23.5454829  70.2836410   4.0249004
  24.6627024  67.7390792   9.2840778  24.1591819  67.7020927   8.4708583
  24.9557631  68.6483535   9.3437435  20.9069910  67.8229522   8.2906960
  21.7722906  67.6272330   7.9312849  20.9747419  67.5939874   9.2176316
  30.5215040  78.1127103   1.7617153  29.7444483  77.7738262   1.3172315
  31.2006521  78.1179726   1.0872118  25.3367069  73.2321840   1.6523761
  25.0317205  73.5467989   2.5033904  26.2897511  73.3103260   1.6951094
  28.7606347  77.5861084   8.4183761  28.1030022  78.2760345   8.5063890
  29.5646746  77.9757516   8.7617748  18.5132229  70.0531730   5.6623326
  19.0875981  69.8306911   4.9296519  19.1003211  70.1220424   6.4151928
  27.5711806  75.9405457   6.4687703  28.0843688  76.5735448   6.9709413
  28.2213030  75.3406652   6.1031063  20.8154896  66.9272979   4.3898396
  20.1619309  66.6121996   3.7655011  20.7735371  66.3048719   5.1158219
  24.0492637  73.4154912   8.7146043  23.1315198  73.6369859   8.5567732
  24.4652780  73.4901223   7.8557751  24.8327685  74.8146328   3.8448724
  25.5799503  75.3267725   3.5355846  25.1019274  74.4930381   4.7053117
  28.3373602  80.9211458   4.5966846  27.8835929  80.0802368   4.6532036
  27.7067569  81.5572856   4.9341626  27.2806522  71.8503444   5.8267513
  26.5429278  71.3380830   6.1577756  27.5333295  71.4103826   5.0150790
  26.7806541  82.7587955   5.5316664  27.0729516  83.3193012   4.8129029
  27.2905162  83.0516516   6.2869823  27.3818149  64.6279696   6.4209282
  27.6877026  63.7677060   6.1335197  28.1070754  65.2197316   6.2208276
  21.6539229  74.9233489   6.9285473  21.7087839  73.9707326   6.8527950
  20.8430431  75.0792928   7.4126772  19.5931589  73.5410549   4.6875852
  18.7799454  73.8404719   5.0941044  20.0890583  73.1466238   5.4050334
  25.1905800  74.0052373  13.5190746  25.5455188  74.2323847  14.3785212
  25.8377932  74.3370750  12.8968001  30.9203537  77.1270809   4.2240075
  30.7821436  77.3172405   3.2961264  30.5639756  77.8890192   4.6808126
  19.0845663  71.1128904  10.3037087  19.7245043  70.9717664   9.6060051
  18.2523194  70.8263418   9.9275689  30.9472917  79.1947336   9.2351347
  31.3809424  79.1022625  10.0834401  31.6604498  79.1704837   8.5971363
  24.6800812  82.7949430  10.7684447  24.7337834  83.3640367  11.5362163
  23.8115593  82.9651315  10.4038484  16.0874280  71.0829229   5.0810074
  16.3481097  71.9974563   4.9719234  16.9091452  70.6153672   5.2306687
  17.5599205  72.4966987  12.2508899  18.2322259  72.2884349  11.6021547
  16.7328992  72.2989073  11.8114131  31.8088466  79.2371037  11.7684232
  32.0024357  80.1416847  12.0143507  31.7089085  78.7778456  12.6022817
  23.4624777  69.1228928  14.2674559  22.8152692  69.8218877  14.1739036
  24.2325793  69.5565071  14.6350808  26.8703575  79.3877780  17.3425113
  26.7189082  79.1588331  16.4255196  26.8608255  80.3448381  17.3556458
  23.6388912  76.9609692  12.3271379  24.5680972  77.1120852  12.1540346
  23.2179942  77.0493713  11.4720026  22.4377243  80.9860357  10.0969917
  22.2988329  80.6179141  10.9695855  21.6491840  81.5007996   9.9253875
  23.9882458  80.3641960   7.4858755  23.6532291  80.3242730   8.3816404
  23.4886404  79.6986675   7.0129165  17.9626702  75.7709590  13.0111336
  17.8246500  75.0389828  13.6122875  18.8731626  75.6818490  12.7295523
  20.5909003  75.4829549  12.4995015  21.3008622  74.8422741  12.4581634
  20.5478311  75.7342444  13.4221196  28.5795782  82.4196902  15.4201595
  28.5208328  81.7356122  14.7532178  28.9815300  83.1615892  14.9682221
  19.3037937  72.4694767  14.3190655  18.7675294  72.0185505  14.9712251
  18.7154646  72.6040676  13.5761119  28.5813189  80.3836486  13.6515574
  27.6939968  80.0462408  13.7741973  29.1511740  79.6519517  13.8884340
  15.0377058  71.6050774  11.4043649  14.9535247  70.9976444  10.6694059
  14.2159765  72.0959793  11.4053146  22.1114342  85.0437939  10.6176817
  22.0384514  85.8492910  11.1296122  21.6691736  85.2429904   9.7924839
  25.2100772  70.0904338   6.7713844  25.7069472  69.3374300   6.4514915
  24.4387754  70.1268655   6.2057054  33.0630530  75.7944704   8.4132136
  33.0520406  76.6769419   8.0426069  32.1947909  75.4416254   8.2186673
  24.5713026  84.9424773  12.7734976  25.2840998  85.5772237  12.7010878
  24.0803055  85.0388639  11.9574978  26.2930553  78.8476025   4.3452268
  25.3586832  78.9677488   4.1756972  26.4707221  77.9448492   4.0812278
  21.7935741  72.2321721   6.4985529  21.4233528  71.6792761   7.1866435
  22.2894833  71.6279854   5.9460529  29.6803104  74.6893345   4.8802302
  30.1463556  75.5221336   4.8062605  30.1310605  74.2238326   5.5847560
  19.6224940  82.6919216  13.5940547  20.3234399  83.3255699  13.7469941
  19.1520055  83.0333948  12.8336186  27.7479335  81.0337166   1.8788454
  28.0239179  80.9193760   2.7882328  26.8783834  80.6354651   1.8400627
  27.6519767  67.0573932   8.9193203  26.7382847  67.2878158   9.0875410
  28.0812868  67.1412376   9.7707236  27.4226225  75.2463823  11.4193097
  26.7697676  75.4939731  10.7645550  27.8006605  74.4327962  11.0855575
  23.4713799  75.9883635  17.9059134  22.7954436  75.8877764  18.5761510
  24.2941432  75.8322848  18.3695132  22.2136581  87.2950562  12.1416750
  22.7654889  87.4582183  12.9065836  22.5542775  87.8855000  11.4696775
  17.1901075  69.6425712  12.7438635  17.2542401  70.5040543  12.3316033
  17.1268195  69.0299713  12.0110994  16.6653347  71.7148844  16.3911669
  17.2925386  71.3325922  17.0049194  15.8081266  71.4963046  16.7567362
  27.0647456  82.1211820  17.9965405  27.6087360  82.7341778  17.5020360
  26.4834301  82.6791398  18.5132418  25.3504969  85.2432538   9.1280433
  25.2256108  84.4422277   8.6191378  26.0084060  85.7378731   8.6394402
  16.9713137  71.5981270   8.3057573  16.2499723  72.2117238   8.1665046
  17.7606393  72.1339035   8.2274219  27.4139877  83.0441558  10.7559983
  26.4670213  82.9246909  10.6838309  27.7622650  82.1564056  10.8386244
  19.7739450  68.9335697  14.5798224  20.2973852  69.1797993  15.3424534
  19.5551784  69.7655731  14.1601362  24.4186310  82.8394274   6.9564335
  24.2711273  81.9110981   7.1371905  25.2439804  82.8614365   6.4721410
  28.0220432  83.6622833   8.0429208  28.9466980  83.4565694   7.9053659
  27.8535736  83.4139234   8.9518549  20.9791995  69.8749392  12.2647895
  20.6388816  69.0757205  12.6668575  20.2731002  70.1751102  11.6924728
  21.6308467  66.9598704  10.7175218  22.4534537  66.4859182  10.5954108
  21.8746531  67.7389188  11.2173904  24.4147825  70.6932111   1.9496452
  24.6311439  71.5756749   1.6485280  23.9341892  70.3018325   1.2202094
  19.1547046  73.6517825   8.5267197  19.0091627  73.9658128   9.4191478
  18.6772250  74.2702725   7.9738095  21.0143429  70.6420373   8.5748086
  21.0004998  69.7461466   8.2380384  21.7315857  70.6491036   9.2086372
  22.8669560  71.0757713  10.6201214  22.6087337  71.9974784  10.6185544
  22.3354600  70.6788147  11.3101678  27.8115748  84.1808500   3.3991299
  27.9852626  83.6154922   2.6465151  28.3044640  84.9809395   3.2170789
  13.6292708  76.1923169  11.4654858  13.0846176  76.9682977  11.5975132
  14.5072058  76.5393974  11.3073979  20.4180325  69.5234753   3.8435656
  20.5396236  68.5951399   4.0426544  20.1282367  69.5373439   2.9313972
  23.2871515  67.2089663   6.9802376  23.3093212  67.2728996   6.0254356
  23.7039574  66.3694172   7.1742882  33.6655140  76.9444923   5.0181599
  34.1086286  76.1952248   4.6200722  32.7881650  76.9355059   4.6355331
  14.4158730  75.3193065  14.3585015  13.6740466  75.4675701  14.9449645
  14.0951474  75.5801331  13.4951764  30.6982344  80.9474970   2.0275528
  31.2233668  81.2862243   1.3024848  30.6104697  80.0121985   1.8438663
  22.3602393  84.8609044  14.1565405  22.6689519  84.6158190  15.0288104
  23.1577875  85.0655682  13.6684275  19.9021404  71.0366750  18.0525589
  19.9509560  71.9128873  17.6703359  20.4443919  70.4944143  17.4797232
  30.3876250  81.5807874  17.3326726  29.5971794  81.5632012  16.7931225
  30.1509605  82.1196167  18.0875763  30.5074125  78.4300340  14.6459455
  30.5572130  78.2650347  15.5874977  30.3988048  77.5627599  14.2557335
  27.7977888  74.4131268  15.9618761  28.6987750  74.2737733  15.6702759
  27.8725862  74.5785723  16.9016939  22.1320693  71.7898123  14.8071948
  21.2624002  72.0831689  14.5354536  22.3680173  72.3738568  15.5279211
  32.0092322  80.8497281  14.8901476  31.7177130  81.2127262  15.7264937
  31.3964453  80.1364290  14.7114808  33.2088004  78.4150161   7.4104046
  34.0434896  78.8539965   7.5741607  33.3447133  77.9388814   6.5912292
  30.2579510  75.9729896  13.3581534  30.7333632  76.1657542  12.5500385
  29.3345076  76.0289082  13.1124918  24.8359727  68.0077740  12.3237368
  25.3541671  68.7438767  11.9983857  24.4814859  68.3141733  13.1584127
  25.0872321  64.4278022   7.8438265  25.3674075  63.7601211   8.4698691
  25.8722928  64.6207118   7.3312928  28.9581179  72.8495656  11.5909840
  29.9098602  72.9493754  11.6122064  28.7884630  72.0573925  12.1007924
  26.9795559  69.9351239  11.7769241  26.3845491  70.2156252  11.0815729
  26.6945255  70.4245140  12.5485982  31.4369257  76.0701776  10.7052139
  31.4045577  75.1317777  10.8911823  32.0469881  76.1485813   9.9717964
  31.5863745  72.8612819  10.7510423  31.0702794  72.0771276  10.5640351
  32.4703694  72.5331536  10.9156942  29.2474472  66.6053835   6.7106235
  29.0499294  66.2968923   7.5949567  29.8574178  67.3315474   6.8404165
  37.2545807  77.1317783   9.8458176  37.9849195  76.8703071  10.4065879
  36.6452752  76.3946505   9.8860244  35.3361104  75.2725645  10.4432627
  34.6094268  75.1381610   9.8349119  34.9208391  75.5802474  11.2489345
  23.1591280  78.9915575  18.2080000  24.0794290  79.1694174  18.4020047
  23.1240863  78.0471620  18.0559700  16.1553353  76.9016610  10.8502782
  16.3739363  77.8333717  10.8690815  16.5679127  76.5424584  11.6357585
  23.0757571  67.4084695   2.8378470  22.2658299  67.0631780   3.2133716
  23.7641988  67.0992239   3.4266081  25.0048119  66.4862742   4.4602767
  25.5579158  66.9058195   5.1192790  25.2418205  65.5598490   4.5025723
  21.0281218  72.4749815  20.2405530  20.9277945  73.4244172  20.1717622
  20.8102760  72.1468054  19.3681601  28.3826926  68.5963267   3.9681431
  27.8025595  69.2548071   3.5859483  28.1162859  67.7740612   3.5568848
  26.8330492  67.9968325   6.1702751  27.3330271  68.1084859   5.3617070
  27.4766100  67.6929377   6.8103560  20.8912488  75.9046954  19.0570592
  20.4079570  76.7047314  19.2634481  20.9773427  75.9154899  18.1038036
  16.8185826  79.7951489  11.0939026  17.7729079  79.7635431  11.0268957
  16.6198349  79.3342113  11.9089252  17.4085208  78.3652605  13.6609824
  18.2278097  78.8596684  13.6844661  17.6822016  77.4484573  13.6327391
  27.1651804  70.7563357   3.0237779  26.2777659  71.0413008   2.8057974
  27.5805793  70.5957121   2.1765056  30.5166340  70.7809878   6.7392118
  31.2926730  71.2706331   7.0116735  29.7914474  71.2067932   7.1963988
  32.9538899  71.4937497   7.7966059  33.5483390  71.2533233   7.0859367
  33.0265483  70.7744628   8.4239595  27.1392828  76.2717893   3.2388069
  27.0828029  76.7286445   2.3995702  27.6921170  75.5108578   3.0610912
  30.9497634  72.0607625   4.0638189  30.6934568  71.6604261   4.8946396
  30.3250502  72.7751419   3.9388328  35.2609972  74.8003698   6.5709480
  34.7009530  74.8696888   7.3441042  34.6553475  74.6244683   5.8508976
  27.8727607  77.4622674   0.5340598  27.8176411  77.2966946  -0.4070957
  27.2473662  78.1698707   0.6902788  12.6620122  72.6990739  14.3602021
  13.3078986  72.1889693  14.8489246  12.4537273  73.4359420  14.9345446
  25.1873514  79.7671586  19.8594161  26.0564674  79.9412239  19.4980796
  24.7080266  80.5866003  19.7369891  21.1823733  66.9630783   0.1125917
  21.1702402  67.9072623   0.2694188  22.0747154  66.7800929  -0.1814622
  19.3559695  86.8868687  11.5383595  20.2586941  86.9192298  11.8550090
  19.1297065  85.9569138  11.5529931  24.9975852  63.5573560   4.3671854
  24.2308248  63.0032047   4.5128536  25.4086557  63.6295429   5.2286005
  17.0017613  69.8458356  18.4577035  17.8649075  69.4895161  18.6680359
  16.4283024  69.5072251  19.1452439  36.8465990  91.4760212   9.2639436
  37.4844400  91.3566960   8.5602776  36.7286833  92.4241056   9.3227388
  33.6555696  91.4287640   9.2000961  33.3174208  91.3128705   8.3121495
  34.5245465  91.0278805   9.1801967  34.1375479  92.5822492  15.1587166
  34.1264120  92.1875290  14.2867670  34.2996119  91.8488565  15.7520938
  30.8582740  95.3659604  14.1066350  30.5672606  96.2705235  13.9913016
  31.4939725  95.4076132  14.8210420  31.7838947  92.7436452  10.6967710
  32.3802520  92.5192475   9.9824673  31.8413919  92.0021198  11.2993158
  36.4007259  89.2011666   6.3392644  37.1870348  88.7831089   5.9883061
  36.6645963  90.1057758   6.5074292  41.8015686  89.1386899   7.2425622
  42.5340858  88.5686116   7.4763452  41.0455041  88.7508500   7.6832128
  33.4191805  91.5614141   4.4388965  33.0550013  91.0344762   5.1501886
  34.2758921  91.1712610   4.2655450  39.3241106  82.8508473  11.7020231
  38.9924431  83.7203884  11.4781446  38.7286719  82.5344757  12.3814261
  35.8172626  95.0521019  11.1016144  35.5173349  95.9546058  10.9931951
  35.4723685  94.7853203  11.9537297  29.2685107  91.5034816   7.1352848
  28.3435604  91.3711030   7.3430540  29.5169520  92.2829036   7.6322791
  39.2169769  87.5703560   8.7813581  38.3086647  87.5018968   8.4872342
  39.1657365  88.0475505   9.6095407  33.2910635  88.9893205  16.7248478
  32.5143969  89.5487125  16.7151343  33.9301198  89.4749988  17.2463348
  41.0831416  85.7719998  10.5591455  40.4405796  86.0652531   9.9131250
  40.5786344  85.6572918  11.3644652  38.7371579  89.5183171   1.2477314
  39.6489436  89.7510558   1.0725012  38.2281226  90.1020215   0.6852393
  31.5457007  91.7978659  16.2866445  32.2871692  92.3363703  16.0101269
  30.8393993  92.4244947  16.4437997  37.0212347  93.9407799  14.8838607
  37.4295703  93.4990210  14.1393239  36.2989609  93.3660427  15.1372800
  33.3743417  88.8780406  12.2572164  34.2204612  89.3019819  12.4006813
  33.3142055  88.2214030  12.9510727  37.3441162  94.5008990   8.6390896
  36.7150024  94.6654704   7.9366964  36.9566824  94.9150599   9.4101860
  41.2230394  95.4363428   5.9935259  40.5381432  95.8162329   5.4432293
  41.3074243  96.0458754   6.7267207  36.5242862  86.5384774  13.9153337
  36.2803794  87.2926835  13.3787613  36.8002793  86.9170122  14.7500584
  38.4781325  93.0823387  12.5930603  38.6898220  93.7255146  11.9164984
  38.4311073  92.2485703  12.1252533  36.0807554  85.6941207   9.4967175
  35.2192033  85.9922461   9.7883913  36.1069989  85.9111606   8.5648208
  32.8969124  94.2383398   5.9040981  33.3607469  94.5171101   5.1145603
  32.6325922  93.3366842   5.7214071  29.7893205  93.7854879   8.8420744
  30.3594562  94.2142148   8.2038229  30.3801317  93.5037464   9.5404930
  30.2818371  88.9518307  17.0881755  29.6517032  89.6334588  17.3217152
  30.1754459  88.8401388  16.1434894  39.5927153  95.9595342  10.7652960
  40.4144597  95.5575529  10.4835642  39.5889556  95.8563576  11.7169076
  33.3583757  95.5079385  12.9213671  33.4228189  95.9699792  13.7571843
  32.6494681  94.8776750  13.0495981  23.8601047  88.8720593  10.4462670
  24.1109085  89.7567603  10.7120246  24.3960595  88.6925195   9.6737762
  47.6833146  92.3034090   7.1137932  46.9296855  91.7341488   6.9581936
  47.8180687  92.2696755   8.0608567  29.5599114  83.2539073  19.4507006
  29.1666059  82.7005271  20.1254651  30.3765254  83.5649651  19.8413524
  32.4767075  84.6696952  17.0427263  33.2176788  85.2704105  16.9631725
  32.7084998  83.9274589  16.4845306  27.6208413  89.8553319  15.3205493
  27.5061928  88.9538576  15.6212592  26.7652931  90.1017016  14.9690309
  34.7000251  97.7971059  16.9192993  34.2564105  97.0107438  16.6013898
  35.3617464  97.9850210  16.2536884  29.4587372  99.3266861  11.4453672
  30.0094797  99.1983924  10.6730666  28.6198848  99.6261750  11.0948565
  36.7981489  98.0773859  14.9474395  36.7799964  98.8982740  14.4554664
  37.7201409  97.9527934  15.1724536  33.2554543  95.5917989  15.7897903
  33.7882880  94.8306277  15.5597211  32.7268624  95.2991640  16.5322057
  36.4224238  80.6978055  11.3191545  36.0788507  81.5879696  11.2430655
  36.7903200  80.5079712  10.4561130  33.9721632  85.5336366   4.8849218
  33.1163228  85.1443217   4.7054857  34.3848583  85.6128327   4.0249004
  35.5020778  83.0682710   9.2840778  34.9985574  83.0312845   8.4708583
  35.7951385  83.9775452   9.3437435  31.7463664  83.1521439   8.2906960
  32.6116661  82.9564248   7.9312849  31.8141173  82.9231791   9.2176316
  41.3608795  93.4419020   1.7617153  40.5838237  93.1030180   1.3172315
  42.0400276  93.4471644   1.0872118  36.1760824  88.5613758   1.6523761
  35.8710959  88.8759907   2.5033904  37.1291266  88.6395178   1.6951094
  39.6000102  92.9153002   8.4183761  38.9423776  93.6052263   8.5063890
  40.4040501  93.3049434   8.7617748  29.3525983  85.3823647   5.6623326
  29.9269735  85.1598829   4.9296519  29.9396966  85.4512342   6.4151928
  38.4105560  91.2697374   6.4687703  38.9237442  91.9027366   6.9709413
  39.0606784  90.6698570   6.1031063  31.6548651  82.2564896   4.3898396
  31.0013063  81.9413913   3.7655011  31.6129125  81.6340637   5.1158219
  34.8886391  88.7446830   8.7146043  33.9708953  88.9661777   8.5567732
  35.3046535  88.8193140   7.8557751  35.6721439  90.1438246   3.8448724
  36.4193258  90.6559643   3.5355846  35.9413029  89.8222298   4.7053117
  39.1767357  96.2503376   4.5966846  38.7229684  95.4094286   4.6532036
  38.5461323  96.8864774   4.9341626  38.1200276  87.1795362   5.8267513
  37.3823033  86.6672748   6.1577756  38.3727050  86.7395743   5.0150790
  37.6200296  98.0879872   5.5316664  37.9123270  98.6484930   4.8129029
  38.1298916  98.3808433   6.2869823  38.2211904  79.9571614   6.4209282
  38.5270780  79.0968977   6.1335197  38.9464508  80.5489234   6.2208276
  32.4932983  90.2525407   6.9285473  32.5481593  89.2999243   6.8527950
  31.6824185  90.4084846   7.4126772  30.4325343  88.8702467   4.6875852
  29.6193209  89.1696637   5.0941044  30.9284337  88.4758155   5.4050334
  36.0299555  89.3344291  13.5190746  36.3848943  89.5615764  14.3785212
  36.6771686  89.6662668  12.8968001  41.7597292  92.4562727   4.2240075
  41.6215190  92.6464323   3.2961264  41.4033511  93.2182110   4.6808126
  29.9239418  86.4420822  10.3037087  30.5638797  86.3009581   9.6060051
  29.0916948  86.1555336   9.9275689  41.7866671  94.5239254   9.2351347
  42.2203178  94.4314543  10.0834401  42.4998252  94.4996754   8.5971363
  35.5194566  98.1241348  10.7684447  35.5731589  98.6932284  11.5362163
  34.6509348  98.2943233  10.4038484  26.9268034  86.4121147   5.0810074
  27.1874852  87.3266480   4.9719234  27.7485207  85.9445590   5.2306687
  28.3992960  87.8258904  12.2508899  29.0716013  87.6176266  11.6021547
  27.5722746  87.6280990  11.8114131  42.6482221  94.5662955  11.7684232
  42.8418111  95.4708765  12.0143507  42.5482839  94.1070374  12.6022817
  34.3018532  84.4520845  14.2674559  33.6546447  85.1510795  14.1739036
  35.0719547  84.8856989  14.6350808  37.7097330  94.7169697  17.3425113
  37.5582836  94.4880249  16.4255196  37.7002009  95.6740299  17.3556458
  34.4782666  92.2901610  12.3271379  35.4074726  92.4412770  12.1540346
  34.0573696  92.3785631  11.4720026  33.2770998  96.3152275  10.0969917
  33.1382084  95.9471059  10.9695855  32.4885594  96.8299914   9.9253875
  34.8276213  95.6933877   7.4858755  34.4926046  95.6534647   8.3816404
  34.3280159  95.0278593   7.0129165  28.8020457  91.1001507  13.0111336
  28.6640255  90.3681746  13.6122875  29.7125380  91.0110407  12.7295523
  31.4302758  90.8121467  12.4995015  32.1402376  90.1714659  12.4581634
  31.3872066  91.0634361  13.4221196  39.4189536  97.7488820  15.4201595
  39.3602082  97.0648040  14.7532178  39.8209055  98.4907810  14.9682221
  30.1431692  87.7986684  14.3190655  29.6069049  87.3477423  14.9712251
  29.5548400  87.9332593  13.5761119  39.4206944  95.7128404  13.6515574
  38.5333722  95.3754326  13.7741973  39.9905495  94.9811435  13.8884340
  25.8770813  86.9342692  11.4043649  25.7929002  86.3268362  10.6694059
  25.0553519  87.4251710  11.4053146  32.9508097 100.3729856  10.6176817
  32.8778268 101.1784828  11.1296122  32.5085490 100.5721822   9.7924839
  36.0494527  85.4196256   6.7713844  36.5463226  84.6666218   6.4514915
  35.2781508  85.4560572   6.2057054  43.9024284  91.1236621   8.4132136
  43.8914160  92.0061337   8.0426069  43.0341664  90.7708172   8.2186673
  35.4106780 100.2716690  12.7734976  36.1234753 100.9064155  12.7010878
  34.9196809 100.3680556  11.9574978  37.1324307  94.1767943   4.3452268
  36.1980586  94.2969405   4.1756972  37.3100976  93.2740410   4.0812278
  32.6329495  87.5613639   6.4985529  32.2627283  87.0084679   7.1866435
  33.1288588  86.9571772   5.9460529  40.5196859  90.0185262   4.8802302
  40.9857311  90.8513254   4.8062605  40.9704359  89.5530244   5.5847560
  30.4618694  98.0211134  13.5940547  31.1628153  98.6547617  13.7469941
  29.9913809  98.3625865  12.8336186  38.5873090  96.3629083   1.8788454
  38.8632934  96.2485678   2.7882328  37.7177589  95.9646568   1.8400627
  38.4913521  82.3865849   8.9193203  37.5776601  82.6170076   9.0875410
  38.9206623  82.4704293   9.7707236  38.2619980  90.5755741  11.4193097
  37.6091430  90.8231649  10.7645550  38.6400360  89.7619879  11.0855575
  34.3107553  91.3175552  17.9059134  33.6348190  91.2169682  18.5761510
  35.1335187  91.1614766  18.3695132  33.0530336 102.6242480  12.1416750
  33.6048644 102.7874101  12.9065836  33.3936529 103.2146917  11.4696775
  28.0294829  84.9717629  12.7438635  28.0936156  85.8332460  12.3316033
  27.9661949  84.3591631  12.0110994  27.5047102  87.0440762  16.3911669
  28.1319140  86.6617839  17.0049194  26.6475020  86.8254964  16.7567362
  37.9041210  97.4503737  17.9965405  38.4481114  98.0633695  17.5020360
  37.3228055  98.0083316  18.5132418  36.1898723 100.5724455   9.1280433
  36.0649863  99.7714195   8.6191378  36.8477814 101.0670649   8.6394402
  27.8106891  86.9273188   8.3057573  27.0893477  87.5409155   8.1665046
  28.6000147  87.4630953   8.2274219  38.2533632  98.3733475  10.7559983
  37.3063967  98.2538826  10.6838309  38.6016405  97.4855973  10.8386244
  30.6133205  84.2627614  14.5798224  31.1367607  84.5089911  15.3424534
  30.3945538  85.0947649  14.1601362  35.2580065  98.1686191   6.9564335
  35.1105027  97.2402899   7.1371905  36.0833558  98.1906282   6.4721410
  38.8614187  98.9914750   8.0429208  39.7860734  98.7857612   7.9053659
  38.6929490  98.7431151   8.9518549  31.8185750  85.2041309  12.2647895
  31.4782570  84.4049122  12.6668575  31.1124756  85.5043020  11.6924728
  32.4702222  82.2890622  10.7175218  33.2928291  81.8151100  10.5954108
  32.7140285  83.0681105  11.2173904  35.2541579  86.0224029   1.9496452
  35.4705194  86.9048667   1.6485280  34.7735646  85.6310243   1.2202094
  29.9940801  88.9809742   8.5267197  29.8485381  89.2950045   9.4191478
  29.5166004  89.5994643   7.9738095  31.8537183  85.9712290   8.5748086
  31.8398752  85.0753384   8.2380384  32.5709612  85.9782954   9.2086372
  33.7063314  86.4049631  10.6201214  33.4481092  87.3266701  10.6185544
  33.1748355  86.0080065  11.3101678  38.6509503  99.5100418   3.3991299
  38.8246380  98.9446840   2.6465151  39.1438394 100.3101313   3.2170789
  24.4686463  91.5215087  11.4654858  23.9239931  92.2974895  11.5975132
  25.3465813  91.8685891  11.3073979  31.2574079  84.8526671   3.8435656
  31.3789991  83.9243317   4.0426544  30.9676122  84.8665357   2.9313972
  34.1265270  82.5381581   6.9802376  34.1486967  82.6020914   6.0254356
  34.5433329  81.6986090   7.1742882  44.5048894  92.2736841   5.0181599
  44.9480040  91.5244166   4.6200722  43.6275404  92.2646977   4.6355331
  25.2552485  90.6484983  14.3585015  24.5134221  90.7967618  14.9449645
  24.9345229  90.9093249  13.4951764  41.5376098  96.2766888   2.0275528
  42.0627423  96.6154160   1.3024848  41.4498451  95.3413903   1.8438663
  33.1996147 100.1900961  14.1565405  33.5083274  99.9450108  15.0288104
  33.9971629 100.3947600  13.6684275  30.7415159  86.3658668  18.0525589
  30.7903314  87.2420791  17.6703359  31.2837673  85.8236061  17.4797232
  41.2270005  96.9099791  17.3326726  40.4365548  96.8923930  16.7931225
  40.9903359  97.4488085  18.0875763  41.3467880  93.7592258  14.6459455
  41.3965885  93.5942265  15.5874977  41.2381803  92.8919517  14.2557335
  38.6371642  89.7423186  15.9618761  39.5381505  89.6029651  15.6702759
  38.7119617  89.9077640  16.9016939  32.9714447  87.1190040  14.8071948
  32.1017757  87.4123606  14.5354536  33.2073928  87.7030485  15.5279211
  42.8486076  96.1789199  14.8901476  42.5570885  96.5419180  15.7264937
  42.2358208  95.4656207  14.7114808  44.0481759  93.7442079   7.4104046
  44.8828650  94.1831883   7.5741607  44.1840888  93.2680732   6.5912292
  41.0973265  91.3021814  13.3581534  41.5727386  91.4949460  12.5500385
  40.1738830  91.3581000  13.1124918  35.6753481  83.3369657  12.3237368
  36.1935425  84.0730684  11.9983857  35.3208614  83.6433651  13.1584127
  35.9266075  79.7569940   7.8438265  36.2067829  79.0893129   8.4698691
  36.7116682  79.9499035   7.3312928  39.7974934  88.1787574  11.5909840
  40.7492357  88.2785672  11.6122064  39.6278384  87.3865842  12.1007924
  37.8189313  85.2643157  11.7769241  37.2239245  85.5448170  11.0815729
  37.5339010  85.7537058  12.5485982  42.2763011  91.3993694  10.7052139
  42.2439332  90.4609694  10.8911823  42.8863635  91.4777730   9.9717964
  42.4257500  88.1904737  10.7510423  41.9096549  87.4063194  10.5640351
  43.3097448  87.8623454  10.9156942  40.0868227  81.9345753   6.7106235
  39.8893048  81.6260841   7.5949567  40.6967932  82.6607391   6.8404165
  48.0939561  92.4609700   9.8458176  48.8242950  92.1994989  10.4065879
  47.4846507  91.7238422   9.8860244  46.1754858  90.6017563  10.4432627
  45.4488022  90.4673528   9.8349119  45.7602145  90.9094392  11.2489345
  33.9985035  94.3207493  18.2080000  34.9188044  94.4986092  18.4020047
  33.9634618  93.3763538  18.0559700  26.9947107  92.2308527  10.8502782
  27.2133117  93.1625635  10.8690815  27.4072881  91.8716502  11.6357585
  33.9151325  82.7376613   2.8378470  33.1052054  82.3923698   3.2133716
  34.6035742  82.4284156   3.4266081  35.8441873  81.8154659   4.4602767
  36.3972912  82.2350113   5.1192790  36.0811960  80.8890408   4.5025723
  31.8674973  87.8041733  20.2405530  31.7671700  88.7536090  20.1717622
  31.6496515  87.4759972  19.3681601  39.2220681  83.9255185   3.9681431
  38.6419350  84.5839989   3.5859483  38.9556613  83.1032529   3.5568848
  37.6724247  83.3260242   6.1702751  38.1724025  83.4376777   5.3617070
  38.3159855  83.0221295   6.8103560  31.7306243  91.2338872  19.0570592
  31.2473324  92.0339232  19.2634481  31.8167182  91.2446817  18.1038036
  27.6579580  95.1243407  11.0939026  28.6122834  95.0927349  11.0268957
  27.4592104  94.6634030  11.9089252  28.2478962  93.6944523  13.6609824
  29.0671851  94.1888601  13.6844661  28.5215770  92.7776491  13.6327391
  38.0045559  86.0855275   3.0237779  37.1171414  86.3704926   2.8057974
  38.4199548  85.9249038   2.1765056  41.3560095  86.1101796   6.7392118
  42.1320485  86.5998248   7.0116735  40.6308229  86.5359850   7.1963988
  43.7932653  86.8229415   7.7966059  44.3877144  86.5825151   7.0859367
  43.8659237  86.1036546   8.4239595  37.9786582  91.6009811   3.2388069
  37.9221784  92.0578362   2.3995702  38.5314925  90.8400496   3.0610912
  41.7891388  87.3899543   4.0638189  41.5328322  86.9896178   4.8946396
  41.1644256  88.1043337   3.9388328  46.1003726  90.1295616   6.5709480
  45.5403284  90.1988805   7.3441042  45.4947229  89.9536601   5.8508976
  38.7121362  92.7914592   0.5340598  38.6570165  92.6258864  -0.4070957
  38.0867417  93.4990625   0.6902788  23.5013877  88.0282657  14.3602021
  24.1472740  87.5181611  14.8489246  23.2931028  88.7651338  14.9345446
  36.0267269  95.0963504  19.8594161  36.8958428  95.2704156  19.4980796
  35.5474020  95.9157921  19.7369891  32.0217487  82.2922701   0.1125917
  32.0096157  83.2364541   0.2694188  32.9140909  82.1092847  -0.1814622
  30.1953449 102.2160605  11.5383595  31.0980696 102.2484215  11.8550090
  29.9690819 101.2861056  11.5529931  35.8369607  78.8865478   4.3671854
  35.0702002  78.3323964   4.5128536  36.2480312  78.9587347   5.2286005
  27.8411368  85.1750274  18.4577035  28.7042829  84.8187078  18.6680359
  27.2676778  84.8364168  19.1452439  47.6859745 106.8052130   9.2639436
  48.3238155 106.6858877   8.5602776  47.5680587 107.7532974   9.3227388
  44.4949451 106.7579558   9.2000961  44.1567962 106.6420623   8.3121495
  45.3639219 106.3570723   9.1801967  44.9769234 107.9114410  15.1587166
  44.9657875 107.5167208  14.2867670  45.1389873 107.1780482  15.7520938
  41.6976495 110.6951522  14.1066350  41.4066361 111.5997152  13.9913016
  42.3333479 110.7368049  14.8210420  42.6232702 108.0728370  10.6967710
  43.2196274 107.8484393   9.9824673  42.6807673 107.3313116  11.2993158
  50.1634861  98.1800391  11.7020231  49.8318185  99.0495802  11.4781446
  49.5680474  97.8636675  12.3814261  46.6566380 110.3812937  11.1016144
  46.3567103 111.2837976  10.9931951  46.3117440 110.1145120  11.9537297
  40.1078862 106.8326734   7.1352848  39.1829358 106.7002948   7.3430540
  40.3563275 107.6120953   7.6322791  50.0563524 102.8995477   8.7813581
  49.1480401 102.8310886   8.4872342  50.0051120 103.3767422   9.6095407
  44.1304390 104.3185123  16.7248478  43.3537724 104.8779043  16.7151343
  44.7694953 104.8041906  17.2463348  51.9225170 101.1011916  10.5591455
  51.2799550 101.3944449   9.9131250  51.4180099 100.9864836  11.3644652
  42.3850762 107.1270576  16.2866445  43.1265446 107.6655620  16.0101269
  41.6787747 107.7536865  16.4437997  47.8606102 109.2699717  14.8838607
  48.2689458 108.8282127  14.1393239  47.1383363 108.6952344  15.1372800
  44.2137172 104.2072323  12.2572164  45.0598367 104.6311737  12.4006813
  44.1535809 103.5505948  12.9510727  47.3636617 101.8676692  13.9153337
  47.1197549 102.6218752  13.3787613  47.6396547 102.2462039  14.7500584
  49.3175080 108.4115304  12.5930603  49.5291975 109.0547064  11.9164984
  49.2704828 107.5777621  12.1252533  46.9201309 101.0233125   9.4967175
  46.0585788 101.3214378   9.7883913  46.9463743 101.2403524   8.5648208
  40.6286959 109.1146797   8.8420744  41.1988316 109.5434065   8.2038229
  41.2195071 108.8329382   9.5404930  41.1212126 104.2810224  17.0881755
  40.4910786 104.9626505  17.3217152  41.0148214 104.1693306  16.1434894
  44.1977511 110.8371303  12.9213671  44.2621944 111.2991710  13.7571843
  43.4888435 110.2068668  13.0495981  34.6994801 104.2012511  10.4462670
  34.9502840 105.0859521  10.7120246  35.2354349 104.0217112   9.6737762
  40.3992868  98.5830990  19.4507006  40.0059814  98.0297189  20.1254651
  41.2159009  98.8941569  19.8413524  43.3160829  99.9988869  17.0427263
  44.0570543 100.5996022  16.9631725  43.5478752  99.2566507  16.4845306
  38.4602167 105.1845237  15.3205493  38.3455683 104.2830494  15.6212592
  37.6046685 105.4308933  14.9690309  45.5394005 113.1262977  16.9192993
  45.0957859 112.3399355  16.6013898  46.2011219 113.3142127  16.2536884
  40.2981126 114.6558779  11.4453672  40.8488551 114.5275842  10.6730666
  39.4592602 114.9553668  11.0948565  47.6375243 113.4065777  14.9474395
  47.6193719 114.2274658  14.4554664  48.5595163 113.2819852  15.1724536
  44.0948297 110.9209906  15.7897903  44.6276634 110.1598195  15.5597211
  43.5662378 110.6283558  16.5322057  47.2617992  96.0269972  11.3191545
  46.9182262  96.9171614  11.2430655  47.6296955  95.8371630  10.4561130
  44.8115386 100.8628284   4.8849218  43.9556982 100.4735135   4.7054857
  45.2242338 100.9420245   4.0249004  46.3414533  98.3974627   9.2840778
  45.8379328  98.3604763   8.4708583  46.6345140  99.3067370   9.3437435
  42.5857419  98.4813357   8.2906960  43.4510415  98.2856166   7.9312849
  42.6534928  98.2523709   9.2176316  40.1919738 100.7115565   5.6623326
  40.7663490 100.4890747   4.9296519  40.7790720 100.7804260   6.4151928
  42.4942405  97.5856814   4.3898396  41.8406818  97.2705831   3.7655011
  42.4522880  96.9632554   5.1158219  45.7280146 104.0738748   8.7146043
  44.8102707 104.2953695   8.5567732  46.1440289 104.1485058   7.8557751
  49.0605658  95.2863531   6.4209282  49.3664535  94.4260895   6.1335197
  49.7858263  95.8781152   6.2208276  43.3326738 105.5817325   6.9285473
  43.3875348 104.6291161   6.8527950  42.5217940 105.7376764   7.4126772
  41.2719098 104.1994384   4.6875852  40.4586963 104.4988555   5.0941044
  41.7678092 103.8050073   5.4050334  46.8693309 104.6636209  13.5190746
  47.2242697 104.8907682  14.3785212  47.5165441 104.9954586  12.8968001
  40.7633172 101.7712740  10.3037087  41.4032552 101.6301499   9.6060051
  39.9310703 101.4847253   9.9275689  37.7661789 101.7413065   5.0810074
  38.0268606 102.6558398   4.9719234  38.5878961 101.2737507   5.2306687
  39.2386714 103.1550822  12.2508899  39.9109768 102.9468184  11.6021547
  38.4116501 102.9572908  11.8114131  45.1412286  99.7812763  14.2674559
  44.4940201 100.4802713  14.1739036  45.9113302 100.2148907  14.6350808
  48.5491084 110.0461615  17.3425113  48.3976591 109.8172167  16.4255196
  48.5395764 111.0032216  17.3556458  45.3176421 107.6193528  12.3271379
  46.2468481 107.7704687  12.1540346  44.8967451 107.7077549  11.4720026
  44.1164752 111.6444192  10.0969917  43.9775838 111.2762977  10.9695855
  43.3279349 112.1591832   9.9253875  39.6414211 106.4293425  13.0111336
  39.5034009 105.6973664  13.6122875  40.5519135 106.3402325  12.7295523
  42.2696512 106.1413384  12.4995015  42.9796131 105.5006576  12.4581634
  42.2265820 106.3926279  13.4221196  50.2583291 113.0780738  15.4201595
  50.1995837 112.3939958  14.7532178  50.6602809 113.8199728  14.9682221
  40.9825446 103.1278602  14.3190655  40.4462803 102.6769341  14.9712251
  40.3942155 103.2624511  13.5761119  50.2600698 111.0420322  13.6515574
  49.3727477 110.7046243  13.7741973  50.8299249 110.3103353  13.8884340
  36.7164567 102.2634610  11.4043649  36.6322756 101.6560279  10.6694059
  35.8947274 102.7543628  11.4053146  46.8888281 100.7488173   6.7713844
  47.3856981  99.9958136   6.4514915  46.1175263 100.7852490   6.2057054
  43.4723250 102.8905556   6.4985529  43.1021037 102.3376597   7.1866435
  43.9682342 102.2863690   5.9460529  41.3012448 113.3503051  13.5940547
  42.0021908 113.9839534  13.7469941  40.8307563 113.6917783  12.8336186
  49.3307276  97.7157767   8.9193203  48.4170356  97.9461994   9.0875410
  49.7600377  97.7996211   9.7707236  49.1013734 105.9047659  11.4193097
  48.4485185 106.1523566  10.7645550  49.4794114 105.0911797  11.0855575
  45.1501307 106.6467470  17.9059134  44.4741945 106.5461599  18.5761510
  45.9728941 106.4906684  18.3695132  38.8688584 100.3009547  12.7438635
  38.9329910 101.1624378  12.3316033  38.8055704  99.6883549  12.0110994
  38.3440856 102.3732680  16.3911669  38.9712895 101.9909757  17.0049194
  37.4868775 102.1546882  16.7567362  48.7434965 112.7795655  17.9965405
  49.2874869 113.3925613  17.5020360  48.1621810 113.3375233  18.5132418
  38.6500646 102.2565105   8.3057573  37.9287232 102.8701073   8.1665046
  39.4393902 102.7922870   8.2274219  41.4526959  99.5919532  14.5798224
  41.9761361  99.8381828  15.3424534  41.2339293 100.4239567  14.1601362
  42.6579504 100.5333227  12.2647895  42.3176325  99.7341040  12.6668575
  41.9518511 100.8334938  11.6924728  43.3095976  97.6182539  10.7175218
  44.1322046  97.1443018  10.5954108  43.5534040  98.3973023  11.2173904
  40.8334555 104.3101660   8.5267197  40.6879136 104.6241963   9.4191478
  40.3559759 104.9286560   7.9738095  42.6930938 101.3004208   8.5748086
  42.6792507 100.4045301   8.2380384  43.4103366 101.3074872   9.2086372
  44.5457069 101.7341548  10.6201214  44.2874846 102.6558619  10.6185544
  44.0142109 101.3371983  11.3101678  35.3080217 106.8507004  11.4654858
  34.7633685 107.6266812  11.5975132  36.1859567 107.1977809  11.3073979
  42.0967834 100.1818588   3.8435656  42.2183745  99.2535234   4.0426544
  41.8069876 100.1957274   2.9313972  44.9659024  97.8673499   6.9802376
  44.9880721  97.9312832   6.0254356  45.3827083  97.0278007   7.1742882
  36.0946239 105.9776901  14.3585015  35.3527975 106.1259536  14.9449645
  35.7738983 106.2385166  13.4951764  44.0389902 115.5192879  14.1565405
  44.3477028 115.2742026  15.0288104  44.8365384 115.7239517  13.6684275
  41.5808913 101.6950586  18.0525589  41.6297069 102.5712708  17.6703359
  42.1231428 101.1527979  17.4797232  52.0663759 112.2391709  17.3326726
  51.2759303 112.2215848  16.7931225  51.8297114 112.7780003  18.0875763
  52.1861634 109.0884175  14.6459455  52.2359639 108.9234183  15.5874977
  52.0775557 108.2211434  14.2557335  49.4765396 105.0715103  15.9618761
  50.3775259 104.9321568  15.6702759  49.5513371 105.2369558  16.9016939
  43.8108202 102.4481958  14.8071948  42.9411511 102.7415524  14.5354536
  44.0467682 103.0322403  15.5279211  53.6879831 111.5081117  14.8901476
  53.3964639 111.8711097  15.7264937  53.0751962 110.7948125  14.7114808
  51.9367019 106.6313731  13.3581534  52.4121141 106.8241378  12.5500385
  51.0132585 106.6872917  13.1124918  46.5147236  98.6661575  12.3237368
  47.0329180  99.4022602  11.9983857  46.1602368  98.9725568  13.1584127
  46.7659830  95.0861858   7.8438265  47.0461584  94.4185047   8.4698691
  47.5510437  95.2790953   7.3312928  50.6368688 103.5079492  11.5909840
  51.5886111 103.6077589  11.6122064  50.4672139 102.7157760  12.1007924
  48.6583068 100.5935075  11.7769241  48.0633000 100.8740087  11.0815729
  48.3732764 101.0828976  12.5485982  53.2651254 103.5196655  10.7510423
  52.7490303 102.7355111  10.5640351  54.1491203 103.1915371  10.9156942
  50.9261981  97.2637670   6.7106235  50.7286802  96.9552758   7.5949567
  51.5361687  97.9899309   6.8404165  44.8378789 109.6499410  18.2080000
  45.7581799 109.8278009  18.4020047  44.8028372 108.7055456  18.0559700
  37.8340862 107.5600445  10.8502782  38.0526872 108.4917553  10.8690815
  38.2466636 107.2008419  11.6357585  44.7545080  98.0668530   2.8378470
  43.9445808  97.7215615   3.2133716  45.4429497  97.7576074   3.4266081
  46.6835628  97.1446577   4.4602767  47.2366667  97.5642031   5.1192790
  46.9205714  96.2182325   4.5025723  42.7068727 103.1333651  20.2405530
  42.6065454 104.0828008  20.1717622  42.4890269 102.8051890  19.3681601
  48.5118001  98.6552160   6.1702751  49.0117780  98.7668695   5.3617070
  49.1553609  98.3513213   6.8103560  42.5699997 106.5630790  19.0570592
  42.0867079 107.3631150  19.2634481  42.6560936 106.5738734  18.1038036
  38.4973335 110.4535324  11.0939026  39.4516588 110.4219267  11.0268957
  38.2985858 109.9925948  11.9089252  39.0872717 109.0236440  13.6609824
  39.9065606 109.5180519  13.6844661  39.3609525 108.1068408  13.6327391
  34.3407631 103.3574574  14.3602021  34.9866495 102.8473528  14.8489246
  34.1324782 104.0943256  14.9345446  46.8661023 110.4255422  19.8594161
  47.7352183 110.5996074  19.4980796  46.3867775 111.2449839  19.7369891
  41.0347204 117.5452523  11.5383595  41.9374450 117.5776133  11.8550090
  40.8084574 116.6152974  11.5529931  46.6763361  94.2157395   4.3671854
  45.9095757  93.6615882   4.5128536  47.0874066  94.2879264   5.2286005
  38.6805122 100.5042191  18.4577035  39.5436584 100.1478996  18.6680359
  38.1070533 100.1656086  19.1452439  51.2386623 113.9122908  19.4507006
  50.8453568 113.3589106  20.1254651  52.0552763 114.2233486  19.8413524
  54.1554584 115.3280787  17.0427263  54.8964297 115.9287940  16.9631725
  54.3872507 114.5858425  16.4845306  49.1834611 117.7024597  16.3911669
  49.8106649 117.3201675  17.0049194  48.3262529 117.4838799  16.7567362
  52.4202668 117.0242503  18.0525589  52.4690823 117.9004626  17.6703359
  52.9625182 116.4819896  17.4797232  53.5462482 118.4625568  20.2405530
  53.4459209 119.4119925  20.1717622  53.3284024 118.1343807  19.3681601
  45.1801386 118.6866492  14.3602021  45.8260249 118.1765446  14.8489246
  44.9718537 119.4235174  14.9345446  49.5198877 115.8334109  18.4577035
  50.3830338 115.4770914  18.6680359  48.9464287 115.4948004  19.1452439
  28.5795783  59.4259025   2.1446901  28.5208329  58.7418245   1.4777484
  28.9815301  60.1678015   1.6927527  27.0647457  59.1273942   4.7210711
  27.6087361  59.7403900   4.2265666  26.4834302  59.6853521   5.2377724
  30.3876251  58.5869996   4.0572033  29.5971795  58.5694135   3.5176532
  30.1509606  59.1258290   4.8121069  32.0092323  57.8559404   1.6146783
  31.7177132  58.2189385   2.4510244  31.3964454  57.1426412   1.4360115
  25.1873516  56.7733709   6.5839468  26.0564675  56.9474361   6.2226103
  24.7080267  57.5928126   6.4615197  36.8465991  68.4822335  -4.0115258
  37.4844401  68.3629082  -4.7151917  36.7286834  69.4303179  -3.9527305
  33.6555698  68.4349763  -4.0753733  33.3174209  68.3190828  -4.9633198
  34.5245466  68.0340928  -4.0952727  34.1375481  69.5884615   1.8832473
  34.1264121  69.1937413   1.0112976  34.2996120  68.8550687   2.4766244
  30.8582742  72.3721727   0.8311657  30.5672608  73.2767357   0.7158323
  31.4939726  72.4138254   1.5455726  31.7838949  69.7498575  -2.5786984
  32.3802521  69.5254597  -3.2930021  31.8413920  69.0083321  -1.9761536
  41.8015687  66.1449022  -6.0329071  42.5340859  65.5748239  -5.7991241
  41.0455043  65.7570622  -5.5922565  39.3241107  59.8570596  -1.5734462
  38.9924432  60.7266007  -1.7973247  38.7286721  59.5406880  -0.8940432
  35.8172627  72.0583142  -2.1738550  35.5173350  72.9608181  -2.2822742
  35.4723686  71.7915325  -1.3217397  39.2169771  64.5765682  -4.4941112
  38.3086648  64.5081091  -4.7882351  39.1657366  65.0537627  -3.6659287
  33.2910636  65.9955328   3.4493785  32.5143970  66.5549248   3.4396650
  33.9301199  66.4812111   3.9708655  41.0831417  62.7782121  -2.7163238
  40.4405797  63.0714654  -3.3623444  40.5786346  62.6635041  -1.9110042
  31.5457009  68.8040781   3.0111752  32.2871693  69.3425825   2.7346576
  30.8393994  69.4307070   3.1683304  37.0212348  70.9469922   1.6083913
  37.4295704  70.5052332   0.8638546  36.2989610  70.3722549   1.8618106
  33.3743418  65.8842528  -1.0182530  34.2204614  66.3081942  -0.8747881
  33.3142056  65.2276153  -0.3243966  37.3441163  71.5071112  -4.6363798
  36.7150025  71.6716826  -5.3387730  36.9566825  71.9212722  -3.8652834
  41.2230395  72.4425550  -7.2819434  40.5381433  72.8224451  -7.8322401
  41.3074244  73.0520877  -6.5487486  36.5242864  63.5446897   0.6398644
  36.2803796  64.2988957   0.1032920  36.8002794  63.9232244   1.4745891
  38.4781326  70.0885509  -0.6824090  38.6898222  70.7317269  -1.3589709
  38.4311075  69.2547826  -1.1502160  29.7893206  70.7917002  -4.4333949
  30.3594563  71.2204270  -5.0716465  30.3801318  70.5099587  -3.7349764
  30.2818372  65.9580429   3.8127062  29.6517033  66.6396710   4.0462459
  30.1754460  65.8463511   2.8680200  39.5927154  72.9657465  -2.5101733
  40.4144598  72.5637652  -2.7919051  39.5889557  72.8625699  -1.5585617
  33.3583758  72.5141508  -0.3541023  33.4228190  72.9761915   0.4817149
  32.6494682  71.8838873  -0.2258713  47.6833147  69.3096213  -6.1616762
  46.9296856  68.7403611  -6.3172757  47.8180689  69.2758878  -5.2146127
  29.5599115  60.2601195   6.1752313  29.1666061  59.7067394   6.8499957
  30.3765256  60.5711774   6.5658831  32.4767076  61.6759074   3.7672570
  33.2176790  62.2766227   3.6877032  32.7084999  60.9336712   3.2090612
  27.6208414  66.8615442   2.0450799  27.5061929  65.9600699   2.3457898
  26.7652932  67.1079138   1.6935616  34.7000252  74.8033182   3.6438300
  34.2564106  74.0169560   3.3259204  35.3617466  74.9912332   2.9782191
  29.4587373  76.3328983  -1.8301022  30.0094798  76.2046047  -2.6024028
  28.6198849  76.6323872  -2.1806129  36.7981490  75.0835982   1.6719701
  36.7799965  75.9044863   1.1799970  37.7201410  74.9590057   1.8969842
  33.2554544  72.5980111   2.5143210  33.7882881  71.8368399   2.2842518
  32.7268625  72.3053763   3.2567364  39.6000103  69.9215124  -4.8570932
  38.9423777  70.6114386  -4.7690804  40.4040502  70.3111556  -4.5136946
  38.4105562  68.2759497  -6.8066990  38.9237443  68.9089489  -6.3045281
  39.0606786  67.6760692  -7.1723630  34.8886393  65.7508952  -4.5608650
  33.9708954  65.9723899  -4.7186962  35.3046536  65.8255263  -5.4196943
  39.1767358  73.2565498  -8.6787848  38.7229685  72.4156408  -8.6222657
  38.5461325  73.8926897  -8.3413068  37.6200297  75.0941995  -7.7438030
  37.9123272  75.6547052  -8.4625664  38.1298918  75.3870556  -6.9884871
  36.0299556  66.3406414   0.2436053  36.3848944  66.5677887   1.1030519
  36.6771687  66.6724790  -0.3786692  41.7597293  69.4624850  -9.0514618
  41.6215192  69.6526446  -9.9793429  41.4033512  70.2244232  -8.5946567
  41.7866673  71.5301377  -4.0403347  42.2203179  71.4376666  -3.1920293
  42.4998253  71.5058877  -4.6783331  35.5194568  75.1303471  -2.5070246
  35.5731590  75.6994407  -1.7392530  34.6509349  75.3005356  -2.8716209
  28.3992961  64.8321027  -1.0245795  29.0716014  64.6238389  -1.6733146
  27.5722747  64.6343113  -1.4640563  42.6482222  71.5725077  -1.5070461
  42.8418112  72.4770888  -1.2611186  42.5482840  71.1132496  -0.6731876
  34.3018533  61.4582968   0.9919866  33.6546448  62.1572917   0.8984342
  35.0719548  61.8919112   1.3596114  37.7097331  71.7231820   4.0670419
  37.5582837  71.4942372   3.1500503  37.7002010  72.6802421   4.0801764
  34.4782667  69.2963733  -0.9483314  35.4074727  69.4474892  -1.1214347
  34.0573697  69.3847754  -1.8034668  33.2770999  73.3214397  -3.1784777
  33.1382085  72.9533182  -2.3058838  32.4885595  73.8362037  -3.3500819
  34.8276214  72.6996000  -5.7895939  34.4926047  72.6596770  -4.8938289
  34.3280160  72.0340716  -6.2625529  28.8020458  68.1063630  -0.2643358
  28.6640256  67.3743869   0.3368181  29.7125382  68.0172530  -0.5459170
  31.4302759  67.8183589  -0.7759678  32.1402377  67.1776781  -0.8173060
  31.3872067  68.0696484   0.1466503  39.4189538  74.7550943   2.1446901
  39.3602084  74.0710163   1.4777484  39.8209056  75.4969933   1.6927527
  30.1431693  64.8048807   1.0435961  29.6069050  64.3539546   1.6957558
  29.5548401  64.9394716   0.3006426  39.4206945  72.7190526   0.3760881
  38.5333724  72.3816448   0.4987280  39.9905496  71.9873558   0.6129646
  32.9508098  77.3791979  -2.6577876  32.8778270  78.1846950  -2.1458571
  32.5085491  77.5783945  -3.4829855  43.9024285  68.1298744  -4.8622557
  43.8914162  69.0123459  -5.2328624  43.0341665  67.7770295  -5.0568020
  35.4106782  77.2778813  -0.5019717  36.1234754  77.9126278  -0.5743816
  34.9196810  77.3742679  -1.3179715  30.4618695  75.0273256   0.3185854
  31.1628155  75.6609739   0.4715248  29.9913810  75.3687988  -0.4418507
  38.2619981  67.5817864  -1.8561596  37.6091431  67.8293771  -2.5109143
  38.6400361  66.7682002  -2.1899119  34.3107554  68.3237675   4.6304441
  33.6348191  68.2231804   5.3006816  35.1335188  68.1676889   5.0940438
  33.0530337  79.6304602  -1.1337943  33.6048645  79.7936224  -0.3688858
  33.3936531  80.2209040  -1.8057918  27.5047103  64.0502885   3.1156976
  28.1319142  63.6679962   3.7294500  26.6475022  63.8317087   3.4812668
  37.9041211  74.4565860   4.7210711  38.4481115  75.0695818   4.2265666
  37.3228056  75.0145438   5.2377724  36.1898724  77.5786578  -4.1474261
  36.0649864  76.7776318  -4.6563315  36.8477816  78.0732771  -4.6360291
  38.2533633  75.3795598  -2.5194711  37.3063968  75.2600949  -2.5916384
  38.6016406  74.4918096  -2.4368449  30.6133206  61.2689737   1.3043531
  31.1367608  61.5152033   2.0669840  30.3945539  62.1009772   0.8846668
  35.2580066  75.1748314  -6.3190359  35.1105029  74.2465022  -6.1382789
  36.0833560  75.1968405  -6.8033283  38.8614188  75.9976873  -5.2325486
  39.7860735  75.7919734  -5.3701035  38.6929491  75.7493274  -4.3236144
  31.8185751  62.2103432  -1.0106798  31.4782572  61.4111245  -0.6086118
  31.1124757  62.5105143  -1.5829965  33.7063315  63.4111753  -2.6553480
  33.4481093  64.3328824  -2.6569149  33.1748356  63.0142188  -1.9653016
  38.6509504  76.5162540  -9.8763394  38.8246382  75.9508963 -10.6289542
  39.1438395  77.3163435 -10.0583904  24.4686464  68.5277209  -1.8099836
  23.9239932  69.3037017  -1.6779561  25.3465814  68.8748014  -1.9680714
  44.5048895  69.2798963  -8.2573095  44.9480041  68.5306288  -8.6553971
  43.6275406  69.2709100  -8.6399363  25.2552486  67.6547106   1.0830321
  24.5134222  67.8029741   1.6694952  24.9345230  67.9155371   0.2197071
  41.5376100  73.2829010 -11.2479165  42.0627424  73.6216283 -11.9729845
  41.4498452  72.3476026 -11.4316031  33.1996148  77.1963084   0.8810711
  33.5083275  76.9512231   1.7533411  33.9971630  77.4009722   0.3929582
  30.7415160  63.3720791   4.7770896  30.7903316  64.2482913   4.3948665
  31.2837674  62.8298184   4.2042539  41.2270006  73.9161914   4.0572033
  40.4365550  73.8986053   3.5176532  40.9903360  74.4550208   4.8121069
  41.3467881  70.7654380   1.3704761  41.3965886  70.6004388   2.3120284
  41.2381804  69.8981639   0.9802642  38.6371643  66.7485308   2.6864068
  39.5381506  66.6091773   2.3948066  38.7119618  66.9139763   3.6262245
  32.9714449  64.1252163   1.5317254  32.1017758  64.4185729   1.2599843
  33.2073929  64.7092608   2.2524518  42.8486078  73.1851322   1.6146783
  42.5570886  73.5481302   2.4510244  42.2358209  72.4718330   1.4360115
  44.0481760  70.7504202  -5.8650647  44.8828651  71.1894006  -5.7013087
  44.1840889  70.2742855  -6.6842401  41.0973266  68.3083936   0.0826841
  41.5727388  68.5011583  -0.7254308  40.1738831  68.3643122  -0.1629776
  35.6753482  60.3431780  -0.9517325  36.1935426  61.0792807  -1.2770837
  35.3208615  60.6495773  -0.1170566  39.7974935  65.1849696  -1.6844854
  40.7492358  65.2847794  -1.6632630  39.6278385  64.3927965  -1.1746769
  37.8189314  62.2705280  -1.4985453  37.2239247  62.5510292  -2.1938964
  37.5339011  62.7599181  -0.7268712  42.2763013  68.4055816  -2.5702554
  42.2439333  67.4671817  -2.3842870  42.8863636  68.4839853  -3.3036729
  42.4257501  65.1966860  -2.5244271  41.9096550  64.4125316  -2.7114342
  43.3097450  64.8685576  -2.3597751  48.0939563  69.4671823  -3.4296517
  48.8242951  69.2057111  -2.8688814  47.4846508  68.7300545  -3.3894449
  46.1754860  67.6079686  -2.8322066  45.4488023  67.4735651  -3.4405574
  45.7602147  67.9156514  -2.0265348  33.9985036  71.3269615   4.9325307
  34.9188046  71.5048214   5.1265354  33.9634619  70.3825661   4.7805006
  26.9947109  69.2370650  -2.4251912  27.2133118  70.1687758  -2.4063878
  27.4072882  68.8778624  -1.6397108  31.8674974  64.8103856   6.9650837
  31.7671701  65.7598213   6.8962928  31.6496516  64.4822095   6.0926907
  31.7306244  68.2400995   5.7815899  31.2473326  69.0401355   5.9879788
  31.8167183  68.2508939   4.8283343  27.6579582  72.1305529  -2.1815667
  28.6122835  72.0989472  -2.2485736  27.4592105  71.6696153  -1.3665442
  28.2478964  70.7006645   0.3855130  29.0671853  71.1950724   0.4089967
  28.5215771  69.7838613   0.3572698  43.7932655  63.8291538  -5.4788634
  44.3877145  63.5887274  -6.1895326  43.8659238  63.1098668  -4.8515098
  46.1003727  67.1357739  -6.7045213  45.5403285  67.2050928  -5.9313651
  45.4947231  66.9598723  -7.4245717  23.5013878  65.0344779   1.0847327
  24.1472742  64.5243733   1.5734552  23.2931029  65.7713461   1.6590753
  36.0267270  72.1025627   6.5839468  36.8958430  72.2766279   6.2226103
  35.5474022  72.9220043   6.4615197  30.1953450  79.2222728  -1.7371099
  31.0980697  79.2546338  -1.4204604  29.9690820  78.2923179  -1.7224763
  27.8411369  62.1812396   5.1822341  28.7042830  61.8249201   5.3925666
  27.2676780  61.8426291   5.8697746  47.6859746  83.8114253  -4.0115258
  48.3238156  83.6921000  -4.7151917  47.5680589  84.7595097  -3.9527305
  44.4949452  83.7641681  -4.0753733  44.1567964  83.6482745  -4.9633198
  45.3639220  83.3632846  -4.0952727  44.9769235  84.9176532   1.8832473
  44.9657876  84.5229331   1.0112976  45.1389875  84.1842605   2.4766244
  41.6976496  87.7013644   0.8311657  41.4066362  88.6059275   0.7158323
  42.3333481  87.7430172   1.5455726  42.6232703  85.0790493  -2.5786984
  43.2196275  84.8546515  -3.2930021  42.6807675  84.3375238  -1.9761536
  50.1634862  75.1862514  -1.5734462  49.8318187  76.0557925  -1.7973247
  49.5680475  74.8698798  -0.8940432  46.6566381  87.3875060  -2.1738550
  46.3567104  88.2900099  -2.2822742  46.3117441  87.1207243  -1.3217397
  40.1078863  83.8388857  -6.1401845  39.1829359  83.7065071  -5.9324153
  40.3563276  84.6183076  -5.6431903  50.0563525  79.9057600  -4.4941112
  49.1480402  79.8373008  -4.7882351  50.0051121  80.3829545  -3.6659287
  44.1304391  81.3247245   3.4493785  43.3537725  81.8841166   3.4396650
  44.7694954  81.8104028   3.9708655  51.9225172  78.1074038  -2.7163238
  51.2799552  78.4006571  -3.3623444  51.4180100  77.9926959  -1.9110042
  42.3850763  84.1332699   3.0111752  43.1265448  84.6717743   2.7346576
  41.6787749  84.7598988   3.1683304  47.8606103  86.2761839   1.6083913
  48.2689459  85.8344250   0.8638546  47.1383364  85.7014467   1.8618106
  44.2137173  81.2134446  -1.0182530  45.0598368  81.6373860  -0.8747881
  44.1535811  80.5568070  -0.3243966  47.3636618  78.8738814   0.6398644
  47.1197550  79.6280875   0.1032920  47.6396549  79.2524162   1.4745891
  49.3175081  85.4177427  -0.6824090  49.5291976  86.0609187  -1.3589709
  49.2704829  84.5839743  -1.1502160  46.9201310  78.0295247  -3.7787518
  46.0585789  78.3276501  -3.4870781  46.9463745  78.2465646  -4.7106486
  40.6286960  86.1208920  -4.4333949  41.1988317  86.5496188  -5.0716465
  41.2195072  85.8391504  -3.7349764  41.1212127  81.2872347   3.8127062
  40.4910788  81.9688628   4.0462459  41.0148215  81.1755429   2.8680200
  44.1977512  87.8433426  -0.3541023  44.2621945  88.3053833   0.4817149
  43.4888436  87.2130790  -0.2258713  34.6994802  81.2074633  -2.8292023
  34.9502841  82.0921643  -2.5634447  35.2354351  81.0279235  -3.6016931
  40.3992870  75.5893113   6.1752313  40.0059815  75.0359311   6.8499957
  41.2159010  75.9003691   6.5658831  43.3160831  77.0050992   3.7672570
  44.0570544  77.6058145   3.6877032  43.5478753  76.2628630   3.2090612
  38.4602169  82.1907359   2.0450799  38.3455684  81.2892616   2.3457898
  37.6046686  82.4371056   1.6935616  45.5394006  90.1325100   3.6438300
  45.0957861  89.3461478   3.3259204  46.2011220  90.3204250   2.9782191
  40.2981128  91.6620901  -1.8301022  40.8488553  91.5337964  -2.6024028
  39.4592603  91.9615790  -2.1806129  47.6375244  90.4127899   1.6719701
  47.6193720  91.2336780   1.1799970  48.5595165  90.2881975   1.8969842
  44.0948299  87.9272029   2.5143210  44.6276635  87.1660317   2.2842518
  43.5662380  87.6345681   3.2567364  47.2617994  73.0332095  -1.9563149
  46.9182263  73.9233737  -2.0324038  47.6296956  72.8433753  -2.8193564
  44.8115387  77.8690407  -8.3905475  43.9556984  77.4797257  -8.5699837
  45.2242339  77.9482368  -9.2505690  46.3414534  75.4036750  -3.9913915
  45.8379330  75.3666885  -4.8046110  46.6345141  76.3129493  -3.9317259
  42.5857420  75.4875480  -4.9847734  43.4510417  75.2918288  -5.3441844
  42.6534929  75.2585832  -4.0578377  40.1919739  77.7177688  -7.6131367
  40.7663491  77.4952869  -8.3458174  40.7790721  77.7866382  -6.8602766
  42.4942407  74.5918937  -8.8856298  41.8406819  74.2767954  -9.5099683
  42.4522881  73.9694677  -8.1596475  45.7280147  81.0800870  -4.5608650
  44.8102708  81.3015817  -4.7186962  46.1440291  81.1547181  -5.4196943
  49.0605659  72.2925654  -6.8545411  49.3664536  71.4323017  -7.1419496
  49.7858264  72.8843274  -7.0546417  43.3326739  82.5879447  -6.3469220
  43.3875349  81.6353284  -6.4226743  42.5217941  82.7438886  -5.8627922
  41.2719099  81.2056507  -8.5878841  40.4586964  81.5050677  -8.1813649
  41.7678093  80.8112196  -7.8704359  46.8693311  81.6698331   0.2436053
  47.2242698  81.8969804   1.1030519  47.5165442  82.0016708  -0.3786692
  40.7633174  78.7774862  -2.9717606  41.4032553  78.6363622  -3.6694643
  39.9310704  78.4909376  -3.3479004  37.7661790  78.7475187  -8.1944619
  38.0268607  79.6620521  -8.3035459  38.5878962  78.2799630  -8.0448007
  39.2386715  80.1612945  -1.0245795  39.9109769  79.9530307  -1.6733146
  38.4116502  79.9635031  -1.4640563  45.1412287  76.7874885   0.9919866
  44.4940202  77.4864835   0.8984342  45.9113303  77.2211029   1.3596114
  48.5491085  87.0523738   4.0670419  48.3976592  86.8234289   3.1500503
  48.5395765  88.0094339   4.0801764  45.3176422  84.6255650  -0.9483314
  46.2468482  84.7766810  -1.1214347  44.8967452  84.7139671  -1.8034668
  44.1164754  88.6506315  -3.1784777  43.9775839  88.2825099  -2.3058838
  43.3279350  89.1653954  -3.3500819  39.6414213  83.4355548  -0.2643358
  39.5034011  82.7035786   0.3368181  40.5519136  83.3464448  -0.5459170
  42.2696513  83.1475507  -0.7759678  42.9796132  82.5068699  -0.8173060
  42.2265822  83.3988402   0.1466503  50.2583292  90.0842860   2.1446901
  50.1995838  89.4002080   1.4777484  50.6602810  90.8261850   1.6927527
  40.9825447  80.1340725   1.0435961  40.4462804  79.6831463   1.6957558
  40.3942156  80.2686634   0.3006426  50.2600699  88.0482444   0.3760881
  49.3727478  87.7108366   0.4987280  50.8299250  87.3165475   0.6129646
  36.7164569  79.2696732  -1.8711044  36.6322757  78.6622402  -2.6060634
  35.8947275  79.7605751  -1.8701548  46.8888282  77.7550296  -6.5040849
  47.3856982  77.0020258  -6.8239779  46.1175264  77.7914613  -7.0697640
  43.4723251  79.8967679  -6.7769164  43.1021039  79.3438719  -6.0888259
  43.9682344  79.2925812  -7.3294164  41.3012450  90.3565174   0.3185854
  42.0021909  90.9901657   0.4715248  40.8307565  90.6979906  -0.4418507
  49.3307277  74.7219889  -4.3561490  48.4170357  74.9524116  -4.1879283
  49.7600379  74.8058334  -3.5047458  49.1013736  82.9109781  -1.8561596
  48.4485186  83.1585689  -2.5109143  49.4794116  82.0973920  -2.1899119
  45.1501309  83.6529592   4.6304441  44.4741946  83.5523722   5.3006816
  45.9728943  83.4968806   5.0940438  38.8688585  77.3071670  -0.5316058
  38.9329911  78.1686501  -0.9438661  38.8055705  76.6945671  -1.2643700
  38.3440857  79.3794802   3.1156976  38.9712896  78.9971880   3.7294500
  37.4868776  79.1609004   3.4812668  48.7434966  89.7857777   4.7210711
  49.2874870  90.3987736   4.2265666  48.1621811  90.3437356   5.2377724
  38.6500647  79.2627228  -4.9697121  37.9287233  79.8763196  -5.1089647
  39.4393903  79.7984993  -5.0480475  41.4526961  76.5981654   1.3043531
  41.9761362  76.8443951   2.0669840  41.2339294  77.4301689   0.8846668
  42.6579506  77.5395350  -1.0106798  42.3176326  76.7403163  -0.6086118
  41.9518512  77.8397060  -1.5829965  43.3095978  74.6244662  -2.5579475
  44.1322047  74.1505140  -2.6800585  43.5534041  75.4035146  -2.0580789
  40.8334556  81.3163783  -4.7487497  40.6879137  81.6304086  -3.8563215
  40.3559760  81.9348683  -5.3016598  42.6930939  78.3066331  -4.7006607
  42.6792508  77.4107424  -5.0374309  43.4103367  78.3136994  -4.0668321
  44.5457070  78.7403671  -2.6553480  44.2874848  79.6620741  -2.6569149
  44.0142110  78.3434105  -1.9653016  35.3080218  83.8569127  -1.8099836
  34.7633687  84.6328935  -1.6779561  36.1859568  84.2039932  -1.9680714
  42.0967835  77.1880711  -9.4319037  42.2183746  76.2597357  -9.2328150
  41.8069877  77.2019397 -10.3440722  44.9659025  74.8735621  -6.2952317
  44.9880722  74.9374954  -7.2500338  45.3827084  74.0340130  -6.1011811
  36.0946240  82.9839023   1.0830321  35.3527976  83.1321659   1.6694952
  35.7738985  83.2447289   0.2197071  44.0389903  92.5255002   0.8810711
  44.3477029  92.2804148   1.7533411  44.8365385  92.7301640   0.3929582
  41.5808915  78.7012708   4.7770896  41.6297070  79.5774831   4.3948665
  42.1231429  78.1590101   4.2042539  52.0663760  89.2453832   4.0572033
  51.2759304  89.2277970   3.5176532  51.8297115  89.7842125   4.8121069
  52.1861635  86.0946298   1.3704761  52.2359640  85.9296305   2.3120284
  52.0775559  85.2273557   0.9802642  49.4765398  82.0777226   2.6864068
  50.3775261  81.9383691   2.3948066  49.5513372  82.2431681   3.6262245
  43.8108203  79.4544081   1.5317254  42.9411512  79.7477647   1.2599843
  44.0467683  80.0384526   2.2524518  53.6879832  88.5143239   1.6146783
  53.3964640  88.8773220   2.4510244  53.0751963  87.8010248   1.4360115
  51.9367020  83.6375854   0.0826841  52.4121142  83.8303500  -0.7254308
  51.0132586  83.6935040  -0.1629776  46.5147237  75.6723698  -0.9517325
  47.0329181  76.4084725  -1.2770837  46.1602370  75.9787691  -0.1170566
  46.7659831  72.0923980  -5.4316429  47.0461585  71.4247169  -4.8056002
  47.5510438  72.2853076  -5.9441765  50.6368689  80.5141614  -1.6844854
  51.5886112  80.6139712  -1.6632630  50.4672140  79.7219883  -1.1746769
  48.6583069  77.5997197  -1.4985453  48.0633001  77.8802210  -2.1938964
  48.3732766  78.0891098  -0.7268712  53.2651256  80.5258777  -2.5244271
  52.7490304  79.7417234  -2.7114342  54.1491204  80.1977494  -2.3597751
  50.9261983  74.2699793  -6.5648458  50.7286804  73.9614881  -5.6805126
  51.5361688  74.9961432  -6.4350528  44.8378791  86.6561533   4.9325307
  45.7581800  86.8340132   5.1265354  44.8028374  85.7117578   4.7805006
  37.8340863  84.5662568  -2.4251912  38.0526873  85.4979675  -2.4063878
  38.2466637  84.2070542  -1.6397108  44.7545081  75.0730653 -10.4376223
  43.9445809  74.7277738 -10.0620977  45.4429498  74.7638197  -9.8488612
  46.6835629  74.1508700  -8.8151927  47.2366668  74.5704153  -8.1561904
  46.9205716  73.2244448  -8.7728971  42.7068728  80.1395773   6.9650837
  42.6065455  81.0890130   6.8962928  42.4890271  79.8114012   6.0926907
  48.5118003  75.6614283  -7.1051942  49.0117781  75.7730817  -7.9137623
  49.1553611  75.3575335  -6.4651134  42.5699999  83.5692912   5.7815899
  42.0867080  84.3693272   5.9879788  42.6560938  83.5800857   4.8283343
  38.4973336  87.4597447  -2.1815667  39.4516590  87.4281389  -2.2485736
  38.2985860  86.9988071  -1.3665442  39.0872718  86.0298563   0.3855130
  39.9065607  86.5242642   0.4089967  39.3609526  85.1130531   0.3572698
  34.3407632  80.3636697   1.0847327  34.9866496  79.8535651   1.5734552
  34.1324784  81.1005378   1.6590753  46.8661025  87.4317544   6.5839468
  47.7352184  87.6058197   6.2226103  46.3867776  88.2511961   6.4615197
  41.0347205  94.5514645  -1.7371099  41.9374452  94.5838256  -1.4204604
  40.8084575  93.6215096  -1.7224763  46.6763362  71.2219518  -8.9082840
  45.9095758  70.6678005  -8.7626157  47.0874067  71.2941387  -8.0468688
  38.6805123  77.5104314   5.1822341  39.5436585  77.1541119   5.3925666
  38.1070534  77.1718209   5.8697746  51.2386624  90.9185031   6.1752313
  50.8453570  90.3651229   6.8499957  52.0552764  91.2295609   6.5658831
  54.1554585  92.3342910   3.7672570  54.8964299  92.9350063   3.6877032
  54.3872508  91.5920547   3.2090612  49.1834612  94.7086720   3.1156976
  49.8106651  94.3263797   3.7294500  48.3262531  94.4900922   3.4812668
  52.4202669  94.0304626   4.7770896  52.4690825  94.9066749   4.3948665
  52.9625183  93.4882019   4.2042539  53.5462483  95.4687691   6.9650837
  53.4459210  96.4182048   6.8962928  53.3284025  95.1405930   6.0926907
  45.1801387  95.6928614   1.0847327  45.8260250  95.1827568   1.5734552
  44.9718538  96.4297296   1.6590753  49.5198878  92.8396232   5.1822341
  50.3830339  92.4833036   5.3925666  48.9464289  92.5010126   5.8697746
  50.2583293  67.0904983 -11.1307792  50.1995839  66.4064203 -11.7977209
  50.6602812  67.8323973 -11.5827166  48.7434967  66.7919900  -8.5543982
  49.2874871  67.4049858  -9.0489027  48.1621812  67.3499478  -8.0376969
  52.0663762  66.2515954  -9.2182661  51.2759305  66.2340093  -9.7578161
  51.8297116  66.7904248  -8.4633624  53.6879833  65.5205362 -11.6607911
  53.3964642  65.8835343 -10.8244450  53.0751965  64.8072370 -11.8394579
  46.8661026  64.4379667  -6.6915226  47.7352185  64.6120319  -7.0528591
  46.3867777  65.2574084  -6.8139496  51.2386625  67.9247153  -7.1002380
  50.8453571  67.3713352  -6.4254736  52.0552766  68.2357732  -6.7095863
  54.1554586  69.3405032  -9.5082124  54.8964300  69.9412185  -9.5877661
  54.3872509  68.5982670 -10.0664081  49.1834613  71.7148843 -10.1597717
  49.8106652  71.3325920  -9.5460193  48.3262532  71.4963044  -9.7942025
  52.4202670  71.0366749  -8.4983798  52.4690826  71.9128871  -8.8806028
  52.9625185  70.4944142  -9.0712155  53.5462484  72.4749814  -6.3103856
  53.4459211  73.4244171  -6.3791765  53.3284026  72.1468053  -7.1827786
  45.1801388  72.6990737 -12.1907366  45.8260252  72.1889691 -11.7020141
  44.9718539  73.4359419 -11.6163941  49.5198879  69.8458354  -8.0932352
  50.3830341  69.4895159  -7.8829027  48.9464290  69.5072249  -7.4056948
 121.9510378 121.9510378 121.9510378 109.4712190 109.4712190 109.4712190
