default_name
127278
  76.3128537  33.1095578  48.1657441  75.8388884  33.2557703  47.2859260
  75.7089174  33.4166805  48.9147680  76.6958379  32.1750519  48.1767649
  77.5184752  34.0391817  48.2139844  77.4116467  34.7849629  49.0017009
  78.8932606  33.3263356  48.3584262  79.6772354  34.0496774  48.1342375
  79.1028558  32.7694018  49.7590702  78.3194730  32.0455921  49.9838177
  80.0754134  32.2803508  49.8144015  79.0640163  33.5827889  50.4836335
  79.0520310  32.2616758  47.2764963  78.1469932  32.2718157  46.6691223
  79.1436600  31.2966693  47.7749614  80.2422214  32.4844304  46.4002353
  81.1477444  32.4739583  47.0068805  80.2970388  31.6929072  45.6528497
  80.1510785  33.4491064  45.9010429  77.6896716  34.9272335  47.0121838
  77.1997348  34.6821094  45.9031436  78.4895496  35.9318281  47.2527847
  79.0579634  35.9235276  48.0876117  78.5952204  37.0330285  46.3855405
  78.7143880  36.7037744  45.3533147  77.2996784  37.8613295  46.4918768
  76.4999960  37.1687488  46.7544394  77.4435702  38.5740472  47.3039290
  76.9300006  38.6000153  45.2375229  76.8795540  39.6662623  45.4581433
  77.6971052  38.4213158  44.4840515  75.6068797  38.1354145  44.7208197
  74.8272100  38.3898218  45.4387968  75.3970943  38.6237316  43.7691707
  75.6007916  36.7103012  44.5190870  76.3705821  36.1674071  44.8834878
  74.6117190  36.0768035  43.9222805  73.5815845  36.7665944  43.4353067
  73.5632922  37.7723698  43.5257562  72.8234747  36.2807072  42.9778322
  74.6700383  34.7622469  43.7649089  75.4728723  34.2513324  44.1033230
  73.9113842  34.2773556  43.3072812  79.8203633  37.8830250  46.8251367
  79.8266750  38.4436273  47.9228107  80.8154320  37.9975866  45.9398300
  80.7341119  37.5253987  45.0507153  81.9919333  38.7768813  46.1902167
  81.8612652  39.4141664  47.0647982  83.1342086  37.8218314  46.4545515
  82.8836687  37.4037798  47.4295191  83.0910434  37.0356878  45.7007512
  84.5488842  38.4090615  46.4992146  84.9011060  38.4763652  45.4698891
  84.6331063  39.7842322  47.1563920  84.2814609  39.7176285  48.1859591
  85.6671376  40.1289136  47.1477466  84.0109452  40.4895227  46.6054099
  85.4622771  37.4252729  47.2262274  85.4720379  36.4750881  46.6922303
  86.4738109  37.8293753  47.2662499  85.0940533  37.2679510  48.2400124
  82.2833387  39.6092961  44.9632295  82.7453661  39.0737486  43.9834186
  81.9515573  40.9166643  44.9970178  80.8240885  41.5320651  45.7164209
  81.1606289  41.8494506  46.7033897  80.0255875  40.7979636  45.8240776
  80.4205350  42.7026117  44.8323625  79.9964615  43.5097463  45.4296853
  79.6958308  42.3874528  44.0816427  81.6760199  43.1051876  44.2075174
  82.2609427  43.7094010  44.9009800  81.5377834  43.6537891  43.2758379
  82.3981491  41.7817965  43.9327566  82.0914986  41.3336957  42.9876273
  83.8773167  41.9809504  43.9313580  84.4591188  42.5031358  44.9259790
  84.4551337  41.5338087  42.8038609  83.8340147  41.2754250  42.0505029
  85.8738518  41.4534994  42.5763845  86.3916752  41.0659958  43.4537664
  86.1581041  40.5488746  41.3760652  85.5268929  40.8567304  40.5424600
  87.6249332  40.6495107  40.9672270  88.2567948  40.3413507  41.8002271
  87.8096707  39.9995839  40.1119096  87.8575193  41.6795798  40.6971147
  85.7904253  39.1028660  41.7201066  86.4933215  38.7698725  42.4837512
  84.7836354  39.1221820  42.1373602  85.8318910  38.1391343  40.5352489
  86.8385528  38.1189301  40.1177281  85.5578769  37.1387185  40.8701871
  85.1288679  38.4712412  39.7713358  86.3394607  42.8280413  42.2402938
  85.8454231  43.4033862  41.2649245  87.3580657  43.3084095  42.9630296
  87.7845226  42.7459674  43.6854510  87.9174675  44.6240904  42.6927513
  87.1284366  45.2698652  42.3073887  88.5461284  45.2914658  43.8790989
  89.5217216  44.8524586  44.0878803  88.7153321  46.7715844  43.5459263
  87.7400428  47.2114199  43.3374642  89.1715643  47.2851895  44.3921902
  89.3553767  46.8764884  42.6698900  87.6890337  45.1096149  45.1089346
  87.5777103  44.0462252  45.3208582  88.1628495  45.6012363  45.9585855
  86.7069707  45.5499266  44.9363696  89.0149824  44.5677869  41.7149088
  89.0788832  45.3878623  40.8262165  89.9757257  43.6905368  41.9590619
  90.0678029  43.2614416  42.8687313  91.0207536  43.4404580  40.9646892
  90.5938685  43.4564696  39.9618871  92.1190727  44.5435506  41.0563671
  91.6992586  45.3835594  41.6097571  92.9555269  44.1230432  41.6145946
  92.6139705  45.0314927  39.6787831  91.8078851  44.9737068  38.7230483
  93.8041543  45.4713200  39.5719015  91.6323247  41.9922868  41.0198795
  91.5992524  41.2757769  42.0557853  92.1957390  41.6111017  39.8778129
  92.1249853  42.2391821  39.0900259  92.8910363  40.3526404  39.6931031
  92.7331955  39.6990603  40.5510183  92.3429956  39.6586867  38.4414027
  92.8048335  38.6717856  38.4125720  91.2693487  39.5524367  38.5966227
  92.6000159  40.3865998  37.1027193  93.6473709  40.6884337  37.0960477
  92.4253554  39.6648167  36.3048316  91.7127240  41.6167497  36.8816441
  90.7275390  41.2771115  36.5620266  91.6231653  42.1505828  37.8277418
  92.2921085  42.5432779  35.8322708  91.6267742  43.3983057  35.7124444
  93.2694923  42.8885393  36.1693385  92.4371746  41.8405240  34.5266217
  91.5315581  41.5208929  34.2139007  92.8243133  42.4758403  33.8435427
  93.0539901  41.0484513  34.6373402  94.3853659  40.6588469  39.5395012
  94.7718897  41.4868296  38.6810718  95.2111621  40.1205065  40.4378259
  94.8638807  39.5904307  41.2242829  96.6479323  40.3880709  40.3615978
  96.8311701  41.0282814  39.4986647  97.2100598  41.0787829  41.6135253
  98.1837838  41.3411466  41.1998513  96.6728940  41.9884293  41.8820328
  97.4005809  40.2221853  42.8482662  96.3052913  39.7901437  43.5956481
  95.3032033  39.9691482  43.2059345  96.4728425  39.1383291  44.8232951
  95.5993404  38.8138633  45.3888196  97.7633166  38.9004598  45.3258970
  97.9460017  38.2374887  46.5475858  97.1190137  37.9854812  46.9649379
  98.8588495  39.3337888  44.5950162  99.8678388  39.1331446  44.9552702
  98.6688367  40.0312156  43.3905641  99.5266227  40.4389341  42.8557101
  97.3425651  39.1218364  40.0719349  97.7525612  38.4287992  40.9785178
  97.4213096  38.7812246  38.7978533  97.1584551  39.3951410  38.0401505
  97.9315862  37.4898584  38.4753552  97.1991039  36.7198775  38.7176326
  98.2278473  37.4267465  36.9872775  97.3610384  37.8408165  36.4722167
  99.0945604  38.0629384  36.8079222  98.5074721  36.0349011  36.4642732
  99.1705036  35.5320101  37.1682553  97.5623245  35.4949783  36.4069898
  99.1604764  36.0657964  35.0832935  99.5358477  37.0763029  34.9218250
  99.9965992  35.3667482  35.1014474  98.2098977  35.6908528  33.9531119
  98.7926209  35.1391742  33.2154230  97.4500488  35.0356059  34.3789996
  97.5510375  36.8528042  33.2963212  98.2549399  37.4598751  32.9012439
  96.9404591  36.5230320  32.5624654  97.0106764  37.3638920  33.9796207
  99.1823274  37.3719931  39.2672827 100.0974355  38.1632690  39.1392766
  99.1965082  36.3498344  40.0987774  98.4160485  35.7099552  40.0595780
 100.2989114  36.0307636  40.9717367 101.2394512  36.2711628  40.4760630
 100.2144770  36.8219799  42.2581972 100.5931361  37.8210812  42.0425283
  99.1698389  36.8877291  42.5623490 101.0260256  36.2061487  43.3745224
 100.7644735  35.0540788  43.7838186 101.9306698  36.8946985  43.8691324
  99.9742420  34.6134208  41.2543660  98.8417699  34.2141987  41.0514903
 100.9472970  33.8216302  41.6992330 101.8704999  34.2079575  41.8354202
 100.7342977  32.4033843  42.0082249 101.6480017  31.8333179  42.1763567
  99.8288494  32.2397044  43.2206898 100.3359324  32.6199618  44.1074651
  98.9057250  32.7975544  43.0633855  99.5028863  30.7628053  43.4159885
  98.9953412  30.3819306  42.5297417 100.4255473  30.2043372  43.5738239
  98.4259242  30.5516083  44.8553101  98.2229082  28.7833686  44.8326433
  99.1965745  28.3040083  44.9340670  97.5812834  28.4801596  45.6599779
  97.7663700  28.4815991  43.8899826 100.0827544  31.8421104  40.7614547
 100.4503234  32.2587602  39.6593535  99.0867352  30.9776008  40.9132143
  98.7970967  30.6103710  41.8083965  98.3795969  30.5393090  39.7316637
  99.0513383  30.2264642  38.9322947  97.6676123  29.7408503  39.9405676
  97.6162782  31.7791161  39.2812341  97.6534419  32.1827898  38.1233211
  96.9320907  32.3933073  40.2455171  96.9648820  31.9963288  41.1736508
  96.1535322  33.6087803  40.0407715  96.7903728  34.3540403  39.5641996
  94.9354522  33.3612754  39.1455439  94.3409040  32.5527039  39.5707789
  94.0932640  34.6047822  39.0474208  94.6870386  35.4137244  38.6218110
  93.2321170  34.4114629  38.4077705  93.7498394  34.8910161  40.0415185
  95.3737085  33.0071189  37.8348595  94.6106693  32.8518861  37.2733667
  95.6512493  34.1127030  41.3796818  95.6848332  33.3826346  42.3630603
  95.1566469  35.3419420  41.4239650  95.2004177  35.9720555  40.6358404
  94.5744053  35.8423756  42.6926939  93.8877692  35.0893809  43.0795130
  95.6504294  36.1613253  43.8024273  96.0289242  37.1667943  43.6183810
  95.0844254  36.0810999  45.2253653  94.7061320  35.0757216  45.4103234
  95.8716673  36.3103632  45.9435498  94.2725838  36.8001096  45.3350913
  96.8005590  35.1893129  43.7161732  97.2696193  35.2667581  42.7353131
  97.5334407  35.4233665  44.4883150  96.4309464  34.1743817  43.8624680
  93.7467163  37.0836204  42.4203020  94.0162909  37.8576860  41.4679906
  92.8030270  37.2868795  43.3428388  92.8667003  36.7487263  44.1951511
  91.6942338  38.1612637  43.1791468  91.8872691  39.0003197  42.5106997
  90.5237413  37.3516869  42.6214169  90.7648786  36.2939567  42.7270519
  89.2234272  37.6468241  43.3395077  88.9813751  38.7043507  43.2339176
  88.4237739  37.0465126  42.9055939  89.3279255  37.4023317  44.3965815
  90.3875275  37.6111992  41.1290854  91.3060832  37.3144357  40.6228355
  89.5523681  37.0328648  40.7339429  90.2063697  38.6725593  40.9593872
  91.3487476  38.8262857  44.5067529  91.3548985  38.2036011  45.5629405
  90.9325239  40.0733984  44.4049803  90.7890381  40.4532248  43.4801868
  90.6242382  40.9212971  45.5598403  90.9637242  40.4689522  46.4916303
  91.3623391  42.2184007  45.3576465  91.3867428  42.3440361  44.2751866
  90.8112999  43.0448385  45.8064854  92.7643706  42.2046334  45.8908137
  92.9719746  41.2298861  46.3322535  93.7521134  42.4710430  44.7608124
  93.5454173  43.4458833  44.3191543  94.7681229  42.4595584  45.1553925
  93.6501180  41.6984619  43.9986996  92.8288117  43.2402213  47.0273555
  92.1190062  42.9678601  47.8084413  93.8359597  43.2613645  47.4436572
  92.5771758  44.2259704  46.6361050  89.1375614  41.2960924  45.7341319
  88.4569118  41.6229705  44.7647780  88.7172271  41.5235767  46.9608046
  89.2225654  41.2342291  47.7860383  87.4729454  42.2208255  47.1335765
  87.5815338  43.1965669  46.6600404  86.7067793  41.6475036  46.6116658
  87.0532464  42.4135556  48.5513036  87.8444519  42.2059507  49.4688765
  85.8416127  42.9551779  48.7091926  85.4575878  43.5217607  47.9664894
  85.0340528  42.7489818  49.9138964  85.6771713  42.3879319  50.7164802
  84.3570246  44.0366892  50.3735533  85.1353618  44.7747611  50.5673068
  83.7177045  44.3877187  49.5635237  83.5185807  43.8390022  51.6339237
  82.5480551  43.4438266  51.3338951  84.0272520  43.1108273  52.2656807
  83.3207003  45.1356255  52.4114405  82.9879484  45.9030390  51.7125474
  82.5472189  44.9673500  53.1607798  84.6104204  45.5984333  53.1029469
  84.9924366  44.7447294  53.6627271  85.3155155  45.8597883  52.3138755
  84.4404442  46.7652817  54.0268359  83.7874517  46.5231655  54.7583277
  85.3324116  47.0027865  54.4368184  84.0868714  47.5565763  53.5082432
  83.9577061  41.7509632  49.6376469  83.2698893  41.8377277  48.6138037
  83.6999079  40.9269519  50.6481024  84.0949494  41.1421101  51.5523969
  82.8908133  39.7186838  50.5158861  82.8140437  39.4136851  49.4722476
  83.5753972  38.5943045  51.3066307  84.5754016  38.6778004  50.8810500
  83.5974784  38.9099656  52.3496889  83.1041135  37.1342702  51.2236226
  83.9534216  36.5055723  50.9561986  82.5323295  36.6736086  52.5550624
  81.6826344  37.3015857  52.8229461  82.2054234  35.6371415  52.4715811
  83.2984499  36.7513924  53.3264959  82.1246236  36.8791910  50.0926358
  82.5957720  37.1248447  49.1409148  81.8338803  35.8286819  50.0930831
  81.2397845  37.5005979  50.2305206  81.4823245  39.9665495  51.0517555
  81.2840103  39.9910860  52.2720827  80.5237187  40.1691585  50.1427965
  80.7201274  40.0092403  49.1650700  79.2267986  40.7855681  50.5069429
  79.3055346  41.2038620  51.5104020  78.8140235  41.9163069  49.5298291
  78.3182556  41.4266166  48.6916664  78.0938317  42.5333112  50.0671647
  79.9630529  42.8081233  48.9997677  80.8342790  42.1604857  49.0979068
  79.7901685  43.0264952  47.9459537  80.2146912  44.1331833  49.7678355
  79.3516634  44.6073417  50.5576910  81.2746114  44.7578161  49.5115541
  78.0404409  39.7833277  50.7107358  77.1876477  40.0173144  51.5503285
  78.0250013  38.6546288  50.0096194  78.6023659  38.5368278  49.1893314
  77.1054869  37.5669976  50.3772232  76.4736125  37.9044948  51.1987642
  76.2036193  37.1369506  49.2082620  75.6480908  38.0122088  48.8714973
  76.8443755  36.7813493  48.4013672  75.2786025  36.0952355  49.5818185
  74.7385749  35.8599010  48.8238028  77.8784155  36.3570771  50.9003264
  78.5926984  35.6977004  50.1543242  77.6976140  36.0503582  52.1801776
  77.4311391  36.7715999  52.8350829  77.8736967  34.6800901  52.6853769
  77.2001941  34.5664682  53.5348376  77.5665217  34.0056634  51.8860699
  79.2869537  34.3196379  53.1219804  80.1410434  35.1839958  53.2821839
  79.4793943  33.0346198  53.4154513  78.7163460  32.3852198  53.2884225
  80.7327333  32.5288490  53.9475625  81.3880558  33.3648486  54.1920134
  80.4979057  31.6965884  55.2251553  79.7366066  32.1940160  55.8260617
  80.1413739  30.7088534  54.9329828  81.6860870  31.5637161  55.9846322
  81.5068923  31.0422979  56.7705153  81.4032052  31.6883764  52.8807194
  80.7516289  31.1258762  52.0015380  82.7167245  31.6095049  52.9684194
  83.2042749  32.0176693  53.7531460  83.5009351  31.0814452  51.8728590
  82.9591104  30.3783740  51.2402327  84.0622787  32.2204550  51.0080098
  83.2298860  32.7817896  50.5835970  84.9323941  33.1535247  51.8373626
  85.7653186  32.5929637  52.2617548  85.3179607  33.9514464  51.2027288
  84.3380617  33.5854797  52.6425229  84.7813304  31.6536965  49.7823159
  85.8544421  31.6868056  49.9705599  84.4677504  30.6180372  49.6512553
  84.4660050  32.4366154  48.5311640  84.7797459  33.4723421  48.6613046
  84.9971544  32.0001763  47.6852914  83.3930531  32.4035756  48.3420014
  84.5899217  30.0983571  52.3431845  85.5852862  30.4827335  52.9788489
  84.3295641  28.8129350  52.0784246  83.5584871  28.5919456  51.4646630
  85.1074471  27.7106531  52.6372963  85.4544782  27.9789792  53.6351288
  84.2513832  26.4196368  52.7402749  84.0218557  26.0724961  51.7328476
  84.8303721  25.6584437  53.2632058  82.6374990  26.5300211  53.6227861
  82.3002229  25.2543752  53.4558404  86.2833055  27.4905002  51.6958088
  86.1679705  27.8207724  50.5039937  87.4309690  27.0458042  52.2526498
  87.4574101  26.9032712  53.2521920  88.6828480  26.8038931  51.4677906
  88.9376943  27.7104848  50.9189335  89.8707854  26.4263169  52.3735069
  90.0625989  27.2354458  53.0782177  89.6342079  25.5151259  52.9229266
  91.1104148  26.1950392  51.5159207  90.9195082  25.3856837  50.8112227
  91.3479017  27.1060034  50.9665153  92.2861665  25.8213341  52.4123454
  92.4779797  26.6304615  53.1170578  92.0495886  24.9101423  52.9617631
  93.5257962  25.5900586  51.5547583  93.3348903  24.7807040  50.8500594
  93.7632830  26.5010235  51.0053565  94.6591427  25.2298296  52.4188531
  94.4394551  24.3854939  52.9277090  95.4801439  25.0766580  51.8508782
  94.8364784  25.9798459  53.0716367  88.4321249  25.7014688  50.4434446
  87.7193159  24.7372485  50.7371048  88.9121587  25.9070149  49.2154986
  89.4892946  26.7184930  49.0466292  88.6357647  24.9949158  48.0835964
  89.2509993  25.3766623  47.2688233  89.0235899  24.0298329  48.4096424
  87.1893191  24.8098010  47.5767212  86.9388210  23.8873019  46.7860158
  86.2599213  25.7063451  47.9665012  86.5735176  26.5295107  48.4606217
  84.7884016  25.5456814  47.7126783  84.5084975  24.5088895  47.8992673
  83.9741459  26.4575931  48.6652248  84.2031800  26.2002634  49.6993544
  84.2368158  27.4998287  48.4839808  82.4840255  26.2574957  48.4100259
  82.2541306  26.5150858  47.3761514  82.2204929  25.2155217  48.5915272
  81.6478807  27.1376462  49.3280029  82.1898034  27.8835867  50.1406112
  80.3223188  27.0490736  49.1966108  79.7212199  27.6117226  49.7815960
  79.9266239  26.4198217  48.5128207  84.3995264  25.9079504  46.2745343
  84.2134817  27.0715766  45.9916522  84.2285444  24.9272390  45.3789024
  84.2783538  23.9592843  45.6629483  83.9667982  25.2295416  43.9441090
  84.8977003  25.5143236  43.4537828  83.3933404  24.0114986  43.2303699
  82.7154089  23.5202123  43.9283283  82.8285295  24.3781795  42.3732622
  84.4451834  23.0140103  42.7565456  85.3296831  23.1137501  43.3856824
  84.0401785  22.0070428  42.8569921  84.8513090  23.2311394  41.3114650
  86.0531529  23.2925539  40.9892840  83.8509731  23.3493411  40.4211603
  84.0628976  23.4953090  39.4444911  82.8920522  23.2916378  40.7329975
  82.9808915  26.3690464  43.7950098  82.0198291  26.4311195  44.5549500
  83.2318203  27.2643589  42.8281198  84.0139678  27.1032909  42.2097335
  82.4114274  28.4773263  42.6198228  81.4054582  28.2974208  42.9989785
  82.9978349  29.6944296  43.3447164  83.9961135  29.7562026  42.9114460
  82.4236646  30.5761979  43.0602639  83.1067376  29.6277611  44.8627656
  83.7204872  28.7710791  45.1411688  83.7426479  30.8999610  45.3950668
  83.1291791  31.7570938  45.1174373  83.8163152  30.8430656  46.4810856
  84.7395272  31.0141509  44.9692818  81.7644498  29.3645843  45.5653418
  81.3570224  28.4120671  45.2265006  81.9188693  29.3300764  46.6437967
  81.0646403  30.1647943  45.3244481  82.3298694  28.8211264  41.1684098
  82.9294950  28.1488822  40.3187440  81.6283114  29.9090358  40.8835178
  81.1276049  30.3974008  41.6121411  81.5494734  30.4259486  39.5282485
  82.3530601  30.0371084  38.9028278  80.2046362  30.0837124  38.8687508
  79.4065455  30.4451819  39.5172031  80.0634849  30.7200736  37.4826575
  80.8610145  30.3587019  36.8334596  79.0976403  30.4506788  37.0552572
  80.1312123  31.8043365  37.5714753  80.0486204  28.5693759  38.7761826
  80.0801904  28.1384987  39.7769075  79.0938589  28.3299069  38.3080110
  80.8601558  28.1559185  38.1773804  81.7089337  31.9184940  39.5716814
  81.6094300  32.5326637  40.6396461  82.0010416  32.4914872  38.4071034
  82.0208905  31.9314100  37.5668541  82.3205440  33.8963085  38.3014558
  81.8600785  34.4588812  39.1136028  83.8146322  34.0571941  38.3914844
  84.1671584  33.4028280  39.1887481  84.2371127  33.7311680  37.4410543
  84.2480134  35.4701674  38.6742865  83.6227144  36.1794738  38.1320812
  84.1945455  35.6818242  39.7422025  85.9165529  35.6375909  38.1334545
  85.6730551  35.4291380  36.3521442  85.0032380  36.2058391  35.9831192
  86.6333568  35.5058410  35.8422049  85.2357175  34.4500147  36.1568122
  81.8189545  34.4958165  36.9989993  82.1223969  34.0086498  35.8950309
  81.0680225  35.5754665  37.1356959  81.2155194  36.2329597  37.8880567
  79.9592975  35.7643596  36.2938941  79.6189151  34.8049417  35.9043348
  78.8117203  36.4104572  37.0739220  79.0456145  36.3068934  38.1334819
  78.7973499  37.4672089  36.8071459  77.4347129  35.7928722  36.7913899
  76.9083922  35.7929504  37.7458988  76.9384586  36.4773276  36.1033823
  77.4031434  34.1036485  36.0869739  76.0246980  34.2616464  34.9430307
  76.2453067  35.0401998  34.2127669  75.8693797  33.3139964  34.4273405
  75.1226764  34.5266498  35.4946027  80.3885410  36.5476514  35.0803440
  81.5505696  36.6296548  34.7916867  79.4511589  37.2255274  34.4471238
  79.6706749  38.6630208  34.6382610  80.7406250  38.8542770  34.7202856
  79.1737001  38.9827122  35.5541827  79.0623579  39.2881712  33.4044027
  79.6724966  40.1345024  33.0888820  78.0538970  39.6330609  33.6327860
  79.0368517  38.2291830  32.3765002  79.9657954  38.1319604  31.8146192
  78.2133853  38.4145724  31.6868384  78.7749689  36.9555736  33.1674429
  77.7172931  36.8586973  33.4124635  79.2353794  35.7106005  32.3687557
  78.4828741  35.2089226  31.5024971  80.4331598  35.2046507  32.6634112
  80.9340515  35.5375790  33.4748085  81.0829600  34.2155654  31.8055464
  80.6608840  34.2381736  30.8008376  82.5658402  34.5513074  31.7181077
  83.0311613  34.3775819  32.6883628  83.0250577  33.9007509  30.9737989
  82.8077878  35.9968452  31.3152323  81.9147531  36.6667667  30.7942753
  84.0166320  36.4865079  31.5635593  84.2317750  37.4418175  31.3161793
  84.7155216  35.9014427  31.9987061  80.9035738  32.7572771  32.2717030
  81.4290284  31.8179046  31.6594738  80.1876436  32.5879031  33.3777046
  79.8220187  33.4003070  33.8535384  79.8802298  31.2837729  33.9152910
  79.3656342  31.3980366  34.8693530  78.9693178  30.4779539  32.9546792
  79.2280081  30.8142575  31.9506481  79.2626080  29.4350485  33.0748011
  77.4741645  30.6086969  33.1611058  76.9692390  30.0393176  32.3807481
  77.2246070  30.1889690  34.1356065  77.0238960  32.0509249  33.1036385
  75.9348489  32.0393383  33.0595777  77.3443842  32.5182577  34.0347597
  77.5751562  32.8494627  31.9146748  77.3594592  33.8959130  32.1303533
  78.6537463  32.6923404  31.9220970  77.0330571  32.4979832  30.5768977
  76.0336817  32.6439164  30.5696757  77.4637669  33.0826206  29.8749090
  77.2331954  31.5284718  30.3766694  81.1466356  30.4966172  34.0899141
  81.1399254  29.3285393  33.7955347  82.2648476  31.1116992  34.4495416
  82.3454259  32.1159993  34.5201654  83.4716816  30.3023587  34.6429542
  83.4533495  29.4766157  33.9316795  84.7605657  31.0956649  34.4367406
  84.4489046  32.1375626  34.5103324  85.5661937  30.9069692  35.1462880
  85.3390465  30.9201402  33.0807819  86.1784780  29.8758663  32.7723343
  86.5148219  29.1907370  33.4338252  86.4675242  29.9183825  31.4825333
  87.1291396  29.1742207  31.0391517  85.8369684  30.9497533  30.9445977
  85.0969462  31.5729724  31.9168169  84.4704041  32.4274473  31.6610459
  83.4753350  29.6257255  36.0042783  83.4312173  30.2948555  37.0455644
  83.5157557  28.2913507  35.9785270  83.2862976  27.8046162  35.1238119
  83.8795859  27.5014515  37.1464228  83.1170960  27.6225106  37.9158727
  83.9946261  26.0193058  36.8029394  84.3536485  25.9202742  35.7785396
  84.7116630  25.5617053  37.4845257  82.6984472  25.3003035  36.9238318
  81.6354611  25.9032836  37.1649800  82.7614109  23.9947281  36.7518738
  81.9210648  23.4384903  36.8190875  83.6497024  23.5568089  36.5537177
  85.1943583  27.9539857  37.6917039  86.0238905  28.5096389  36.9592595
  85.4227653  27.6149482  38.9484719  84.7254530  27.1048558  39.4715978
  86.6502647  27.9512895  39.6027652  87.5182347  27.5328062  39.0932566
  86.8145342  29.4766566  39.6798672  86.6814394  29.8863864  38.6786147
  85.8045273  30.1063536  40.6223495  85.9373178  29.6974302  41.6239728
  85.9546708  31.1856527  40.6482497  84.7954145  29.8887166  40.2724535
  88.2145893  29.8263115  40.1068956  88.9259385  29.4267464  39.3841010
  88.3194149  30.9100498  40.1581061  88.4139107  29.3957480  41.0882146
  86.6122956  27.3773627  40.9916569  85.5792276  27.4251916  41.6378373
  87.7006619  26.7765528  41.4439833  88.4818806  26.5715775  40.8375332
  87.7644535  26.3202037  42.8445036  86.7704178  26.3645656  43.2895028
  88.3097388  24.8681176  42.9880619  87.6473049  24.1774555  42.4662703
  89.3083694  24.8099973  42.5550966  88.3730492  24.4965312  44.4502574
  89.0357075  25.1865191  44.9726572  87.3746436  24.5539750  44.8838306
  88.9075824  23.0730856  44.5909849  90.1551867  22.9345198  44.6999998
  88.0632023  22.1378774  44.5881267  88.6210615  27.3186546  43.5911411
  89.6189781  27.8339237  43.0439608  88.1933546  27.6601487  44.8064820
  87.2654343  27.4157479  45.1216511  89.0863449  28.3326660  45.7422452
  89.3876019  29.2976373  45.3346011  88.4792537  28.5570062  47.1434200
  88.0834642  27.6129800  47.5179390  89.5518721  29.0767909  48.1034213
  89.9478347  30.0210940  47.7297820  89.1135300  29.2318784  49.0892735
  90.3592682  28.3481209  48.1759004  87.3123867  29.5295199  47.0905569
  86.5364778  29.1316511  46.4365172  86.9069391  29.6661933  48.0930698
  87.6557414  30.4891403  46.7041153  90.2575911  27.4201249  45.9391435
  90.0712601  26.2191095  46.1974625  91.4565946  27.9708151  45.7447598
  91.5610163  28.7582341  45.1209275  92.6468877  27.4289325  46.3740057
  92.4968947  26.3697631  46.5831979  93.8747619  27.5803647  45.4623324
  94.1789918  28.6052407  45.6748706  94.6272815  26.8915202  45.8461389
  93.7358616  27.3924258  43.9453789  93.2753694  28.2759350  43.5032711
  95.1251862  27.1901944  43.3473867  95.5861574  26.3065394  43.7887009
  95.0410586  27.0553014  42.2690420  95.7421213  28.0640875  43.5566767
  92.8189076  26.2407896  43.5753177  91.8234031  26.4239142  43.9797131
  92.7599139  26.1568954  42.4901529  93.2140058  25.3133953  43.9899695
  92.8697560  28.1435243  47.7162763  92.7010742  27.5412645  48.7859308
  93.1358166  29.4503281  47.6506981  92.8353044  29.9819492  46.8462289
  93.8571706  30.1511491  48.7166532  93.9284760  29.4758848  49.5693154
  94.8577744  30.3769720  48.3480132  93.1923361  31.4405677  49.1621190
  92.9562072  32.3509252  48.3577079  93.0128396  31.5602500  50.4675883
  93.3844349  30.8639456  51.0978077  92.2712987  32.6447585  51.0201662
  92.0052540  33.3914751  50.2720127  91.0157181  32.1262475  51.6826017
  91.2864807  31.4009147  52.4498568  90.2497198  33.2846939  52.3241292
  89.9781930  34.0102619  51.5573666  89.3458592  32.9040954  52.7998198
  90.8785501  33.7663032  53.0729443  90.2028488  31.3743468  50.6280408
  90.0952150  32.0414673  49.7727830  90.7878739  30.5021004  50.3364392
  88.8408256  30.9319898  51.0936908  88.2550147  31.8037922  51.3850430
  88.3325016  30.4071007  50.2848662  88.9476738  30.2644267  51.9487012
  93.1103458  33.3872098  52.0157490  93.1981492  32.9988252  53.1831722
  93.7356467  34.4597665  51.5279070  93.5120576  34.7573854  50.5890086
  94.7692757  35.2152653  52.2779828  95.1859121  34.5658486  53.0478992
  95.9654847  35.7309651  51.3392646  95.3778376  36.5097876  50.8532547
  96.6284233  36.1835624  52.0766710  96.8368060  34.9582252  50.2425421
  97.3739200  34.1730828  50.7746707  96.0432518  34.3384995  49.0795113
  95.5062030  35.1231464  48.5465885  96.7299103  33.8398559  48.3954387
  95.3305559  33.6127554  49.4712519  97.9535654  35.8347476  49.6376694
  98.6288577  36.1608293  50.4287133  98.5107031  35.2567051  48.9004004
  97.5110770  36.7067187  49.1560371  94.1136673  36.4304479  52.9805437
  94.7732310  37.4702521  53.1230773  92.9084115  36.2234597  53.4884251
  92.5173416  35.2922540  53.4839965  92.1279783  37.2887996  54.0618584
  91.7080599  37.9165796  53.2759450  90.9806968  36.6945050  54.8772683
  90.1847821  36.4191371  54.1853207  91.3524967  35.8000532  55.3770892
  90.4735942  37.6003109  55.8446728  89.7576713  37.1830752  56.3294084
  92.9529361  38.1379316  54.9662397  93.6401925  37.6726447  55.8619365
  92.8849691  39.4219717  54.6480425  92.3044667  39.6929601  53.8672213
  93.5729044  40.4486571  55.3709035  93.3531945  41.4278777  54.9455168
  93.1115976  40.4328084  56.8106683  92.1027774  40.0222634  56.8534921
  93.7917290  39.7821553  57.3603699  93.1210635  41.7969539  57.4253255
  94.2211262  42.3693876  57.5622588  92.0297730  42.3042512  57.7525937
  95.0255780  40.0802172  55.2697036  95.4377638  39.4388047  54.3116739
  95.8040274  40.4457285  56.2730444  95.4729591  41.0115965  57.0413455
  97.1819785  40.0568103  56.2609017  97.6616784  40.2582637  55.3030898
  97.9847803  40.7474112  57.3643910  97.9998176  41.8224348  57.1849545
  97.5218492  40.5473083  58.3307003  99.4147361  40.2117290  57.3647509
 100.2550620  40.8126475  56.6433974  99.6530943  39.2067200  58.0863754
  97.1678194  38.5431130  56.4358130  97.9329415  37.8205031  55.8124727
  96.2740026  38.0728713  57.2978659  95.6662574  38.7149906  57.7861567
  96.1852458  36.6307040  57.6300432  97.1541189  36.1542442  57.7796095
  95.3313689  36.4376429  58.9185814  95.7859870  37.0149000  59.7236876
  93.8921618  36.9006628  58.7110707  93.4367029  36.3235020  57.9063697
  93.3257514  36.7512354  59.6302829  93.8845824  37.9584458  58.4481271
  95.3654577  34.9993224  59.4090628  96.3935222  34.7161959  59.6349495
  94.7576758  34.9073507  60.3091972  94.9696570  34.3415459  58.6352587
  95.6090233  35.7838710  56.4726809  94.9832105  36.3162503  55.5590872
  95.8770324  34.4787599  56.4814720  96.7006559  34.1322114  56.9522667
  95.0323143  33.5230793  55.7707139  94.4276600  34.0442670  55.0285173
  95.8998080  32.4706180  55.0490624  95.5895385  32.4917310  54.0043680
  96.9279630  32.8235278  55.1293859  95.8102452  31.0438667  55.5764004
  96.8212899  30.6532664  55.6918154  95.3314857  31.1058517  56.5536652
  95.0049229  30.1120496  54.6736358  95.4807626  28.9853863  54.4127903
  93.8893117  30.4874413  54.2437222  94.1054047  32.9076624  56.8158433
  94.4679476  32.8439608  57.9843688  92.8798222  32.5562461  56.4218942
  92.4737753  32.9825779  55.6012443  92.0649367  31.5953563  57.1854973
  92.6971922  31.0219611  57.8634134  90.9543654  32.2934066  58.0144383
  90.4586650  31.5437061  58.6311478  91.5397914  33.3982380  58.9193682
  92.0352850  34.1485956  58.3032926  90.7361474  33.8676865  59.4867072
  92.2619627  32.9597786  59.6080789  89.9783449  32.8588177  57.1334870
  89.2930151  33.2897157  57.6494814  91.4354230  30.5663687  56.2229394
  91.5314721  30.7097840  55.0027117  90.8725951  29.4956153  56.7803217
  90.8639011  29.4050877  57.7862186  90.2975696  28.3993392  55.9732318
  90.9347489  28.2137508  55.1085592  90.1882124  27.0997836  56.7918282
  90.3504679  27.3548035  57.8390805  89.1807300  26.7029456  56.6669332
  91.1911387  26.0628649  56.3676165  92.3993653  26.3920120  56.3622502
  90.7721999  24.9282204  56.0353726  88.9231271  28.7683233  55.4304274
  88.6105180  28.4842412  54.2761194  88.0794262  29.3173179  56.2965785
  88.3229309  29.3586938  57.2759113  86.8017634  29.8698935  55.8805606
  86.7630549  29.9526799  54.7943989  85.6104675  29.0010856  56.3533319
  84.7373500  29.2574598  55.7533000  85.9108866  27.5012940  56.2052693
  86.7836637  27.2440568  56.8054267  85.0524718  26.9228247  56.5467315
  86.1099161  27.2716900  55.1584790  85.3054447  29.2910332  57.7257256
  84.5663957  28.7486581  58.0107450  86.6717973  31.2448233  56.4825531
  87.2914632  31.5421911  57.4941565  85.8415866  32.0785688  55.8825593
  85.3139307  31.7946225  55.0695076  85.7016193  33.4460352  56.3511079
  85.6850981  33.5250049  57.4381176  86.8410249  34.3407462  55.8076300
  87.7987755  33.8772188  56.0441785  86.7170087  34.5064558  54.3025598
  85.7596370  34.9703784  54.0652493  87.5267493  35.1386244  53.9381647
  86.7755344  33.5294229  53.8228901  86.8733908  35.6874565  56.5142740
  87.0329597  35.5345490  57.5816349  87.6850681  36.2916133  56.1089665
  85.9253663  36.2025572  56.3592853  84.3531375  33.9790478  55.9183884
  83.8595085  33.6231570  54.8487702  83.7625763  34.8217104  56.7668661
  84.2948241  35.1710681  57.5509329  82.3619307  35.2365720  56.6372065
  81.8102368  34.5835808  55.9609406  81.7004160  35.1880388  58.0081127
  82.2362562  35.8440819  58.6941030  80.6650635  35.5184017  57.9244111
  81.7257949  34.1668478  58.3884075  82.3055814  36.6524760  56.0406875
  83.3425396  37.2981940  55.9200607  81.1003043  37.1355169  55.6550871
  79.7924454  36.6264495  56.0932064  79.6857070  36.7770503  57.1674627
  79.7229733  35.5623726  55.8673462  78.8168849  37.4467834  55.2953223
  77.8815016  37.5397639  55.8471483  78.6270451  36.9594615  54.3389858
  79.4575947  38.7569782  55.0991783  79.2400531  39.3909237  55.9587641
  79.1364724  39.2598401  54.1869777  80.9684294  38.4639425  55.0337205
  81.3593393  38.3954330  54.0185386  81.7045500  39.5373212  55.7811357
  81.9697331  39.4018369  56.9752407  81.9403557  40.6483230  55.1057426
  81.6847747  40.7169776  54.1310302  82.5724786  41.8038085  55.7393819
  82.0994451  42.7164531  55.3768651  82.4472656  41.7348141  56.8199655
  84.0432367  41.8533409  55.4185891  84.5304587  42.8199515  54.8324485
  84.7326413  40.7625272  55.7025535  84.2766188  39.9565508  56.1057219
  86.1569098  40.7470678  55.5852619  86.5843077  41.5596269  56.1727804
  86.7235693  39.4212260  56.0992381  86.1857191  38.6138402  55.6023029
  87.7770810  39.3794258  55.8227134  86.5871213  39.2653196  57.6259261
  86.7584079  40.2649876  58.0252074  85.5715376  38.9487942  57.8636249
  87.5853444  38.2883320  58.2518916  87.1318935  37.4257769  59.0518872
  88.8155442  38.4127572  57.9904937  86.6358332  41.0818317  54.1570198
  85.8427963  41.2672979  53.2087789  87.9448212  41.2650344  54.0613796
  88.5121468  41.0479352  54.8682929  88.6044380  41.7551220  52.8712498
  87.8685935  42.0169147  52.1109231  89.4181063  43.0091371  53.2186040
  89.7446159  42.8820852  54.2507612  90.2898526  43.1106201  52.5721834
  88.5968463  44.2744350  53.1241084  87.8926075  44.4851755  52.1364074
  88.7316020  45.1591286  54.1169115  88.2031652  46.0196407  54.0975917
  89.3612501  44.9630882  54.8819032  89.5307115  40.6767089  52.3382606
  90.7122148  40.6412467  52.6743220  89.0190476  39.8734482  51.4222292
  88.1234892  40.0780851  51.0024694  89.7302759  38.7192764  50.9717697
  90.3749911  38.3378732  51.7635860  88.7530028  37.6508377  50.5946518
  88.1777680  38.1294170  49.8020826  89.3140248  36.8130542  50.1805586
  87.8118381  37.1465393  51.6662287  88.2392445  36.2232071  52.0572302
  87.5821446  38.1259698  52.8133651  87.1542911  39.0494381  52.4231773
  86.8957105  37.6851307  53.5362550  88.5321082  38.3440368  53.3013369
  86.4920154  36.7778089  51.0055812  86.6625155  36.0000199  50.2612201
  85.7970015  36.4110348  51.7609180  86.0695407  37.6578032  50.5205823
  90.5521211  39.0270345  49.7405690  90.0542585  39.6096825  48.7676558
  91.7813307  38.5430534  49.7379138  92.3402282  38.5270965  50.5790311
  92.3747624  38.0625126  48.5125562  91.8833726  38.5312341  47.6599511
  93.8737466  38.3979409  48.4609024  94.3370714  37.8388053  49.2737965
  94.2362120  38.0173061  47.5060014  94.2354555  39.8773545  48.5896468
  93.8097402  40.4023423  47.7345122  93.7847503  40.2541344  49.5077992
  95.7682207  40.1146853  48.6310830  96.1932282  39.4656307  49.3967172
  96.1811573  39.8470750  47.6584744  96.1149545  41.5759254  48.9493332
  95.5496725  42.1929915  48.2509163  95.7689324  41.7676420  49.9650166
  97.5607651  41.9096521  48.8472051  97.8814938  41.7324812  47.9060126
  97.6978472  42.8848091  49.0716540  98.0846994  41.3382751  49.4946000
  92.1503403  36.5353119  48.4196968  92.1769998  35.8073407  49.4397993
  91.8875187  36.0641204  47.2042885  91.9841360  36.6718291  46.4033798
  91.5267686  34.6700413  46.9747566  91.7911676  34.0332107  47.8189362
  90.0137441  34.5042101  46.6545587  89.7995205  34.9988323  45.7071635
  89.6346796  33.0226192  46.5541170  89.8482008  32.5273938  47.5013557
  88.5717983  32.9334004  46.3295641  90.2140639  32.5518471  45.7598963
  89.1079758  35.2425523  47.6753259  89.6742558  36.1104352  48.0132711
  88.2311600  35.5752962  47.1198305  88.6653942  34.4271085  48.8786122
  89.5417133  34.0943816  49.4349012  88.0379068  35.0418971  49.5238979
  88.0986191  33.5592408  48.5414602  92.2659287  34.1776621  45.7615682
  92.0544685  34.6940781  44.6556102  93.1048936  33.1619921  45.9475320
  93.4341228  32.9117825  46.8689996  93.6646825  32.4595120  44.7991945
  93.8741340  33.1862828  44.0143164  94.9670945  31.7090400  45.1353844
  95.5034444  32.3085086  45.8709558  94.6834720  30.7557831  45.5814334
  95.8813628  31.4543327  43.9120412  95.5918122  30.4921850  43.4895093
  95.6777716  32.2441635  43.1889783  97.3756341  31.4375003  44.2413128
  97.6356567  30.4377948  44.5892731  97.9274125  31.6585936  43.3276620
  97.7629586  32.4106188  45.2725223  98.0056297  33.3326834  44.9393450
  97.8411578  32.1652538  46.5847977  97.5513043  30.9597322  47.0751616
  97.2682450  30.2184521  46.4502765  97.6161248  30.7933499  48.0692515
  98.1869803  33.1441440  47.4193927  98.3879888  34.0651899  47.0569424
  98.2465992  32.9608289  48.4108259  92.6471522  31.5195934  44.1698089
  92.0678586  30.6627139  44.8338913  92.4818634  31.6899812  42.8609699
  93.1075928  32.3321977  42.3960828  91.4900767  30.9795540  42.0522189
  90.7936698  30.4390365  42.6932785  90.6967509  31.9968281  41.2114975
  91.4359638  32.7848486  41.0676671  90.4618881  31.5398370  40.2501970
  89.4227734  32.5962462  41.8166169  88.6882501  31.8008468  41.9427758
  89.7091618  33.2426632  43.1686035  90.4433072  34.0385246  43.0431686
  88.7877474  33.6597620  43.5749591  90.1013272  32.4921785  43.8549557
  88.7854707  33.5835283  40.8345510  88.5314013  33.0645614  39.9103099
  87.8811683  34.0028683  41.2755639  89.4896007  34.3868469  40.6178045
  92.1948844  30.0320573  41.0883656  93.2465235  30.3935756  40.5580255
  91.6160445  28.8475695  40.8263024  90.8488122  28.5217281  41.3966367
  92.0613905  27.9981473  39.6948126  92.8817547  28.4864212  39.1687989
  92.5400651  26.6526373  40.1941665  93.4878689  26.8149666  40.7074074
  91.7996515  26.2881621  40.9062379  92.7315528  25.6217739  39.0887553
  92.6302785  26.1307022  38.1301957  93.7380456  25.2129687  39.1779332
  91.7154019  24.4907060  39.1724020  90.7303809  24.9040160  38.9555904
  91.9719642  23.7486949  38.4162970  91.6978675  23.8294686  40.5485937
  92.3326936  24.4161751  41.2125756  90.6724903  23.8469344  40.9179116
  92.1895987  22.4159264  40.5087935  93.1398699  22.3995604  40.1670093
  92.1594025  22.0226805  41.4386031  91.6012327  21.8720014  39.8939195
  90.9555698  27.7338527  38.7299722  89.9853995  27.1089111  39.1082203
  91.1460346  28.0813943  37.4598230  92.0470910  28.4010184  37.1341896
  90.0439299  28.0081604  36.4949293  89.5432448  27.0467974  36.6097979
  89.3394245  28.8119667  36.7086278  90.5247775  28.1431101  35.0763095
  91.7181417  28.3189740  34.8529537  89.6178008  27.9908369  34.1071923
  88.6890976  27.6589499  34.3250473  89.9797673  28.1792961  32.6846951
  90.9811587  27.8027674  32.4760313  88.9420770  27.5167685  31.6730168
  87.9338145  27.7506913  32.0147584  89.1304273  28.0375694  30.2373902
  90.1383769  27.8035907  29.8947650  88.4037776  27.5611889  29.5792545
  88.9827405  29.1173733  30.2197486  89.0052555  25.9535127  31.7110272
  89.4763157  25.6968575  32.6598850  87.9698125  25.6130268  31.7161924
  89.7567004  25.2759791  30.5716151  90.7924123  25.6156411  30.5660954
  89.7300633  24.1951470  30.7101486  89.2859100  25.5318126  29.6224020
  90.1690676  29.6939073  32.4427113  90.8692578  30.0836966  31.5093694
  89.6501725  30.5332354  33.3512377  89.1149423  30.1704597  34.1271384
  89.7587591  32.0026186  33.1990578  90.3626377  32.2445303  32.3244672
  88.3626608  32.6148901  33.0159314  87.7350069  31.8511281  32.5567827
  87.9816080  32.8481249  34.0101649  88.3419292  33.8784467  32.1526697
  87.5303985  34.5292660  32.4781741  89.2977251  34.3635102  32.3508283
  88.2089173  33.6095924  30.6566690  87.0722427  33.3358329  30.1979604
  89.2254988  33.7302446  29.9329238  90.5015088  32.6981889  34.3644345
  89.9276650  32.8494313  35.4736892  91.7327850  33.1890868  34.0756402
  91.9797809  33.3107104  33.1038892  92.7955878  33.3889590  35.1072280
  92.3508195  33.5138176  36.0944923  93.6952505  32.1720069  35.1324366
  94.2430576  32.1410875  34.1906029  94.3978705  32.2921275  35.9570554
  92.9179096  30.8693742  35.3119445  92.4359476  30.6932494  34.3502826
  93.6223468  30.0634473  35.5177334  91.8422464  30.9131435  36.4286768
  92.2077740  30.9857023  37.6176768  90.6199877  30.8274515  36.1251520
  93.6234131  34.7143313  35.0445886  94.3026296  35.0886558  35.9750723
  93.5184868  35.4275848  33.9532771  93.6236184  34.9649357  33.0616480
  93.2963438  36.8635471  33.9623265  92.7672218  37.1526956  34.8703586
  94.6394172  37.6069965  33.9191338  94.4959312  38.4982708  34.5299866
  95.3527599  36.9432698  34.4077125  95.1832326  38.0156746  32.5325899
  94.5558339  38.7413109  32.0149765  96.0881200  38.5075787  32.8893928
  95.5745152  36.8512744  31.5356771  94.8201800  36.6310398  30.5377361
  96.7200980  36.3025600  31.6131792  92.4309328  36.8001938  32.6661031
  92.0867628  35.6955128  32.2716353  91.9622826  37.9323721  32.2031233
  92.3253765  38.8156250  32.5319494  90.9179904  37.9500796  31.2223434
  91.0239914  38.8486515  30.6145347  90.9544376  36.7404843  30.3092115
  91.8704610  36.8009610  29.7215526  90.9870008  35.8533005  30.9416231
  89.7514471  36.6523140  29.3696351  90.0903780  36.1013168  28.4923502
  88.9598007  36.0916700  29.8666999  89.2167953  38.0123675  28.9393611
  90.0232855  38.9502537  28.8084257  87.9888590  38.1459926  28.7631028
  89.5830327  37.9737028  32.0456385  88.5126591  37.7053828  31.5237747
  89.6769008  38.2767607  33.3447716  90.6117227  38.4135375  33.7018423
  88.5584971  38.4287744  34.2632153  87.6368876  38.2005504  33.7278191
  88.6883585  37.4989344  35.4763239  87.7107938  37.3567052  35.9370174
  89.2260544  36.1686484  35.0199211  90.2038744  36.3100175  34.5595046
  89.3214417  35.5014697  35.8765859  88.5426535  35.7300617  34.2928008
  89.6221343  38.0331880  36.5585682  90.5968376  38.2004474  36.1002248
  89.2161533  38.9836354  36.9048754  89.7711921  37.0994596  37.7231549
  90.1775870  36.1488867  37.3776782  90.4475468  37.5379926  38.4568662
  88.7969016  36.9320729  38.1823276  88.6732417  39.8892604  34.6543933
  89.7597877  40.3290161  34.9644735  87.5898313  40.6398653  34.6588840
  86.6767319  40.2509010  34.4716528  87.6859427  42.0567649  34.9584704
  88.7221137  42.3387035  35.1454451  87.1754484  42.8480298  33.7706306
  86.1595198  42.4714720  33.6514981  87.1411793  43.8881739  34.0947078
  87.9056635  42.7558135  32.4480547  88.8192260  43.3467125  32.5139535
  88.2556893  41.3220514  32.1116963  87.3425368  40.7305912  32.0451669
  88.7792238  41.2898806  31.1561977  88.8977136  40.9117848  32.8911747
  87.0286486  43.3649636  31.3738191  86.8278138  44.4084590  31.6164755
  87.5384894  43.3077413  30.4121075  86.0876161  42.8176785  31.3187204
  86.8822435  42.5049379  36.1358189  85.9491709  41.8477410  36.5354297
  87.2355962  43.6419129  36.7034392  88.6212267  44.1923688  36.7478845
  88.7510215  44.9084782  35.9364407  89.3366307  43.3783080  36.6312606
  88.7011761  44.8345368  38.1012449  89.3742689  45.6914106  38.0727427
  89.0594350  44.1161154  38.8385525  87.2748089  45.2594150  38.4066107
  86.9761366  46.2106371  37.9660764  87.1493632  45.3052784  39.4883960
  86.4205844  44.1273896  37.8291985  86.3920365  43.3061480  38.5453308
  84.9783321  44.5820004  37.5100319  84.6844518  45.2638169  36.4841963
  84.0996099  44.2289358  38.4478058  84.4372964  43.8981180  39.3403453
  82.6655509  44.3005082  38.2384592  82.1568524  44.3270013  39.2021102
  82.4233803  45.2018847  37.6754554  82.1966348  43.1138477  37.4765519
  81.3138869  43.2289617  36.6238439  82.9766844  42.0455911  37.6029453
  83.9772631  42.1259351  37.4912016  82.4243361  40.7482696  37.8915042
  81.3913952  40.7296724  37.5439607  83.1996078  39.5822990  37.2102478
  84.2131409  39.4941808  37.6015087  82.6520636  38.6613131  37.4104486
  83.3244077  39.6937087  35.7048990  82.5764813  40.6216640  34.9651382
  81.8402125  41.2384403  35.4804974  82.7649741  40.7625971  33.5807216
  82.1964673  41.5122185  33.0302959  83.6726054  39.9503197  32.9125833
  83.8022919  40.0350962  31.8336513  84.4227106  39.0186221  33.6355141
  85.1480067  38.3906795  33.1180841  84.2455885  38.8897571  35.0196700
  84.8282330  38.1568573  35.5777767  82.4761079  40.5697814  39.3977876
  83.0538797  41.3957209  40.1388435  81.9982770  39.3826969  39.7771263
  81.9074717  38.7061174  39.0327514  81.6735079  38.9605310  41.1442836
  82.3154361  39.4982844  41.8420290  80.1882116  39.2488070  41.4819016
  79.8097960  38.4359172  42.1016694  80.0345597  40.5607011  42.2218198
  80.4123619  41.3741798  41.6024503  78.9811767  40.7323515  42.4432272
  80.5993615  40.5214207  43.1532462  79.3616524  39.3177007  40.1961802
  79.7114829  40.1892186  39.6428485  79.5850999  38.4141213  39.6289808
  77.8682029  39.4223683  40.4091007  77.6439251  40.3260109  40.9758717
  77.3651095  39.4657325  39.4431215  77.5175424  38.5509141  40.9620064
  81.8693381  37.4290992  41.1493125  81.8035152  36.7922449  40.1095525
  82.1406752  36.8352800  42.2887891  82.4425709  37.3406699  43.1094835
  82.0059164  35.4045544  42.3793120  82.3122469  34.9417532  41.4411884
  82.8729394  34.8721426  43.4821903  82.6525714  35.4923551  44.3510250
  82.6336778  33.8330032  43.7081182  84.3402601  34.9879296  43.1402193
  84.5327138  35.9815606  42.7355468  85.1959094  34.7711799  44.3815967
  85.0043338  33.7775144  44.7865984  86.2496972  34.8581101  44.1168797
  84.9468694  35.5225890  45.1309058  84.7229239  34.0140783  42.0380269
  84.1384934  34.2291143  41.1434320  85.7840744  34.1189739  41.8120675
  84.5210485  32.9946854  42.3669394  80.5477572  35.1226685  42.6663538
  79.8258594  36.0140574  43.1145048  80.0772811  33.9200289  42.3587187
  80.6228984  33.2630608  41.8194655  78.7252927  33.5348064  42.7576458
  78.4627338  34.0754539  43.6669655  77.6708185  33.8485321  41.6755615
  77.7916230  33.1398736  40.8562272  76.6789256  33.7324925  42.1123490
  77.6990234  35.5184282  40.9127161  76.6690644  35.3156127  40.0960468
  78.6873918  32.0696272  43.0766276  79.1974737  31.2401021  42.3218810
  78.0817295  31.7664534  44.2176236  78.0408956  32.4726679  44.9385211
  77.5012582  30.4375107  44.5047007  78.2902274  29.7314795  44.7638274
  76.5179653  30.5403072  45.6968555  77.0933568  30.5149587  46.6222642
  76.0141396  31.5028903  45.6091423  75.4736083  29.4164686  45.7134489
  75.8450852  28.2769038  46.0572322  74.2780400  29.6751090  45.4019371
  76.7697409  29.8595024  43.2682324  75.9108970  30.5240245  42.6805909
  77.0797104  28.6059674  42.9031916  78.1667034  27.7813592  43.4651148
  77.9959972  27.6415663  44.5325499  79.1184960  28.2904846  43.3135195
  78.0761318  26.5057735  42.6989947  77.4794589  25.7923925  43.2674735
  79.0800329  26.1061460  42.5555312  77.4387917  26.8273282  41.3890752
  76.8239461  26.0090653  41.0142291  78.2171906  27.0588060  40.6620176
  76.5621453  28.0713761  41.6350936  76.7743690  28.8239418  40.8756832
  75.0416959  27.7306356  41.6169977  74.4390069  27.6439460  40.5383462
  74.4175245  27.6068196  42.7849975  74.9236474  27.7141948  43.6524130
  73.0048910  27.2109011  42.8476736  72.7971885  26.4659648  42.0795404
  72.6743158  26.6108251  44.2107982  72.5706934  27.3764734  44.9796573
  71.7248487  26.0899258  44.0872019  73.7133851  25.6174275  44.6580591
  74.6474886  25.3052868  43.9120271  73.6073412  25.1698496  45.9039832
  74.2779603  24.5017357  46.2561103  72.8565667  25.4996529  46.4936172
  72.0777527  28.3793746  42.5138230  71.6137221  28.4915422  41.3794337
  71.8176129  29.2536908  43.4855598  71.9115148  28.9913608  44.4563660
  71.3271150  30.5873463  43.1760814  70.7428999  30.5508814  42.2565912
  70.4393408  31.1374320  44.2993265  70.6143807  30.5468653  45.1985991
  70.7073710  32.1766422  44.4898575  68.9503386  31.0720474  43.9536054
  68.3240338  29.9902504  43.9315478  68.3766320  32.2309193  43.6731102
  67.3952735  32.2608540  43.4361731  68.9227223  33.0802155  43.6972384
  72.5256523  31.4759904  42.9247329  73.2569603  31.8184463  43.8503298
  72.8377094  31.6493023  41.6429929  72.3529976  31.1014535  40.9465624
  73.9119635  32.5385780  41.2014990  74.5732905  32.7564473  42.0401162
  74.7437530  31.8842676  40.0729690  75.4631034  32.6725935  39.8512116
  75.2588175  31.0431470  40.5370002  74.0760271  31.4196443  38.7701117
  73.3564962  30.6398008  39.0195520  73.3638082  32.5541945  38.0465524
  74.0828291  33.3342654  37.7963579  72.9085781  32.1735750  37.1322248
  72.5893938  32.9681571  38.6923216  75.1135606  30.7856618  37.8555564
  75.5632027  29.9275885  38.3551880  74.6339313  30.4581360  36.9331770
  75.8879155  31.5164168  37.6221670  73.3176773  33.8863853  40.7640295
  72.1333735  34.1362631  40.9716703  74.1413793  34.7517065  40.1765910
  75.0386508  34.4360520  39.8369361  73.8193320  36.1682075  40.0634872
  73.1342939  36.4629739  40.8584305  75.0955647  36.9977827  40.1865494
  75.7494275  36.8480523  39.3273966  74.8694488  38.0590601  40.2898063
  76.0727212  36.5473124  41.6468438  77.0498703  37.4246701  41.4363177
  73.1022931  36.4613277  38.7559304  73.3560352  35.8050333  37.7395218
  72.1175497  37.3608425  38.8255261  71.8796109  37.7718053  39.7169261
  71.3864757  37.8083036  37.6369141  71.1428786  36.9407335  37.0236591
  70.0747131  38.5405931  37.9998136  70.2557070  39.4781636  38.5254578
  69.5492256  38.7434184  37.0666336  69.1391241  37.7450975  38.8535577
  68.7323078  36.4695493  38.5190385  69.0232885  35.9718527  37.6897448
  67.9118227  36.0152196  39.4496135  67.4896302  35.0129640  39.3765641
  67.7563833  36.9580424  40.3648291  68.4847166  38.0621109  39.9991237
  68.4513354  38.9639928  40.6103486  72.3059162  38.7702130  36.9545341
  73.1966730  39.3195960  37.6011072  72.0851893  38.9945150  35.6620620
  71.3815033  38.4661522  35.1663219  72.9068401  39.9352340  34.9042357
  72.9768406  40.8840838  35.4361034  74.3120624  39.3712974  34.7269935
  75.0352415  40.1805857  34.8278085  74.4948304  38.6232187  35.4984040
  74.4443594  38.7857850  33.4738360  75.3328722  38.4355464  33.3764824
  72.2664179  40.2849948  33.5496181  71.0333241  40.2728179  33.4263240
  73.0893658  40.6047407  32.5532089  74.0775554  40.4129393  32.6356275
  72.6043995  41.2346373  31.3226773  73.1903754  40.9171859  30.4601484
  71.5526475  41.0057021  31.1509053  72.7590914  42.7176509  31.4994008
  73.3840251  43.1203686  32.4506497  72.1502861  43.5258210  30.6228233
  71.4143350  43.1434615  30.0463889  72.6405013  44.9058926  30.3232695
  73.2143094  45.2795906  31.1713221  73.5537571  44.9170257  29.0602922
  74.1779654  45.8018376  29.1850769  74.1680083  44.0223681  29.1621903
  72.9035940  44.9387208  27.6562672  72.2112440  45.7792646  27.6089528
  73.6897169  45.0739402  26.9134156  72.1436739  43.6314156  27.3666390
  72.4284963  43.2708877  26.3782085  72.4203134  42.8904875  28.1167028
  70.6673027  43.8152987  27.3999259  70.3159832  44.5929341  26.8595952
  69.7825694  43.0392832  28.0632304  70.1707430  41.9888540  28.7888803
  71.1517961  41.7571467  28.8517030  69.4817170  41.4303128  29.2719688
  68.4825574  43.3293796  28.0126057  68.1666020  44.1267699  27.4792757
  67.8194294  42.7504726  28.5078094  71.5948503  46.0428319  30.2459133
  71.9542252  47.2017275  30.0924453  70.3076672  45.6963302  30.3040971
  70.0427481  44.7271424  30.2011785  69.2516008  46.6834723  30.5443811
  69.7092706  47.6655700  30.4255466  67.9994420  46.5926115  29.5911946
  67.3585376  45.7723883  29.9145761  67.2187835  47.8948706  29.6413896
  67.8589388  48.7155483  29.3176784  66.3544436  47.8266416  28.9808137
  66.8820463  48.0781297  30.6617449  68.3673077  46.3675872  28.2152335
  67.5746375  46.3197930  27.6757986  68.7721370  46.4348413  31.9277921
  68.8076764  45.2998282  32.3907698  68.2813424  47.4977867  32.5722303
  68.4988715  48.4121482  32.2024689  67.5364920  47.4149390  33.8714101
  66.7291253  46.6896981  33.7700009  68.4571581  46.9750998  35.0553608
  67.9266243  46.7296726  35.9753600  68.9927751  46.0949646  34.6995847
  69.4932918  47.9888200  35.4169120  70.6600145  48.0665187  34.6964267
  70.8377778  47.3583273  33.8871276  71.5905283  49.0175187  34.9855236
  72.5229101  49.0472325  34.4217133  71.3601059  49.9359351  35.9807134
  72.1012003  50.7008763  36.2125408  70.1972388  49.8847537  36.6776198
  70.0090462  50.6080322  37.4710629  69.2554863  48.9223102  36.3850967
  68.3107075  48.9013898  36.9282866  66.7772157  48.7261987  34.2428711
  67.1064152  49.8325017  33.7794249  65.7857740  48.5474546  35.1231324
  65.6472941  47.6114321  35.4763809  64.9287680  49.6070151  35.6258465
  64.9288643  50.4581178  34.9448742  63.5028429  49.0716332  35.7376577
  63.6194201  48.2008232  36.3827926  62.8300506  49.7865755  36.2112694
  62.9159368  48.6335156  34.3882107  63.1236211  49.3625806  33.3829320
  62.1517783  47.6183676  34.3616513  65.3917298  50.0227487  37.0080161
  65.7563205  49.1747585  37.8368178  65.3169222  51.3023689  37.3107719
  65.0628829  52.0263609  36.6539622  65.6851075  51.6870168  38.6284041
  65.1850649  51.0172865  39.3280597  67.1704470  51.5600354  38.8201679
  67.6847984  52.2315036  38.1326555  67.4287289  51.8234152  39.8458490
  67.4765094  50.5329708  38.6212626  65.2497116  53.0501246  38.9364444
  64.9445897  53.8454057  38.0390043  65.3044361  53.3209319  40.2306103
  65.8695409  52.7102924  40.8032143  64.6671881  54.4493400  40.8586456
  63.9406671  54.8976816  40.1809612  63.9376293  53.9887133  42.1225938
  63.5385275  53.0018508  41.8882452  64.7073292  53.8962127  42.8888220
  62.8244737  54.8737071  42.6318546  63.2725623  55.7041877  43.1773996
  62.2493501  55.2604660  41.7905743  61.8651724  54.1194351  43.5809682
  62.2130392  53.0861647  44.1675788  60.6387775  54.6368061  43.7138777
  59.9676088  54.1877925  44.3205249  60.3895712  55.4740930  43.2069773
  65.7948386  55.3505352  41.2380510  66.6236614  54.9982001  42.0717007
  65.7786665  56.5518614  40.6964065  64.8973643  56.9676687  40.4308690
  66.9851560  57.2718386  40.4064672  67.8602799  56.9082065  40.9450107
  67.2365340  57.1697199  38.8911871  66.3977048  56.6303488  38.4512498
  67.3760052  58.5465412  38.2101702  68.2149785  59.0863533  38.6492912
  67.5517624  58.4086333  37.1433096  66.4599815  59.1190354  38.3559448
  68.4727651  56.2967817  38.6387318  69.3189415  56.8160193  39.0887080
  68.3035004  55.3564121  39.1632830  68.7751663  56.0109383  37.1616993
  68.9450137  56.9508734  36.6365577  69.6660177  55.3873467  37.0867552
  67.9295709  55.4912680  36.7111319  66.8727644  58.7365578  40.8873235
  66.4022861  59.5975627  40.1545760  67.3386292  59.0464802  42.0894749
  67.8142251  58.3788219  42.6795090  67.1287008  60.4015495  42.6035948
  66.7158780  61.3327019  42.2154819  67.1276177  60.4657612  44.1287495
  66.2407047  61.0407520  44.3949639  67.1196987  59.1588578  44.8735198
  68.0066085  58.5834680  44.6081546  67.1197493  59.3514552  45.9463696
  66.2269909  58.5932946  44.6064754  67.4803654  61.7719961  44.8028624
  66.7739888  62.5428369  44.4947414  67.4326375  61.6476518  45.8846943
  68.4891859  62.0687199  44.5159181  68.1887895  61.3713531  42.1074238
  69.3219803  61.3392504  42.5247786  67.7455912  62.3081598  41.3016976
  66.7687003  62.2866793  41.0461158  68.5582328  63.3700578  40.7892007
  69.4865784  63.0065737  40.3485728  67.7643414  64.1369924  39.7392455
  66.7846695  64.3812534  40.1499522  68.4636307  65.3861606  39.3536781
  69.4432643  65.1426635  38.9424266  67.8763174  65.9151077  38.6030925
  68.5861593  66.0204026  40.2316434  67.5317861  63.2348299  38.5398048
  66.5577035  62.7676647  38.6847900  67.4966663  63.8827778  37.6640025
  68.5817030  62.1599542  38.3313641  68.6170845  61.5112888  39.2066248
  68.3274673  61.5687241  37.4516424  69.5560483  62.6264023  38.1858396
  68.9277175  64.3278197  41.8887761  68.0501962  64.9976485  42.4736511
  70.2134208  64.3671084  42.2092280  70.8653253  63.7431135  41.7556311
  70.7101579  65.2365810  43.2569111  69.8422811  65.5579286  43.8327797
  71.6797206  64.5000342  44.1696723  71.8165848  65.0775407  45.0839232
  71.1419969  63.1380819  44.5131764  71.0052978  62.5597830  43.5994016
  71.8462062  62.6230393  45.1665685  70.1842283  63.2429731  45.0228590
  72.9951203  64.2691646  43.4904029  72.8336430  63.6436731  42.6124586
  73.4055133  65.2302670  43.1806303  73.9591705  63.5895853  44.4177692
  73.5496447  62.6281396  44.7276250  74.9077000  63.4314887  43.9045476
  74.1215133  64.2147331  45.2957983  71.3814855  66.4972798  42.7800738
  71.2593200  67.5393519  43.4002854  72.1228999  66.3923611  41.6955215
  72.2151030  65.5251980  41.1859862  72.8031031  67.5546230  41.1917509
  72.4421110  68.4626721  41.6746906  74.2715955  67.3953317  41.5005798
  74.3268031  66.9658998  42.5008995  74.6583476  66.6785518  40.7761839
  75.0979406  68.6582844  41.4490136  75.2738265  68.9102502  40.4032229
  74.5387545  69.4626577  41.9269192  76.4268381  68.4782715  42.1553710
  77.2785427  69.3749232  42.0570451  76.6321239  67.4369641  42.8100996
  72.6820088  67.7257726  39.7283924  73.0847191  66.8612426  38.9915341
  72.1235773  68.8336669  39.2963257  71.6012574  69.4427736  39.9097344
  72.0938231  69.1002591  37.8844134  73.1118445  69.0641749  37.4965609
  71.2683977  68.1139687  37.1428522  71.6648498  67.1103888  37.2969702
  70.2250974  68.1441319  37.4570412  71.2778419  68.3529773  35.6842749
  70.8832319  69.5523719  35.1371464  70.5621362  70.3515251  35.6647365
  70.9935133  69.4834265  33.8250418  70.7164708  70.3322501  33.1998659
  71.4603023  68.2894109  33.5077096  71.6496429  67.5656073  34.6547787
  72.0371753  66.5483203  34.5995794  71.7202309  70.5083362  37.5458919
  70.8112569  71.0612426  38.1090214  72.4340297  71.0829636  36.6101700
  73.2298772  70.5968648  36.2223116  72.1963912  72.4445257  36.1970364
  72.1174524  72.9873330  37.1389643  73.3959366  72.9756119  35.4294822
  74.3014244  72.8189373  36.0156939  73.4828053  72.4479738  34.4796655
  73.2121279  74.4666266  35.1673491  72.3070217  74.6240620  34.5807507
  73.1256432  74.9950270  36.1167782  74.4156958  74.9994946  34.3972186
  75.3211843  74.8428189  34.9834285  74.5025623  74.4718572  33.4474016
  74.2318871  76.4905103  34.1350877  73.3267807  76.6479467  33.5484902
  74.1454056  77.0189087  35.0845167  75.3920467  77.0041589  33.3927308
  75.4721078  76.5149615  32.5127445  75.2703124  77.9916514  33.2191235
  76.2307913  76.8587584  33.9362978  70.9424514  72.7014847  35.4136359
  70.3816971  73.7755492  35.4661527  70.5316593  71.7313989  34.6308235
  70.9972135  70.8357488  34.5966243  69.3967108  71.9491298  33.7577054
  68.8523901  72.8397157  34.0718247  69.8645772  72.1459310  32.3230580
  69.0008571  72.4210013  31.7177291  70.5905402  72.9588920  32.3099416
  70.4636920  70.9641507  31.7882283  70.7445764  71.1284144  30.8850554
  68.4928881  70.7282280  33.8917333  68.0288872  70.4652581  35.0096273
  68.3877375  69.8956785  32.8372170  69.1357370  69.8627299  32.1593449
  67.2530253  68.9599386  32.6757491  66.7935453  68.7165297  33.6337311
  66.1583336  69.4967649  31.6937529  66.1051269  68.8236020  30.8381121
  64.7799922  69.5783290  32.3671756  64.8322967  70.2517206  33.2226922
  64.0478492  69.9552226  31.6530198  64.4804598  68.5859992  32.7043123
  66.5423842  70.8354328  31.0918007  66.1087347  71.6194271  31.7126081
  67.6292945  70.9142407  31.1144901  66.0532557  70.9933739  29.6621067
  64.9663195  70.9151396  29.6386776  66.3551473  71.9685030  29.2798975
  66.4868779  70.2099513  29.0405597  67.5908350  67.6304360  32.0490294
  67.0674073  67.3515256  30.9455429  68.0944676  66.6993526  32.8557213
  68.3450684  66.9064376  33.8119714  68.3532755  65.3103412  32.3346207
  68.9743673  65.3677867  31.4407280  68.9967231  64.3415856  33.3452699
  69.7281036  63.7318932  32.8147437  69.6753979  65.0712446  34.4715396
  68.9445091  65.6808360  35.0028593  70.1150300  64.3495479  35.1600003
  70.4592701  65.7129747  34.0692635  67.9559084  63.3785303  33.8782645
  67.0636404  63.9403710  34.1544774  67.7055097  62.6612397  33.0966673
  68.4708070  62.6562410  35.0641122  68.7210026  63.3728913  35.8463617
  67.7080726  61.9696809  35.4314958  69.3628738  62.0937615  34.7885518
  67.1129862  64.5429790  31.7991697  66.0807662  64.5039493  32.4431452
  67.3199195  63.7556306  30.7412547  68.2504129  63.4072516  30.5598340
  66.2923902  63.5341072  29.7357439  65.4197444  63.0285266  30.1492373
  65.8670994  64.9282629  29.2481706  64.9602229  65.2228914  29.7762505
  66.6643329  65.6367230  29.4731216  65.5159594  65.1166233  27.5312993
  65.2127274  66.4101462  27.5925129  66.7363236  62.4958651  28.6167040
  67.8682294  62.5146681  28.1584020  65.8429528  61.5357135  28.2620202
  64.5150520  61.9302082  27.7195091  64.6330541  62.8376704  27.1273199
  63.8393279  62.1256475  28.5521552  64.0760306  60.7444013  26.8855840
  64.3896634  60.8717456  25.8494773  62.9925125  60.6326308  26.9255506
  64.7583804  59.5730901  27.5237297  64.8904429  58.8254739  26.7415989
  64.2464230  59.1222434  28.3738688  66.1293094  60.1170390  27.9644508
  66.5728123  59.6569393  28.8474637  67.0528371  59.9926648  26.8337658
  66.8699982  60.6574683  25.8282867  68.0010662  59.1066909  26.9414590
  67.9525353  58.3362879  27.5927833  69.1781101  59.2217863  26.0969416
  69.6414550  58.2367072  26.0418957  68.8428592  59.5210453  25.1038906
  70.2169908  60.2354875  26.6004451  71.1368753  60.6272650  25.8592137
  70.0606812  60.6425272  27.8656388  69.1399702  60.5896231  28.2774538
  71.1586373  61.1722993  28.6823144  71.5999435  62.0296915  28.1741543
  70.6697762  61.6246130  30.0856558  69.8367320  62.3195035  29.9795244
  70.3063062  60.6824233  30.4958606  71.7073611  62.2179398  31.0232245
  72.2891907  63.4617787  30.7185263  72.0022557  63.9585984  29.7917373
  73.2156172  64.0607772  31.5735987  73.6552396  65.0253415  31.3197292
  73.5400755  63.4367752  32.8004603  74.5034321  64.0782058  33.5864697
  74.8363142  64.8853915  33.1874204  72.9412064  62.1950186  33.1526381
  73.1882204  61.7039338  34.0938715  72.0237371  61.6032869  32.2728076
  71.5421056  60.6624688  32.5392518  72.1831175  60.0914977  28.8354160
  71.8909729  58.9598256  29.3110826  73.4014365  60.4836177  28.4952503
  73.5449903  61.3373610  27.9750447  74.5119424  59.6551182  28.7364836
  74.1942141  58.6276739  28.9139832  75.3955570  59.6795959  27.5387161
  74.8858181  60.5038876  27.0399087  76.4604873  59.9010631  27.6092540
  75.2192371  58.4490222  26.7234415  74.4591187  58.4717385  25.7607484
  75.6387326  57.3077527  27.2875457  75.5470471  56.4362838  26.7853153
  76.0445982  57.3244748  28.2122588  75.2609456  59.9821681  30.0045765
  75.4076134  61.1617917  30.3555647  75.6732985  58.9323461  30.7273986
  75.3914890  58.0010204  30.4566306  76.4791426  59.0906459  31.9526718
  77.2444265  59.8422456  31.7589251  75.6119013  59.5659171  33.1166008
  74.8463952  58.8194537  33.3284800  76.2344987  59.7079598  33.9999448
  75.1350082  60.5100043  32.8532161  77.1834662  57.8055499  32.3249639
  76.9073679  56.7702728  31.7678452  78.0855988  57.8957579  33.2899045
  78.2355990  58.7907605  33.7332660  78.7973150  56.7277138  33.8219750
  78.9546362  55.9567145  33.0677143  80.1766289  57.0780025  34.4745792
  80.0004973  57.5705997  35.4308348  81.0036830  55.8099694  34.6990130
  81.1806277  55.3170340  33.7430808  81.9586578  56.0740885  35.1532867
  80.4616328  55.1343972  35.3607422  80.9816852  58.1310247  33.6806613
  80.4070064  59.0549098  33.6152181  81.9258961  58.3263042  34.1890228
  81.1808975  57.7557880  32.6768622  77.9876864  56.1769097  34.9565716
  77.3099584  56.9198193  35.6401878  78.1908298  54.9111073  35.2523248
  78.9529845  54.3992411  34.8313585  77.3376649  54.2246589  36.1605848
  76.7631789  54.9404547  36.7485486  76.3563921  53.3266553  35.3820097
  75.4790105  53.9574811  35.2393225  76.8202839  53.1264893  34.4161743
  75.9322499  51.9982121  36.0319944  76.7847722  51.3193754  36.0540709
  75.4492658  52.2486099  37.4471850  74.5964043  52.9270437  37.4258852
  75.1503761  51.3042396  37.9020811  76.2532955  52.6948202  38.0324481
  74.8440201  51.3444263  35.2152760  75.2129452  51.1477481  34.2086423
  74.5515187  50.4050663  35.6844743  73.9806958  52.0077111  35.1621403
  78.1684810  53.4015549  37.0686296  78.6786338  52.3789143  36.6793517
  78.2755149  53.7920669  38.3106272  77.8268665  54.6237300  38.6672086
  79.1134568  53.0161543  39.2168849  79.8201205  52.4156831  38.6440325
  79.8943417  53.9377430  40.1376551  79.2035416  54.5668855  40.6989698
  80.5058400  53.3612706  40.8318090  80.8136174  54.8518499  39.4216761
  82.1436683  54.9618796  39.7535299  82.6002447  54.4644484  40.5046623
  82.7170195  55.8212430  38.9298965  83.7753012  56.0605771  39.0340990
  81.8081061  56.2554900  38.0687346  80.5987406  55.6944560  38.3795255
  79.7095131  55.9664648  37.8108544  78.3067918  52.0762689  40.0301795
  77.7587029  52.4802571  41.0358858  78.3508317  50.8110668  39.6972995
  78.8977251  50.4770727  38.9166235  77.6920572  49.8510623  40.5214382
  77.0795363  50.3397459  41.2791358  76.8283788  48.9533194  39.6825680
  77.4609740  48.3532967  39.0284301  76.0195265  48.0434830  40.5716668
  75.3862939  48.6428164  41.2258201  75.3952689  47.3949466  39.9570093
  76.6913397  47.4338898  41.1759534  75.9450063  49.8179201  38.8135727
  75.5461827  50.6180755  39.4371044  76.5679936  50.2461215  38.0283149
  74.8128371  49.0569785  38.1933052  74.1891013  48.6288417  38.9780041
  74.2138064  49.7309220  37.5808824  75.2109126  48.2568857  37.5692161
  78.7742170  48.9944525  41.0981105  79.5305331  48.3925631  40.3663358
  78.8767168  48.9660904  42.4108536  78.3760139  49.6568874  42.9514045
  79.8654459  48.1464036  43.0880762  80.0927945  48.6151545  44.0455126
  79.4145474  46.7100908  43.3428961  80.2733481  46.1933740  43.7713403
  78.5728670  46.6485319  44.0327400  79.0231507  45.9479686  42.1237799
  79.5176991  44.6950315  41.8546936  80.1854285  44.2060448  42.4335970
  78.9859279  44.2445796  40.7356854  79.2639307  43.2672013  40.3412934
  78.1481919  45.1541685  40.2803607  78.1377130  46.2194472  41.1423128
  77.4828456  47.0693934  40.9503719  81.2316556  48.2579098  42.4531594
  81.6781023  49.3478624  42.1541601  81.8798694  47.1308410  42.2119858
  81.4846913  46.2279195  42.4325906  83.1806655  47.1747158  41.6001571
  83.8461798  47.8139728  42.1802780  83.8188878  45.7979570  41.4706668
  84.8571047  45.9206470  41.1621978  83.7693792  45.0617628  42.7695466
  82.7313864  44.9382743  43.0784497  84.2314364  44.0817867  42.6501770
  84.3091375  45.6272868  43.5291150  83.1455097  45.0519750  40.4565555
  83.5489640  44.1845806  40.3762308  83.0703156  47.7368632  40.2164306
  83.8921460  48.5147848  39.8053433  82.0429518  47.3540317  39.4917287
  81.3626172  46.7028159  39.8566424  81.9110452  47.7854435  38.1162777
  82.8283770  47.5684198  37.5690096  80.7711552  47.0612142  37.4509592
  81.0008018  46.0040710  37.3175057  79.8509352  47.1627759  38.0262682
  80.4089114  47.7007701  35.8177082  79.4073430  46.8645217  35.5599342
  81.7370658  49.2553754  37.8859815  81.2727714  49.9616985  38.7359635
  82.1283947  49.6863134  36.6941178  82.5807375  49.0410455  36.0623625
  82.0228943  51.0547642  36.3026193  81.1312310  51.4639053  36.7776344
  83.2902455  51.8631517  36.7798074  84.0842755  51.1609930  37.0339527
  83.7663028  52.7851621  35.6904331  82.9729163  53.4879631  35.4360531
  84.6413949  53.3354582  36.0361044  84.0299908  52.2010143  34.8087648
  82.9818839  52.7709231  38.0101741  83.4490946  53.7310377  37.7910963
  81.8984135  52.8893038  38.0234916  83.4580696  52.2717914  39.3797144
  84.5415723  52.1536057  39.3673123  83.1807020  52.9946048  40.1469871
  82.9908926  51.3118701  39.5997065  81.8061128  51.1508663  34.7981655
  82.7671834  51.2603972  34.0344723  80.5679300  50.9974976  34.3534979
  79.8007902  50.7867503  34.9757369  80.3103719  51.0154966  32.9249465
  81.2543769  51.1665986  32.4013798  79.6771629  49.7196533  32.4248120
  80.2195348  48.8894330  32.8772126  78.6414231  49.7042335  32.7640835
  79.7166266  49.5838161  30.8959533  78.7213983  49.9074015  30.5911351
  80.4624115  50.2566239  30.4725932  79.9725557  48.1326567  30.3796834
  81.0435301  47.5208535  30.7191309  79.1440418  47.6384108  29.5610530
  79.4877363  52.1765468  32.4978377  78.6868773  52.6690850  33.2252256
  79.7563335  52.6538622  31.3026492  80.4642155  52.2175211  30.7294051
  79.0689884  53.7949303  30.7804449  79.0768390  54.6037237  31.5111232
  79.7580525  54.2790897  29.5108940  80.7572728  54.6106042  29.7933055
  79.8357336  53.4232819  28.8403280  79.0348755  55.4030722  28.8098346
  78.2339741  55.7407460  29.4675838  79.7329256  56.2223886  28.6379454
  78.4473696  54.9556892  27.4886328  79.2555241  54.6439842  26.5781300
  77.1918470  54.9312265  27.3526892  77.6761965  53.3341373  30.5005781
  77.4558132  52.1395550  30.3386198  76.7242869  54.2616369  30.5665975
  76.9953598  55.2250985  30.7020985  75.2817330  53.9359344  30.5416351
  75.0585538  53.1191581  29.8552194  74.7558916  53.5516836  31.9633394
  75.3711088  52.7373940  32.3461440  74.8131828  54.7241509  32.9256201
  74.1977906  55.5387215  32.5436934  74.4387660  54.4130601  33.9008817
  75.8441937  55.0638306  33.0242905  73.3545079  53.0110824  31.8874502
  73.3410370  52.1223330  31.2565420  73.0102501  52.7507488  32.8883561
  72.6951304  53.7678045  31.4623692  74.4398917  55.0904555  29.9489047
  74.9008936  56.2533031  29.8271439  73.2309174  54.7298020  29.5333723
  72.9669544  53.7591686  29.6244428  72.2538968  55.6640448  28.9812129
  72.5701450  56.6942466  29.1448294  72.1419808  55.4209898  27.4784039
  73.1028833  55.7133893  27.0550031  72.0042994  54.3464567  27.3578946
  71.0331493  56.1534646  26.7623038  70.0898373  55.9286700  27.2600293
  71.2338786  57.2226136  26.8310599  70.9421476  55.7431093  25.2818146
  71.9755819  55.2938925  24.7092459  69.8280489  55.8649461  24.6880361
  70.9230317  55.3778456  29.6417833  70.6026763  54.2266876  29.9335792
  70.1643748  56.4064709  29.9564429  70.4852797  57.3630273  29.9104069
  68.8451597  56.1536432  30.4720042  68.7666010  55.1067142  30.7650357
  68.4888226  57.0377032  31.6537795  67.6562437  56.5849649  32.1922410
  69.6739114  57.1923416  32.5917670  70.5067913  57.6454740  32.0541028
  69.3935237  57.8298620  33.4302484  69.9728749  56.2127926  32.9648673
  68.0259341  58.4014859  31.1890076  68.7660626  58.7805678  30.4843037
  67.0718128  58.2716066  30.6782401  67.8584647  59.3947161  32.3325746
  68.8123482  59.5254739  32.8435624  67.5249910  60.3535955  31.9357814
  67.1180996  59.0165112  33.0375004  67.9240091  56.3344681  29.3022089
  67.8581672  57.3931572  28.6871575  67.3291099  55.2183081  28.9288155
  67.1236840  54.5207294  29.6297317  66.9343036  54.9553568  27.5649314
  67.6360266  55.4378172  26.8845521  66.9154948  53.4479344  27.2636327
  66.3721915  53.2691602  26.3357526  68.3141539  52.9515595  27.1236376
  68.8579870  53.1295799  28.0513520  68.3012656  51.8827792  26.9099985
  68.8073538  53.4788597  26.3070539  66.2679712  52.7308823  28.3213620
  66.2651716  51.7928629  28.1171266  65.5587973  55.4591739  27.2909391
  65.3345742  56.0414465  26.2257858  64.5936926  55.0554605  28.1348528
  64.3963939  54.0722532  28.2551691  63.6836826  56.0280275  28.7505833
  64.1739678  56.9761101  28.5295429  62.2688780  56.0443981  28.1221949
  61.7618892  55.1050334  28.3427771  61.6954313  56.8726397  28.5384582
  62.3517891  56.1670624  27.0422975  63.6215037  55.9064312  30.2640460
  64.1208513  54.9422711  30.8908474  63.2543982  57.0551419  30.8143388
  63.5132944  57.9007741  30.3265086  62.5977973  57.1769830  32.0930362
  62.8921687  56.3575273  32.7487320  63.0022358  58.5019771  32.7523791
  62.2693008  58.6484850  33.5457523  63.9878969  58.3505998  33.1924441
  63.0310792  59.7399955  31.8488668  63.8885211  59.6311222  31.1847578
  61.7624267  59.9402917  31.0151983  60.9045637  60.0497122  31.6786718
  61.8659211  60.8375244  30.4049826  61.6124123  59.0764224  30.3676446
  63.2405593  60.9419403  32.7084898  64.1859574  60.8469632  33.2426258
  63.2643646  61.8356021  32.0848688  62.4245628  61.0223163  33.4266738
  61.0493391  57.0430076  31.9551668  60.4607945  57.2931936  30.8622046
  60.4416501  56.6981355  33.1066576  60.8201743  57.1117973  33.9467188
  59.2152810  55.8513016  33.2241319  58.8679285  55.5384922  32.2394514
  59.3974550  54.5893093  34.1395558  59.6294738  54.8977241  35.1589419
  58.1017606  53.8023724  34.1325980  57.8693061  53.4931943  33.1135423
  58.2084044  52.9202754  34.7639715  57.2946208  54.4270226  34.5152686
  60.5873755  53.7255246  33.7331995  61.1890425  54.3226581  33.0479775
  61.1579333  53.5302963  34.6411913  60.2228059  52.4031190  33.0684007
  59.6525909  52.5975649  32.1600255  61.1332839  51.8596419  32.8158900
  59.6214793  51.8052037  33.7532390  58.1037852  56.6285876  33.9292148
  57.1464659  57.0686925  33.3184756  58.2499316  56.7428211  35.2348556
  59.1043976  56.4269752  35.6710075  57.2776286  57.3338261  36.0384157
  56.5768074  57.8980695  35.4231286  56.5205757  56.2819655  36.7819022
  56.5275153  55.3261279  36.2580457  56.9002847  56.1436498  37.7942213
  54.8007691  56.7396833  36.9556443  54.4338361  55.6502235  37.6244759
  57.9755995  58.1777641  37.0133118  58.6793330  57.6816673  37.8650513
  57.6850069  59.4547481  36.9691110  57.2074076  59.8327384  36.1634302
  58.0489588  60.3625423  38.0421230  59.1249782  60.5346588  38.0677621
  57.3561893  61.6774807  37.7753863  57.1896928  61.6503708  36.6985190
  56.4028031  61.8106574  38.2866774  58.2699936  62.8239141  38.1124473
  58.7966884  62.5798638  39.0350160  59.3000591  63.0965204  36.9863688
  58.7740839  63.3411112  36.0635339  59.9390067  63.9320748  37.2721932
  59.9123498  62.2083145  36.8305134  57.3831707  64.0144453  38.4944194
  56.7685197  63.7490944  39.3545895  58.0105695  64.8693290  38.7467010
  56.7389238  64.2726788  37.6539670  57.6363634  59.8170735  39.4335272
  56.8592506  58.9125181  39.4773132  58.2020902  60.3107343  40.5469670
  59.1182126  60.7335514  40.5017480  57.5839583  60.1128025  41.8808325
  56.5062778  60.2602161  41.9513538  57.9417165  58.7506768  42.5319827
  57.0230177  58.1720828  42.6285266  58.9485324  57.9663883  41.7164503
  59.8677273  58.5441874  41.6198588  59.1645019  57.0218328  42.2157223
  58.5389875  57.7679032  40.7260068  58.2939695  58.8608821  44.0293129
  57.4431838  59.2701377  44.5740840  58.5336183  57.8721057  44.4204516
  59.1544348  59.5184111  44.1532314  57.8224352  61.2124026  42.8847320
  58.9682745  61.6315707  43.0979750  56.7421033  61.6452837  43.5439884
  55.8370741  61.2539702  43.3251386  56.8062328  62.7575397  44.4952307
  57.5697772  63.4639512  44.1695284  55.4587930  63.5003055  44.5963394
  55.3949087  64.2808811  43.8382367  54.7137266  62.7320090  44.3897080
  55.1899010  64.1212466  46.0081904  56.0995375  64.7743669  46.6033033
  54.0181394  64.0142381  46.4908091  57.2966185  62.2569456  45.8525554
  57.0166592  61.1151901  46.3047095  58.1213937  63.1098471  46.4478158
  58.2044920  64.0481011  46.0832976  58.9635229  62.7293883  47.5649615
  59.3378979  61.7159116  47.4207134  60.1716253  63.6923109  47.6748057
  59.7781496  64.7086023  47.6541211  60.6466568  63.5067064  48.6381312
  61.1885208  63.5243199  46.5720856  61.4028614  62.4631744  46.4450854
  60.7772572  63.9248239  45.6455000  62.4644350  64.2581031  46.9151587
  62.2096326  65.3005640  47.1060774  62.8728962  63.8124690  47.8221698
  63.5099323  64.1844000  45.7936310  63.4026823  63.1998795  45.3383098
  63.2368409  64.9511371  45.0686245  64.9441205  64.3864490  46.2237339
  65.1975066  63.6758147  46.8952203  65.5497355  64.3197529  45.4182017
  65.0438083  65.2988396  46.6452844  58.1489163  62.7115241  48.8566448
  58.2624562  61.8112571  49.6681354  57.3123740  63.7067300  49.0296745
  57.2393224  64.4640885  48.3654676  56.5195113  63.7653034  50.2089590
  57.1521867  63.9044903  51.0855708  55.5646739  64.9342403  50.1115266
  55.2161527  64.9793015  49.0797312  54.7231952  64.7174843  50.7695771
  56.1786516  66.2711825  50.4977751  56.7120804  66.1592571  51.4417175
  56.8774909  66.5805375  49.7205845  55.0851940  67.3323083  50.6524184
  55.1560670  68.0102493  49.8018469  54.1215578  66.8233264  50.6313879
  55.2119786  68.1297885  51.9515796  56.0764738  67.7440142  52.4918822
  55.3873095  69.1714996  51.6828861  53.9885397  68.0362420  52.8287338
  53.8261475  67.0710964  53.0781779  54.1328212  68.5809356  53.6669413
  53.1874450  68.3940553  52.3284179  55.7444652  62.4482054  50.4403465
  55.7842707  61.8850452  51.5311491  55.0975895  61.9356122  49.3875155
  55.1903908  62.3800096  48.4852970  54.1488751  60.8188071  49.5207495
  53.7752378  60.7875227  50.5442316  52.9322839  60.9700466  48.5488166
  52.4949957  59.9797283  48.4217424  52.2099559  61.6259870  49.0347018
  53.2751381  61.5033281  47.2759899  52.4859330  61.5687341  46.7333323
  54.8308374  59.4536282  49.3532891  54.9610999  58.7043355  50.3225013
  55.3348245  59.1817064  48.1378198  55.6855280  59.9479076  47.5810056
  55.4028963  57.8025565  47.5676123  56.4474493  57.5255100  47.4252977
  54.9338442  57.1050476  48.2615654  54.6768305  57.7269360  46.2154473
  54.6547569  56.6639427  45.5162715  54.0523613  58.8515880  45.8652231
  54.2926498  59.7342504  46.2933212  53.0249787  58.8369336  44.8795678
  52.3655847  57.9905366  45.0716897  52.1826451  60.1297500  44.8866234
  51.5492473  60.1051987  45.7733610  52.8718016  60.9713681  44.9562104
  51.3042078  60.2889161  43.6335906  51.9543912  60.6538305  42.8384806
  50.9456252  59.2913382  43.3799058  50.1164383  61.2306326  43.7903953
  49.5220166  61.5419757  42.7328064  49.7715481  61.6544345  44.9404613
  53.7272409  58.6874491  43.5839918  54.3207172  59.6335808  43.0939379
  53.6886814  57.4978009  43.0154787  53.4495514  56.6565249  43.5206232
  54.0368152  57.3821831  41.6201822  55.0915207  57.6191619  41.4804084
  53.7902842  55.9771853  41.1335924  53.1821509  55.4744974  41.8856416
  53.2289270  56.0493634  40.2020515  55.0591150  55.1838541  40.8979594
  54.8602757  54.4567570  40.1106262  55.8323557  55.8763939  40.5654096
  55.5360147  54.4529459  42.1601864  55.8509891  55.1919763  42.8968845
  54.7081227  53.8693369  42.5627965  56.7149671  53.5158609  41.8370393
  57.5633267  54.1513988  41.5831136  56.9370474  52.9614710  42.7488678
  56.4574699  52.5454188  40.7081379  56.2520881  53.0589323  39.8630214
  57.2765225  51.9724608  40.5633210  55.6716650  51.9561357  40.9434147
  53.2436231  58.3532736  40.7724567  52.3455527  59.0122647  41.2443659
  53.6301126  58.4956968  39.5274822  54.2817176  57.8682564  39.0782285
  53.1115505  59.5724691  38.7761243  52.5969350  60.2635727  39.4436914
  54.1960859  60.3141447  38.0647999  54.9132514  60.7135110  38.7819328
  54.7103746  59.6532301  37.3670900  53.6015908  61.3765777  37.3538593
  54.2808481  61.8691067  36.8873568  52.1640147  59.0948308  37.7659033
  52.1671698  57.9406619  37.3795717  51.4569683  60.0404565  37.1952418
  51.7840071  60.9960330  37.1995508  50.2132328  59.7468171  36.5283416
  49.7217011  58.8910238  36.9910658  49.2945233  60.9592021  36.6462462
  49.7177252  61.7571870  36.0361484  48.3195218  60.6769724  36.2489823
  49.1345142  61.4519348  38.0958877  48.2127608  62.0316510  38.1448836
  49.0439887  60.5719980  38.7327695  50.3009465  62.3100931  38.5773461
  50.9330112  61.7148486  39.2363433  50.8822102  62.6372794  37.7152666
  49.7884684  63.5191399  39.3276674  48.8249736  63.2843700  39.7800627
  50.4993000  63.7904326  40.1081915  49.6282125  64.6626250  38.3818357
  48.9692520  64.4115995  37.6587472  49.2859710  65.4693926  38.8839282
  50.5209792  64.8806055  37.9628475  50.5507434  59.4946984  35.1250043
  50.5174182  58.3656403  34.6474990  51.1416811  60.5228805  34.5633174
  51.1218511  61.4206415  35.0256283  51.7362598  60.4414398  33.2743218
  51.2417451  59.6979577  32.6491909  51.6432123  61.8286276  32.5671972
  52.6075563  62.0643254  32.1170998  50.5277393  61.7988880  31.4407531
  49.5629644  61.5636935  31.8901891  50.4741616  62.7736529  30.9559211
  50.7781697  61.0388419  30.7006753  51.3453430  62.8557179  33.5376910
  51.2894566  63.7064270  33.0963623  53.2043868  59.9299950  33.3569500
  53.7712436  59.7303227  34.4422303  53.7437374  59.6180729  32.1774724
  53.1107530  59.4884485  31.4011814  55.1955619  59.5597413  31.9142197
  55.6558727  58.8089594  32.5565123  55.4677149  59.1831709  30.4416208
  54.4868632  59.0413381  29.9878450  55.9496239  60.0549166  29.9989888
  56.3219663  57.9530670  30.1941779  57.3558869  58.1954392  30.4398703
  55.9721343  57.1527397  30.8462483  56.2373963  57.4916785  28.7223632
  55.2964479  57.8417596  28.2979126  57.0693586  57.9274735  28.1691716
  56.2977503  56.0468432  28.5915493  55.6458361  55.6199120  27.9490254
  57.1216441  55.2503939  29.2922958  58.0472685  55.7497233  30.1130982
  58.1387810  56.7501755  30.2171213  58.6522732  55.1250084  30.6267130
  57.0574089  53.9272472  29.1418244  56.3880668  53.5269567  28.5000699
  57.6783814  53.3312363  29.6702779  55.7136757  60.9171977  32.0799908
  54.9905847  61.8686400  31.8037606  57.0117134  61.0185408  32.3625729
  57.8578316  60.0881241  33.1322890  58.6348232  59.6685113  32.4932981
  57.2522244  59.2811305  33.5447211  58.4107651  60.9881733  34.1953026
  59.4576484  60.7300758  34.3550525  57.8510736  60.8196833  35.1153341
  58.2587816  62.4284096  33.7223475  59.2732322  62.8097921  33.6060014
  57.6948830  63.0915348  34.3783833  57.5780600  62.3418344  32.3601879
  56.7869997  63.0761525  32.2082053  58.5783315  62.4532507  31.2570028
  59.3262673  61.5097427  31.0125222  58.5371746  63.5736121  30.5458723
  57.7808156  64.2244910  30.7020037  59.4782135  63.8470410  29.4452219
  59.4243663  62.9854047  28.7798027  59.0075226  65.1032105  28.6681928
  57.9780200  64.9627394  28.3388122  59.0644485  65.9759609  29.3187050
  59.9049780  65.3155104  27.4536447  60.9346448  65.4565238  27.7822818
  59.8482153  64.4433044  26.8023870  59.4419564  66.5512180  26.6892739
  58.4124534  66.4107488  26.3598945  59.4988845  67.4239677  27.3397864
  60.2916719  66.7891954  25.5011024  61.0526500  66.1510782  25.3172049
  60.0989646  67.8049611  24.6644517  59.1185838  68.6863986  24.8400130
  58.4946313  68.5927036  25.6286857  59.0025404  69.4454038  24.1838540
  60.9228984  67.9245497  23.6272764  61.6663727  67.2534778  23.4968596
  60.8013337  68.6858877  22.9748308  61.0106185  63.9701269  29.9170056
  61.9374955  63.8996487  29.0836234  61.2382563  64.0463059  31.2432619
  60.4726095  63.8594673  31.8749071  62.5521802  64.3349524  31.8136444
  63.2432620  63.5134506  31.6248591  63.0875118  65.5606084  31.1746465
  64.0590967  65.8357100  31.5850623  63.1809633  65.3940007  30.1015161
  62.2196576  66.7211079  31.3428166  62.2331095  67.4373999  32.5289594
  62.8625442  67.0910920  33.3487050  61.4735186  68.5612239  32.6796089
  61.5016066  69.1241897  33.6125512  60.6777809  68.9780671  31.6568136
  60.0595535  69.8689378  31.7674672  60.6564838  68.2617333  30.4679413
  60.0318028  68.6085563  29.6447841  61.4133811  67.1254229  30.3237600
  61.3662551  66.5531079  29.3972965  62.5286388  64.6277663  33.3097192
  61.5386152  65.0291614  33.8535024  63.6602652  64.5886521  33.9441763
  64.5468248  64.4848153  33.4715990  63.6661134  64.7880647  35.3443843
  63.1360400  65.4022835  36.0722969  64.1631717  63.5005558  36.0508684
  63.3982469  63.2750861  36.7939382  64.4159691  62.3019714  35.2257441
  65.1811718  62.5265451  34.4826880  64.7576638  61.4866883  35.8634420
  63.4959037  62.0068496  34.7212796  64.7749941  63.5991149  37.4060785
  64.0520061  64.0253616  38.1015669  65.0646988  62.6053835  37.7476467
  65.6564351  64.2387976  37.3617093  64.6742266  65.8635875  35.5917151
  65.8341182  65.6364465  35.2413960  64.3135193  66.9355560  36.3361926
  63.3304926  67.0918352  36.5074664  65.3097453  67.9514154  36.8743360
  66.1579910  68.0247505  36.1937477  64.6708970  69.3303332  37.0074245
  64.1295678  69.3304685  37.9535016  65.4903232  70.0473166  37.0581758
  63.7261630  69.7204064  35.8838896  64.2642941  70.3798813  35.2030015
  63.4356228  68.8123475  35.3555738  62.4529395  70.4445749  36.4087236
  61.6332546  70.1772901  35.7418094  62.2503176  70.0556529  37.4066131
  62.5835508  71.9800716  36.4725018  61.6995680  72.3631822  36.9823068
  63.4707047  72.2091795  37.0628973  62.7014803  72.6274762  35.1179085
  61.8793265  72.4156591  34.5708286  62.7834256  73.6280026  35.2289576
  63.5207745  72.2729311  34.6455168  65.9496871  67.5857961  38.2525603
  65.9367807  66.4431743  38.7013920  66.5285838  68.5669369  38.9198580
  66.4890305  69.5294775  38.6164597  67.3191214  68.2452921  40.1180792
  68.0239405  67.4481704  39.8815921  68.1197994  69.4848077  40.6238979
  68.3942746  70.0375857  39.7254553  67.4084364  70.0699185  41.2067427
  69.3888460  69.2182939  41.4743020  69.1584692  68.9404224  42.5028032
  69.9070630  68.3945840  40.9833282  70.3248215  70.4504782  41.4927893
  71.0336321  70.7314279  40.5231483  70.2530761  71.2172554  42.5504383
  70.8406553  72.0359962  42.6176360  69.6104449  70.9868712  43.2947834
  66.3956611  67.7325454  41.1641772  65.1980286  67.7974194  41.0066536
  66.9442775  67.3653219  42.3015236  67.8735801  66.9715674  42.3396492
  66.1993412  67.5249284  43.5660922  66.7713399  67.0960693  44.3888902
  65.9511874  69.0388300  43.8659713  66.2521926  69.5351743  42.9434002
  64.8967609  69.2377254  44.0576101  66.8021823  69.5801851  45.0457240
  66.6939200  68.9753148  46.1480231  67.4951644  70.6601059  44.8856838
  64.8326052  66.8289878  43.5182959  63.9510557  67.1796296  44.3456959
  64.7565987  65.7554837  42.6768043  65.6468850  65.3252747  42.4708677
  63.5099034  65.1513361  42.0678688  62.6529105  65.3054198  42.7235520
  63.2299757  65.8203199  40.7419988  63.1685507  66.8859530  40.9627981
  64.1101429  65.6270022  40.1287826  61.9798062  65.3854961  39.9869421
  62.0486950  64.3455422  39.6678008  61.1236856  65.5053111  40.6508727
  61.7662579  66.2665690  38.7465705  62.6412135  67.0355907  38.3917550
  60.6524172  66.1331415  38.0775585  60.4878281  66.7006287  37.2584308
  59.9609216  65.4631025  38.3824896  63.7236897  63.6528909  41.8130449
  64.8229615  63.2369360  41.6471888  62.6903463  62.8356083  41.8057400
  61.7454751  63.1817348  41.8924255  62.8934165  61.3678815  41.6501258
  63.9497189  61.1464087  41.4975673  62.3900889  60.5569286  42.8590475
  61.3031307  60.6266919  42.9009296  62.8024161  59.0879580  42.7394744
  63.8893364  59.0173515  42.6980021  62.4356946  58.5355303  43.6045984
  62.3763044  58.6632680  41.8305361  62.9137644  61.1287270  44.1559081
  62.5742274  62.1589767  44.2626896  62.5418964  60.5357103  44.9914588
  64.0034835  61.1045738  44.1504483  62.1354276  60.8601017  40.4425056
  61.1248091  61.4381178  40.0821395  62.6357842  59.8023024  39.7935858
  63.5036533  59.4005664  40.1184100  61.9507802  59.1623670  38.6321078
  60.8823591  59.3708237  38.6879770  62.4832241  59.6899128  37.2962112
  61.9626511  59.2140077  36.4651773  62.3525974  60.7703355  37.2351905
  64.3008326  59.3719674  37.0183707  64.3615325  59.9489003  35.8215574
  62.2471576  57.7007000  38.7108737  63.0044160  57.2637701  39.5881153
  61.6242981  56.9348147  37.8281082  60.8867124  57.3174533  37.2539528
  61.9836414  55.5092274  37.6513285  62.8865547  55.2962068  38.2235775
  60.8646962  54.5103491  38.0588228  60.6751396  53.8196811  37.2371498
  61.3112260  53.7249622  39.2912044  61.5005381  54.4149645  40.1134929
  60.5281128  53.0235748  39.5791110  62.2239995  53.1753188  39.0613442
  59.5758199  55.2863374  38.3127699  59.8497014  56.1094504  38.9727508
  59.2723756  55.6835194  37.3441278  58.4355471  54.5177409  38.9179924
  58.7381062  54.1206150  39.8869345  57.5793126  55.1795146  39.0484423
  58.1607819  53.6946821  38.2583120  62.2720911  55.3555066  36.2043120
  61.6934367  56.0684799  35.3967743  63.3256818  54.6242481  35.8906490
  63.8115646  54.0451864  36.5605033  63.8277288  54.6932724  34.5850355
  63.0160181  54.7597008  33.8605963  64.6856978  55.9024259  34.4503577
  65.5083423  55.8460871  35.1632265  65.0859247  55.9536342  33.4377885
  64.0919003  56.7941216  34.6513114  64.5703249  53.4724054  34.2795512
  64.9876176  52.7560023  35.2014246  64.6014212  53.1663675  32.9803242
  64.1048549  53.7592723  32.3307203  65.2825444  52.0068902  32.4633325
  65.5512304  51.3430564  33.2850574  64.3923923  51.2447138  31.4940403
  63.4243019  51.1151834  31.9779021  64.2741647  51.8665163  30.6066374
  64.9505218  49.8671162  31.0851463  65.9284508  50.0488783  30.6393680
  65.0718767  49.2962737  32.0057515  64.0691416  49.0625449  30.0894586
  64.6387771  48.9284588  29.1698744  63.8638257  48.0888610  30.5343007
  62.7902385  49.7096679  29.7612886  62.8486887  50.5733315  29.2409348
  61.5881071  49.2642447  30.1198585  61.4677021  48.1058994  30.7639741
  62.2920355  47.5640769  30.9807755  60.5525447  47.7739529  31.0330430
  60.4935542  49.9688339  29.8020629  60.5851732  50.8354517  29.2914949
  59.5819029  49.6300922  30.0745415  66.5680562  52.4109441  31.7627827
  66.6693591  53.5023274  31.1980473  67.5490283  51.5111386  31.7952591
  67.3145212  50.5331393  31.8881201  68.9567188  51.8774062  31.6864268
  69.0650249  52.8305612  31.1688705  69.5480293  52.0150587  33.0974309
  68.8735013  51.4484588  33.7393622  70.5124495  51.5094879  33.0485229
  69.7371796  53.4154862  33.6698844  70.1769370  54.0532125  32.9030601
  68.4367936  53.9867505  34.1022063  67.9966161  53.3497725  34.8694101
  68.5951349  54.9861847  34.5073730  67.7625674  54.0442948  33.2476841
  70.6643318  53.4013597  34.8740975  71.6393479  53.0142921  34.5780878
  70.7777400  54.4152335  35.2578941  70.2417856  52.7644074  35.6511724
  69.7172284  50.7628660  30.9200469  69.6576076  49.6021114  31.3304994
  70.4121941  51.1117849  29.8154966  70.2696490  52.0340264  29.4291667
  71.3136164  50.1588674  29.0750338  71.2283054  49.1702656  29.5261300
  70.9492820  50.0506279  27.5713651  70.9457327  51.0623634  27.1658064
  71.7351592  49.4692301  27.0892098  69.5840704  49.3868540  27.3069286
  69.3279991  48.8355642  28.2116982  68.8695371  50.1969881  27.1612344
  69.5360472  48.4396006  26.1002265  69.8654282  47.4529988  26.4261467
  68.5049101  48.3810740  25.7517579  70.3860196  48.8745675  24.9840726
  71.2051162  48.3135596  24.7984650  70.1669504  49.9518413  24.2269895
  69.1104887  50.7373017  24.4311996  68.4586559  50.5194865  25.1713149
  68.9662174  51.5470035  23.8449673  71.0045252  50.2320347  23.2382382
  71.7977824  49.6308248  23.0668037  70.8454908  51.0454105  22.6609804
  72.7958580  50.5091222  29.2211245  73.2637931  51.5551221  28.7760348
  73.5309653  49.5791965  29.7900263  73.0834338  48.7493284  30.1521505
  74.9721479  49.6822168  29.8919548  75.2698460  50.7021452  30.1353090
  75.5118767  48.7337851  30.9904808  76.4987551  49.0776288  31.3002271
  74.5926941  48.7198513  32.1760112  73.6056744  48.3756475  31.8671173
  74.9898524  48.0474831  32.9364620  74.5137498  49.7262865  32.5870544
  75.6499910  47.3940404  30.4777386  75.9850516  46.8194530  31.1699698
  75.6066350  49.2653997  28.5662989  75.5114916  48.1035408  28.1702590
  76.3410807  50.1663474  27.9252781  76.5045076  51.0808898  28.3215143
  76.8387289  49.8950361  26.5613182  75.9452272  49.6925450  25.9707666
  77.5442941  51.1217196  25.9763341  78.4460101  51.3316085  26.5516208
  77.8134678  50.9260997  24.9383656  76.8763609  51.9818811  26.0220158
  77.7528832  48.6572184  26.4598278  78.3511323  48.4123952  25.3895734
  77.8637883  47.8926244  27.5526934  77.6517451  48.2782840  28.4617609
  78.2883400  46.4953890  27.4741890  78.3259564  46.2153948  26.4214367
  79.2872797  46.4241682  27.9044755  77.3631641  45.5362856  28.2089162
  76.2789445  45.1853529  27.6969745  77.8410517  45.0383152  29.3573847
  78.7287785  45.3757609  29.7011447  77.1390644  44.0109609  30.1349333
  76.0647608  44.1949232  30.1235766  77.4030478  42.5847229  29.5892687
  77.9913402  42.6833052  28.6769673  78.1621260  41.6745788  30.6004285
  77.5741929  41.5751432  31.5128686  78.3162681  40.6899448  30.1590271
  79.1277742  42.1209469  30.8378725  76.1555494  41.9834891  29.2566462
  76.3073131  41.0984488  28.9171291  77.5926370  44.0755011  31.5516716
  78.7651926  44.3241866  31.8354549  76.6842820  43.7832584  32.4436242
  75.7877944  43.4074630  32.1694216  76.9176298  44.0332977  33.8277424
  77.9394675  44.3837803  33.9730307  75.9291383  45.1203101  34.3005571
  74.9456332  44.8781671  33.8978353  75.8477256  45.2126452  35.8026421
  76.8308256  45.4552339  36.2060843  75.1387129  45.9922067  36.0813635
  75.5146755  44.2573698  36.2083831  76.3436857  46.4897845  33.7965942
  76.2117503  46.4952354  32.7146219  75.6739623  47.2221055  34.2474556
  77.7791164  46.8442371  34.1321265  78.4495034  46.1125720  33.6811860
  78.0095742  47.8358866  33.7427429  77.9117158  46.8394398  35.2140204
  76.7399745  42.7149926  34.5509354  76.5861551  41.6877645  33.9038164
  76.8571198  42.7147957  35.8768400  77.5748731  43.2674976  36.3234384
  76.0716789  41.7800513  36.7107527  75.2467628  41.3688352  36.1289331
  76.9480076  40.6323543  37.1903281  76.8296506  40.4550553  38.2592790
  76.7400424  39.7119613  36.6446842  78.6966017  40.9817859  36.9324613
  79.1433136  39.8345565  37.4356625  75.2682449  42.4303976  37.8952313
  75.7801161  42.5996541  39.0266544  73.9787105  42.6956319  37.6148304
  73.6300494  42.4134466  36.7098960  73.0574131  43.3411948  38.5387685
  73.5382649  44.1851771  39.0333134  71.8642671  43.8519969  37.7617564
  71.5633261  42.9986328  37.1540529  71.0469081  44.1297486  38.4272474
  72.1994851  45.0215217  36.8587095  73.2788143  45.0733900  36.7156744
  71.5156348  44.8319590  35.5063886  70.4361762  44.7804618  35.6485716
  71.7562037  45.6728882  34.8559537  71.8657511  43.9070384  35.0480866
  71.8225770  46.3492072  37.5333564  72.3763176  46.4532686  38.4664385
  72.0706071  47.1777282  36.8699296  70.7529963  46.3600052  37.7430690
  72.5279196  42.4124386  39.6012159  72.4958274  41.2020421  39.4053550
  72.0734087  43.0108554  40.7083058  72.5405636  43.8484171  41.0250959
  70.9400436  42.5078386  41.4922087  70.4569338  41.6921019  40.9543633
  71.4050554  41.9884410  42.8516774  71.8883299  42.8221343  43.3610894
  70.5107893  41.6961524  43.4020914  72.3685959  40.8071407  42.7832292
  73.1610919  41.0887797  42.0898820  72.7887111  40.6756410  43.7803802
  71.7317454  39.4982736  42.3230711  70.5060438  39.2859483  42.5743527
  72.4980542  38.6892308  41.7090022  69.9253003  43.6144260  41.7108076
  70.2564898  44.7829309  41.6550598  68.6922778  43.2425150  42.0229482
  68.4234528  42.2700327  41.9770061  67.6744609  44.2298141  42.4159801
  67.8007916  45.1290899  41.8131179  66.2364777  43.7018663  42.2194080
  65.5405282  44.5376405  42.2917687  66.0884975  43.0296955  40.8444228
  66.7838545  42.1934785  40.7714884  65.0683209  42.6646415  40.7257875
  66.3082693  43.7537976  40.0598993  65.9256460  42.7478136  43.2322460
  65.0309583  42.4244557  43.1035062  67.8865799  44.5843654  43.8609801
  68.2795034  43.7479657  44.6477352  67.6137552  45.8249535  44.1766079
  67.1809307  46.4510654  43.5127208  67.7952535  46.2766651  45.5040611
  68.8424608  46.1802995  45.7907137  67.3963662  47.7255411  45.6171862
  67.7831468  48.2592344  44.7490436  66.3127292  47.8359159  45.6577834
  67.9418222  48.4182759  46.8224771  68.5491775  47.7246841  47.8304310
  68.6444522  46.6417579  47.7510999  69.0342972  48.3738490  48.9288051
  69.5324921  47.8109231  49.7181194  68.8956403  49.7286965  49.0391289
  69.2790554  50.2485154  49.9171273  68.2758937  50.4306727  48.0476115
  68.1560805  51.5109528  48.1297087  67.8043360  49.7730892  46.9477551
  67.3088429  50.3285526  46.1514845  66.7427457  45.4107304  46.0834655
  66.0195572  44.7892375  45.3300559  66.6930990  45.2907503  47.3974780
  67.3360266  45.7991500  47.9876249  65.7032986  44.4419717  48.0308587
  65.6302888  44.6029674  49.1064279  64.3199927  44.6345719  47.4136490
  63.9739348  45.6501240  47.6059953  64.3751006  44.4676844  46.3379112
  63.3441378  43.6395575  48.0327433  63.6893111  42.6237031  47.8403995
  63.2881424  43.8061432  49.1084829  61.9625991  43.8319097  47.4163211
  61.6165410  44.8474620  47.6086652  62.0177079  43.6650202  46.3405839
  60.9867442  42.8368960  48.0354178  61.3319172  41.8210414  47.8430753
  60.9307480  43.0034848  49.1111555  59.6550325  43.0223099  47.4412254
  59.7066148  42.8675675  46.4444838  59.0087278  42.3633185  47.8512504
  59.3348211  43.9634301  47.6197096  66.1534092  43.0388967  47.8071695
  66.3703020  42.3056715  48.7531860  66.3248218  42.6557527  46.5538880
  66.1505303  43.2703114  45.7715586  66.7963997  41.3138394  46.2811132
  66.1125749  40.5903790  46.7250590  66.8731480  41.0557660  44.7898464
  65.9711832  41.4554194  44.3263427  67.7444828  41.5843684  44.4032521
  66.9932543  39.5939987  44.4714240  67.2692719  38.8073039  45.3945002
  66.8071912  39.2261726  43.2990591  68.1739804  41.2537525  46.8947954
  68.5557670  40.2793578  47.5167343  68.9028589  42.3414159  46.7102297
  68.4893807  43.0975632  46.1835645  70.2354181  42.5266761  47.2469519
  70.3126793  41.9979271  48.1969805  71.2993676  42.0009938  46.3145279
  70.8917360  41.7658547  45.3313467  72.0908572  42.7432499  46.2110862
  71.9386018  40.7693965  46.8115367  72.5495199  40.7652789  48.0386582
  72.5659401  41.6818378  48.6283617  73.1358767  39.6253174  48.5265090
  73.6206686  39.6329096  49.5027364  73.1109155  38.4712286  47.7806075
  73.5766159  37.5620990  48.1610105  72.4958087  38.4658906  46.5506494
  72.4728740  37.5546476  45.9529786  71.9085925  39.6147229  46.0753910
  71.4132555  39.6121401  45.1044459  70.3723833  44.0078328  47.3739028
  69.6196358  44.7223210  46.7263784  71.3339287  44.4765043  48.2502009
  72.2820822  43.9813323  49.3259494  73.2985404  43.9318700  48.9354799
  71.9764431  42.9926757  49.6683552  72.1230430  45.0302695  50.3894748
  73.1147452  45.3665572  50.6920248  71.6161619  44.5808163  51.2433862
  71.3186611  46.1491273  49.8218826  71.7824954  47.1013022  50.0794086
  70.2754164  46.1565990  50.1376108  71.4042873  45.9227713  48.3295253
  70.5806333  46.3173611  47.7345536  72.7059455  46.5058153  47.8348198
  72.7098283  47.3620013  46.9704353  73.8143043  46.0213998  48.3561292
  73.7798215  45.2980797  49.0602019  75.1069523  46.5794318  48.0060446
  75.1068793  47.6535247  48.1915806  76.2068830  45.9432001  48.8382138
  77.0915356  45.8904812  48.2036197  76.3992485  46.6163731  49.6736381
  75.8833500  44.5640750  49.3668596  75.0458035  44.1600115  48.7982215
  76.7519325  43.9173879  49.2425121  75.5071926  44.5897973  50.8253976
  75.5902457  45.6225375  51.4757958  75.0990483  43.4512928  51.3491826
  74.8346709  43.4131083  52.3232196  75.0525497  42.6223055  50.7741006
  75.4504698  46.4752957  46.5458030  76.2620901  47.2208744  46.0333961
  74.8437575  45.5238712  45.8836265  74.1798306  44.9266764  46.3554939
  75.1141119  45.2774162  44.4907757  76.0344926  45.7783823  44.1907230
  75.2735742  43.8104549  44.2637488  74.3142791  43.4210856  43.9228035
  76.0192655  43.6748909  43.4803798  75.7096373  43.0604225  45.5139493
  76.4407691  43.6753000  46.0388042  74.8330381  42.9198026  46.1463273
  76.4379436  41.4586343  45.1491281  76.0585159  41.2289015  43.3891771
  76.5098352  42.0354639  42.8113649  76.4594210  40.2729238  43.0523054
  74.9780969  41.2401532  43.2454086  74.0244410  45.7924668  43.5866422
  74.1162855  45.6741556  42.3612618  73.0148905  46.4119411  44.1832093
  72.9417942  46.4057949  45.1905417  71.9834453  47.1177002  43.4154504
  72.2656789  47.0224201  42.3669443  71.0518170  46.5797019  43.5907387
  71.7727873  48.5974246  43.7418057  70.7959626  49.1940277  43.3030719
  72.5716235  49.1465417  44.6437991  73.1570280  48.5883148  45.2485997
  72.5955593  50.5748441  44.8011439  71.6582101  50.9757791  44.4154931
  72.7631811  51.0342492  46.2669201  72.3629431  52.0469762  46.3148041
  72.1408377  50.3694719  46.8659692  74.2013728  51.0245620  46.8169926
  74.8627886  50.6658573  46.0283477  74.4704013  52.0479313  47.0786048
  74.3454414  50.1260023  48.0532680  73.8217125  49.1953788  47.8347571
  75.4090043  49.9229749  48.1786207  73.8240929  50.6739160  49.3004870
  73.3754793  51.5781900  49.2668176  73.9004706  50.0444499  50.4744039
  73.4077327  50.6222436  51.5755455  72.9787931  51.5346010  51.5145962
  73.4668645  50.1435331  52.4629233  74.4611211  48.8309351  50.5558521
  74.8277765  48.3905594  49.7241471  74.5147236  48.3616685  51.4486087
  73.7316442  50.9738466  43.9622898  74.5805687  50.1749023  43.6561360
  73.6163040  52.1443924  43.4126907  72.8602369  52.7654463  43.6631977
  74.5614566  52.5903278  42.4716008  75.5754788  52.3701165  42.8053152
  74.3141664  51.8670323  41.1725484  75.1952470  51.9192454  40.5329627
  74.0723576  50.8231779  41.3725400  73.1879098  52.4196275  40.3876537
  73.3484888  53.5234652  39.6131464  74.3075581  54.0403688  39.5800290
  72.2955035  53.9862303  38.8707238  72.4570751  54.8460205  38.2205268
  71.0475119  53.3888215  38.9314829  70.2119522  53.7746215  38.3474467
  70.8746164  52.3165070  39.7266198  69.8955936  51.8470728  39.8227753
  71.9582496  51.8097135  40.4274227  71.8451390  50.9069444  41.0276841
  74.4074258  54.0563998  42.2345850  73.3092257  54.5975694  42.3555066
  75.4360488  54.6562285  41.6898088  76.2327256  54.1360067  41.3510245
  75.4454188  56.0602679  41.5501281  74.4921387  56.5061171  41.8339852
  76.5315830  56.6457911  42.4232907  76.1103712  56.8581868  43.4059243
  77.7090245  55.6774686  42.5713621  78.1310789  55.4649490  41.5891172
  78.4731389  56.1279484  43.2048416  77.3619756  54.7494175  43.0256515
  76.9709662  57.8686738  41.8707057  77.6607914  58.2407802  42.4250326
  75.7264033  56.3094846  40.1176601  76.7728672  55.9571065  39.6479432
  74.8089127  56.9249013  39.3978133  73.8385181  56.9651475  39.6749668
  75.2092367  57.6134409  38.1677199  75.6297586  56.8829322  37.4766211
  74.0519633  58.3048564  37.4925652  73.3110904  58.4764632  38.2734350
  74.3918845  59.2624658  37.0981824  73.4277869  57.4895275  36.3732673
  74.1533066  57.3529619  35.5713497  73.0195367  56.1601140  36.9043129
  72.2936242  56.2958554  37.7060137  72.5708457  55.5709832  36.1044992
  73.8947879  55.6386993  37.2918209  72.2279799  58.1727127  35.7442878
  72.5333408  59.1317365  35.3258054  71.8248172  57.5427264  34.9513954
  71.4625796  58.3351940  36.5031431  76.1988746  58.6609577  38.5184109
  76.1424290  59.1668265  39.6232799  77.0763904  59.0106728  37.5724318
  76.9587099  58.6395030  36.6405071  78.2235111  59.9049863  37.8303977
  77.9254738  60.7125620  38.4990490  79.3531844  59.1239472  38.4847716
  78.9085823  58.2513930  38.9633918  80.0247981  58.7990680  37.6901091
  80.1303111  59.9166156  39.5069834  81.1932943  59.8135756  39.2889230
  79.8426669  60.9646300  39.4231468  79.8560866  59.4318299  40.9049465
  80.2737982  60.1498929  41.6106388  78.7771042  59.3696598  41.0464784
  80.4456060  58.1058575  41.1747928  79.9316949  57.3038025  40.8390809
  81.5907733  57.8985537  41.8447168  82.3292251  58.9320520  42.2746227
  82.0229508  59.8773668  42.0938579  83.1883186  58.7604332  42.7772211
  82.0201836  56.6484403  42.0720366  81.4796200  55.8634622  41.7378204
  82.8821564  56.4977162  42.5764014  78.6682903  60.4814191  36.4874336
  78.6640655  59.7867396  35.4997593  78.8418530  61.7860577  36.3953891
  78.7149596  62.3872262  37.1970086  79.1750111  62.4101985  35.0966478
  79.7306169  61.6969383  34.4878283  77.8954068  62.8373897  34.3191912
  77.2199245  61.9915637  34.1911236  77.4248302  63.5838638  34.9590615
  78.2077906  63.4691990  32.9257999  78.5897220  62.7454317  31.9643997
  77.9963760  64.6856473  32.7732835  80.0719409  63.5991868  35.3749438
  79.8717732  64.3043012  36.3849966  81.0886532  63.8029544  34.5304766
  81.1274667  63.3280993  33.6399118  82.1452694  64.7658253  34.8507869
  82.9739113  64.6509605  34.1520324  81.6106710  66.2067288  34.7477594
  80.7687492  66.2596998  35.4380210  82.4158462  66.8471862  35.1077696
  81.1660059  66.6773318  33.3671933  82.0760273  66.9402100  32.8278817
  80.6653686  65.8555749  32.8551610  80.2265739  67.9003960  33.4169985
  80.2271887  68.6749607  32.4445525  79.5129791  68.1136780  34.4327505
  82.5851277  64.5406437  36.3161483  82.7204816  65.5048523  37.0726316
  82.6035627  63.2874972  36.7747776  82.2151144  62.5338811  36.2258969
  83.1855484  62.9668670  38.0836832  83.2988457  61.8835524  38.1248221
  84.1687838  63.4360659  38.1183219  82.3718160  63.4278941  39.2918718
  82.5217281  62.8593125  40.3886864  81.4219424  64.3493164  39.0656260
  81.4338471  64.8858154  38.2099821  80.3239766  64.5852888  40.0247908
  80.7479531  64.8610760  40.9903396  79.4010777  65.6938215  39.5675622
  79.3084137  65.6094604  38.4847899  78.4301665  65.5155354  40.0297801
  79.8764364  67.0662046  39.9212114  79.0481414  67.6384239  40.3390551
  80.6751697  66.9923569  40.6592316  80.3993505  67.7667181  38.6774688
  81.4883980  67.7230695  38.6904805  80.0254425  67.2367065  37.8014666
  79.9497882  69.2234515  38.6203138  80.5306879  69.7239014  37.8455842
  78.8941863  69.2386148  38.3490685  80.1399761  69.9346065  39.9239426
  81.1181166  69.9210439  40.1752532  79.8286657  70.8912244  39.8341200
  79.6014460  69.4712900  40.6418718  79.4510402  63.3882863  40.1957086
  79.2188134  62.6290576  39.2635185  78.7818827  63.3724423  41.3272218
  79.1007632  63.9253429  42.1099833  77.6144666  62.5089111  41.5169439
  77.6936164  61.6411836  40.8620520  77.5212193  62.0173156  42.9788279
  77.2531872  62.8649302  43.6095486  76.4971946  60.9346155  43.1360244
  76.7648177  60.0864193  42.5059127  76.4617486  60.6157963  44.1777523
  75.5191001  61.3129740  42.8389104  78.8094631  61.4962418  43.3775057
  78.7627776  61.1876480  44.2853551  76.3394697  63.2182312  41.1121105
  75.9689382  64.2345781  41.6764778  75.6561891  62.6185612  40.1674521
  75.9163823  61.6856331  39.8810189  74.5881150  63.2587636  39.4854640
  74.4014698  64.2751751  39.8321201  74.9150606  63.2821474  38.0155780
  75.9826862  63.4633249  37.8912772  74.5459066  61.9465152  37.3670900
  73.4782701  61.7648521  37.4905871  74.7879842  61.9785980  36.3047953
  75.1080877  61.1431762  37.8432182  74.2129976  64.4517230  37.3425271
  73.1385742  64.3206969  37.4711634  74.5289913  65.3681330  37.8409649
  74.5375617  64.5433434  35.8626859  74.2214133  63.6274155  35.3634604
  74.0128609  65.3936544  35.4270720  75.6118315  64.6748494  35.7332619
  73.1991276  62.5772044  39.7197653  72.1551324  63.1452776  39.3459405
  73.2015339  61.3719933  40.3288814  74.0995355  60.9413805  40.4970039
  71.9767384  60.6432736  40.7620669  71.3207117  61.3068748  41.3254155
  71.2208579  60.1230864  39.5592016  71.8617998  59.4498507  38.9899501
  70.3336480  59.5844116  39.8920505  70.9217586  60.9596807  38.9277361
  72.3446161  59.4510552  41.6607048  73.4569591  58.9431789  41.6264868
  71.3818715  58.9478516  42.4132612  70.5719958  59.4931346  42.6718481
  71.5496255  57.6245279  43.0175203  72.2105238  57.0520340  42.3667029
  72.1374211  57.6702302  44.4261145  71.6211577  56.9575313  45.0692574
  73.6030397  57.3054275  44.3444388  74.1200914  58.0180015  43.7017906
  74.0409120  57.3326109  45.3422512  73.7058034  56.3024055  43.9303306
  72.0079980  59.0510801  45.0304854  72.8094548  59.1708758  45.7594687
  72.1356009  59.7778951  44.2282654  70.6972773  59.2722503  45.6949890
  70.5691527  58.5460512  46.4976837  70.6646414  60.2800810  46.1088869
  69.8952982  59.1530681  44.9664802  70.3023520  56.7858543  43.0114008
  69.1851946  57.2986754  43.1374194  70.5071755  55.4845274  42.8368389
  71.3723345  55.0714208  43.1545527  69.5162814  54.6150174  42.1942953
  68.5225028  55.0271149  42.3694491  69.7148225  54.5895611  41.1228323
  69.5672679  53.1972829  42.7406755  70.6596117  52.6268157  42.8378097
  68.4173607  52.6830351  43.2191111  67.6208233  53.2906443  43.3473242
  68.2704503  51.2651812  43.5557633  69.2314467  50.8690530  43.8838907
  67.2378493  51.0621231  44.6913612  66.3001097  51.4570626  44.3005077
  67.1539704  49.9822071  44.8132042  67.5422999  51.7184136  46.0722489
  68.1940644  51.0199648  46.5971043  68.0927109  52.6332630  45.8527032
  66.3027114  52.0575433  46.9760007  66.5479598  51.7233374  47.9840973
  66.1962539  53.1423108  46.9692323  64.9565889  51.3982596  46.5207019
  64.8034731  51.7549254  45.5021511  65.1636391  50.3282495  46.5031572
  63.7192896  51.6550939  47.3319378  63.5270126  52.6464931  47.3479629
  62.9379017  51.1672391  46.9177752  63.8608070  51.3242845  48.2756735
  67.7874389  50.6270502  42.2507523  67.1111590  51.2947493  41.4453372
  68.2306832  49.3922410  41.9793715  68.9280254  48.9479095  42.5593565
  67.7839886  48.6964519  40.7822568  67.3585554  49.3815619  40.0489560
  68.8508767  47.8186370  40.0794326  69.0438183  48.2626486  39.1028434
  70.1531137  47.7048828  40.8489485  69.9610326  47.2604973  41.8255382
  70.8495134  47.0756832  40.2946598  70.5858911  48.6966120  40.9803964
  68.3011852  46.4428305  39.7390845  67.4458808  46.5476652  39.0715772
  69.0749983  45.8532625  39.2474316  67.9879630  45.9396561  40.6538567
  66.5907502  47.8786263  41.1521154  66.4863324  47.3322730  42.2655489
  65.6528372  47.8437366  40.2283531  65.8391409  48.2078733  39.3048842
  64.3305627  47.3191036  40.5062728  64.2041118  47.1538512  41.5762265
  63.2836775  48.3242154  40.0417292  63.4992232  48.4722964  38.9835651
  62.2804709  47.9129091  40.1535495  63.3680610  49.6570332  40.7668714
  64.4102345  49.9720592  40.8191571  62.5573245  50.7080021  40.0207414
  61.5148810  50.3938748  39.9684508  62.6233929  51.6600305  40.5474080
  62.9525119  50.8235020  39.0114907  62.9032115  49.4906702  42.2154622
  63.5404497  48.7651146  42.7210273  62.9659775  50.4494662  42.7301192
  61.8716598  49.1387728  42.2284288  64.1244420  45.9928640  39.8085310
  63.9913066  44.9783246  40.4591890  64.0724321  46.0301612  38.4725299
  64.1401339  46.9248438  38.0087854  63.9010784  44.8303159  37.6469064
  63.6712862  43.9806834  38.2898834  62.7524184  45.0028576  36.6270405
  62.1342798  45.8295875  36.9770713  63.2077987  45.2688722  35.6731196
  61.8771800  43.7489557  36.4456656  62.5390943  42.8835653  36.4129576
  61.2224237  43.6723220  37.3137229  61.0270483  43.7922757  35.1650746
  60.7838326  44.8343619  34.9577068  61.6274072  43.3904761  34.3488481
  59.7344416  42.9828996  35.2935713  59.2651307  42.9150598  34.3121205
  59.9820605  41.9820654  35.6472872  58.7932346  43.6281156  36.2498280
  58.5633211  44.5553624  35.9220278  57.9501603  43.0759800  36.3167017
  59.2277561  43.6906866  37.1594295  65.2005326  44.5699093  36.9186645
  66.2398716  45.1454184  37.2421807  65.1531344  43.6610165  35.9653082
  64.3386723  43.0701947  35.8776700  66.2431245  43.4635950  35.0427659
  66.8353673  44.3750143  34.9611407  67.1642369  42.3154330  35.5515340
  66.5516644  41.4485259  35.3038923  68.0469771  42.3304644  34.9122815
  67.6072083  42.2298154  37.0501396  67.5295473  43.2357041  37.4627623
  66.7699615  41.2543660  37.9097479  66.8475081  40.2481174  37.4979843
  67.1450400  41.2574921  38.9331770  65.7263587  41.5689602  37.9048423
  69.0837682  41.8544099  37.1159694  69.6752007  42.6126429  36.6027545
  69.3975736  41.7933990  38.1580371  69.2354388  40.8884759  36.6342364
  65.5787600  43.1211072  33.6983318  64.7377314  42.2496634  33.6263621
  65.8693079  43.8730928  32.6578638  66.6195465  44.5482354  32.6955959
  65.0238576  43.8462869  31.4729726  64.1275611  43.2415229  31.6108576
  64.5990834  45.2841677  31.1371222  65.5015821  45.8774862  30.9902601
  63.7356173  45.3547198  29.8834497  62.8326484  44.7619732  30.0297354
  63.4614128  46.3914737  29.6883760  64.2942974  44.9612460  29.0342403
  63.8515766  45.8584311  32.3283489  64.5038764  45.8585106  33.2016226
  63.5427047  46.8798555  32.1061104  62.9710153  45.2495709  32.5332922
  65.7499484  43.1038848  30.3330562  67.0028266  43.1480062  30.2663658
  64.9755517  42.3755315  29.4650492  64.4200796  42.9288429  28.2078976
  64.8248564  43.9279456  28.0464977  63.3347088  42.9860644  28.2903291
  64.8728796  41.9303558  27.1371373  65.4637335  42.4621629  26.3913679
  63.9897917  41.5024492  26.6626343  65.6847882  40.8633159  27.8233561
  66.7559062  41.0564785  27.7642501  65.4719728  39.8729305  27.4209310
  65.2181786  40.9464672  29.2878367  64.2600976  40.4457586  29.4273713
  66.2460767  40.3479354  30.2385429  65.8625409  39.8157617  31.2765638
  67.4482293  40.4642387  30.0110660  47.4748674  40.1499164  66.5983385
  48.2531299  39.5072259  66.5614960  47.0096738  40.1481128  65.7018498
  46.9474359  39.9730290  67.4413252  48.0206203  41.5307262  66.7568503
  47.7074842  42.1539729  65.9192295  47.4943942  42.1623958  68.0666326
  47.5392270  41.4327998  68.8751986  48.1364411  43.0098982  68.3066647
  46.0333466  42.6685341  67.9358928  45.7750256  43.7316842  67.3599942
  45.0792851  41.8911339  68.4456699  44.1126657  42.1776365  68.3851468
  45.3269041  41.0187654  68.8903706  49.5553247  41.5692468  66.6363862
  50.1806933  40.5595885  66.2385191  50.1176722  42.7756900  66.7773505
  49.5476008  43.5295330  67.1334945  51.4987291  43.0819675  66.3547016
  52.0620628  42.1552862  66.2450839  51.5071684  43.8346229  64.9893285
  52.2801437  43.3328929  64.4071984  50.5621883  43.7956464  64.4474859
  51.9057333  45.3074697  65.0675604  51.2447760  46.1879929  65.9177576
  50.4434490  45.8126835  66.5542462  51.5955270  47.5327121  65.9617238
  51.1098872  48.1946927  66.6786871  52.5562814  48.0313863  65.1006477
  52.8091192  49.0915393  65.1164096  53.1967994  47.1806872  64.2178812
  53.9650900  47.5651980  63.5470748  52.8588295  45.8329177  64.1874184
  53.3383904  45.1668648  63.4701355  52.2195057  43.8815744  67.4574400
  51.5640322  44.3909081  68.3759691  53.5558164  43.9191499  67.3972425
  54.0373567  43.5178576  66.6052938  54.3599485  44.4421208  68.5090032
  53.8942300  44.1529073  69.4511078  55.7844732  43.9059162  68.4857881
  55.7113434  42.8242261  68.3731028  56.3143935  44.3248093  67.6303274
  56.5461610  44.2326752  69.7643222  55.9417248  44.1633920  70.8652349
  57.7382668  44.5883688  69.6671278  54.3706472  45.9785030  68.5466629
  55.0371113  46.6479996  67.7400466  53.6434341  46.5213887  69.5195674
  53.1819507  45.9260750  70.1924225  53.3997667  47.9856785  69.5904170
  53.1483374  48.3873655  68.6088213  52.2538611  48.3494121  70.5868628
  51.5671616  49.0252600  70.0771829  51.4812817  47.1057239  71.0789550
  52.1672817  46.4295783  71.5891812  50.6960620  47.4146322  71.7689584
  51.0345305  46.5940606  70.2264793  52.7873786  49.0625592  71.7100148
  52.0765265  49.2818848  72.3167980  54.6335876  48.8450798  69.9386116
  54.5890387  50.0655890  69.8413158  55.7259823  48.2013461  70.3518060
  55.6916601  47.2022536  70.4958043  56.9846444  48.9076812  70.6510958
  56.7684244  49.8959765  71.0568305  57.8018440  48.1220587  71.6838030
  58.8373837  48.4592956  71.6387699  57.3972630  48.3241529  72.6755551
  57.7472058  46.7282257  71.4262273  58.2654909  46.2604974  72.0851738
  57.8462408  49.1348001  69.3962692  58.7462342  49.9673698  69.4081644
  57.5106186  48.4182379  68.3268276  56.7490108  47.7580230  68.3913973
  58.2921545  48.4605209  67.0836628  59.3256014  48.3080097  67.3948330
  57.8864835  47.3078021  66.1328534  57.9708210  46.3563195  66.6578937
  56.8567948  47.4515015  65.8054521  58.8093756  47.3016313  64.9188286
  58.7252362  48.2526863  64.3929809  60.2500255  47.0999480  65.3765171
  60.3350559  46.1488160  65.9020803  60.9101169  47.0954602  64.5091303
  60.5360784  47.9112089  66.0459421  58.4098202  46.1662929  63.9823526
  57.3801322  46.3099943  63.6549506  59.0691821  46.1614325  63.1144128
  58.4941555  45.2148100  64.5073924  58.2296564  49.8292855  66.3498301
  59.2583057  50.3439057  65.8817578  57.0279350  50.4158457  66.2392954
  55.7025546  49.8894675  66.5924833  55.4721704  50.1420983  67.6274717
  55.6952166  48.8060385  66.4732065  54.7954803  50.5789996  65.6151402
  53.8040111  50.6918880  66.0537108  54.7234105  49.9867108  64.7029443
  55.4227272  51.9008814  65.3421056  55.1154530  52.6001199  66.1197605
  55.1711725  52.3120378  64.3644705  56.9305421  51.6524938  65.4319263
  57.3957539  51.4622113  64.4647299  57.6202563  52.8409638  66.1035954
  58.1516145  53.6919894  65.4099508  57.6271493  52.8832567  67.4376272
  57.1725764  52.1455428  67.9565116  58.2226479  53.9876592  68.1828155
  57.9726750  54.9442953  67.7240562  57.7052913  53.9882932  69.6401798
  56.6160420  54.0227999  69.6190745  58.1632012  52.7351739  70.4037056
  59.2524197  52.7002200  70.4256328  57.7807263  52.7706114  71.4237822
  57.7816175  51.8448574  69.9038746  58.1812687  55.1498535  70.3191587
  57.8582834  55.1469112  71.2231898  59.7721512  53.9694263  68.2057043
  60.4156520  54.9830120  68.5168130  60.3482543  52.8141666  67.8871917
  59.7657761  51.9986742  67.7615309  61.8037634  52.6456966  67.8224056
  62.2902650  53.4149586  68.4221150  62.2143847  51.2672084  68.3647268
  63.2251168  51.0489762  68.0199158  62.2036722  51.3088556  69.4538783
  61.3377610  50.2519707  67.9242815  61.6222839  49.4069612  68.2800982
  62.3808872  52.8779085  66.4172014  63.5826524  52.7043203  66.2065631
  61.5190486  53.2305110  65.4600856  60.5351482  53.1247029  65.6621849
  61.9112435  53.6608382  64.1089333  61.0540352  53.5946772  63.4389214
  62.4002783  55.0838083  64.1250001  63.2352339  55.1416324  64.8232871
  62.7226870  55.4333663  63.1442035  61.3804332  56.0454459  64.6033923
  60.6407340  56.8238054  63.7455534  60.7305583  56.8181545  62.7395716
  59.8064890  57.5681986  64.4452384  59.1416991  58.2732242  63.9461469
  59.9614428  57.2807894  65.7243925  60.9311899  56.3201268  65.8486861
  61.1940167  55.9353251  66.8340546  62.9298668  52.7798312  63.4393705
  63.9381014  53.2545830  62.8935631  62.6369204  51.4834876  63.4417447
  61.7668395  51.1618108  63.8412226  63.5825357  50.4882445  62.9533722
  64.5466904  50.6448236  63.4370952  63.1176549  49.0402463  63.2350052
  63.1926896  48.4612821  62.3145323  63.9843039  48.3921397  64.3169176
  63.9094106  48.9703254  65.2378909  63.6390260  47.3743280  64.4984161
  65.0226712  48.3694624  63.9861919  61.7557745  49.0410309  63.6718361
  61.4746067  48.1395196  63.8445280  63.8609262  50.6593707  61.4522518
  64.9051938  50.2220687  60.9678005  62.9383185  51.3115639  60.7425194
  62.1040530  51.6062231  61.2296297  63.0479476  51.6065924  59.3116687
  63.2312086  50.6930781  58.7459779  61.7336724  52.2266672  58.8276552
  61.8019507  52.2858285  57.7414060  60.9207246  51.5552363  59.1040543
  61.4614396  53.6133356  59.3950730  60.8239551  53.7815987  60.6261725
  60.5162472  52.8976649  61.1848104  60.5825776  55.0361170  61.1362380
  60.1014066  55.1562964  62.1068735  60.9432926  56.1487187  60.4018526
  60.7023280  57.4096488  60.8853528  60.2772688  57.4064401  61.7461164
  61.5613316  56.0153910  59.1803132  61.8426684  56.8969263  58.6042527
  61.8245283  54.7558939  58.6856470  62.3248121  54.6416211  57.7240036
  64.1946488  52.5731906  58.9542204  64.4142952  52.8748583  57.7730938
  64.8846547  53.0800989  59.9718312  64.6722821  52.7739966  60.9106063
  65.9111812  54.0670211  59.7938904  65.7428447  54.6415568  58.8830278
  65.8752144  55.0114780  60.9745956  65.3450070  54.4652689  61.7547462
  66.9060425  55.1799594  61.2862162  65.1964952  56.3407393  60.7408958
  64.1265037  56.1934794  60.5941526  65.4258893  57.2217745  61.9713630
  66.4957112  57.3698736  62.1184903  64.9430066  58.1875685  61.8224770
  65.0025377  56.7361713  62.8506033  65.7295663  57.0362792  59.4874528
  65.5528477  56.4038859  58.6174248  65.2166432  57.9887336  59.3538797
  66.7996676  57.2126329  59.5964561  67.2834532  53.4261778  59.6865242
  68.2585646  54.0606034  59.3529151  67.3641721  52.1703442  60.0522691
  66.5398316  51.6300885  60.2729178  68.6517351  51.5245529  60.1485248
  68.7062506  50.7769980  59.3571407  69.4155125  52.2844039  59.9830863
  68.9051391  50.8558122  61.4718578  68.3345835  51.1760398  62.4994597
  69.7946456  49.8755294  61.4497223  70.5056955  49.8306560  60.7338357
  69.7352715  48.8096775  62.4244287  68.6997284  48.4807077  62.5111953
  70.5833572  47.6324512  61.9315719  71.6246194  47.9438190  61.8483665
  70.5068829  46.8073087  62.6396621  70.2227037  47.3076300  60.9556009
  70.2044048  49.2374246  63.8110243  69.5369573  49.0199937  64.8300663
  71.3897198  49.8329679  63.8377533  71.9710821  49.8201749  63.0119485
  71.9073207  50.4686891  65.0323888  71.1134291  50.5221900  65.7773539
  73.0593055  49.6025690  65.5982899  72.6903743  48.5986391  65.8083222
  73.8658374  49.5471412  64.8671714  73.5834254  50.2318560  66.8870976
  73.0409072  49.8719220  67.9658576  74.5213118  51.0664911  66.7805472
  72.4125258  51.9138899  64.7766812  73.0729982  52.1954845  63.7807341
  72.0479375  52.8163884  65.6810958  71.3771407  52.5754995  66.3967099
  72.6390506  54.1115656  65.7182341  73.3058926  54.2425401  64.8660214
  71.5569125  55.1793304  65.6574180  71.3329398  55.4702024  66.6837362
  71.9747566  56.0316918  65.1217069  70.2821186  54.7265131  64.9708512
  70.5487719  53.9661021  64.2368404  69.6315668  54.2880178  65.7275588
  69.4066793  56.0701692  64.1420549  68.1573732  55.0324818  63.3809338
  67.5975538  54.5090751  64.1560123  67.4764141  55.6517098  62.7970229
  68.6378338  54.3051288  62.7265513  73.3276470  54.2339008  67.0539134
  72.9202190  53.5934590  68.0065575  74.3561689  55.0663983  67.1371278
  74.7421525  55.4686465  66.2949210  74.9840682  55.4115594  68.4302574
  75.3289040  54.5093400  68.9354185  76.1940053  56.3621288  68.2323908
  76.9480507  55.8685315  67.6193031  75.8627936  57.2741562  67.7357974
  76.7870649  56.7085700  69.5771432  76.0336907  57.2026495  70.1906688
  77.1189497  55.7970261  70.0741737  77.9780103  57.6442222  69.3823828
  77.7438030  58.8822643  69.3822836  79.1106050  57.1119877  69.2355640
  73.9435955  56.0804739  69.3300101  73.2407116  56.9805255  68.9294389
  73.8521196  55.6196533  70.5752983  74.4531235  54.8646237  70.8733316
  72.8118315  56.0874831  71.4995850  72.1237242  56.7455864  70.9690121
  72.0143299  54.9083102  72.0806415  72.6382853  54.4505153  72.8482368
  71.1197957  55.3266340  72.5420673  71.6059137  53.8378406  71.0430361
  70.6657109  53.3970411  71.3744201  71.4472380  54.3670872  70.1034515
  72.6573448  52.7157667  70.8331649  73.4395701  52.4377541  71.7783621
  72.7015070  52.0906886  69.7309902  73.4265732  56.9766511  72.5759905
  74.6014829  56.8151206  72.9834964  72.6314645  57.9228535  73.0549416
  71.6696860  57.9752154  72.7510673  73.1092402  58.9142247  74.0200646
  74.1122462  58.6515369  74.3563284  73.1569393  60.2954222  73.3785413
  72.1643716  60.4086015  72.9425378  73.3630488  61.1402879  74.0356721
  74.1212180  60.3828047  72.2626717  73.8810760  59.6862345  71.1086319
  72.9541505  59.1241295  70.9948476  74.7812068  59.6952666  70.1233888
  74.5756692  59.1752698  69.1877295  75.9849116  60.3712100  70.2935042
  76.7160963  60.3549459  69.4852936  76.2591920  61.0495471  71.4519178
  77.1884498  61.6035163  71.5849524  75.3423280  61.0198072  72.4441743
  75.5572662  61.4988839  73.3993638  72.1545754  58.9210246  75.1969856
  70.9830762  59.2710668  75.0493713  72.6794222  58.5124631  76.3644514
  73.6100152  58.1199336  76.3685335  71.9284696  58.5209994  77.6116243
  70.9229089  58.1424452  77.4282024  72.6073569  57.6244218  78.6607232
  72.6670513  56.6036569  78.2831322  73.6120675  57.9962461  78.8617293
  71.8991850  57.5517098  79.9923789  72.3856565  56.7844833  81.0444281
  73.2239973  56.2213758  81.0304876  71.5596100  56.9210426  82.0649182
  71.7578635  56.3978483  83.0003658  70.5850553  57.7256608  81.7200523
  70.7574841  58.1418111  80.4368192  70.0357031  58.8204539  79.9823114
  71.7613085  59.9875748  78.0949003  72.6639610  60.5781651  78.7282654
  70.5987849  60.5411191  77.7897699  70.0316108  60.1660169  77.0429692
  70.1029659  61.7028244  78.5174803  69.0286258  61.7444970  78.3381596
  70.2871629  61.5075524  79.5739081  70.7192785  63.0440897  78.1469792
  70.5664512  63.5299865  77.0195095  71.5386183  63.6043823  79.0374962
  72.5160296  63.6213036  78.7835664  71.1332272  64.2212686  80.3379850
  70.2154045  63.7865117  80.7338225  72.2717582  63.9143539  81.3010943
  72.1472767  64.5546932  82.1743464  72.1787029  62.8704106  81.6004655
  73.6721743  64.1510235  80.6831791  74.2945592  64.5379632  81.4900345
  74.0372004  63.1689812  80.3824283  73.7353367  65.1215400  79.4689612
  73.3932259  64.6118172  78.5682715  73.1048274  65.9908761  79.6555417
  75.0973862  65.5720437  79.2588412  75.6020894  65.1900148  78.4718037
  75.7125549  66.4582837  80.0380326  76.9968457  66.7299875  79.8357969
  77.4977805  66.2632249  79.0933032  77.4666091  67.4021086  80.4254369
  75.0463560  67.0812737  81.0204537  74.0688239  66.8772874  81.1718499
  75.5249967  67.7517934  81.6047525  70.8895482  65.7316972  80.5265003
  70.8786432  66.2135019  81.6598468  70.8069433  66.4729449  79.4453416
  70.6400148  66.0522079  78.5424492  71.0240767  67.9253184  79.5079063
  71.5440396  68.1847037  80.4301085  71.8677058  68.4514981  78.2906138
  72.8672253  68.6885307  78.6551361  71.9702404  67.4102905  77.1303543
  70.9710708  67.1730975  76.7649787  72.5639740  67.8285433  76.3175542
  72.4473133  66.5017632  77.4978868  71.2805795  69.6557653  77.7732132
  71.8003218  69.9716529  77.0304594  69.6851339  68.6613516  79.5759019
  68.9531441  68.6901640  78.5802600  69.3463683  69.2186175  80.7539471
  69.7616457  68.8741295  81.6077457  68.2778800  70.2228155  80.8545465
  67.9393724  70.4915316  79.8538950  67.0680169  69.6824248  81.6581280
  67.5639578  69.1489024  82.4689891  66.4618847  70.4885278  82.0715306
  66.1496811  68.6924688  80.8678613  66.0498193  69.0590259  79.8462135
  66.7303109  67.2679911  80.8467546  66.8300387  66.9005562  81.8680992
  66.0630651  66.6113353  80.2884653  67.7098046  67.2813719  80.3687238
  64.6754849  68.6685966  81.3366330  64.2412130  69.6617967  81.2223491
  64.1134783  67.9553119  80.7337444  64.6316616  68.3718391  82.3845421
  68.8191437  71.5255013  81.4048930  69.6698110  71.5212922  82.2638443
  68.3575231  72.6504786  80.8346206  67.5683108  72.5663525  80.2099878
  68.8226290  73.9856842  81.1835038  69.8489867  73.9118076  81.5429916
  68.7859738  74.9763236  79.9840344  67.8365351  75.3757008  79.6274347
  69.3584612  75.7722970  80.4602536  69.5570566  74.5608021  78.7728028
  70.8926556  74.2159945  78.8249294  71.4330130  74.1284652  79.6737240
  71.3404313  74.0219590  77.5932427  72.3601426  73.6772526  77.4215882
  70.3683801  74.3132005  76.7446534  69.2564722  74.7004948  77.4568986
  68.3627659  75.0372527  76.9315564  67.8075730  74.5927319  82.1423116
  66.5879006  74.5044633  81.9013701  68.3018913  75.2112337  83.1967635
  69.2988719  75.3117785  83.3233331  67.4162654  75.6377313  84.2853192
  66.6614964  74.8701923  84.4565121  68.1988867  75.8630101  85.5997637
  69.2265758  76.0743332  85.3043030  67.7875061  76.7254628  86.1242074
  68.1745006  74.6262078  86.5391738  67.1568663  74.4099575  87.2450614
  69.1932813  73.9068976  86.5913721  66.5660747  76.8754388  83.8919059
  66.9211810  77.6397047  82.9675818  65.4293233  77.0207594  84.5671572
  65.2721572  76.5121990  85.4255070  64.3219340  77.7754709  83.9997159
  64.2099157  77.5422833  82.9408606  63.0329690  77.4072734  84.7173360
  62.8607659  78.0696961  85.5656528  62.2451868  77.5521905  83.9780808
  63.0222201  75.9413289  85.1993613  64.1125651  75.4072988  85.5266375
  61.9233199  75.3526757  85.3136004  64.5938236  79.2993637  83.9499608
  65.3873270  79.8872799  84.7238012  63.9550737  79.9136843  82.9741074
  63.5027377  79.3062862  82.3058567  64.0192584  81.3697424  82.6735094
  63.3749360  81.5823169  81.8204210  63.5579317  82.2414979  83.8733061
  64.0535296  81.9321828  84.7935268  63.8807018  83.2482755  83.6081302
  61.9854991  82.2302478  84.0900712  61.2840919  81.5132508  83.3524581
  61.4679320  82.8768676  85.0541563  65.3585769  81.8251321  82.0893661
  65.5040620  82.9848850  81.7105730  66.2948011  80.8788329  81.9265659
  66.0917254  79.9357048  82.2255124  67.6209834  81.1656900  81.4029139
  68.0896847  81.9555562  81.9898804  68.5076156  79.9041395  81.4765186
  69.5170832  80.1849438  81.1761467  68.5190596  79.5614123  82.5111717
  68.0423975  78.8696955  80.6455934  68.6234656  78.1096603  80.7250052
  67.5866932  81.7062631  79.9558749  66.5531914  81.6523552  79.2606275
  68.7133086  82.3058006  79.5328213  69.4238131  82.5763719  80.1977077
  68.8771562  82.7102964  78.1463246  67.9735298  82.4447849  77.5976332
  69.1185718  84.1995490  77.9908794  69.8391228  84.5812250  78.7142250
  69.4399309  84.4653189  76.9838070  67.5862174  85.1081696  78.2835181
  68.1015464  86.3178677  78.0836064  69.9427641  81.8901208  77.4781713
  71.1124022  81.9332972  77.8453002  69.5100553  81.1319723  76.4784919
  68.5395383  81.1937067  76.2057560  70.3686492  80.2095391  75.7606440
  71.3817012  80.2463163  76.1612338  69.8356757  78.7943123  75.9165494
  68.9687351  78.7160908  75.2605047  70.6209064  78.1270160  75.5612630
  69.4419298  78.4047856  77.3165987  68.8426956  79.1198505  77.8802489
  68.8601584  77.4990343  77.1455471  70.6413108  78.0539704  78.1190344
  70.8031607  76.9145929  78.5535232  71.5761171  78.9627747  78.1648904
  72.4193090  78.7893329  78.6931391  71.4522793  79.8355595  77.6719276
  70.4103539  80.5775508  74.2700125  69.4687245  81.1486751  73.7151189
  71.4840861  80.1677325  73.6271741  72.3441292  80.0182965  74.1352037
  71.5318078  80.1624756  72.1817576  70.6011290  80.4702867  71.7051146
  72.6649560  81.0540339  71.6643738  73.2525331  81.3781448  72.5233293
  73.5749768  80.3372733  70.6658587  72.9881546  80.0132507  69.8063530
  74.3587903  81.0182190  70.3341211  74.0274989  79.4687703  71.1444272
  72.0618631  82.3455993  71.0893097  71.5100776  82.8687028  71.8703331
  72.8614543  82.9868267  70.7183906  71.3857645  82.0984785  70.2708216
  71.4810330  78.7204083  71.6742068  72.2654379  77.8610331  72.0856749
  70.4713108  78.4319016  70.8801319  69.7437658  79.1133914  70.7178070
  70.3441657  77.1101412  70.2440244  71.2113407  76.4965604  70.4882072
  69.0966777  76.4471031  70.7678079  68.2331708  76.8964188  70.2773269
  69.1101220  74.9572454  70.4999339  69.9731522  74.5071273  70.9905183
  68.1963378  74.5091336  70.8901840  69.1705715  74.7811926  69.4259458
  68.9972414  76.6612051  72.2681727  69.8532202  76.1679801  72.7287486
  69.0543148  77.7340187  72.4523278  67.7127110  76.1118676  72.8684743
  67.6551502  75.0389442  72.6851112  67.7046329  76.2973328  73.9425491
  66.8562443  76.6049816  72.4086883  70.2909130  77.2090570  68.7065795
  69.6296857  78.0683149  68.1693130  71.0586101  76.3555402  67.9968752
  71.8538702  75.2485879  68.5604611  71.4012253  74.8929946  69.4860778
  72.8730086  75.5802938  68.7590239  71.7879301  74.2377607  67.4652190
  70.8789016  73.6414351  67.5437180  72.6567922  73.5802151  67.4937467
  71.7892215  75.0692874  66.2246987  71.3854266  74.4857664  65.3973222
  72.7681834  75.4610747  65.9485900  70.8618482  76.1969943  66.5519919
  71.0822456  77.1592185  66.0897713  69.4674964  75.7597750  66.1637699
  68.8926832  74.9672526  66.8608839  68.9381957  76.2646057  65.0658843
  69.4537010  76.9598379  64.5453020  67.6705899  75.7703459  64.5043769
  67.2074689  75.0088402  65.1318538  66.6669719  76.9334805  64.3160611
  67.0871495  77.6573350  63.6177884  65.3422992  76.4065018  63.7670377
  64.9212562  75.6828846  64.4650362  64.6458530  77.2352346  63.6395029
  65.5133063  75.9248560  62.8042940  66.4334110  77.7057482  65.6126820
  67.3771457  78.1250318  65.9614915  65.7225327  78.5122257  65.4328325
  66.0336155  77.0319758  66.3705046  67.8993452  75.2582340  63.1461378
  68.2660232  76.0789452  62.3052945  67.6022031  73.9670956  62.8842446
  67.2609256  73.3356933  63.5948501  67.7607209  73.4439431  61.4803897
  68.7218011  73.8032845  61.1125611  67.7149171  71.9190812  61.3232649
  66.6940463  71.7869769  60.9648369  68.4134346  71.7195110  60.5106488
  67.9791732  70.9526817  62.4671891  67.3720964  71.2579517  63.3194619
  67.6356628  69.5094397  62.0870060  68.2427166  69.2032820  61.2350365
  67.8392085  68.8521950  62.9324049  66.5802310  69.4441947  61.8226061
  69.4240049  71.0164846  62.9190114  69.6549014  72.0262991  63.2582177
  69.5805823  70.3140635  63.7376624  70.0774059  70.7550562  62.0866525
  66.7019146  73.9037151  60.5411469  65.5437501  73.7671889  60.8334558
  67.1010127  74.2655294  59.3690458  68.3043896  73.6745155  58.7894005
  68.1292676  72.6254431  58.5509060  69.1355759  73.7534344  59.4901145
  68.5097958  74.5320512  57.5443279  68.6649607  73.8795161  56.6851300
  69.3892535  75.1601122  57.6864360  67.2444273  75.3893184  57.3770065
  66.8756962  75.2679948  56.3584698  67.3917069  76.4489589  57.5857414
  66.2460403  74.8002564  58.3619245  65.5994290  75.5444174  58.8269153
  65.3639381  73.6937467  57.6806963  65.6992226  72.4501629  57.6223053
  64.2059123  74.1041368  57.2549191  63.9340918  75.0761339  57.2927947
  63.2949690  73.1452074  56.5854485  62.6279065  73.7056253  55.9304229
  64.0344758  72.0834832  55.7445345  64.4350532  71.3938121  56.4874952
  63.2385309  71.5919415  55.1851076  65.1326554  72.4953305  54.7982737
  64.8920853  73.4458902  54.3221821  66.0511763  72.6008999  55.3755747
  65.3585656  71.4444307  53.7067055  66.4754148  70.9459536  53.5139399
  64.2775148  71.0779749  53.0056369  64.3645663  70.3885729  52.2726646
  63.3803126  71.4927495  53.2132221  62.5402445  72.2913011  57.5529566
  61.6958498  71.5089909  57.0950751  62.8967601  72.2566178  58.8314212
  63.6825920  72.7572517  59.2212072  62.1106952  71.4302246  59.7094316
  61.7097058  70.5930606  59.1380621  62.9033583  70.8720288  60.9132297
  62.9974624  71.6470202  61.6739083  62.1772917  69.6782986  61.4965509
  62.0832075  68.9026486  60.7365403  62.7403336  69.2888013  62.3447113
  61.1848839  69.9828437  61.8289374  64.2939806  70.4555100  60.4829582
  64.8236552  71.3183729  60.0792076  64.8389607  70.0647260  61.3422511
  64.2218697  69.6831504  59.7172158  61.0117653  72.3091406  60.1742325
  61.2770417  73.3557572  60.7190508  59.7849291  71.9541170  59.8770016
  59.5967884  71.1156166  59.3463233  58.6675924  72.7622335  60.2968733
  59.0189467  73.4908676  61.0274497  58.0007220  73.5224906  59.1193327
  58.5372954  73.2449963  58.2120372  56.9704499  73.1728955  59.0528292
  58.0134462  75.0428239  59.2734197  56.9660381  75.3412447  59.2288977
  58.3997218  75.2230588  60.2766189  58.9723270  76.0340268  58.0731137
  60.5085491  75.1302675  57.8213089  60.2866508  74.1373896  57.4300880
  61.1351068  75.6687196  57.1102565  61.0354582  75.0366521  58.7708900
  57.6798639  71.8565486  60.9141798  57.1296920  71.0224867  60.2606183
  57.5070318  71.9873585  62.2160768  57.9536352  72.7547374  62.6975064
  56.7011893  71.0869381  62.9780407  55.7090318  71.0325045  62.5299786
  57.3031385  69.6618283  63.0213318  56.5987576  69.0134828  62.5001842
  58.2382025  69.7048298  62.4628462  57.5718905  69.1005006  64.4282343
  58.5341349  69.4884975  64.7623675  56.7846008  69.4659451  65.0875729
  57.6064062  67.2892906  64.4883156  56.3383202  66.9923737  65.7031873
  55.3929669  67.4048335  65.3506493  56.2296577  65.9193357  65.8609294
  56.6151634  67.4709813  66.6425454  56.6898751  71.7150704  64.3539611
  57.6431485  72.4333940  64.7229936  55.5877333  71.5905642  65.0723591
  54.7481988  71.1556857  64.7171665  55.5375266  72.2112486  66.3634389
  56.4001175  72.8732640  66.4394115  54.2641531  73.0171360  66.5448897
  53.3982021  72.3554669  66.5243178  54.3279732  73.7121572  67.8653962
  55.1934702  74.3744019  67.8865550  53.4200191  74.2968922  68.0130613
  54.4170726  72.9731105  68.6616188  54.1548071  74.0913934  65.4204475
  53.5908704  74.9206517  65.8475389  55.1741941  74.4155835  65.2110425
  53.4809708  73.6325757  64.1083187  52.4613228  73.3086525  64.3168649
  53.4607980  74.4612796  63.4005461  54.0446456  72.8035822  63.6803696
  55.7387239  71.0959229  67.3336808  54.9553003  70.1459867  67.3413453
  56.8579515  71.1135641  68.0369789  57.3938797  71.9631679  68.1421158
  57.3622000  69.8951956  68.6634823  56.8896081  69.0144406  68.2287103
  58.8563351  69.8099833  68.4259444  58.8965779  70.1382803  67.3873391
  59.3450266  70.5500977  69.0595935  59.5729949  68.4707402  68.5635666
  60.0334642  68.1975206  67.6141353  60.6565902  68.6016237  69.6368344
  60.1968031  68.8743917  70.5867251  61.1775412  67.6503962  69.7458160
  61.3681160  69.3734148  69.3432876  58.6374320  67.2786782  68.8323492
  57.9296126  67.1789061  68.0094660  59.2266411  66.3655538  68.9168339
  58.0924866  67.4460958  69.7613836  57.0549834  69.9229961  70.1641729
  57.1271318  70.9991173  70.7935908  56.6468680  68.7913362  70.7222093
  56.7121382  67.9144172  70.2253670  56.1446396  68.7750469  72.0828589
  56.0546316  69.7908799  72.4676721  54.8125621  68.0779572  72.1893593
  54.9219438  67.0332439  71.8983092  54.3190582  68.1548627  73.6301189
  54.2089827  69.1993396  73.9217560  53.3555554  67.6518191  73.7120353
  55.0393720  67.6684823  74.2879041  53.7922188  68.6867064  71.2241091
  53.2421876  69.4603316  71.7598987  54.3395867  69.1378659  70.3964962
  52.8138556  67.6515985  70.6814470  52.2657500  67.2003054  71.5084987
  52.1120079  68.1353512  70.0021147  53.3631498  66.8778380  70.1450979
  57.0911913  68.0005390  72.9696500  57.5743600  66.9401799  72.5841368
  57.3770382  68.5438852  74.1566060  57.2169913  69.9483722  74.5232955
  56.1612546  70.2167429  74.4845975  57.7758286  70.5726506  73.8261037
  57.7803909  70.0047175  75.9282069  57.1400071  70.6268341  76.5534897
  58.7842344  70.4286459  75.9020464  57.8107212  68.5850445  76.4160161
  56.8409772  68.2812050  76.8101951  58.5811771  68.3980226  77.1640268
  58.1148449  67.8189233  75.1674484  59.1731086  67.8821610  74.9141164
  57.7070611  66.3631597  75.2707963  56.5038973  66.0502611  75.3745718
  58.6936162  65.4697853  75.1808779  59.6417348  65.7832491  75.0295143
  58.4486813  64.0339182  75.2950605  59.3322164  63.5821327  75.7460092
  57.5930040  63.8955066  75.9559372  58.1678744  63.3552356  73.9817493
  58.2940177  62.1329438  73.8844785  57.7613311  64.1360224  72.9686389
  57.6867019  65.1336760  73.1072651  57.4549043  63.5978400  71.6524397
  56.7609806  62.7637102  71.7563464  56.8199976  64.6493459  70.7559283
  55.8617989  64.9443750  71.1836108  57.4788845  65.5164078  70.7093244
  56.6050023  64.1101568  69.3725856  57.5493806  64.1858408  68.8335842
  56.2995106  63.0651198  69.4243008  55.5711844  64.8700872  68.6269365
  54.7062243  64.2678931  67.9381671  55.6443188  66.2058622  68.7182950
  54.9692679  66.7798410  68.2335723  56.3741219  66.6319433  69.2714168
  58.7353669  63.1611469  70.9994401  59.7524653  63.7849710  71.1817048
  58.6841554  62.1161930  70.1943229  57.8777314  61.5098334  70.1484138
  59.8543053  61.7330442  69.4908349  60.7231027  62.2265850  69.9263894
  60.0788532  60.2421645  69.5262747  59.5776133  59.8286697  70.4014208
  59.5147004  59.5797428  68.2489591  60.0158220  59.9924256  67.3733623
  59.6853010  58.5040074  68.2912434  58.4445325  59.7749479  68.1801391
  61.4827820  59.9959535  69.6314556  61.6407503  59.0493340  69.6550760
  59.8526719  62.3067477  68.0673948  58.8196579  62.4304794  67.4423967
  61.0316407  62.7024986  67.5867465  61.8575187  62.5791612  68.1549127
  61.1833610  63.3145383  66.2645339  60.2483451  63.2099392  65.7141671
  61.5343365  64.8146998  66.3600620  60.5790783  65.2624161  66.6341628
  62.2492629  64.9610948  67.1697216  62.0706607  65.4901719  65.0675332
  62.9461643  64.9328969  64.7343084  61.0238211  65.5179697  63.9440729
  60.1481498  66.0755078  64.2764127  61.4480591  65.9999865  63.0632876
  60.7312454  64.4981702  63.6940549  62.5809723  66.8959545  65.3502475
  63.3904218  66.8495440  66.0787644  62.9494303  67.3419265  64.4264245
  61.7690441  67.5045756  65.7483079  62.3090010  62.6092424  65.4850846
  63.4664925  62.7320792  65.8492680  61.9640434  61.9390165  64.3659258
  60.6490212  61.6054523  63.8125783  60.2085195  62.4975220  63.3673028
  60.0031632  61.2422342  64.6119775  60.9595909  60.5224439  62.7752948
  60.8960171  60.9379222  61.7695934  60.2535792  59.6976931  62.8724286
  62.3242259  60.0833260  63.0883361  62.7884000  59.7413495  62.1632991
  62.4327855  59.3153895  63.8542264  62.9788307  61.3665887  63.5480485
  63.8705250  61.1916126  64.1500143  63.3254523  62.3348649  62.3764314
  62.4535281  63.1200334  61.9047741  64.5983169  62.3219538  61.9644631
  65.2689055  61.7069729  62.4028793  65.0629099  63.2221532  60.9534396
  64.2401533  63.6275229  60.3645031  65.7351551  64.3396919  61.6610197
  66.0257647  63.9612286  62.6410252  66.6121358  64.7392015  61.1517093
  64.7130953  65.4296847  61.8279941  63.7675250  64.9750698  62.1234986
  65.1446405  66.4424831  62.8886661  66.0899711  66.8978858  62.5936114
  64.3831156  67.2165161  62.9838159  65.2689695  65.9362092  63.8459171
  64.4799956  66.0614285  60.4256171  64.1163910  65.2975481  59.7383195
  63.7419518  66.8596807  60.5042689  65.4180870  66.4703262  60.0502691
  65.9846689  62.5555023  59.9288432  66.5944052  61.5130872  60.2135387
  66.0225127  63.1019025  58.7140298  65.2801876  63.7204296  58.4199600
  67.0076621  62.6994288  57.7350960  67.8889700  62.3536592  58.2753172
  66.5546809  61.6026580  56.7966783  65.5071235  61.7863373  56.5579637
  67.1526061  61.6794862  55.8885578  66.7034409  60.2064870  57.3852052
  67.7263005  60.1132376  57.7501209  66.0083273  60.0527627  58.2106070
  66.4599046  59.1260605  56.3347355  67.3136939  58.8792506  55.4704938
  65.2936719  58.5150267  56.3695362  65.0851576  57.7926615  55.6951389
  64.6132667  58.7716511  57.0704600  67.5275852  63.8907897  57.0075519
  66.7773425  64.6998199  56.4268523  68.8399811  64.0653750  57.1411259
  69.3978986  63.3901932  57.6440742  69.4854982  65.3065900  56.6926117
  68.7415468  66.0010109  56.3022078  70.1892252  65.9595212  57.8645567
  70.9781327  65.2889437  58.2052178  70.6244881  66.9184445  57.5832876
  69.1759398  66.1706765  58.9939753  68.6306810  65.2369191  59.1314187
  69.8240231  66.5684454  60.2923993  70.3691255  67.5024249  60.1558541
  69.0573154  66.7040180  61.0552101  70.5157653  65.7874447  60.6080429
  68.1778650  67.2412708  58.5764487  67.6577402  66.9215138  57.6734952
  67.4540416  67.3958280  59.3766318  68.7060387  68.1742530  58.3797870
  70.3934382  65.0659246  55.4942040  71.1191741  64.0655040  55.4136933
  70.2688951  65.9418225  54.4978186  69.7482319  66.7972739  54.6290139
  70.8970129  65.7019475  53.1910554  71.4075710  64.7389765  53.1802612
  69.8263423  65.6896389  52.1367078  69.1571239  66.5479727  52.1959443
  70.3317443  65.6895971  51.1709599  68.9727833  64.4858347  52.1666673
  68.4316452  64.0157113  53.3687653  68.6404683  64.5571521  54.2914433
  67.6482151  62.8903758  53.3963567  67.2309741  62.5231360  54.3339843
  67.3866616  62.2116709  52.2006350  66.8248008  61.2782504  52.2343773
  67.8372747  62.7172005  50.9676559  67.5717387  62.2341637  50.0273015
  68.6318130  63.8495597  50.9633513  68.9983699  64.2545555  50.0201046
  71.9091994  66.8113421  52.8326296  73.0309651  66.5249498  52.3458676
  71.5433872  68.0430601  53.1621372  70.6323497  68.2373496  53.5524725
  72.4080079  69.1627681  52.8441092  72.8893913  68.9924799  51.8811081
  71.6212399  70.4376431  52.7679327  71.2675069  71.0499245  53.5974408
  72.4249570  70.9596237  52.2486303  70.4985931  70.3315808  51.8116602
  69.2770430  69.8407958  52.2076896  69.0141174  69.6623107  53.1663934
  68.5196113  69.6453450  51.1479249  67.4822992  69.3268208  51.2510019
  69.2445788  69.9007135  50.0747147  70.5066700  70.2714440  50.4656493
  71.2780253  70.4522494  49.7170362  73.5461027  69.2417669  53.8120831
  73.3741698  69.0306525  55.0213787  74.7616470  69.4702657  53.2680709
  75.0534160  69.9924905  51.9326818  74.3534789  70.7922013  51.6905025
  74.9594867  69.1931596  51.1975991  76.4585621  70.4809936  52.0663346
  76.4603238  71.5361870  52.3395795  76.9884182  70.3496335  51.1228843
  77.0624600  69.6421657  53.1355465  77.8752010  70.2006746  53.5998944
  77.4270061  68.6637522  52.8226366  75.9261840  69.4790006  54.1160540
  75.9969099  68.5260131  54.6403735  75.8213839  70.6011631  55.1236761
  76.3884714  70.4195227  56.2098490  75.0521113  71.6872915  54.8216796
  74.7299055  71.8483547  53.8781006  74.7312486  72.6913028  55.8498247
  75.6771722  73.1688741  56.1052723  73.7016482  73.7900912  55.5004981
  73.0228276  73.8436562  56.3516342  74.2688741  74.7181875  55.4298437
  72.9292771  73.5959622  54.2722546  72.5181984  72.5878134  54.3247058
  72.1207347  74.3097056  54.1143569  73.8594286  73.6695780  53.1172979
  73.9744922  72.7270625  52.3463414  74.6277451  74.7649164  53.0442120
  75.2799632  74.8704823  52.2802952  74.5511561  75.4799896  53.7533705
  74.2351671  72.0480886  57.1188813  74.8855088  72.1694114  58.1622516
  73.0820890  71.3654072  57.0191474  72.5741384  71.4005587  56.1468803
  72.4816731  70.6451807  58.1433958  72.2835831  71.3333424  58.9651579
  71.1543054  70.0049557  57.7082716  71.4116502  69.1988168  57.0212397
  70.7050922  69.5850888  58.6082823  70.1377988  70.9688463  57.0211164
  69.6130692  71.4930764  57.8198293  70.7303235  71.6815524  56.4474756
  69.0958908  70.2782980  56.0780460  69.2159858  69.0581617  55.7438623
  68.1358177  70.9823773  55.6719502  73.4670250  69.6035670  58.7069609
  73.7274214  69.5863251  59.8954261  74.0280960  68.7854395  57.8230663
  73.8426723  68.9513447  56.8441930  74.8971464  67.6735721  58.1823244
  74.4476487  66.8890003  58.7910099  75.3493362  67.0697532  56.8735207
  75.5874298  67.8825451  56.1873866  76.5686395  66.1815511  57.0480554
  76.3311611  65.3682055  57.7337477  76.8592302  65.7685679  56.0820831
  77.3919647  66.7694406  57.4537935  74.1919829  66.3350930  56.2486649
  73.3731118  67.0317270  56.0690729  74.5082133  65.8952796  55.3027991
  73.8560650  65.5459777  56.9213885  76.1358390  68.1033295  59.0001235
  76.6504401  67.3438132  59.8536278  76.5916147  69.3341781  58.7641105
  76.2076001  69.8757485  58.0029708  77.6437375  69.9400866  59.5871569
  78.4875204  69.2566231  59.6820642  78.1423008  71.2573994  58.9176118
  78.4173223  71.0141974  57.8913003  77.3045690  71.9547415  58.9132061
  79.2635382  71.8605014  59.5834440  79.5167663  72.6626863  59.1208700
  77.1458253  70.2771238  60.9633249  77.7574992  69.8881526  61.9915669
  76.0428405  71.0114361  60.9939192  75.6439684  71.2890000  60.1085048
  75.4613185  71.5194535  62.1809598  76.0907899  72.2540899  62.6831294
  74.1797189  72.2213259  61.6919009  74.2854320  73.2632978  61.9939248
  74.2082540  72.1541289  60.6043485  72.8698530  71.6865585  62.1915058
  72.0957260  71.8680887  61.4459355  72.9592000  70.6146887  62.3681814
  72.4155577  72.5004347  63.7229673  73.8356477  73.5865941  64.0847837
  73.9691214  74.2953765  63.2675252  73.6506124  74.1311232  65.0107160
  74.7370045  72.9832470  64.1926237  75.2547916  70.4155934  63.2557033
  75.4973220  70.6280128  64.4227561  74.8368967  69.2425235  62.8166306
  74.7929919  69.1355034  61.8132770  74.5583624  68.0969226  63.6362533
  73.9405769  68.2908717  64.5130793  73.8437872  67.0689619  62.7511064
  74.4409642  66.8983652  61.8553522  73.6597962  65.7510064  63.4980005
  73.0622824  65.9207293  64.3936970  73.1508725  65.0350366  62.8526444
  74.6346276  65.3545231  63.7819133  72.5258462  67.6215787  62.2449572
  72.7098274  68.5225548  61.6597265  72.0351666  66.8762505  61.6190028
  71.8836584  67.8638054  63.0917287  75.8314499  67.3812077  64.0990648
  76.0177372  67.0931874  65.2973249  76.6974651  67.0850201  63.1278961
  76.4502195  67.2807311  62.1683826  77.9476142  66.3768082  63.3901695
  77.7191189  65.3726415  63.7472945  78.8295748  66.2621165  62.1183199
  78.1685277  66.4452163  61.2712128  79.5654465  67.0635278  62.1841441
  79.5615978  64.8998339  61.9208673  80.4719597  64.9259757  62.5197486
  78.9034722  64.1156984  62.2951724  79.9235167  64.6080864  60.4457819
  79.6620154  65.4854766  59.8542564  80.9989358  64.4396752  60.3891177
  79.2289059  63.4307429  59.8799769  78.6747868  62.8737059  60.5146116
  79.2795567  63.0702659  58.5898603  79.9840235  63.7887149  57.7098992
  80.4831838  64.6108221  58.0182474  80.0139292  63.5061775  56.7406841
  78.6347889  61.9783599  58.1729484  78.1081027  61.4238536  58.8326640
  78.6765679  61.7116791  57.1996886  78.6918982  67.0460902  64.5563020
  79.1841523  66.3492205  65.4708802  78.7167997  68.3774063  64.5507857
  78.3748283  68.8777754  63.7428342  79.2924481  69.1482952  65.6505099
  80.1852267  68.6560118  66.0361297  79.6740542  70.5054931  65.1476266
  78.7570765  70.9170014  64.7258305  80.0442571  71.1697963  65.9284924
  80.7232280  70.4193241  64.0428347  80.3911589  70.1667551  62.8809612
  82.0078532  70.5206303  64.4214902  82.7408985  70.4698592  63.7285495
  82.2349936  70.6471236  65.3974551  78.3945660  69.2946933  66.8786077
  78.8731478  69.4173886  67.9968824  77.0894767  69.3002335  66.6523925
  76.7458822  69.2833619  65.7027833  76.1153727  69.3453171  67.7409818
  76.2728857  70.2531447  68.3233374  74.7121619  69.3424127  67.2323434
  74.6971519  69.7550266  66.2235700  74.2616146  68.3499134  67.2251181
  73.9257996  70.2469654  68.1594182  74.0320725  69.8661333  69.1751809
  74.4131767  71.6932547  68.1047852  74.3067753  72.0749523  67.0893618
  73.8195748  72.3032124  68.7857325  75.4615339  71.7353346  68.4002117
  72.4719246  70.1607944  67.7775308  72.1294104  69.1310266  67.8793240
  71.8849402  70.8048020  68.4323627  72.3474160  70.4840830  66.7440507
  76.2902503  68.1497033  68.6606064  76.1808848  68.2869072  69.8774381
  76.5962611  66.9970586  68.0789774  76.6005513  66.9120761  67.0725684
  76.8064974  65.8085133  68.8657193  75.9175272  65.6601090  69.4787506
  77.0410774  64.6223155  68.0572294  77.9869085  64.7025117  67.5214379
  77.0968638  63.4332671  69.0116705  76.1511465  63.3521409  69.5475230
  77.2719744  62.5191873  68.4443126  77.9073799  63.5778035  69.7260038
  75.9046006  64.4640389  67.0726305  75.5894033  65.4568281  66.7515060
  76.2724380  63.9043254  66.2126793  74.7370672  63.7401941  67.6782175
  74.3683658  64.2995836  68.5380096  73.9425420  63.6476215  66.9377722
  75.0514014  62.7470811  67.9991852  77.9151298  65.9588906  69.8927363
  77.8148572  65.4307767  70.9917773  78.9720688  66.6351645  69.5149012
  79.0666911  67.0288934  68.5896318  80.0710918  66.7605666  70.4204402
  80.3982069  65.7778205  70.7600059  81.2231355  67.4353494  69.7143097
  81.0133708  68.5035517  69.6591551  82.1274359  67.2729932  70.3008090
  81.4233591  66.8874369  68.3158930  80.6371292  67.3021520  67.6850564
  82.3965187  67.1865926  67.9265753  81.3300197  65.3822958  68.2756804
  80.9209999  64.8037188  67.2777012  81.6771109  64.7447819  69.3809065
  81.6348731  63.7361723  69.4129079  81.9828665  65.2693826  70.1880056
  79.7085192  67.4987789  71.6597443  80.0901284  67.0930111  72.7428052
  78.9547445  68.5719797  71.5196698  78.7098000  68.9418327  70.6123053
  78.6022285  69.3414282  72.6911199  79.3346016  69.0463115  73.4425418
  78.7628303  70.8382949  72.4128246  79.7672536  71.0327506  72.0367661
  78.0300618  71.1507309  71.6688258  78.5428364  71.6215859  73.7026626
  77.5383905  71.4279832  74.0791029  79.2755830  71.3100058  74.4470431
  78.7028104  73.1126216  73.4254519  79.7072327  73.3070782  73.0493916
  77.9700405  73.4250567  72.6814545  78.4828183  73.8959118  74.7152913
  77.4783731  73.7023090  75.0917329  79.2155667  73.5843328  75.4596687
  78.6370209  75.3331721  74.4480773  77.9578458  75.6221809  73.7586611
  78.4913226  75.8519419  75.3023314  79.5678367  75.5128432  74.0996532
  77.2344554  69.0035309  73.2651218  77.0339448  67.9304845  73.8077080
  76.3054180  69.9332060  73.1367674  76.5694515  70.7741519  72.6436187
  74.9582785  69.8395860  73.6631052  74.9723633  69.6779054  74.7409550
  74.2421464  71.1519326  73.3774616  74.6936047  71.5780268  72.4815105
  73.1908297  70.9364751  73.1866442  74.3540126  72.1295562  74.5053429
  74.3907822  71.6852013  75.6660675  74.3909277  73.3438631  74.2333411
  74.0516223  68.7550401  73.1539690  73.2081922  68.2496109  73.8713671
  74.1692152  68.4374692  71.8906074  74.8814320  68.8364583  71.2959190
  73.1902516  67.5167019  71.2867334  73.5069046  67.3064935  70.2651451
  73.0452619  66.1744491  72.0460992  72.5834823  66.4307155  72.9996118
  72.3487756  65.5813431  71.4534509  74.2895271  65.3827663  72.2921247
  74.9049474  65.3985725  71.3926199  74.8409971  65.8339371  73.1170051
  73.9435172  63.9543735  72.6399266  73.4483394  63.4937963  71.7850778
  74.8633457  63.4130940  72.8613575  73.0604521  63.8653805  73.7942378
  72.0763323  64.0002753  73.6114512  73.4493812  63.6167052  75.0538924
  74.7364466  63.4514142  75.3728322  75.4435683  63.5132813  74.6543258
  74.9962574  63.2653673  76.3309473  72.5385165  63.5374841  76.0157413
  71.5614999  63.6645833  75.7935153  72.8264885  63.3504583  76.9655793
  71.7553436  68.0347506  71.1136514  70.8902885  67.3220537  70.6104031
  71.4947286  69.2649560  71.5540835  72.2438369  69.8131848  71.9520550
  70.1619440  69.8645055  71.4760406  69.4674732  69.1231746  71.0807710
  69.5659753  70.4496818  72.8199308  68.7540019  71.1271647  72.5557029
  69.0477443  69.3834604  73.7447646  69.8593126  68.7058162  74.0098209
  68.6520432  69.8466860  74.6486130  68.2556552  68.8238275  73.2472645
  70.5311703  71.2314985  73.5142378  70.1439831  71.5732201  74.3235046
  70.1576293  71.0154722  70.5281150  71.0737381  71.8827033  70.5459163
  69.1159463  71.0150486  69.7079136  68.4508039  70.2582393  69.7780898
  68.8647456  72.0619507  68.7402927  69.5835716  72.8681146  68.8868815
  68.9942888  71.5537021  67.3341263  68.6989214  72.3707975  66.6759375
  70.0017011  71.2265899  67.0767975  68.1022370  70.4339582  67.0370840
  68.2510357  69.2314909  67.7064310  68.9215722  69.1713335  68.5636718
  67.5685383  68.1325495  67.3013505  67.7228671  67.1707202  67.7903983
  66.6749816  68.2398402  66.2633023  66.1319089  67.3567918  65.9265569
  66.4637445  69.4531154  65.6494228  65.7248333  69.5438331  64.8532565
  67.1809991  70.5419346  66.0393877  67.0191394  71.5039187  65.5530875
  67.4399002  72.5320185  68.9446012  66.7100566  71.9240651  69.7129883
  67.0625842  73.5744919  68.2245026  67.6440989  73.8773010  67.4562276
  65.8521150  74.3155536  68.5016543  65.3793789  73.9979234  69.4310255
  66.2268173  75.7661931  68.6246345  66.6931998  76.1013222  67.6982027
  65.3317059  76.3583111  68.8150871  66.9276209  75.8922668  69.4499096
  64.8144846  74.1159675  67.3614375  65.1451305  74.1837379  66.1590476
  63.5730098  73.8500952  67.7563329  63.3469384  73.7855201  68.7385859
  62.5165876  73.6753954  66.8027428  62.8220911  73.7290247  65.7578070
  61.9310621  72.3351895  67.0576236  61.5638603  72.2855255  68.0827068
  60.7891058  72.1021984  66.1038423  61.1556433  72.1512564  65.0784914
  60.3562750  71.1188716  66.2877617  60.0277082  72.8675979  66.2539723
  63.0347330  71.2865746  66.9456085  63.8114787  71.4958623  67.6811130
  62.6167036  70.2971282  67.1309379  63.4652148  71.3169088  65.9446759
  61.4880514  74.7484073  67.0365880  61.0946542  74.9869720  68.1904279
  61.0002775  75.3732661  65.9567240  61.3013749  75.0972420  65.0330085
  60.1741588  76.5686857  66.0864659  60.0930067  76.8410343  67.1387680
  60.7871370  77.7593128  65.3138529  60.7520858  77.4335083  64.2742750
  60.1482083  78.6330725  65.4419703  62.2597930  78.1297242  65.6949219
  62.8970862  77.2820589  65.4430852  62.7509247  79.3654839  64.9651865
  62.1143587  80.2137300  65.2169030  63.7769263  79.5806298  65.2637392
  62.7149154  79.1913668  63.8897857  62.5089662  78.3440074  67.1766211
  62.2676998  77.4315294  67.7218494  63.5573512  78.5957975  67.3365957
  61.8810549  79.1588093  67.5370710  58.7010039  76.3175199  65.7299167
  58.3985103  75.6953039  64.7535894  57.8259598  76.8948092  66.5311138
  58.1371732  77.2029825  67.4412098  56.4463202  77.0816040  66.1848318
  56.0436274  76.2488121  65.6082944  55.6307772  77.2389363  67.4329224
  56.0162848  78.0749558  68.0164935  54.5914205  77.4310662  67.1666068
  55.6908382  76.3253396  68.0243893  56.3520690  78.3473433  65.2807888
  56.8605936  79.4436996  65.6037914  55.8498092  78.1298734  64.0935349
  55.7179266  77.1837165  63.7656730  55.4379487  79.2163901  63.2342751
  55.7342227  80.1786100  63.6519517  56.1319996  79.0367475  61.8722681
  56.0226375  78.0302425  61.4684280  55.5162049  79.7276154  61.2964223
  57.5908706  79.4630322  61.7835732  58.6332402  78.5666212  62.0542592
  58.3977285  77.5615383  62.4041767  59.9509180  78.9472039  61.8811556
  60.7662776  78.2573023  62.0987018  60.2293483  80.2255699  61.3953974
  61.5147593  80.6643819  61.2676171  62.1629990  80.0114524  61.5416023
  59.2182027  81.0929494  61.0544601  59.4425481  82.0803235  60.6508983
  57.9136532  80.7024862  61.2277169  57.1019607  81.3657201  60.9287583
  53.9006472  79.0809893  63.0797474  53.4364919  78.0529171  62.5556238
  53.1162942  80.1379365  63.3890610  53.3610468  80.7670001  64.1403761
  51.8427336  80.3881682  62.6390786  51.2311668  79.4866308  62.6753486
  51.0278953  81.5622107  63.2302333  50.4064466  81.1829296  64.0414340
  51.7211192  82.3066393  63.6218540  50.1893483  82.1681931  62.2257342
  49.6948441  82.8925131  62.6161519  52.2924810  80.6885474  61.1735880
  53.1564559  81.5251400  60.9936513  51.7046202  80.0891528  60.1572639
  50.9343364  79.4455707  60.2693544  52.2075996  80.3360501  58.8140027
  53.2358978  79.9835782  58.7335935  51.3678679  79.6269793  57.7649197
  51.3977965  78.5516785  57.9407939  50.3371901  79.9762066  57.8269162
  51.8922440  79.9053637  56.3634855  52.8752476  80.6239002  56.1966009
  51.2323504  79.3333362  55.3537583  51.5388905  79.4856010  54.4035223
  50.4295861  78.7509186  55.5447032  52.2097780  81.8081733  58.5510627
  52.9801298  82.3118886  57.7583345  51.3344339  82.5093473  59.2281209
  50.6948494  82.0692384  59.8741358  51.2581647  83.9388948  59.0579563
  51.0785173  84.1674308  58.0074339  50.1091735  84.5290059  59.8927337
  49.1654861  84.0819108  59.5802289  50.3482784  84.2308609  61.3690678
  51.2916278  84.6780631  61.6824413  49.5341880  84.6488985  61.9611843
  50.3901654  83.1522149  61.5202962  50.0507205  86.0382251  59.6818663
  49.8798521  86.2518421  58.6267483  49.2365143  86.4569826  60.2733137
  50.9939591  86.4861074  59.9946013  52.5512812  84.6195358  59.4864928
  52.8602787  85.7155007  59.0365744  53.3129260  83.9791438  60.3579091
  53.0455074  83.0776722  60.7266035  54.5075378  84.6147131  60.8900137
  54.1483054  85.5110240  61.3956598  55.1838794  83.7127097  61.9183020
  54.4629844  83.4320139  62.6861688  55.5569556  82.8149747  61.4253658
  56.3472433  84.4593251  62.5623316  57.0688291  84.7399646  61.7950922
  55.9748591  85.3570025  63.0558977  57.0498233  83.5915305  63.5966422
  56.6605057  82.4472032  63.8188727  58.0891987  84.1397465  64.2301890
  58.5907637  83.6067650  64.9262240  58.3692225  85.0849734  64.0105662
  55.5116766  85.0456981  59.8503180  56.0792347  86.1273616  59.9697913
  55.7409726  84.2334312  58.8329243  55.2968298  83.3302068  58.7491254
  56.6972156  84.6284955  57.8120088  56.8830833  83.7933778  57.1366343
  56.1782326  85.8087698  56.9965246  55.2484385  85.5282944  56.5016350
  55.9960457  86.6558741  57.6578280  57.2047454  86.1931099  55.9579417
  58.1347351  86.4741738  56.4521311  57.3871266  85.3465960  55.2959369
  56.6852824  87.3744814  55.1417020  56.9601336  88.5301137  55.5619069
  56.0185745  87.1100147  54.1057686  58.0164404  84.9890766  58.4682709
  58.5954296  86.0326109  58.1843331  58.4560820  84.1133970  59.3631533
  57.8024462  83.3993149  59.6511576  59.7260182  84.2222230  60.0821450
  59.9435139  83.1613536  60.2060446  60.7887870  84.8336223  59.1917415
  60.7735890  84.3438476  58.2180942  60.5897109  85.8978486  59.0656816
  62.1593339  84.6457346  59.8335542  62.1754483  85.1356687  60.8071074
  62.3593287  83.5816682  59.9595183  63.2289131  85.2610531  58.9374468
  63.2137147  84.7712804  57.9637987  63.0298370  86.3252794  58.8113891
  64.5753847  85.0974052  59.5295910  64.6569916  84.6228242  60.4174043
  65.6828380  85.5467379  58.9460261  65.6560730  86.1810158  57.7773193
  64.7743981  86.3324172  57.3084621  66.5175451  86.5083675  57.3640321
  66.8416369  85.3452154  59.5668921  66.8584591  84.8631948  60.4542890
  67.6994796  85.6751271  59.1481286  59.7825555  84.8721460  61.4484566
  60.8201974  84.7958699  62.0938644  58.7061551  85.4862146  61.9093481
  57.8491838  85.5579787  61.3796790  58.7427192  86.0616014  63.2349239
  59.7161177  86.4295394  63.5592943  57.7284257  87.1809981  63.3794910
  58.0247199  88.0234318  62.7544993  56.7467037  86.8250481  63.0670465
  57.6677806  87.6219906  64.8223867  57.3710809  86.7801463  65.4479811
  58.6490956  87.9785318  65.1354337  56.6471211  88.7484092  64.9678619
  55.4573735  88.4186268  65.2195473  57.0669358  89.9279035  64.8259146
  58.3885924  84.8982916  64.1226139  57.3069941  84.8453103  64.6713206
  59.2895797  83.9399675  64.2521624  60.1868955  83.9803679  63.7903276
  58.9929543  82.7659279  65.1143286  57.9771371  82.3953504  64.9768983
  59.9572837  81.6335456  64.8629722  60.9785120  81.9868565  65.0056750
  59.7537880  80.8208011  65.5602068  59.8373669  81.2735572  63.8411466
  59.1320853  83.2294543  66.5523866  60.0607238  84.0023784  66.8554654
  58.1895970  82.8389825  67.4153569  57.4656074  82.1937583  67.1331797
  58.0562731  83.5153829  68.7305250  58.9622247  84.0882789  68.9283658
  56.8295624  84.4888720  68.7708862  55.9650352  83.9337943  68.4067699
  56.6707778  84.7647961  69.8133608  57.0167068  85.7780591  67.9153486
  58.0816700  85.9521257  67.7615470  56.5460239  85.5424639  66.9608567
  56.3785490  87.0751505  68.4756337  56.7629841  88.1803130  68.0747314
  55.3728959  86.9366778  69.3459326  54.9292772  87.7564193  69.7349412
  55.0614926  86.0129748  69.6103224  58.1063924  82.5468416  69.8946194
  58.6594624  82.8774846  70.9458176  57.7626004  81.2908114  69.6413405
  57.3356869  81.0690424  68.7532737  57.9300126  80.1975668  70.6358104
  58.6858923  80.4970653  71.3617896  56.5937468  79.8693543  71.4059742
  55.8987479  79.2804320  70.8074375  56.8747158  79.3053530  72.2953892
  55.8169990  81.1036552  71.8947811  55.0486041  81.8825392  71.0102350
  55.0031065  81.5932358  69.9603143  54.3489660  83.0127853  71.4570574
  53.7939594  83.6261330  70.7472172  54.3631937  83.3490219  72.7977425
  53.8220273  84.2263284  73.1521042  55.0725355  82.5615025  73.6949834
  55.0693384  82.8181094  74.7543430  55.7895755  81.4429189  73.2466916
  56.3359992  80.8245669  73.9588446  58.4468428  78.9327767  69.9383166
  58.4430594  78.8230958  68.7044605  58.8855023  77.9750757  70.7449519
  58.8768799  78.1232208  71.7439905  59.3916163  76.6862708  70.2328724
  58.6135593  76.2660599  69.5955740  60.2745770  76.9038923  69.6319393
  59.7553360  75.6787474  71.2912114  59.4564011  75.8782795  72.4529467
  60.5635556  74.7083031  70.9255273  61.0162335  74.7427131  70.0233089
  60.8327086  73.5445871  71.8026703  60.7869157  73.7544240  72.8713006
  59.7779700  72.5082640  71.4667311  60.0715832  71.9799598  70.5596555
  59.6381729  71.5160467  72.6069883  59.3441061  72.0435877  73.5143607
  58.8781178  70.7765984  72.3547350  60.5917703  71.0144643  72.7718145
  58.5329247  73.1983415  71.1706480  57.8537436  72.5548678  70.9555783
  62.2541716  72.9881051  71.5434606  62.6714111  72.8129012  70.3963252
  63.0009381  72.7324245  72.6202783  62.6998183  73.0329503  73.5363080
  64.2989887  72.0937323  72.4975965  64.8357330  72.5130228  71.6465970
  65.1839817  72.2540452  73.7737855  66.1489477  71.7770388  73.6023044
  65.3950074  73.7261025  74.0822226  64.4304464  74.2037157  74.2542903
  66.0135537  73.8259408  74.9741485  65.8926879  74.2066396  73.2399051
  64.5882076  71.6105563  74.9128256  65.1549783  71.7269640  75.6788677
  64.0759156  70.6308198  72.1598980  63.1940184  69.9785719  72.7230250
  64.8516075  70.1236703  71.2042775  65.4299438  70.7320456  70.6425784
  64.8994648  68.7157646  70.9490771  64.2809409  68.1357419  71.6339866
  64.4376229  68.4548977  69.5503235  65.0534273  69.0218294  68.8521305
  64.5257428  67.3909317  69.3305250  63.3967065  68.7615856  69.4476841
  66.3208312  68.2510064  71.1111710  67.2594352  68.8808524  70.6341630
  66.4814885  67.1331707  71.7773763  65.6490012  66.5838854  71.9365930
  67.7680479  66.5871957  72.2157164  68.5678147  67.3204052  72.1114271
  67.6266889  66.2288415  73.6848824  67.3045272  67.1504294  74.1696367
  66.8181776  65.4986497  73.7199452  68.8367194  65.6761538  74.4063112
  69.2876208  64.7445828  74.0643108  69.5300788  66.4994193  74.2343058
  68.5325430  65.5756607  75.8775144  68.8606572  66.5343865  76.6288579
  67.7600822  64.6586166  76.2250362  68.0121298  65.3126433  71.4677342
  67.1387444  64.4439939  71.4832300  69.1779688  65.1732486  70.8164995
  69.8145583  65.9483072  70.6975995  69.4258889  63.9655855  70.0718475
  68.4586015  63.6036654  69.7233248  70.3454968  64.1480467  68.8964335
  71.3803177  64.1875073  69.2365643  70.1650542  62.9569424  67.9447545
  69.1305142  62.9170968  67.6038146  70.8258632  63.0741075  67.0858573
  70.4104898  62.0327542  68.4679532  69.9870373  65.4529890  68.1683055
  69.3488762  65.1860241  67.3259393  69.4233988  66.0679765  68.8698763
  71.1830456  66.2283398  67.6676676  71.7469590  65.6141234  66.9656422
  70.8448626  67.1350437  67.1660507  71.8214831  66.4960739  68.5095796
  69.8232699  62.8039738  70.9775409  70.7578629  62.8900788  71.7682733
  69.0685242  61.7095928  70.8698178  68.2655767  61.7167872  70.2571817
  69.3421187  60.4903143  71.6471156  70.1108551  60.6964870  72.3918547
  68.0832704  60.0074994  72.3656591  68.2672371  59.3012321  73.1752527
  67.8079633  60.9755396  72.7842331  66.9359715  59.4862101  71.4811136
  66.8691903  58.1571169  71.1130964  67.6846506  57.4956534  71.4056543
  65.8028637  57.6604262  70.3918525  65.7934515  56.6204399  70.0655983
  64.7238659  58.4771413  70.1239851  63.6437588  58.0039147  69.3815390
  63.7511414  57.0915645  69.1028176  64.7316536  59.7884422  70.5552257
  63.8815295  60.4400521  70.3532507  65.8200758  60.2714678  71.2432123
  65.8183671  61.2956301  71.6162923  69.8727877  59.3301274  70.8181126
  70.2330130  58.2843073  71.3704920  69.8406803  59.4831176  69.5070321
  69.4716716  60.3289252  69.0964941  70.3267478  58.4476230  68.6229606
  71.1550248  57.8793273  69.0461583  69.2178171  57.4932303  68.2737312
  68.3846373  58.0464634  67.8403209  69.5814350  56.7611316  67.5526808
  68.8826510  56.9795142  69.1747632  70.8371776  59.1326389  67.3907923
  70.3202015  60.1700221  67.0179763  71.8554715  58.5739127  66.7579041
  72.3026653  57.7345806  67.0979610  72.3860624  59.1985734  65.5712966
  71.5928622  59.5928417  64.9360918  73.2516440  60.3490677  66.0337135
  72.5954495  61.1683874  66.3273515  73.7432150  59.9432131  66.9178742
  74.2847874  60.8561211  65.0776500  74.0302844  60.9643123  63.7341929
  73.0586604  60.6503606  63.3527738  74.9798495  61.4602465  62.8719804
  74.7690057  61.5341365  61.8051220  76.1866977  61.8687680  63.3584715
  77.1484051  62.3565936  62.5124088  76.8691937  62.3680846  61.5939815
  76.4542227  61.7884692  64.6930155  77.4179009  62.1139916  65.0847551
  75.5016134  61.2944696  65.5426984  75.7003168  61.2424624  66.6131713
  73.1621564  58.2196358  64.7345958  73.7666977  57.3040458  65.2627300
  73.1387710  58.4094505  63.4257255  72.6021960  59.1692054  63.0320771
  73.8797527  57.5573792  62.5267985  74.7638516  57.1682912  63.0318519
  73.0316456  56.3975576  62.0802449  72.1754340  56.3328221  62.7516688
  72.6844216  56.6085649  61.0688046  73.7777442  55.0904137  62.0917243
  74.6657033  55.1985401  62.7145711  73.1308561  54.3206978  62.5126463
  74.1876859  54.6941178  60.6985684  74.5047315  55.5767732  60.1431403
  75.0102054  53.9804550  60.7459649  73.0765774  54.0773000  59.9968714
  72.7226015  54.5383045  59.1708718  72.5004445  52.9521795  60.3877930
  71.4938795  52.4489743  59.6930841  71.1675588  52.9260212  58.8648082
  71.0561324  51.5899543  59.9940190  72.9274678  52.3363885  61.4816621
  73.6916204  52.7289385  62.0127696  72.4866244  51.4776109  61.7787429
  74.2499762  58.4031757  61.3485724  73.4583345  59.2146966  60.9187035
  75.4445891  58.2050207  60.8126429  76.0561074  57.5022403  61.2028280
  75.9260029  58.9891451  59.6729817  75.1211433  59.6078321  59.2760857
  77.1053240  59.9072403  60.0695788  76.7773158  60.6108645  60.8347080
  77.9227182  59.3012520  60.4604047  77.5801046  60.6694551  58.8556133
  77.9087295  59.9664599  58.0901694  76.7633287  61.2760738  58.4644738
  78.7447216  61.5761000  59.2472637  79.9052578  61.0933831  59.1592790
  78.4627120  62.7427426  59.6306900  76.3758512  58.0423345  58.5718105
  77.4882314  57.5961100  58.6006564  75.5139157  57.7892299  57.5923824
  74.5405864  58.0309524  57.7119631  75.8738032  56.9457705  56.4924728
  76.8481086  56.5022250  56.6976449  74.8682420  55.8242885  56.2542656
  75.4270536  55.0695979  55.7008480  74.6385312  55.4473787  57.2508959
  73.5753836  56.1355667  55.5207125  73.0501629  56.7869807  56.2192136
  73.7163509  56.6572007  54.5740736  72.7466342  54.8630496  55.2855022
  72.1772816  54.3331069  56.3006949  72.7837840  54.3333181  54.1254495
  76.2710489  57.7219002  55.2548636  75.6287641  58.7062489  54.8173091
  77.3580563  57.2564263  54.6630175  78.0503298  56.7392099  55.1858405
  77.6670711  57.6233699  53.2514948  76.8132633  58.1544060  52.8306480
  78.9147932  58.5265726  53.1380953  79.2235696  58.4731568  52.0941110
  78.5697483  59.5357133  53.3632154  80.1065049  58.1797976  54.0423830
  79.7842425  57.5219394  54.8495202  80.8439869  57.6645764  53.4269405
  80.7591119  59.4164857  54.6525375  81.2693963  60.2637379  53.9352569
  80.7113069  59.5343772  55.9803256  81.1302117  60.3367752  56.4284078
  80.2564218  58.8207076  56.5315575  77.7635908  56.3989437  52.3502098
  78.6770010  56.2880984  51.5425985  76.7289241  55.5792118  52.3635991
  75.9297801  55.7878769  52.9449141  76.7291876  54.3287760  51.6104197
  77.7376207  53.9169526  51.5708806  75.8156522  53.3144517  52.2835908
  74.8683578  53.8293012  52.4437860  75.6551391  52.4524851  51.6360190
  76.3575214  52.8586751  53.5882389  77.1077293  53.6688384  54.2270210
  76.0823848  51.6807565  53.9384225  76.3173525  54.5651575  50.1826783
  77.1129834  54.3349965  49.2402418  75.0853423  55.0689930  50.0348044
  74.4903366  55.1894225  50.8419997  74.5331370  55.3856837  48.7070412
  74.4394394  54.4593835  48.1402186  73.1642852  56.0553778  48.7762901
  73.0286735  57.0733338  49.1416315  72.9204817  56.0154233  47.7146576
  72.1629552  55.2194703  49.4719235  71.6342748  54.0953599  48.8185553
  71.8847291  53.9172157  47.7727842  70.7889213  53.2033429  49.5005113
  70.3359977  52.3692520  48.9645511  70.5278125  53.3837096  50.8648691
  69.8621169  52.6979196  51.3889313  71.1237468  54.4476774  51.5563001
  70.9325508  54.5859098  52.6204599  71.9716909  55.3393502  50.8716663
  72.4870463  56.1293542  51.4179285  75.5637670  56.2448059  48.0356480
  75.8032308  56.0416127  46.8646511  76.2697863  57.0956571  48.7993535
  76.1774719  57.0851331  49.8050705  77.2001368  58.0697742  48.1913102
  78.0599683  58.1831020  48.8515721  77.5303539  57.6766182  47.2298090
  76.5516044  59.4479814  47.9726790  76.8222933  60.1805663  46.9976497
  75.7080771  59.8278911  48.8980774  75.0192422  59.1959322  49.2804826
  75.7498773  61.1740254  49.3988219  76.6933485  61.6470311  49.1263757
  74.5714183  62.0613336  48.9237128  74.9034940  62.6619881  48.0769305
  73.3805913  61.2051114  48.5035500  73.0476375  60.6044741  49.3499998
  72.5664408  61.8507034  48.1742010  73.6757194  60.5475723  47.6858453
  74.1835053  63.0713369  50.0397064  73.8376626  62.4809446  50.8881935
  75.0967980  63.5995976  50.3134516  73.1087992  64.0818684  49.6521150
  72.1949969  63.5543339  49.3786694  72.9081529  64.7414743  50.4963663
  73.4541319  64.6729857  48.8039254  75.6939439  60.8676065  50.8722522
  75.2666877  59.7636079  51.2775127  76.2941708  61.7374199  51.6700958
  76.7773862  62.5341455  51.2804415  76.3237044  61.5468203  53.1455932
  76.4873473  60.4867452  53.3393996  77.4127020  62.3546388  53.8764083
  77.0741232  62.4299802  54.9097463  78.3103181  61.7378065  53.8327819
  77.7302769  63.7611037  53.3369905  78.1228294  63.6134821  52.3309034
  76.8046735  64.3343696  53.2848015  78.7638287  64.5304486  54.1837994
  78.7121604  65.8004702  54.1692250  79.6425879  63.8720403  54.8298789
  74.9658301  61.9264007  53.6548654  74.3115574  62.8364325  53.0938998
  74.4589587  61.0948278  54.5295293  75.0297617  60.3575490  54.9177345
  73.0623799  61.2152721  54.9913517  72.5671423  62.1578662  54.7582097
  72.2669334  60.0415190  54.3555448  72.9811972  59.2708959  54.0656006
  71.2441452  59.4505240  55.3029150  70.5292156  60.2204923  55.5929582
  70.7177395  58.6348221  54.8073061  71.7481884  59.0702316  56.1914067
  71.6318893  60.4684188  53.0242216  72.4147623  60.9686813  52.4541795
  71.3400222  59.5514012  52.5123702  70.4229285  61.3901090  53.1440550
  70.7141457  62.3076008  53.6554270  70.0498636  61.6321474  52.1488971
  69.6394061  60.8903211  53.7136201  73.1768734  61.0881336  56.4971890
  73.9624599  60.2778382  56.9766848  72.4459997  61.9191977  57.2442821
  71.9132752  62.6614603  56.8137589  72.4365573  61.8171526  58.6718109
  73.0143365  60.9419395  58.9689178  73.0342767  63.0535832  59.3540021
  72.3879917  63.9152873  59.1870256  73.1457292  62.7917506  60.8211841
  73.7922799  61.9304053  60.9889857  73.5699934  63.6656549  61.3155438
  72.1563136  62.5879553  61.2306056  74.4096643  63.3925410  58.8159849
  74.3426167  63.5942410  57.7469087  74.7934961  64.2747697  59.3282791
  75.0836646  62.5527836  58.9851942  71.0049443  61.6005831  59.1471718
  70.1044969  62.4052787  58.8608847  70.7983429  60.4706449  59.8323387
  71.5475278  59.8005605  59.9313747  69.5182112  60.1565670  60.4178564
  68.7874368  60.8821783  60.0607061  69.0286917  58.7623889  60.0678737
  69.3614445  58.1116119  60.8764924  67.9398985  58.8136664  60.0681230
  69.4986981  58.2158617  58.7667004  68.8232273  58.5271578  57.9698724
  70.5033859  58.5812250  58.5540645  69.5186672  56.7067035  58.8489421
  70.4099389  56.4078199  59.4006689  68.6304777  56.3838035  59.3920390
  69.5341601  56.0560655  57.4650197  70.0781088  56.7235549  56.7966798
  70.0734699  55.1130066  57.5538120  68.1694295  55.7991347  56.9101224
  67.6696800  56.6729201  56.8273621  68.2515754  55.3706676  55.9992064
  67.6653796  55.1803023  57.5290563  69.6484248  60.2871031  61.9405073
  70.5898118  59.7748569  62.5406259  68.7284754  61.0296232  62.5399712
  68.1261327  61.6197714  61.9840866  68.7138015  61.1931551  63.9656433
  69.2178473  60.3425036  64.4243686  69.4219121  62.4937266  64.4226107
  69.6836370  62.4065968  65.4771285  70.6568073  62.7146070  63.6219538
  70.3958172  62.8023042  62.5673001  71.1454773  63.6312447  63.9522226
  71.3348746  61.8722766  63.7590878  68.5457015  63.7134513  64.2636363
  67.6432558  63.5938034  64.8631179  69.0886677  64.5975560  64.5977713
  68.2718709  63.8305847  63.2151148  67.3223336  60.9968683  64.5608832
  66.3025778  61.1409991  63.8934339  67.3135270  60.6044857  65.8250665
  68.1859674  60.3355823  66.2570827  66.1039945  60.5512052  66.6257271
  65.2349296  60.8079437  66.0199955  65.9217833  59.1399718  67.1637646
  66.7456455  58.9522360  67.8523179  64.9801161  59.1269139  67.7125744
  65.8999494  58.0780060  66.1121630  65.0868571  58.2774163  65.4141535
  66.8484006  58.0819058  65.5750158  65.6922273  56.7330354  66.7521878
  66.4435668  56.5593794  67.5225329  64.6980255  56.6730982  67.1949856
  65.8261215  55.6871221  65.6755251  65.2565462  56.0367982  64.8144728
  66.8823506  55.6292074  65.4126087  65.3452554  54.3520596  66.0728172
  64.3664393  54.4054211  66.3160687  65.4665625  53.7080802  65.3042633
  65.8731962  54.0276760  66.8704091  66.2371694  61.5220951  67.7844239
  67.0009236  61.2730423  68.6815154  65.4855418  62.6167827  67.7429987
  64.9498028  62.8247479  66.9124365  65.4452693  63.5644049  68.8440706
  66.2811733  63.3526174  69.5107863  65.5941246  64.9607454  68.3175042
  64.7594671  65.1907918  67.6552917  65.6016174  65.6645855  69.1497621
  66.5296298  65.0431578  67.7642074  64.1679671  63.4591899  69.6549331
  63.1917353  62.9185611  69.1952888  64.1900768  63.9924467  70.8662585
  65.0545464  64.3846169  71.2112141  63.0283040  64.0152428  71.7365781
  62.1119188  63.7742903  71.1978024  63.2298876  63.0061973  72.8832382
  63.4698255  62.0350292  72.4503840  64.3436104  63.4336885  73.8071099
  64.1041577  64.4046321  74.2407360  64.4577240  62.6986852  74.6038840
  65.2746460  63.5070083  73.2450636  61.9531363  62.8087094  73.6814748
  62.0171556  63.4317565  74.5735592  61.1186293  63.1426006  73.0648596
  61.7327655  61.3550077  74.0913355  62.5667019  61.0205286  74.7084041
  60.8058252  61.2735360  74.6590002  61.6681779  60.7313721  73.1997038
  62.8466069  65.4273399  72.2822547  63.7947854  66.0329359  72.7497276
  61.6420488  65.9707257  72.1629492  60.8938415  65.4591084  71.7173789
  61.3592903  67.3139824  72.6667617  62.0220576  68.0130593  72.1567322
  60.3237433  67.5545073  72.4261596  61.5628362  67.4462914  74.1749823
  61.0851753  66.5991306  74.9615283  62.2588035  68.5110344  74.5818052
  62.5921492  69.1907719  73.9132718  62.6207317  68.6828983  75.9760063
  62.2479956  67.8270818  76.5388074  64.1232663  68.7896509  76.1917021
  64.4880132  69.5197271  75.4691735  64.2637845  69.1766026  77.2009707
  64.8990554  67.4895869  76.0345656  64.4949925  66.9916959  75.1531244
  65.9367493  67.7677575  75.8504066  64.8312408  66.5462188  77.2247353
  65.8396132  66.2266272  77.4876903  64.3834994  67.0672253  78.0710090
  64.0195051  65.3500188  76.9222328  63.1311358  65.5220549  76.4735648
  64.3701131  64.0812391  77.1828957  65.5404703  63.7840276  77.7546816
  66.1819158  64.5247419  77.9996103  65.7784198  62.8199921  77.9393850
  63.5281600  63.0979296  76.8749552  62.6377151  63.3141557  76.4501561
  63.7834012  62.1398571  77.0674332  61.9694443  69.8891103  76.6435692
  61.2219657  69.7321929  77.5945885  62.2807577  71.0873681  76.1890901
  62.8952911  71.2030302  75.3959506  61.7996649  72.2988145  76.8850680
  61.0289733  72.0355902  77.6095310  62.9351695  72.9480020  77.6099390
  63.5073961  73.5414805  76.8968898  62.5260342  73.6016735  78.3802779
  63.8343101  71.9264617  78.2462342  63.3119596  71.1004593  78.7289046
  64.4476287  71.5413521  77.4315976  64.7186225  72.5705236  79.2392512
  65.3230875  73.5806148  78.9364576  64.7169602  72.0711776  80.4665864
  65.3068427  72.4816348  81.1762800  64.1258172  71.2823992  80.6867677
  61.1286315  73.3054953  75.9780416  61.4815906  73.4754909  74.8154655
  60.2055861  74.0469394  76.5384254  59.8696840  73.8336102  77.4667356
  59.5896374  75.1512767  75.8188955  59.6221551  74.9598168  74.7463355
  58.1453723  75.3086042  76.2380605  58.1460321  75.6126198  77.2848047
  57.7191907  76.1057871  75.6289886  57.3103124  74.0459605  76.0772592
  57.3024197  73.7586551  75.0258344  57.7590437  73.2475026  76.6681968
  55.8841426  74.2843016  76.5479545  55.5694785  75.2819491  76.2417112
  55.2293220  73.5415127  76.0923513  55.7687356  74.1827367  77.9942791
  55.5800663  73.2611489  78.3619464  55.8751307  75.1995773  78.8500462
  56.1093858  76.4379256  78.4592676  56.2151976  76.6424206  77.4758625
  56.1817989  77.1755747  79.1453651  55.7596304  74.9568129  80.1273391
  55.5931899  74.0129055  80.4458300  55.8372379  75.7140098  80.7912131
  60.3682025  76.4369789  76.0483018  60.7756463  76.7394552  77.1616582
  60.4886206  77.2179205  74.9922645  60.2150485  76.8900231  74.0769826
  61.1067051  78.5128273  75.0962344  61.0896165  78.8360145  76.1370789
  62.5651030  78.4853495  74.6146727  63.0242219  79.4738871  74.6247909
  63.1136661  77.8236590  75.2850042  62.7547351  77.9237957  73.1853571
  62.5367461  78.7226862  72.0513356  62.2332363  79.7620773  72.1764267
  62.7041926  78.2004767  70.7852065  62.5563932  78.8347255  69.9111444
  63.0599189  76.8710331  70.6243107  63.0983345  76.4452288  69.6216568
  63.3629692  76.0901662  71.7150690  63.7147701  75.0671485  71.5817614
  63.2187388  76.6109208  72.9866661  63.4660458  76.0020147  73.8562479
  60.3653528  79.6251573  74.3787167  59.5744947  79.3704657  73.4723605
  60.7322814  80.8494498  74.7473361  61.3708226  80.9252796  75.5261906
  60.3172501  82.0671702  74.0772680  59.4258620  81.8846414  73.4770933
  59.9957360  83.1258802  75.1119423  59.7468153  82.5862554  76.0256943
  60.9174774  83.6879494  75.2621792  58.8528492  84.0982321  74.7626353
  59.2371081  84.8533930  74.0769400  58.0563949  83.5365670  74.2744807
  58.2923759  84.7916007  76.0347165  57.9309918  84.0094393  76.7023422
  59.1177858  85.3215653  76.5100432  57.1573959  85.7750043  75.7401849
  56.3134101  85.2136754  75.3393129  56.8649678  86.2506787  76.6763039
  57.5728383  86.8281543  74.7519503  57.8434380  86.3876198  73.8843070
  56.7996660  87.4559256  74.5839987  58.3546108  87.3486896  75.1233988
  61.4803666  82.5594030  73.2402562  62.6271424  82.6010732  73.6874104
  61.1773609  82.9405763  72.0074803  60.2387922  82.8056671  71.6596474
  62.1675548  83.5505658  71.1161353  63.1461130  83.0757786  71.1875495
  61.7148117  83.5152206  69.6639574  60.6707683  83.8238241  69.6106998
  62.5688732  84.4572721  68.8125856  63.6130600  84.1490030  68.8649784
  62.2307868  84.4189637  67.7770516  62.4719829  85.4758244  69.1884379
  61.7559361  82.0690669  69.1704006  61.0902574  81.4576286  69.7795944
  61.4333708  82.0303948  68.1299412  62.7735476  81.6865049  69.2492298
  62.3892368  84.9966706  71.5203738  61.4624324  85.7557209  71.6846150
  63.6404275  85.3626718  71.6657318  64.3717550  84.6677580  71.6172113
  64.0224091  86.7565335  71.8829685  63.2007835  87.3489624  72.2855333
  65.1250342  86.7227246  72.8905070  65.9961922  86.2433700  72.4439625
  65.4059013  87.7055429  73.2690332  64.6064573  85.8647787  74.0399298
  63.9340942  85.1216172  73.6112812  65.6967841  85.1663260  74.8218864
  66.3693258  85.9089100  75.2512528  65.2497706  84.5760882  75.6218233
  66.2580539  84.5099655  74.1568544  63.7899047  86.7470269  74.9537362
  62.9549311  87.1730977  74.3975149  63.4075230  86.1547863  75.7850824
  64.4169974  87.5509488  75.3391751  64.5128305  87.3685408  70.5680088
  63.8293088  88.1982029  69.9476276  65.6560506  86.8594864  70.0768497
  66.1378168  86.1600063  70.6234102  66.2032100  87.2161291  68.7749174
  65.5280386  87.8850648  68.2412810  67.5102202  87.9224886  68.9861648
  67.7652777  87.8123639  70.0401655  68.2530586  87.4070911  68.3773491
  67.4922237  89.3636216  68.6296429  67.1575845  89.4505496  67.5959307
  66.8084840  89.9097924  69.2794865  68.8552772  89.9328324  68.7570131
  69.7733053  89.1621504  69.1560166  68.9913146  91.1425747  68.4888762
  66.5285126  85.9961503  67.8893674  66.8937070  84.9372644  68.3873630
  66.5966888  86.2465300  66.5959362  66.3219682  87.1615949  66.2683939
  67.0758142  85.2720344  65.6129106  67.4166831  84.3602962  66.1034622
  65.9270313  84.9245983  64.6907637  65.3655019  85.8533962  64.5901729
  66.3588117  84.6554587  63.7267981  65.0025265  83.8261093  65.1512826
  64.7294503  83.9926358  66.1932995  63.7476156  83.8282883  64.2921441
  64.0198641  83.6613452  63.2499783  63.0781782  83.0346186  64.6238712
  63.2441131  84.7904661  64.3859499  65.7079212  82.4863265  65.0640965
  66.5938541  82.4995756  65.6989562  65.0337643  81.6977484  65.3983993
  66.0038293  82.2973932  64.0321849  68.2131274  85.8322597  64.7533996
  67.9890847  86.6979736  63.8786617  69.4099152  85.2811998  64.9457169
  69.5272712  84.5953954  65.6778366  70.5955172  85.6292543  64.1038055
  70.4357369  86.5702753  63.5774512  71.8198718  85.7848065  65.0322345
  72.2214971  84.7842730  65.1926373  72.5500632  86.3863884  64.4909215
  71.5231684  86.4376963  66.3839456  72.2656863  87.2185241  66.5484933
  70.5312684  86.8861838  66.3283092  71.5670724  85.4419632  67.5410415
  70.8699293  85.7669126  68.3133746  71.2694072  84.4599227  67.1734939
  72.9066749  85.3370155  68.1308458  73.4189846  84.4872900  67.9421532
  73.4822721  86.2740054  68.8966007  74.6908828  86.0646880  69.3981207
  75.1732019  85.1994734  69.2009607  75.1241510  86.7713318  69.9752107
  72.8591111  87.4152835  69.1736275  71.9349675  87.5853053  68.8032882
  73.3127162  88.1070224  69.7531432  70.9092058  84.5244374  63.0637535
  70.6959194  83.3853826  63.3421795  71.3350002  84.9094023  61.8607272
  71.5253585  85.8881921  61.6999991  71.3934049  83.9871280  60.7100800
  71.0631346  82.9852406  60.9843834  70.4815473  84.5150966  59.5595453
  70.9708737  84.3210738  58.6050742  69.0963820  83.8074445  59.5850512
  68.6062198  84.0014097  60.5391047  68.4769091  84.1909138  58.7743085
  69.2341026  82.7334774  59.4596387  70.2961652  85.9507859  59.6710377
  69.7335277  86.2572500  58.9561118  72.8339402  83.6641912  60.2103815
  73.2734119  84.1369880  59.1396257  73.5329600  82.8025508  60.9585367
  73.2441013  82.5696571  61.8979092  74.7758645  82.2076719  60.4433944
  75.6383002  82.8632378  60.5639643  75.0856896  80.8530499  61.1233911
  75.2740939  81.0134771  62.1849306  74.2347528  80.1825560  61.0032053
  76.3185265  80.2300928  60.4771234  76.1307007  80.0689313  59.4155918
  77.1700430  80.8998500  60.5973186  76.6572666  78.8925937  61.1196466
  75.9694458  78.4490241  62.0364825  77.7221462  78.2494083  60.6353250
  77.9905952  77.3576579  61.0262443  78.2544623  78.6574960  59.8802056
  74.5408683  82.0695442  58.9051235  73.4238772  81.6757768  58.4715476
  75.4784237  82.5674025  58.0799659  76.3539811  82.9301005  58.4291773
  75.2258430  82.6271429  56.6258434  74.2334431  83.0417128  56.4487180
  76.2505470  83.5006173  55.9192381  75.9857173  83.5738784  54.8644408
  76.2368499  84.4944755  56.3666285  77.5379526  82.9497539  56.0416028
  78.1711801  83.5129650  55.5905862  75.2519980  81.2584780  56.0092565
  75.2047754  81.1399523  54.8073349  75.5175574  80.2589583  56.8506128
  75.9249568  80.5155265  57.7384742  75.4181303  78.8100016  56.5104882
  75.7233297  78.6528994  55.4759489  76.3574691  77.9511365  57.4508128
  76.4679733  76.9384662  57.0630152  77.3176626  78.4647829  57.4028978
  75.8768757  77.8905505  58.9243505  74.9636892  77.1153055  59.1839785
  76.4579120  78.5481463  59.8209081  73.9478599  78.2406777  56.4579144
  73.7157501  77.0007103  56.5604417  72.9863725  79.1296939  56.1812805
  73.2097008  80.1122787  56.1123548  71.6208831  78.7242365  55.9752346
  71.0456541  79.5631187  55.5834597  71.5880751  77.8984210  55.2645647
  71.0034197  78.2714247  57.2887362  69.8587521  77.8268833  57.3099262
  71.7674558  78.3654517  58.3757701  72.7020591  78.7400052  58.2962359
  71.3026581  77.9489346  59.6851599  70.3457872  77.4272562  59.6664777
  72.3397899  77.0767679  60.3625519  73.3286928  77.4546020  60.1029119
  72.1795811  77.0800011  61.8521450  71.1910186  76.7018330  62.1125939
  72.9416112  76.4431735  62.3014350  72.2893868  78.0973520  62.2276965
  72.2974289  75.6668185  59.7563166  71.5204256  75.7013117  58.9926564
  73.2677765  75.5250629  59.2804695  72.0246578  74.5105217  60.7042567
  71.0542054  74.6513489  61.1801662  72.0223125  73.5746813  60.1454218
  72.8015557  74.4751016  61.4679811  71.0550962  79.1681102  60.5410833
  71.8419447  80.1115490  60.5584798  69.9809749  79.0985982  61.3411361
  69.3160971  78.3483419  61.2180406  69.7585275  80.0546660  62.4362947
  70.1529009  81.0316059  62.1567286  68.2959885  80.1946542  62.7287262
  67.8320665  79.2221580  62.5640236  68.1944197  80.4720653  63.7779291
  67.6211733  81.2189049  61.8755329  67.3482744  82.0205384  62.5618351
  68.2498724  81.6201363  61.0806411  66.3777786  80.6692519  61.2672664
  65.7976135  79.6948104  61.7869069  66.0090212  81.2023430  60.0947537
  65.1741991  80.8707438  59.6330011  66.5675294  81.9333920  59.6779357
  70.3763496  79.6101765  63.7173685  70.4004487  78.4759738  63.9988869
  70.8312111  80.5774595  64.5050832  71.0780591  81.4743351  64.1116627
  71.0683320  80.3568073  65.9335660  70.7249536  79.3552208  66.1924384
  72.5743488  80.4848907  66.3257778  72.5793751  81.0382543  67.2648532
  72.9112874  79.4638046  66.5045395  73.5158511  81.1654610  65.3274680
  72.9066018  81.6389142  64.5575601  74.0983530  81.9257970  65.8477398
  74.4873765  80.1788309  64.6494472  74.7778815  79.1085435  65.2054902
  75.0059950  80.5401186  63.4492638  75.6463492  79.9214923  62.9724522
  74.7494644  81.4261295  63.0378295  70.1747807  81.3672145  66.6981530
  70.0745538  82.5511252  66.3485488  69.3795059  80.8131156  67.6043242
  69.5916545  79.8688773  67.8932989  68.2257679  81.4767427  68.2021166
  67.9810152  82.3881634  67.6566741  67.0369287  80.5335175  68.1296614
  67.2634108  79.6197819  68.6791094  66.1634710  81.0145367  68.5698799
  66.8297740  80.2885657  67.0879393  68.4750331  81.8526528  69.6821732
  68.7860515  80.9569588  70.4847003  68.3487427  83.1593417  69.9936357
  68.2846437  83.8302970  69.2414325  68.4213190  83.6457225  71.3244131
  69.1548167  83.0588942  71.8773262  68.8278805  85.0990305  71.3762957
  69.3791241  85.3113141  70.4602360  67.9112700  85.6886439  71.3930601
  69.6921019  85.4641409  72.5885122  69.0717677  85.3998550  73.4824661
  70.5054170  84.7418441  72.6585681  70.2802428  86.8946402  72.4694483
  71.3505343  86.7868826  72.2934844  69.8148656  87.3606177  71.6008929
  70.0508297  87.7772004  73.7092241  70.3630524  88.7901509  73.4551597
  68.9825591  87.7703509  73.9256734  70.8061738  87.3100995  74.9130099
  71.7961077  87.3167822  74.7127952  70.6156653  87.9265117  75.6900829
  70.5166998  86.3716536  75.1488554  67.0882030  83.3774463  72.0413723
  66.0070294  83.7650974  71.5789663  67.1749390  82.6442064  73.1479043
  68.0336292  82.5952742  73.6773911  66.0476863  81.7899802  73.5638703
  65.0732944  82.1968816  73.2935170  66.1828105  80.3751831  72.9447317
  66.9273583  80.4219200  72.1500220  66.6039149  79.3387794  73.9722985
  65.8595700  79.2911367  74.7671455  66.6856409  78.3633196  73.4928202
  67.5691407  79.6171239  74.3953412  64.8873120  79.9718892  72.2590302
  64.6571380  80.6852348  71.4676642  64.9977616  78.9763177  71.8292187
  64.0768539  79.9645495  72.9878680  65.9520582  81.7654564  75.0855240
  66.9382350  81.4662456  75.7632040  64.7859245  82.1581086  75.6139190
  64.0735790  82.5647166  75.0245692  64.5597662  82.1322537  77.0539083
  65.4943119  81.9303767  77.5773289  64.0267657  83.4764293  77.5141881
  64.8224385  84.1968684  77.3245267  63.1751061  83.6988547  76.8713017
  63.6031625  83.5650658  78.9564568  63.5028910  82.5657060  79.3799264
  64.3620184  84.1188710  79.5092129  62.2596795  84.2962414  79.1002271
  61.9319389  85.2012912  78.3236391  61.4742001  83.8886656  80.0855438
  60.5781532  84.3319962  80.2292773  61.7748400  83.1363852  80.6886948
  63.6506332  80.9492563  77.4374658  62.5053278  80.8452098  76.9863087
  64.1821937  80.0541966  78.2721458  65.1177722  80.1836584  78.6299611
  63.4420579  78.8829810  78.6933215  63.1137063  78.3051018  77.8294118
  64.2305974  77.9961907  79.6194423  64.2919057  78.4641731  80.6019565
  63.5410874  76.6334241  79.7452602  63.4798228  76.1645939  78.7631474
  64.1158480  75.9954469  80.4166290  62.5364571  76.7695401  80.1456220
  65.6546697  77.8741048  79.1108608  66.1365802  78.8426891  79.2439296
  66.1613764  77.1293785  79.7246447  65.7344111  77.4684294  77.6608823
  65.2282853  78.2129659  77.0463890  66.7795947  77.3989771  77.3594411
  65.2530791  76.4996556  77.5271037  62.1762853  79.2633739  79.4368556
  62.2161358  80.0897160  80.3670081  61.0623433  78.6534635  79.0579143
  61.0568759  78.0756031  78.2295745  59.8198630  78.8059102  79.8013756
  59.7959834  79.7851553  80.2795052  58.6170098  78.6879276  78.8724863
  58.6867994  77.6892072  78.4414570  57.7007110  78.7674139  79.4574465
  58.5966363  79.7332735  77.7433526  59.5250261  79.6755372  77.1751452
  57.4255060  79.4552931  76.8253881  56.4966631  79.5133123  77.3928240
  57.4079151  80.1940434  76.0241147  57.5274559  78.4580749  76.3972963
  58.5213149  81.1741482  78.2616420  59.3888352  81.3812507  78.8882331
  58.5101044  81.8641846  77.4179446  57.6113777  81.3028913  78.8477634
  59.7396467  77.7406984  80.8671215  59.7884778  76.5745497  80.5720761
  59.5225392  78.1682688  82.1455478  58.9811259  79.5067816  82.4524029
  58.0460351  79.6520852  81.9114848  59.6994761  80.2671445  82.1459386
  58.7875084  79.4700468  83.9334862  57.7200016  79.5453920  84.1404918
  59.3025655  80.3272180  84.3671625  59.3624625  78.1711954  84.4591123
  58.6619099  77.8336964  85.2229314  60.3704451  78.1886407  84.8735593
  59.3108282  77.2447387  83.2712639  60.0594842  76.4531099  83.2406666
  57.9251969  76.6341171  83.1650926  56.9936166  77.3351915  82.7540844
  57.7587185  75.3514079  83.5225781  58.5498977  74.7350191  83.6417406
  56.4090900  74.7923906  83.6854696  55.7607258  75.1957444  82.9076336
  56.4046918  73.2571865  83.5820534  56.6264473  73.0124097  82.5433002
  57.2122468  72.8977929  84.2198552  55.0865367  72.5838781  83.9965954
  55.3034127  71.5916699  84.3923080  54.6945137  73.2148832  84.7942480
  54.0471872  72.4709062  82.8783110  54.3806110  71.9621138  81.7855874
  52.8726827  72.8455774  83.1144928  55.8714064  75.2629411  85.0310202
  56.4122949  74.9426999  86.1074245  54.7759100  76.0318092  84.9318462
  54.3375194  76.1799618  84.0340913  54.2849743  76.7797950  86.0651344
  55.1132646  76.9928750  86.7408794  53.6471606  78.1142607  85.6317108
  53.5448098  78.7639717  86.5009054  54.2865920  78.5959423  84.8919741
  52.0103115  78.0142595  84.8875000  51.8691569  79.3212938  84.6859188
  53.3453182  75.8765323  86.8966818  52.2906310  75.4032415  86.4391213
  53.8226451  75.5679117  88.1054110  54.6698377  76.0133954  88.4277593
  53.1908122  74.5787279  88.9686998  52.3535142  74.0728280  88.4879748
  54.1589035  73.5169224  89.5133081  53.8231226  73.2008990  90.5009718
  54.1987114  72.3145636  88.5830782  54.5348698  72.6297401  87.5952714
  54.8882591  71.5697679  88.9804493  53.2015763  71.8811444  88.5058049
  55.5383346  74.1092067  89.7775373  55.4555005  74.9113719  90.5108664
  56.2000101  73.3330301  90.1620306  55.9473126  74.5073606  88.8489300
  52.5094933  75.2187150  90.1628531  53.0904221  76.0205367  90.9186524
  51.2605320  74.7517430  90.3313818  50.9798300  74.0038772  89.7133184
  50.3109431  75.1920440  91.3749574  50.6646450  76.1226279  91.8188129
  48.9035491  75.4307650  90.7834115  48.6178588  74.4042133  90.5539081
  48.3214949  75.7880703  91.6329090  48.6291909  76.3232534  89.5634078
  48.5647079  75.7065814  88.6669378  47.3179872  77.0605692  89.7652500
  47.3818690  77.6778535  90.6613404  47.1204478  77.6948340  88.9010816
  46.5086530  76.3392819  89.8784899  49.7346425  77.3263787  89.2741374
  50.6669003  76.7951931  89.0822088  49.4681317  77.9192819  88.3991865
  49.8624805  77.9847873  90.1333548  50.1445222  74.0813815  92.4187940
  50.1432969  72.8955181  92.0543319  49.9835243  74.4642616  93.6960017
  49.7320494  75.8431139  94.1280348  48.8596483  76.2303283  93.6016494
  50.6008696  76.4572219  93.8911340  49.5054593  75.7191672  95.6037424
  48.4867079  76.0447660  95.8140515  50.2093711  76.3817004  96.1073885
  49.7203836  74.3010961  96.0159836  48.8880268  74.0466762  96.6721480
  50.6610163  74.0895501  96.5244696  49.6315888  73.4906171  94.7287306
  50.3320690  72.6560536  94.6982432  48.2195932  72.9770076  94.4766601
  47.6673182  73.2357319  93.4046171  47.6313976  72.2446493  95.4227162
  48.1383187  71.9335212  96.2390064  46.2304152  71.8421035  95.2801745
  46.0758314  71.4180398  94.2880187  45.8397866  70.7923868  96.3281961
  46.2272225  69.8235243  96.0130800  46.2871869  71.0689667  97.2828880
  44.4320226  70.7138922  96.4716646  44.2140693  70.0515903  97.1315527
  45.3417228  73.0792593  95.4220661  45.7704400  74.0934216  95.9775529
  44.1040015  72.9859165  94.9645270  43.8209138  72.1870082  94.4152492
  43.1532826  74.0584183  95.1549649  43.5628839  74.9960294  94.7791839
  41.8819690  73.7279525  94.3652915  41.0201124  73.8454984  95.0221677
  41.7337735  74.6520286  93.1635687  42.5950954  74.5346953  92.5059541
  40.8243286  74.3978871  92.6191228  41.6756962  75.6857304  93.5044325
  41.9624542  72.3697741  93.8880468  41.1682686  72.1571859  93.3923898
  42.8566707  74.3148113  96.6451183  42.4315229  75.4191051  97.0265910
  43.1200188  73.3148684  97.4855099  43.5656716  72.4745945  97.1457562
  42.7240692  73.3682173  98.8840059  41.9227308  74.0945592  99.0195910
  42.2224494  72.0001905  99.3319303  42.9873204  71.2677721  99.0737926
  42.1010788  72.0317754 100.4146914  40.9040845  71.6048788  98.6858193
  41.0964008  71.3797118  97.6368126  40.5372617  70.7095479  99.1877414
  39.6503264  72.9033963  98.7949113  38.6161942  72.5067652  97.3816705
  38.2109111  71.5016282  97.4980501  37.7971043  73.2230772  97.3177217
  39.2118991  72.5544704  96.4700999  43.8414841  73.8326912  99.8205126
  43.5843913  74.3299389 100.8925890  45.0802675  73.6317271  99.4240215
  45.2240872  73.0975889  98.5789703  46.2483293  74.0717510 100.1680650
  46.3603449  73.4909781 101.0836275  47.4905615  73.8673396  99.3059420
  47.4773531  74.5872837  98.4876478  48.3780225  74.0295910  99.9176506
  47.5153220  72.5515211  98.7771862  48.3013804  72.4381293  98.2378771
  46.2211961  75.5155247 100.6668738  47.0961002  75.9067732 101.4222548
  45.2375567  76.3024548 100.2411468  44.5242368  75.9181212  99.6381860
  45.1518453  77.7286343 100.6041394  46.1195679  78.1167769 100.9218773
  44.6697291  78.5428726  99.3929994  43.6974138  78.1718597  99.0688814
  44.5827944  79.5930046  99.6718640  45.3865812  78.4420217  98.5781059
  44.1678877  77.9047717 101.7791279  44.3127465  78.7490729 102.6431235
  43.1494468  77.0841606 101.7422286  43.2160990  76.2813726 101.1329763
  41.9441292  77.2625045 102.5052416  41.8230174  78.1466077 103.1311751
  40.7999148  77.2292364 101.4731876  41.2241012  77.4576506 100.4954391
  40.0936505  75.8692418 101.4185017  39.6687801  75.6403345 102.3958387
  39.2969713  75.9026014 100.6753396  40.8124546  75.0966891 101.1454002
  39.8692688  78.3966957 101.6682232  40.4232806  79.3276751 101.5480139
  39.0697711  78.3521839 100.9286817  39.4400837  78.3565807 102.6693684
  41.8076761  76.1248964 103.5512844  40.8685426  76.1366271 104.3680380
  42.7677678  75.1967483 103.5321012  43.5975179  75.3565509 102.9788587
  42.6544205  73.9304773 104.2674979  41.6857967  73.4667214 104.0809567
  43.7575961  72.9715276 103.7928192  43.6795491  72.9250036 102.7066132
  44.7062779  73.4317608 104.0690228  43.6911899  71.5647198 104.3661359
  44.6854607  71.1180411 104.3682422  43.3300373  71.6510054 105.3909411
  42.7511781  70.6534434 103.5952000  42.8927346  70.4748703 102.3890605
  41.8081095  70.0473110 104.3001065  41.1553106  69.4299112 103.8388338
  41.7459920  70.2052149 105.2957515  42.7747383  74.1418015 105.7649623
  43.7542757  74.6825261 106.2543062  41.7767322  73.6693644 106.4843065
  40.9422476  73.3413953 106.0193644  41.8362956  73.5845373 107.9326858
  41.8916645  74.5823827 108.3678159  40.5647521  72.8857599 108.4609454
  40.6428076  71.9176709 107.9661622  40.6076487  72.7456854 109.5410560
  39.2348942  73.5452967 108.0845001  39.1570538  73.5184223 106.9976149
  38.0040882  72.8623751 108.7031590  38.0809927  72.8892698 109.7901094
  37.1012597  73.3868495 108.3902245  37.9562181  71.8261737 108.3683524
  39.2807996  75.0442925 108.3989047  40.0843678  75.5110938 107.8292784
  38.3298281  75.5023734 108.1270294  39.4609048  75.1872354 109.4643757
  43.0459691  72.7701861 108.3363740  43.2858486  71.7340230 107.7422681
  43.8124656  73.2577635 109.3135805  43.5945255  74.1477202 109.7385258
  45.0502280  72.5846511 109.7091078  45.6213303  72.3299227 108.8163285
  45.9154013  73.4744517 110.6060872  45.2461422  73.9902834 111.2946431
  46.5805734  72.8195507 111.1688934  46.7459212  74.5039661 109.8345967
  46.0210245  75.1380961 109.3242001  47.3209121  75.1047701 110.5392378
  47.6924293  73.8803421 108.8048848  48.7737541  73.3870849 109.1992297
  47.3764127  73.9250171 107.5919488  44.7909546  71.2352381 110.3614503
  45.5697300  70.3012325 110.1758308  43.6954698  71.1272178 111.1091894
  43.1066062  71.9313386 111.2726788  43.3606686  69.8680703 111.7903881
  44.2085974  69.5470425 112.3954146  42.1412036  70.0372690 112.7059502
  42.0985421  69.1826860 113.3812035  42.2719115  70.9512664 113.2852811
  40.9333294  70.1155315 111.9658111  40.1943649  70.2207155 112.5695227
  43.1247197  68.7042804 110.8098825  43.3696638  67.5437921 111.1564357
  42.6610707  69.0245305 109.5968325  42.4847961  69.9964628 109.3861803
  42.3205935  68.0252588 108.5889112  42.0939249  67.0709283 109.0642782
  41.0905680  68.4862958 107.8083863  41.4388423  69.3574377 107.2534845
  40.7889368  67.7070680 107.1084415  39.8897655  68.8823670 108.6822164
  40.1491743  69.7815129 109.2410945  38.6511352  69.1507815 107.8348520
  38.3908219  68.2518846 107.2759959  37.8199852  69.4284078 108.4830912
  38.8557666  69.9642313 107.1387731  39.6002392  67.8123746 109.7260879
  40.4723385  67.6841474 110.3672588  38.7463358  68.1163277 110.3315322
  39.3744859  66.8695830 109.2278125  43.4930583  67.7267293 107.6418924
  43.4101511  66.8094004 106.8244366  44.5897330  68.4601467 107.7989196
  44.5957354  69.2611267 108.4141385  45.8211147  68.1249038 107.0853980
  45.6968607  68.3407563 106.0242345  47.0095059  68.9425781 107.6172036
  46.8988868  69.1420686 108.6830676  47.8926571  68.3250719 107.4534044
  47.1998085  70.2610039 106.8950268  47.4971049  71.2820751 107.5196646
  47.0953504  70.2361662 105.5696765  47.2136955  71.0884405 105.0407882
  46.8981428  69.3651394 105.0979539  46.1784880  66.6448520 107.2397250
  46.5581035  65.9786013 106.2698111  46.0337779  66.1386510 108.4621278
  45.7483480  66.7606667 109.2049102  46.4112309  64.7696673 108.8109355
  47.4450937  64.5799716 108.5224177  46.2797779  64.5653084 110.3225434
  45.2693432  64.8478928 110.6179535  46.4388830  63.5088561 110.5386315
  47.2938238  65.4046053 111.1056401  48.2579269  64.9009161 111.0356164
  47.3568723  66.3780410 110.6192761  46.9248273  65.5927880 112.5718808
  46.5668457  64.6348280 112.9490554  47.8302865  65.8781151 113.1074474
  45.8544477  66.6533975 112.7847662  46.2036342  67.3430474 113.5532403
  45.7163787  67.1935511 111.8481392  44.5567801  66.0537010 113.2081712
  44.6844054  65.5534974 114.0762771  43.8740729  66.7864285 113.3390202
  44.2328291  65.4149455 112.4960292  45.6600945  63.7095587 107.9998615
  46.0720563  62.5545735 107.9725166  44.5983903  64.1039464 107.3022332
  44.3208660  65.0750258 107.2930338  43.7749640  63.1438030 106.5809041
  44.0381146  62.1279877 106.8758113  42.3036278  63.3787257 106.9026621
  41.9263489  64.2583350 106.3810806  41.7022419  62.5108074 106.6321941
  42.0003825  63.6705736 108.6630393  40.6837547  63.8237194 108.5537868
  43.9890543  63.2077147 105.0720669  43.3710924  62.4483766 104.3224073
  44.8349974  64.1347085 104.6502057  45.4048252  64.6438354 105.3106490
  44.9101521  64.5088260 103.2326004  43.9027466  64.5623052 102.8198375
  45.5932324  65.8807293 103.0459862  46.0240144  66.1520396 104.0097895
  46.3923859  65.7385659 102.3184951  44.6634452  66.9996544 102.5699282
  43.6811065  66.9079324 103.0332841  45.1304310  67.9308177 102.8908039
  44.4850135  67.0401325 101.0454930  44.1094509  66.0405472 100.4260288
  44.6930997  68.2161925 100.4465790  44.5883900  68.2949610  99.4451137
  44.9541570  69.0210792 100.9980389  45.6255534  63.4475692 102.4052770
  45.3514657  63.3120143 101.2105118  46.5120626  62.6781792 103.0428720
  46.8505582  62.9330476 103.9596938  47.0628953  61.4832362 102.4088778
  47.0900142  61.6203304 101.3278742  48.4805173  61.1172710 102.9187517
  48.3970063  60.5778495 103.8622298  49.1888111  60.2358293 101.8889093
  49.2731132  60.7747845 100.9452350  50.1846866  59.9811243 102.2514806
  48.6141372  59.3225018 101.7350200  49.2977890  62.3866192 103.2086175
  49.1022744  63.0828265 102.3930378  48.9163514  62.8034288 104.1407520
  50.7936736  62.1587177 103.3313166  51.1759371  61.7423219 102.3993353
  51.2906381  63.1070407 103.5357888  50.9900139  61.4629220 104.1470486
  46.1047336  60.3045352 102.6365293  45.6309012  60.0656068 103.7519046
  45.8230118  59.5869885 101.5517650  46.1483377  59.9098948 100.6517684
  45.0610665  58.3348748 101.6074755  44.6077002  58.2183683 102.5918456
  43.9558921  58.3468864 100.5614352  44.3248892  58.0374882  99.5835737
  43.1610714  57.6721645 100.8794137  43.3332387  59.6783425 100.3775834
  42.8004521  60.3572209 101.4691862  42.8378237  59.8896663 102.4531049
  42.2323907  61.6010293 101.3199120  41.8108239  62.1243762 102.1781020
  42.1989903  62.1861234 100.0700407  41.7511268  63.1717023  99.9429484
  42.7350554  61.5206630  98.9754034  42.7048917  61.9845836  97.9895190
  43.3041181  60.2766074  99.1338937  43.7338141  59.7604670  98.2753715
  45.9506292  57.1115818 101.3320734  47.0072048  57.2339962 100.6889903
  45.4973990  55.9125394 101.7628885  44.9290467  55.6877545 103.1042969
  43.8800743  55.9839927 103.1045914  45.4757471  56.2879207 103.8316334
  45.1137608  54.2000885 103.3270918  44.2292940  53.7976568 103.8209199
  45.9875313  54.0363972 103.9578307  45.3090204  53.5917923 101.9779415
  44.3320557  53.4181558 101.5268437  45.8854300  52.6668018 101.9623140
  46.0492022  54.6786172 101.2080378  47.1211696  54.6512772 101.4035796
  45.8053166  54.6096443  99.7023182  44.7238112  54.9435869  99.2248359
  46.8160100  54.1768857  98.9611138  47.6597912  53.8433415  99.4048266
  46.7868666  54.2609342  97.4993175  46.4313202  55.2457322  97.1962353
  48.1785837  54.0444920  96.9155494  48.9067756  54.0256036  97.7264003
  48.1995929  53.0915777  96.3867650  48.5001624  55.0881928  96.0180965
  49.3776028  54.9411058  95.6574531  45.7715249  53.2822598  96.8591061
  45.3994709  52.2491576  97.4457072  45.3285080  53.6600018  95.6668407
  45.7703189  54.4535555  95.2250546  44.2008676  53.0287521  94.9876029
  43.3594642  52.9363090  95.6743297  43.7571536  53.8813139  93.7732099
  42.6808282  53.7388127  93.6766888  43.9636315  54.9187296  94.0363364
  44.4367166  53.5478069  92.4434806  45.5091985  53.4607970  92.6175856
  44.0481640  52.5932829  92.0884977  44.1793023  54.6184554  91.3988305
  44.3614782  54.2029175  90.4077506  43.1421283  54.9460611  91.4698508
  45.1004956  55.8029854  91.6276046  44.9555330  56.1582412  92.6478398
  46.1296837  55.4661296  91.5035109  44.8245017  56.9035675  90.6787657
  43.8710110  57.2161407  90.7938886  45.4548578  57.6713401  90.8611842
  44.9591848  56.5747069  89.7333503  44.5264528  51.6040730  94.5312063
  45.5437562  51.3713143  93.8965353  43.6165903  50.6508068  94.8001295
  42.5762270  50.6971832  95.8472334  42.1834053  51.7108231  95.9267669
  43.0069310  50.3989516  96.8030843  41.5525523  49.7202082  95.3518518
  40.8450175  50.2318942  94.6994173  41.0188006  49.2894669  96.1990073
  42.3151797  48.6701321  94.6124698  41.7058090  48.3182065  93.7800548
  42.5871072  47.8255364  95.2455679  43.5915716  49.3594230  94.0751826
  44.5093782  48.8244335  94.3191407  43.4871598  49.5273215  92.5521992
  42.8711172  50.4884869  92.0978254  44.0861492  48.6107322  91.7945721
  44.5326034  47.8134411  92.2248102  44.2640285  48.8137444  90.3429874
  44.3471752  49.8701900  90.0878239  45.5148142  48.0673931  89.7880956
  45.6756290  48.3672840  88.7525748  46.7517467  48.4079954  90.6137856
  46.5918526  48.1079544  91.6494063  47.6150143  47.8777976  90.2115917
  46.9333247  49.4819173  90.5710924  45.3034555  46.5581849  89.7361827
  44.4569975  46.3314101  89.0879666  46.1999706  46.0785279  89.3433858
  45.1020924  46.1842409  90.7400351  42.9918631  48.4867910  89.5329931
  42.5359755  47.3353519  89.4431348  36.1126305  50.6360515  92.7338743
  35.2537061  51.1665787  92.7636938  37.0568329  50.9009525  91.6411149
  38.0741203  50.9165261  92.0322452  36.9625079  49.8085493  90.5565343
  37.5742461  50.1162065  89.7084644  37.3574530  48.8811378  90.9712948
  35.6263267  49.6023015  90.1254360  35.6092038  48.9175560  89.4528066
  36.7754290  52.2839032  91.0379994  37.5755768  52.8091657  90.2369696
  35.5994758  52.8191791  91.3843311  34.9085627  52.2093437  91.7976582
  35.2057443  54.1879290  91.0511746  36.0968228  54.8101271  90.9678204
  34.4367487  54.2429637  89.7090231  34.8771962  54.9661264  89.0226260
  34.6318568  53.2335587  89.3468982  32.9509994  54.4683485  89.7891464
  32.4401323  55.7222449  90.0890025  33.1331133  56.5383506  90.2935710
  31.0823374  55.9453973  90.1307501  30.6922576  56.9207805  90.4215547
  30.2156866  54.9288807  89.7975843  28.8706118  55.1551261  89.8430240
  28.6495022  56.0481252  90.1173644  30.6938045  53.6898583  89.4252971
  30.0080851  52.8886074  89.1498225  32.0575311  53.4698412  89.4038224
  32.4488629  52.5046368  89.0823570  34.4618560  54.7981007  92.2442735
  34.3234047  56.0256091  92.3031997  34.0866590  53.9743377  93.2397134
  33.9928734  52.9860987  93.0534679  33.7480285  54.4649925  94.5814288
  32.9736995  55.2277125  94.4991365  33.2314767  53.3373121  95.4847922
  32.5317035  53.8000102  96.1807284  32.6936954  52.6473721  94.8345046
  34.2969798  52.5726935  96.2676711  34.8649934  51.9608408  95.5668874
  34.9619454  53.2962717  96.7392189  33.6776590  51.6771427  97.3390327
  34.4218391  50.9343466  97.6263460  33.4369548  52.3012717  98.1996277
  32.4152142  50.9707039  96.8546060  31.6269167  51.7163308  96.7510298
  32.6258030  50.5277417  95.8811913  31.9717477  49.9082516  97.7971337
  31.7761468  50.3185684  98.6990650  31.1361904  49.4680101  97.4391793
  32.7018928  49.2170120  97.8929205  34.9778653  55.1303725  95.1990467
  34.8625686  56.1035618  95.9643409  36.1515453  54.6027142  94.8338522
  36.1673227  53.7507071  94.2916953  37.4210982  55.1816530  95.2459451
  37.4795672  55.1812427  96.3343753  38.5966917  54.3977365  94.6974557
  38.4256238  53.3918204  95.0808195  38.7698330  54.3516747  93.6222811
  39.8551197  54.8746968  95.3083239  40.3081122  54.5877290  96.5654163
  39.7205156  53.8784768  97.1483325  41.4618753  55.2922841  96.8291809
  42.0153713  55.2228570  97.6711557  41.7433073  56.0976249  95.7551105
  42.7986169  56.9853410  95.5505484  43.5459932  57.0956870  96.3362654
  42.8284984  57.6684469  94.3634871  43.6374412  58.3734406  94.1719268
  41.8394648  57.4832693  93.3823292  41.8722174  58.0337376  92.4421104
  40.7931924  56.5955222  93.5807003  40.0753731  56.4539301  92.7727474
  40.7353354  55.8829442  94.7878055  37.5383804  56.6367012  94.8209540
  38.0958082  57.4436789  95.5537291  37.0063695  56.9764184  93.6524201
  36.6534373  56.2636453  93.0299310  37.0271144  58.3561363  93.1821867
  37.9565832  58.8323765  93.4942481  36.9324117  58.4213424  91.6519219
  36.1689752  57.6866679  91.3959581  36.6752474  59.3821860  91.2061124
  38.1831633  57.9751895  91.0027646  38.4822707  56.7151366  90.6063944
  37.6937489  55.9690085  90.7045061  39.7706229  56.6568159  90.1487740
  40.2251914  55.8372498  89.7722393  40.3391468  57.8946579  90.2711379
  41.6129335  58.3306451  89.9390346  42.3122047  57.6118941  89.5118164
  41.9130081  59.6450457  90.1705259  42.9028374  60.0246958  89.9171412
  40.9740670  60.5186568  90.7280439  41.2221959  61.5630426  90.9172256
  39.7033046  60.0837872  91.0558338  39.0074187  60.8012766  91.4906355
  39.3685574  58.7485836  90.8155075  35.9669475  59.2054113  93.8313238
  36.1539395  60.4056790  93.9968456  34.8560401  58.5895476  94.2182705
  34.6406688  57.6496357  93.9178039  33.8677365  59.3036844  95.0065811
  33.7170845  60.2932649  94.5751491  32.5221565  58.5745644  95.0399054
  32.7267801  57.5040294  95.0263625  32.0276465  58.8376251  95.9749770
  31.6110465  58.9350874  93.8615780  30.7603488  59.5028531  94.2384817
  32.1828657  59.5542018  93.1703312  31.0888048  57.7183819  93.1075883
  29.9008356  57.6139266  92.8135064  31.9819186  56.7981565  92.7854593
  31.6915487  55.9703308  92.2849682  32.9503879  56.9272990  93.0413711
  34.4189611  59.5428331  96.3986215  34.2209582  60.6244376  96.9680208
  35.1284423  58.5399069  96.9162667  35.1236194  57.6420700  96.4537033
  35.8521691  58.6646363  98.1765794  35.1356292  58.9604790  98.9428345
  36.4832009  57.3267523  98.5855833  35.7053683  56.5675825  98.6676628
  37.2097670  57.0218188  97.8324450  37.1826290  57.4850000  99.9314594
  37.9609593  58.2437315  99.8500389  36.4565615  57.7894927 100.6852579
  37.8096591  56.1556054 100.3378681  37.0318277  55.3964344 100.4199460
  38.5362261  55.8506739  99.5847302  38.5090853  56.3138536 101.6837456
  39.2874151  57.0725856 101.6023264  37.7830167  56.6183431 102.4375425
  39.1135026  55.0324048 102.0754954  39.7866391  54.7502923 101.3773553
  39.5767283  55.1372107 102.9668638  38.3923972  54.3293098 102.1514123
  36.9282466  59.7749290  98.0994277  36.9008472  60.7374300  98.8741993
  37.8433280  59.6265130  97.1406718  37.8462049  58.7540365  96.6318733
  38.8586775  60.6364428  96.7999591  39.6724185  60.6157880  97.5248716
  39.4416046  60.3269946  95.3878423  39.7525415  59.2822854  95.3882224
  38.6157872  60.4594955  94.6888650  40.6177235  61.2089337  94.9606915
  41.8443150  61.1379001  95.6205411  41.9650125  60.4125400  96.4251430
  42.8971735  61.9659724  95.2715262  43.8437358  61.9092248  95.8090216
  42.7483687  62.8542540  94.2351407  43.7976150  63.6810586  93.9115491
  44.5666412  63.5474433  94.4704278  41.5556826  62.9186777  93.5398548
  41.4425322  63.6204703  92.7135470  40.5056206  62.0919602  93.8932679
  39.5719791  62.1265027  93.3318229  38.2924582  62.0565801  96.8075566
  38.8063612  62.9422694  97.5019248  37.2335837  62.2634888  96.0280954
  36.8775133  61.5145295  95.4515773  36.5976836  63.5787495  95.9283640
  37.3410680  64.3084730  95.6074552  35.4468913  63.5856587  94.9310881
  35.8598208  63.3592728  93.9480633  34.7518213  62.7983093  95.2227364
  34.7099242  64.9196675  94.8775623  34.2545998  65.1813517  95.8327073
  35.4656172  65.6618980  94.6204166  33.6468894  64.9323430  93.8206680
  33.7858000  65.5914517  92.8067708  32.6116802  64.1311737  94.0137575
  31.8667169  64.1005591  93.3324397  32.5712378  63.5539450  94.8415696
  36.0845858  64.0837419  97.2708652  36.2210050  65.2714330  97.5713174
  35.4831921  63.1903710  98.0627793  35.3365893  62.2465600  97.7344081
  34.8845175  63.5818949  99.3423081  34.3151433  64.4828901  99.1140103
  33.9246765  62.5223254  99.8906087  33.1682938  62.2932512  99.1399359
  34.4816434  61.6171190 100.1324543  33.2467752  63.0531889 101.1492819
  34.0025445  63.2820679 101.9006327  32.6891926  63.9581985 100.9081152
  32.2908306  61.9979191 101.6953591  31.5344487  61.7688428 100.9446865
  32.8477988  61.0927141 101.9372060  31.6129281  62.5287845 102.9540314
  32.3686966  62.7576647 103.7053824  31.0553444  63.4337912 102.7128626
  30.6914620  61.5115726 103.4804146  31.2080004  60.6730386 103.7043537
  30.2424893  61.8631618 104.3140263  29.9908166  61.2996554 102.7845080
  35.9393285  63.9805007 100.3641443  35.7031617  64.8962170 101.1487333
  37.0955896  63.3105424 100.3428340  37.2348225  62.5824530  99.6568315
  38.1473163  63.5334160 101.3461860  37.6406224  63.8526046 102.2569434
  38.9114597  62.2291140 101.6395241  38.2078749  61.4578079 101.9528205
  39.4315169  61.9017637 100.7392562  39.9258440  62.4734327 102.7517098
  40.6300937  63.2443470 102.4389411  39.4064530  62.8003887 103.6525066
  40.6826155  61.1817176 103.0422166  39.9790315  60.4104103 103.3555113
  41.2026736  60.8543694 102.1419488  41.6782217  61.3810035 104.1189964
  41.7598190  62.2970881 104.5364054  42.4703816  60.4088689 104.5620963
  42.4217259  59.1772429 104.0624658  41.7677749  58.9606718 103.3238556
  43.0389496  58.4641787 104.4239545  43.3299934  60.6984357 105.5347829
  43.3643875  61.6347225 105.9119886  43.9444383  59.9807163 105.8917634
  39.1276362  64.6381707 100.9519273  39.5490002  65.4153186 101.7992705
  39.4908995  64.7070748  99.6711549  39.1361084  64.0343372  99.0065898
  40.4291993  65.7234587  99.1953247  41.3014171  65.7512788  99.8484414
  40.8947878  65.4100134  97.7699166  41.1831486  64.3591086  97.7465434
  40.0428611  65.5672750  97.1084108  42.0687729  66.2708741  97.3019595
  41.6746672  67.2348626  96.9802335  42.7397143  66.4174286  98.1484000
  42.8360535  65.6252284  96.1506146  43.1165810  64.6156572  96.4508968
  42.1753058  65.5759175  95.2851204  44.0871091  66.4126217  95.7890658
  43.8113564  67.4615223  95.6801224  44.8038629  66.3086290  96.6036508
  44.7023466  65.9266937  94.5212642  44.0384977  66.0233698  93.7662424
  45.5270549  66.4725869  94.3164305  44.9583281  64.9548937  94.6221465
  39.8420774  67.1362401  99.2011983  40.4979793  68.0947072  99.6075705
  38.6118335  67.2575416  98.7412256  38.0970881  66.4392828  98.4486697
  37.9738671  68.5611707  98.6036467  38.7213738  69.3522955  98.6624218
  37.2846940  68.6525205  97.2802720  36.5527900  67.8525874  97.1683665
  36.7856186  69.6168575  97.1849939  38.2052997  68.5417569  96.1420230
  39.2699342  69.3892768  96.0446351  39.4462718  70.1317206  96.8229552
  40.1098969  69.3089253  94.9794397  40.9534843  69.9939317  94.8944260
  39.8928078  68.3570009  94.0037613  40.5760300  68.2951497  93.1567183
  38.8308522  67.4945831  94.0922121  38.6419043  66.7528648  93.3161625
  38.0070329  67.5753254  95.1699868  37.1789543  66.8746150  95.2767145
  36.9816042  68.8210130  99.7008374  36.0063037  69.5577978  99.5039770
  37.2439469  68.2633513 100.8751383  38.0664774  67.6913671 101.0031113
  36.3387625  68.4273483 101.9971892  35.3657755  68.0008669 101.7532443
  36.8865600  67.7174124 103.2297065  36.8774057  66.6473759 103.0222521
  37.8992103  68.0285996 103.4862251  36.0541350  67.9226580 104.4519453
  36.1774871  69.0364324 105.2563872  36.8425188  69.7817299 105.1068402
  35.2970112  68.9675227 106.2373463  35.2396159  69.7558245 106.9879360
  34.6004940  67.8529167 106.0951937  35.0438690  67.1889120 104.9760528
  34.5764631  66.2503143 104.6782824  36.1041293  69.8879979 102.3319310
  34.9593823  70.3363475 102.5048990  37.1938042  70.6379540 102.3930496
  38.0980011  70.2294229 102.2042915  37.1405102  72.0385638 102.8328881
  36.4525383  72.1410698 103.6721058  38.5302620  72.4991330 103.2805038
  39.2873661  72.2284815 102.5445416  38.5511530  73.5767426 103.4430499
  39.0532415  71.7483693 104.8355830  40.2350996  72.3557038 104.8926310
  36.5700559  73.0086665 101.7963324  36.7224560  74.2287577 101.9422729
  35.9388635  72.4824648 100.7477257  35.9861108  71.4871834 100.5825534
  35.1846372  73.3017476  99.8119430  35.8385116  74.0023977  99.2926772
  34.5017913  72.4177058  98.7795324  33.8366349  71.7166524  99.2837061
  33.9235127  73.0380240  98.0947702  35.2552044  71.8640377  98.2192473
  34.1445782  74.1036937 100.5549557  33.8036354  75.2233108 100.1592517
  33.6521578  73.5319936 101.6577826  33.9137298  72.5880151 101.9039210
  32.6043272  74.1751629 102.4219032  31.8099084  74.4781451 101.7398477
  32.0013456  73.2497407 103.5020815  31.4394379  73.7856927 104.2670092
  31.3224689  72.6185871 102.9286082  33.0337290  72.3576599 104.1897633
  33.8708930  72.8217971 104.9623759  32.8842346  71.0573564 104.0132525
  33.5345946  70.4145442 104.4421163  32.1202413  70.7117963 103.4502221
  33.0214456  75.5161637 102.9943611  32.1600747  76.3163516 103.3637490
  34.3382565  75.7584961 103.0196815  34.9570711  75.0251941 102.7043466
  34.9309497  77.0158473 103.4844490  34.3272235  77.4315513 104.2911733
  36.3285136  76.7851311 103.9986108  36.8691178  76.4678354 103.1068879
  36.6832611  77.7684870 104.3072618  36.5671983  75.7909730 105.1127766
  37.1841617  74.9628302 104.7640123  37.2911272  76.5280264 106.2191369
  36.6745415  77.3560885 106.5687565  37.4837267  75.8446596 107.0461896
  38.2371419  76.9148240 105.8402647  35.2930118  75.1774522 105.6480589
  34.7763973  74.6525444 104.8445162  35.5346891  74.4736940 106.4445623
  34.6481505  75.9632354 106.0415022  34.9891731  78.0283386 102.3522965
  35.2291391  79.2202366 102.5690208  34.7753531  77.5348809 101.1348732
  34.4927860  76.5698184 101.0404827  34.8614663  78.3447818  99.9384844
  35.2950872  79.3169130 100.1730754  35.6978308  77.6888897  98.8250398
  36.3091655  78.4615460  98.3588077  36.5911256  76.5932900  99.3569031
  35.9804298  75.8199897  99.8229039  37.1623549  76.1591122  98.5363630
  37.2761828  77.0089697 100.0958264  34.8213652  77.1578710  97.8183605
  35.3426193  76.7487169  97.1237473  33.4879770  78.5050067  99.3554722
  32.5196688  78.0963544  99.9269260  33.4228003  79.0793531  98.1707219
  34.2657376  79.3965580  97.7136254  32.1482458  79.3318035  97.5184538
  31.3306401  79.1324949  98.2111992  32.0625337  80.8038244  97.0651924
  31.2913282  80.8757889  96.2982749  31.7742752  81.4054786  97.9271781
  33.2942381  81.2830875  96.5441624  33.1933839  82.1993706  96.2761075
  31.9126697  78.4018821  96.3215265  31.2358502  78.7838550  95.3461814
  32.5003011  77.2146260  96.3327143  33.2681802  77.0295026  96.9621509
  32.1552314  76.1903331  95.3317823  31.1458134  76.3538819  94.9543884
  33.1282889  76.2748726  94.1680081  34.1447623  76.5702873  94.4280297
  33.1460237  75.2948603  93.6911838  32.6682260  77.2118907  93.1696774
  31.5044185  77.1522846  92.4574020  30.8660966  76.2875541  92.6387473
  31.3907247  78.2376349  91.6376548  30.6503451  78.4103411  90.9727411
  32.4726856  79.0404139  91.8436050  32.8078284  80.2205101  91.2502003
  32.1256697  80.6593963  90.5220952  33.9866803  80.7760396  91.6130351
  34.3046968  81.7067504  91.1432024  34.8202115  80.1804470  92.5881931
  35.7599057  80.6494161  92.8799847  34.4807025  79.0219005  93.1831928
  35.1740995  78.5808302  93.8992643  33.2894154  78.4165644  92.8147308
  32.0367276  74.7617028  95.8485426  32.4959811  74.4439165  96.9378970
  31.4316049  73.8698262  95.0394630  30.6553503  74.1819293  93.8230497
  31.3036897  74.6833190  93.1044646  29.8279413  74.8407581  94.0865610
  30.1877269  72.8427103  93.3396765  30.8785472  72.4641107  92.5863315
  29.1928952  72.9378899  92.9045304  30.1602344  71.9692127  94.5363453
  30.3462515  70.9339729  94.2503816  29.2091639  72.0343377  95.0648557
  31.2907226  72.4713989  95.4335980  31.0368989  72.4635206  96.4936026
  32.5382378  71.6212873  95.2033153  33.3906146  71.9920345  94.4259947
  32.5805421  70.4685219  95.8607180  31.8914999  70.3134308  96.5827062
  33.6287581  69.4379907  95.6553876  34.5986224  69.8225275  95.9709725
  33.3029537  68.1873353  96.4853578  32.3523538  67.7838699  96.1365384
  34.0912553  67.4528594  96.3203551  33.2052483  68.5027985  97.9777283
  34.0517219  69.1426070  98.2271845  32.2769770  69.0535075  98.1298270
  33.2177383  67.2803393  98.8688121  33.5803698  66.4203911  98.3057077
  33.8714468  67.4565072  99.7230542  31.8755721  66.9853050  99.3601276
  31.6267625  67.3694603 100.2604708  30.9669044  66.2657090  98.7027971
  31.2548295  65.7139289  97.5290122  32.1728588  65.8394465  97.1270576
  30.5543587  65.1714838  97.0440446  29.7632687  66.0856350  99.2345532
  29.5447023  66.4943790 100.1319144  29.0720483  65.5407781  98.7391301
  33.8109982  69.0844360  94.1880753  34.9350977  69.0369269  93.6990036
  32.6978699  68.8711162  93.4881974  31.8043516  68.9700224  93.9485689
  32.7150342  68.4170217  92.0847343  33.4064159  67.5791827  91.9946441
  31.3159440  67.9605576  91.5924538  31.3687121  67.6237564  90.5571376
  30.9658638  67.1429402  92.2225696  30.2536434  69.0311293  91.6445739
  29.3703040  69.2212150  92.6294272  29.3781410  68.4914632  93.4390572
  28.6261488  70.3317809  92.3907863  27.8975549  70.6903261  92.9913659
  28.9826392  70.8509091  91.1841317  28.4612521  71.9317235  90.4851634
  27.6566899  72.5071139  90.9430982  28.9895497  72.2044227  89.2695082
  28.5851163  73.0217508  88.6724249  30.0399345  71.4621976  88.7648204
  30.4990873  71.7246123  87.8117114  30.5425075  70.3646721  89.4499767
  31.3692852  69.8096394  89.0067183  29.9954929  70.0466428  90.6776258
  33.2479289  69.4500881  91.1200920  33.5968578  69.1013491  89.9807151
  33.3240817  70.7103690  91.5538209  32.8944374  71.0109563  92.4170430
  33.9437586  71.7213923  90.6994915  33.7826454  71.4365581  89.6597746
  33.3969430  73.0881413  90.9078655  32.3161750  73.0244279  90.7814522
  33.6232579  73.5396706  91.8737863  33.9875269  73.9442946  89.7973372
  34.6476055  73.3245095  89.1904899  32.8904419  74.5285215  88.9182169
  32.2301856  75.1488462  89.5243173  33.3389187  75.1362346  88.1323071
  32.3156292  73.7193636  88.4677124  34.8784997  75.0067662  90.4226016
  35.6790642  74.5256495  90.9844937  35.3090868  75.6285148  89.6376655
  34.2867311  75.6285881  91.0943503  35.4387028  71.7094676  90.8633502
  36.1748266  71.5650962  89.9004922  35.8867464  71.8498783  92.0988067
  35.2465157  72.0701221  92.8482710  37.2926836  71.7570285  92.4057977
  37.8266371  72.5911963  91.9506529  37.5116526  71.8029283  93.9124120
  36.8207403  71.1236563  94.4117405  38.5343514  71.4597334  94.0686315
  37.3552014  73.1807033  94.4805749  38.3778660  74.0947470  94.4046137
  39.3058067  73.7932309  93.9186985  38.2520696  75.3752109  94.9275567
  39.0944194  76.0659499  94.8897632  37.0688226  75.7688709  95.4926685
  36.9281840  77.0533295  95.9981257  37.7222220  77.5839355  95.9003479
  36.0230205  74.8767419  95.5508983  35.0757787  75.1774365  95.9985771
  36.1738890  73.5902819  95.0384166  35.3417936  72.8872601  95.0768561
  37.8665093  70.4634562  91.7955225  39.0608413  70.3719198  91.4954455
  36.9942550  69.4884712  91.5793128  36.0528295  69.5589332  91.9382731
  37.4111520  68.2359973  90.9904453  38.3831245  67.9799606  91.4121250
  36.4546432  67.0693252  91.2256182  35.8025547  67.3044738  92.0667989
  35.8513624  66.9145779  90.3310761  37.1943811  65.8776546  91.5141039
  36.5850990  65.1503389  91.6603466  37.7450879  68.3995643  89.5290936
  38.6447603  67.7476937  89.0462423  37.0800634  69.3173595  88.8432036
  36.3653001  69.8488634  89.3193510  37.3655812  69.6369579  87.4296002
  37.3947549  68.7214494  86.8387599  36.2769686  70.5446393  86.8681281
  36.4289624  71.4650597  87.4318865  36.5389011  70.7116626  85.8233341
  34.8328132  70.1312231  86.9630562  34.4350129  70.3519592  87.9535769
  34.0664971  70.9284356  85.9205742  34.4634516  70.7078586  84.9296798
  33.0116152  70.6564942  85.9576259  34.1740139  71.9935579  86.1256472
  34.6706561  68.6264521  86.7538999  35.2351606  68.0901626  87.5166763
  33.6163008  68.3602574  86.8285752  35.0446581  68.3538860  85.7670214
  38.6732768  70.4096555  87.1934465  38.9450495  70.8328249  86.0852185
  39.4002619  70.7291945  88.2582200  38.9969669  70.6257271  89.1784085
  40.7432195  71.3475198  88.1447356  41.0787354  71.3334136  87.1077547
  40.6803535  72.7970476  88.6171993  40.4027085  72.8968673  89.6665079
  41.7241172  73.0838841  88.4892066  39.7910402  73.7106794  87.7641619
  38.4184918  73.5655526  87.7400177  37.9792056  72.7243103  88.2761506
  37.5974823  74.4606880  87.0536490  36.5167607  74.3194210  87.0672992
  38.1405729  75.5422464  86.4040837  37.3311749  76.4373798  85.6755467
  36.4007318  76.2017147  85.6939105  39.5063157  75.7087371  86.4375698
  39.9569157  76.5515450  85.9134182  40.3128655  74.8092382  87.1351580
  41.3892953  74.9716937  87.1899971  41.8182755  70.5351378  88.8862333
  42.8912148  71.0320948  89.2407755  41.5030834  69.2706631  89.1557658
  40.6265004  68.9150643  88.8018575  42.3625480  68.3651423  89.9109193
  43.0376488  68.9474139  90.5380539  41.5505493  67.4425123  90.7993657
  40.8437434  68.0125415  91.4023511  41.0033578  66.7960737  90.1132181
  42.4315305  66.5834156  91.7191152  43.4450007  67.0973990  92.2626482
  42.0629146  65.4122473  91.9447634  43.1331220  67.5149848  88.9298362
  42.5625181  66.6266930  88.3116535  44.4349822  67.7666766  88.8360480
  44.8157502  68.5235596  89.3858145  45.3306691  67.0428287  87.9429573
  45.1738418  67.3903606  86.9218177  46.7624935  67.3397170  88.3410304
  46.9374986  66.9891970  89.3581876  47.4429360  66.8294546  87.6593189
  46.9383316  68.4143359  88.2923017  45.0769006  65.5332707  87.9583593
  44.9041420  64.9070021  86.9217127  45.0190674  64.9747705  89.1527762
  45.0978489  65.5429396  89.9840865  44.8776163  63.5364166  89.3117463
  45.7074678  63.0230795  88.8260194  44.8800712  63.1712151  90.8025380
  43.9395953  63.5335088  91.2176857  44.9071162  62.0831086  90.8607862
  46.0460248  63.7526846  91.6003001  46.1123047  64.8193624  91.3860430
  45.8140637  63.6083026  92.6555001  47.3726990  63.0890267  91.2788537
  48.4182049  63.6263927  91.7013703  47.3785456  62.0244028  90.6210880
  43.5683455  63.0515846  88.6467297  43.5512011  62.0436934  87.9131234
  42.4889063  63.8013515  88.8508514  42.5320738  64.6123371  89.4512998
  41.1913522  63.4238195  88.2860718  40.9689193  62.3751186  88.4831740
  40.0667149  64.2843616  88.8811013  40.2579799  65.3293877  88.6373015
  38.6963533  63.8672211  88.3129702  38.5041687  62.8223686  88.5567897
  37.9163409  64.4910429  88.7494631  38.6978684  63.9927724  87.2302259
  40.0705684  64.1524821  90.3130042  39.3679278  64.6900349  90.6857422
  41.1835010  63.5083166  86.7649000  40.8559502  62.5456495  86.0896693
  41.5547788  64.6712485  86.2433885  41.8536275  65.4016984  86.8736516
  41.5919513  64.9362095  84.8135273  40.5816563  65.0001871  84.4094109
  42.2961702  66.2649627  84.5756080  43.2675577  66.1366413  85.0531425
  42.4311480  66.3586079  83.4980591  41.6314341  67.5170553  85.1118579
  41.4015451  67.3689562  86.1669970  42.5424588  68.7184667  84.9574277
  42.7724314  68.8674885  83.9024377  42.0444548  69.6054558  85.3490180
  43.4665979  68.5476936  85.5096089  40.3304503  67.7345812  84.3675585
  39.6767598  66.8755479  84.5187204  39.8416825  68.6331426  84.7441149
  40.5352766  67.8518256  83.3034161  42.3780715  63.8691830  84.0878481
  41.9084471  63.3295803  83.0945693  43.5705209  63.5658970  84.5940289
  43.9178339  64.1116333  85.3696866  44.4462051  62.5368230  84.0195744
  44.7147388  62.8141551  83.0002237  45.7254405  62.3881953  84.8374200
  45.4618153  62.4142481  85.8947384  46.1750319  61.4242249  84.5992421
  46.7244391  63.5049066  84.5340082  47.0250129  63.3661918  83.4954927
  46.1705332  64.4387818  84.6297553  48.1908541  63.5795953  85.5680819
  48.8565614  61.9196034  85.3712598  49.0803052  61.7396196  84.3197639
  49.7696846  61.8217922  85.9584051  48.1235455  61.1903577  85.7162086
  43.7032700  61.2017649  83.8918514  43.8064779  60.5168966  82.8619521
  42.9383496  60.8677594  84.9294246  43.0364233  61.3692844  85.8006040
  42.1100673  59.6683651  84.9119431  42.7029613  58.8479813  84.5075346
  41.6038659  59.2706362  86.2748375  41.9861887  60.0491690  86.9350005
  40.5154021  59.2510404  86.3292678  42.1492872  57.9411428  86.7022654
  43.3363987  57.9099147  87.0723360  41.4381923  56.9178058  86.5742358
  40.9917739  59.7241162  83.8685014  40.7630769  58.7651239  83.1640744
  40.3150053  60.8543802  83.7601103  40.4849598  61.6022932  84.4172564
  39.2715545  61.0462454  82.7383378  38.5228238  60.2594755  82.8305047
  38.5781978  62.4050877  82.9056727  39.3612739  63.1312953  83.1236487
  38.1198405  62.6429004  81.9457488  37.5167466  62.4565099  84.0030542
  36.6246791  61.9382590  83.6512980  37.9041282  61.9519981  84.8882126
  37.1629930  63.8929182  84.3530178  36.4140518  63.8939040  85.1449679
  38.0589969  64.4073385  84.7003625  36.6231351  64.6180711  83.1930705
  36.3671965  64.0765180  82.3798578  36.4647839  65.9387364  83.1520579
  36.7979241  66.6619989  84.2201042  37.1639707  66.2037300  85.0423570
  36.6829119  67.6652775  84.2026730  35.9683310  66.5438467  82.0644692
  35.7079557  65.9934147  81.2586594  35.8567666  67.5476250  82.0554595
  39.8577774  60.9317160  81.3368419  39.2189388  60.3989116  80.4392781
  41.0788128  61.4258438  81.1613336  41.5150079  61.9378972  81.9147488
  41.8052905  61.2975031  79.8984156  41.1315001  61.5816427  79.0901023
  43.0409013  62.2050546  79.8761830  43.6008166  62.0780803  80.8027211
  43.9181108  61.8376368  78.7042983  43.3589928  61.9648111  77.7773061
  44.7958447  62.4837666  78.6901491  44.2339318  60.7985992  78.7978776
  42.6075351  63.6559619  79.7264011  42.2882440  63.7820856  78.6918737
  41.7540390  63.7977645  80.3893761  43.6721946  64.6757540  80.0520300
  44.5258820  64.5348666  79.3891059  43.2687470  65.6791334  79.9157987
  43.9916787  64.5505438  81.0866083  42.2251249  59.8379716  79.6724868
  42.0941890  59.3268017  78.5651567  42.7108186  59.1721992  80.7201212
  42.9188625  59.6557832  81.5820746  43.0731720  57.7565486  80.6129417
  43.9167489  57.6592001  79.9295674  43.4631055  57.1564544  81.9549659
  42.9770787  57.7402415  82.7366754  43.0925407  56.1317863  81.9838973
  44.9696213  57.1579622  82.1828141  45.4422981  56.6769035  81.3265082
  45.3017417  58.1942191  82.2458197  45.3600530  56.4214694  83.4580837
  44.6186610  56.6430969  84.2257543  45.3605435  55.3510448  83.2524378
  46.7392264  56.8448438  83.9473004  47.2095146  55.9681903  84.3927306
  47.3114119  57.1594533  83.0745325  46.7065776  57.9559029  84.9488471
  46.1767869  57.6644281  85.7578367  47.6496863  58.1847878  85.2285929
  46.2712208  58.7684631  84.5361615  41.9812945  56.9265810  79.9471660
  42.2481868  56.2037366  79.0013276  40.7585597  57.0531159  80.4214050
  40.5955455  57.6803082  81.1961021  39.6191650  56.2866249  79.8927016
  39.7620928  55.2212824  80.0735776  38.3315218  56.7359608  80.5991204
  38.3029781  57.8238759  80.5380861  37.4997934  56.3187796  80.0314165
  38.2172393  56.3052575  82.0597148  38.0220523  55.2331091  82.0820920
  39.1694433  56.5109667  82.5486864  37.0953565  57.0436253  82.7963491
  37.5493223  57.8098757  83.4247394  36.4553056  57.5172029  82.0519308
  36.2594393  56.1052657  83.6625585  35.3371135  55.8830305  83.1258769
  36.8259546  55.1852896  83.8067929  35.9317090  56.6978753  84.9864017
  35.4063906  57.5501311  84.8529838  35.3799326  56.0425032  85.5213131
  36.7862148  56.9034830  85.4840405  39.4199860  56.4265253  78.3794807
  39.1342486  55.4473517  77.6975282  39.5968848  57.6331029  77.8521559
  39.7806962  58.4319838  78.4421576  39.5376738  57.8404724  76.3917259
  38.5978610  57.4303913  76.0220172  39.6195930  59.3287118  75.9876346
  40.6696471  59.6062095  76.0797253  39.3238256  59.3706567  74.9393683
  38.7671537  60.2967212  76.7937091  38.6828861  59.8745324  77.7950864
  39.2486533  61.2729339  76.8508845  37.3748931  60.4763616  76.2255183
  36.9158247  61.6062430  76.0204396  36.6734634  59.3659254  76.0160866
  35.7386785  59.4264281  75.6384384  37.0788111  58.4672682  76.2356544
  40.6997376  57.1306825  75.7194173  40.5143874  56.4308407  74.7439052
  41.9030242  57.3160603  76.2580353  41.9764453  57.8820202  77.0913408
  43.1299327  56.6799269  75.7323483  43.3092117  57.0217662  74.7129837
  44.3491325  57.0392858  76.5915007  43.9176698  56.9098037  77.5840598
  45.0699274  56.2437500  76.4026161  45.0501074  58.3862829  76.5157715
  44.4507606  59.1387558  77.0282837  46.4239380  58.2828542  77.1881599
  47.0240652  57.5308513  76.6758730  46.9285395  59.2475641  77.1351248
  46.2973994  57.9965030  78.2322343  45.1607025  58.8614520  75.0731548
  44.1630857  58.9616029  74.6455686  45.6657683  59.8269892  75.0458097
  45.7325240  58.1363494  74.4940646  43.0513647  55.1572144  75.7800109
  43.7864614  54.4718231  75.0713052  42.1966209  54.6435831  76.6637812
  41.6936270  55.2785091  77.2670767  42.0088823  53.2110696  76.8578846
  42.9860093  52.7281569  76.8470523  41.3110885  52.8743042  78.1792120
  41.8615837  53.3722591  78.9773944  40.3000634  53.2785236  78.1288649
  41.2456444  51.3658594  78.4662805  40.6471840  50.9072508  77.6791184
  42.2633858  50.9782650  78.4207283  40.6354098  51.0351329  79.8278438
  39.5491453  51.0798839  79.7495762  40.9372106  50.0282354  80.1162415
  41.0691024  51.9692535  80.8652306  40.3700605  52.6011152  81.2288109
  42.3063139  52.0349817  81.3609295  43.2486374  51.1930514  80.9445175
  43.0272497  50.4971155  80.2468351  44.1810278  51.2537310  81.3280090
  42.6065599  52.9558567  82.2746573  41.8961788  53.6013112  82.5890572
  43.5433014  53.0046683  82.6491322  41.2358398  52.6143138  75.6926988
  41.3700653  51.4251650  75.3954625  40.3547799  53.4558899  75.1705962
  40.2728602  54.3674273  75.5977823  39.4883338  53.1402905  74.0589068
  38.9360071  52.2259998  74.2759480  38.4953087  54.2580168  73.8071333
  39.0519124  55.1880254  73.6914805  37.9616489  54.0372203  72.8827112
  37.4991304  54.4027526  74.9440878  37.0866112  53.4169085  75.1586577
  38.0395226  54.7678646  75.8174540  36.3793992  55.3539329  74.6131812
  35.6544109  55.7735235  75.5376155  36.2303403  55.6810925  73.4212576
  40.3921287  52.9243984  72.8943827  40.1707818  52.0507224  72.0755612
  41.4400125  53.7246076  72.8260828  41.5119065  54.5549439  73.3965845
  42.4153556  53.5272293  71.7765678  41.9035386  53.4477085  70.8174959
  43.3885194  54.6756195  71.7092323  43.7321743  55.0237937  72.6832833
  44.2495121  54.4597433  71.0766273  42.6689858  55.8210719  71.0754095
  41.7308388  55.7327283  70.0989155  41.4851683  54.7319842  69.7435888
  41.2829586  56.9718025  69.7632813  40.5899226  57.1773520  69.0579091
  41.9290814  57.8963000  70.5335168  41.8151667  59.2663433  70.5545382
  41.1086796  59.7433435  69.8752403  42.5991159  59.9420217  71.4299685
  42.5381648  61.0294564  71.4732206  43.4761342  59.2866590  72.2715210
  44.0990202  59.8448075  72.9705080  43.5906595  57.9319827  72.2558368
  44.3039447  57.4660090  72.9356849  42.8058071  57.2069840  71.3709353
  42.9779658  52.1246140  72.0007331  43.3801018  51.4485046  71.0695571
  42.9720784  51.7003518  73.2628760  42.9122353  52.4274820  73.9613027
  43.2398834  50.3428635  73.7035485  42.7534330  50.1429673  74.6582771
  42.6805045  49.3717309  72.6553874  41.7484654  49.7852235  72.2701262
  43.4103078  49.3083195  71.8482528  42.4275918  48.0001999  73.2095498
  42.7270924  47.7686691  74.4002798  41.9159676  47.1551518  72.4475569
  44.5366677  49.7515398  74.1725471  45.6375251  50.1298844  73.8060374
  44.2864864  48.7865279  75.0449308  43.3416847  48.8129521  75.4009515
  45.2178910  47.8673494  75.6473719  44.7114024  47.2877258  76.4191263
  45.7825344  46.9085055  74.6117467  46.2531587  47.5074087  73.8320500
  46.5383082  46.2986297  75.1066785  44.7314535  46.0060207  73.9910252
  44.0648976  46.6251234  73.3905954  45.2613251  45.3085513  73.3422790
  43.9165615  45.2279725  75.0134371  43.5638931  45.7847853  76.0742752
  43.6102153  44.0477558  74.7436919  46.3053948  48.4358982  76.4989919
  47.2603288  47.7392396  76.8058027  46.1888865  49.6741590  76.9310360
  45.4623263  50.3401324  76.7103804  47.3041362  50.1164031  77.7682243
  48.1877917  50.1905749  77.1343862  47.0010315  51.5016453  78.3500256
  46.8076294  52.2028642  77.5382455  46.1239164  51.4416913  78.9943660
  48.1732347  52.0195197  79.1711419  49.1928039  51.3449727  79.2972619
  48.0258400  53.2225467  79.7308067  48.7737962  53.6128870  80.2860505
  47.1670463  53.7368555  79.5964167  47.6273405  49.1256417  78.9017267
  48.1465777  49.5156887  79.9536370  53.1925022  52.0892944  83.5377616
  53.7802587  52.8208696  83.9111774  52.3497944  52.3983859  82.3713475
  52.4105241  51.5887610  81.6440795  50.8744231  52.5628964  82.8058035
  50.8569390  52.8295786  83.8625315  50.4336902  53.3699797  82.2205931
  50.1251584  51.3673838  82.6054719  49.2177234  51.5077454  82.8855795
  52.8597598  53.6355629  81.5812276  53.5952076  53.4865446  80.6115910
  52.5143350  54.8417760  82.0565977  51.8673364  54.8681979  82.8317068
  52.9387380  56.1243254  81.4530963  53.9005703  55.9986662  80.9559165
  51.9043168  56.5981242  80.4124059  52.1812738  57.6429031  80.2715830
  52.0801881  56.0483578  79.4877837  50.4203723  56.5091004  80.7848955
  50.1308478  55.4586163  80.8124557  50.1546317  57.1431697  82.1402246
  50.4434969  58.1938509  82.1133024  49.0935526  57.0645647  82.3769377
  50.7359780  56.6265158  82.9039036  49.5280441  57.1402455  79.7195325
  49.6733077  56.6238571  78.7706695  48.4843814  57.0558975  80.0224429
  49.7882854  58.1923520  79.6035785  53.1765382  57.1356715  82.5998831
  53.3143173  56.7141337  83.7564300  53.3793081  58.4440336  82.2816770
  52.9561270  59.2647935  81.1274592  51.9055724  59.0676949  80.9139467
  53.5588997  58.9991767  80.2590055  53.1983411  60.6809942  81.5837858
  52.2546048  61.1130885  81.9165850  53.5884995  61.2616849  80.7479173
  54.1870799  60.6165595  82.6927195  54.0120854  61.4335143  83.3927628
  55.2212884  60.6477869  82.3498824  53.9041437  59.2789725  83.3744256
  54.8099607  58.8035089  83.7506279  52.9069933  59.4547621  84.5217586
  51.6940239  59.3254899  84.3321569  53.4435185  59.7280728  85.7148169
  54.4500779  59.7667213  85.7885990  52.6439714  60.0004436  86.9213953
  51.6574542  59.5495765  86.8136835  53.3237735  59.4105547  88.1873863
  54.0269509  60.1562097  88.5583841  52.5437218  59.2459685  88.9307104
  54.0126557  58.1886143  87.9443493  54.4090503  57.8768180  88.7612056
  52.5223547  61.5184505  87.1190956  51.5342004  62.0134590  87.6590018
  53.5694743  62.2088308  86.6974587  54.3903510  61.7056781  86.3923387
  53.6157408  63.6486437  86.7083732  53.2882389  64.0301034  87.6754979
  55.0554410  64.1166934  86.4587120  55.6570737  63.8939083  87.3399067
  55.4410479  63.5585584  85.6055457  55.1668426  65.6048067  86.1570989
  54.2193060  66.3787784  86.3187846  56.3538140  66.0107477  85.7262012
  56.5015236  66.9853520  85.5061375  57.1044606  65.3433782  85.6201425
  52.6544362  64.2005427  85.6596635  52.7597212  63.8764677  84.4636533
  51.7291036  65.0678904  86.1026887  51.6657830  65.6041315  87.4774545
  52.6744019  65.6888760  87.8819375  51.0790377  64.9320504  88.1036622
  51.0043149  66.9387763  87.2941078  51.7432271  67.7001437  87.0442530
  50.4754316  67.2304108  88.2014848  50.0496950  66.7163356  86.1695407
  49.8294271  67.6500895  85.6521580  49.1197884  66.2654525  86.5160632
  50.7770679  65.7532102  85.2209371  50.1040817  64.9926272  84.8250817
  51.4274565  66.5148490  84.0582991  50.8932854  66.4896107  82.9708133
  52.5558923  67.1719847  84.2827454  52.9128437  67.2153332  85.2265706
  53.3074512  67.8422013  83.2278643  52.7678664  68.6951980  82.8163500
  54.6553296  68.3118017  83.7861736  55.2027947  67.4468842  84.1607401
  55.4709841  68.9977130  82.7091247  54.9243311  69.8630621  82.3343688
  56.4239017  69.3233356  83.1262802  55.6523207  68.3008767  81.8908122
  54.4229329  69.2399754  84.9858307  54.1138050  70.2044807  84.5830029
  53.6053283  68.8093469  85.5639150  55.6268063  69.4303402  85.8806352
  56.4447308  69.8613946  85.3033211  55.3685252  70.1007905  86.7003220
  55.9362556  68.4662598  86.2842316  53.5593989  66.8862297  82.0391176
  53.2235084  67.1797764  80.8776590  54.1306205  65.7348395  82.3427611
  54.4788665  65.5598080  83.2745272  54.4660855  64.7917394  81.2958918
  54.9189234  65.3217513  80.4579632  55.4501586  63.7487156  81.7997713
  55.0550829  63.4835661  82.7804395  55.4907983  62.8584516  81.1721738
  56.8635822  64.3285431  81.9573265  57.0765372  65.1681650  82.8590450
  57.7278288  64.0315704  81.1066620  53.2169891  64.2398300  80.6260104
  53.1157394  64.2319866  79.4102497  52.2624525  63.8173880  81.4321410
  52.3965589  63.8599707  82.4322918  51.0297533  63.2615377  80.9306181
  51.2337801  62.3228570  80.4154961  50.0514293  62.9886369  82.0750469
  50.4963070  62.5012737  82.9426069  49.6533322  63.9598457  82.3689381
  48.8827970  62.1533099  81.6684410  47.9353745  62.6558787  80.7982132
  48.0300560  63.6830290  80.4459384  46.8831119  61.8787832  80.3760770
  46.1230595  62.3031146  79.7200558  46.7882293  60.5650235  80.7810484
  45.9633538  59.9406477  80.4377772  47.7438953  60.0415241  81.6249712
  47.6779568  59.0015085  81.9445333  48.7860091  60.8353876  82.0661293
  49.5411562  60.4216792  82.7344841  50.4041237  64.2168149  79.9389387
  50.0687803  63.8245428  78.8531001  50.2953483  65.4822120  80.3226938
  50.6821094  65.7387008  81.2197605  49.6497937  66.5289729  79.5169463
  48.6109484  66.2618486  79.3231830  49.6802905  67.8680952  80.2664498
  49.0014368  68.5564690  79.7630629  49.3334846  67.6967978  81.2855097
  50.9847354  68.4289040  80.2986179  50.9629799  69.2625875  80.7741160
  50.3401516  66.7389401  78.1811987  49.6866198  67.0143404  77.1815849
  51.6671460  66.6071544  78.1793192  52.1518137  66.4770151  79.0558238
  52.4678560  66.6665357  76.9375679  52.1027835  67.4760936  76.3055574
  53.9260441  66.9157132  77.2474047  54.0290790  66.1872261  78.0516370
  54.6007184  66.6540927  76.4322548  54.2707996  68.2794022  77.7622533
  54.0151038  69.4329943  77.0110881  53.4699418  69.3420007  76.0716106
  54.4446213  70.6791384  77.4464093  54.2003324  71.5852466  76.8919792
  55.1769374  70.7608516  78.6167452  55.6520808  71.9451972  79.1134848
  55.4231638  72.7001663  78.5664764  55.4810922  69.6269974  79.3342037
  56.0650486  69.7036856  80.2513810  55.0497443  68.3998297  78.8957926
  55.3214831  67.4984451  79.4451230  52.4114765  65.3885645  76.0640457
  52.5251912  65.4539545  74.8447971  52.2831433  64.2382567  76.7114084
  52.3554298  64.2422580  77.7188100  52.1289912  62.9563956  76.0347095
  52.9013907  62.8216193  75.2775216  52.2665524  61.8344631  77.0842786
  53.3362790  61.7008731  77.2453314  51.8071927  62.2158460  77.9962192
  51.6428841  60.5081216  76.7238897  51.7132612  59.8549092  77.5936376
  50.5937644  60.6825294  76.4850762  52.3268061  59.8510458  75.5426669
  52.2241048  60.4779471  74.6569208  53.3842564  59.7013906  75.7606153
  51.7197755  58.5585152  75.2713286  51.0959335  58.4970678  74.4794039
  51.9314888  57.4639423  75.9999929  51.2811362  56.3454384  75.7039584
  50.6319692  56.3320218  74.9303292  51.4384035  55.5128691  76.2536811
  52.7858662  57.4808267  77.0267485  53.2786696  58.3321871  77.2557254
  52.9351315  56.6421555  77.5693803  50.7950858  62.8697453  75.2629335
  50.7577362  62.3976592  74.1395392  49.7064690  63.3144064  75.8644873
  49.7274640  63.6219028  76.8263108  48.4174793  63.2899787  75.1718562
  48.3345411  62.4158543  74.5260026  47.2440524  63.2888917  76.1467501
  46.3137528  63.1666991  75.5920332  47.3980472  62.1449330  77.1351327
  48.3279631  62.2666939  77.6905890  46.5576896  62.1482459  77.8293148
  47.4191056  61.1981473  76.5954523  47.1475975  64.6139624  76.8689802
  47.0014427  65.4140716  76.1433315  46.3042598  64.5916113  77.5591841
  48.0674689  64.7926855  77.4257527  48.2857091  64.4407288  74.2052209
  47.5341444  64.3623118  73.2455047  49.0284242  65.5063010  74.4454216
  49.5386297  65.5734118  75.3144934  49.1075281  66.6214396  73.5096068
  48.1230749  67.0740791  73.3909956  50.0668205  67.6762418  74.0324085
  51.0592037  67.2403854  74.1477550  50.1147212  68.5060258  73.3272388
  49.7160610  68.0404879  74.9980128  49.5594365  66.1354392  72.1342246
  48.9963270  66.5273237  71.1074032  50.5693995  65.2750902  72.1161073
  51.0232109  65.0165564  72.9805810  51.1025626  64.7296549  70.8583396
  51.1987660  65.5650439  70.1648200  52.4726225  64.1411496  71.0979918
  52.3914552  63.2976410  71.7835610  52.8928819  63.8004641  70.1517277
  53.1237609  64.8999922  71.5318996  50.2036819  63.6770800  70.2043607
  50.3116251  63.4290824  69.0134659  49.3300622  63.0497024  70.9832908
  49.3428945  63.2326936  71.9764921  48.3302335  62.0903963  70.4586658
  48.8066198  61.3907619  69.7718856  47.7087995  61.2929438  71.6214290
  47.2111540  61.9794570  72.3063727  46.9814105  60.5837586  71.2263825
  48.8623066  60.3205752  72.6326614  47.9432826  59.8314123  73.4603165
  47.1934377  62.7853612  69.7132397  46.6113062  62.2658377  68.7814424
  46.8447911  63.9815016  70.1610207  47.3709172  64.3592294  70.9360125
  45.8263194  64.7979069  69.5689720  44.8620200  64.2926671  69.6233640
  45.7250415  66.1229372  70.3167898  46.7686241  66.4048952  70.4565547
  45.2494409  66.8217633  69.6286429  45.0100127  66.1620974  71.6485538
  45.5911805  65.6420985  72.4100957  44.8566075  67.6245586  72.0388630
  44.2751126  68.1451461  71.2779746  44.3432430  67.6932595  72.9979447
  45.8414053  68.0845327  72.1207012  43.6641914  65.4635774  71.5611985
  43.8124844  64.4226883  71.2736945  43.1690978  65.5050018  72.5313879
  43.0437694  65.9610252  70.8157314  46.1033665  65.2105595  68.1464152
  46.9461592  66.0370227  67.9469156  45.3041611  64.7249423  67.1873549
  44.0220044  64.0618634  67.4744548  43.3983962  64.7223398  68.0769364
  44.2057470  63.1373237  68.0217793  43.4453968  63.8130650  66.1012979
  42.5378667  64.4067584  65.9916788  43.1995712  62.7548383  66.0128256
  44.4962554  64.2126955  65.0802074  43.9752733  64.6930770  64.2520104
  45.1294121  63.4131190  64.6956433  45.3411448  65.2317685  65.8177121
  46.3818803  65.3095030  65.5031882  44.6791714  66.5962851  65.7177944
  43.4500673  66.6744295  65.5882430  45.4616040  67.6527345  65.8564309
  46.4446378  67.5302565  66.0532632  44.9362808  69.0085344  65.7819052
  43.9205924  68.9959283  65.3865353  44.9469539  69.7266331  67.1529670
  45.0582785  70.7991822  66.9937640  43.6559937  69.4586476  67.8923718
  43.5441878  68.3862658  68.0523635  43.6755036  69.9690506  68.8552886
  42.8161022  69.8271155  67.3033787  46.1451477  69.2975297  68.0080102
  45.9203574  68.3129585  68.4181195  47.0106010  69.2271487  67.3491198
  46.4496301  70.2599307  69.1415735  45.5847434  70.3304828  69.8011896
  47.3081252  69.8967374  69.7065301  46.6749849  71.2446742  68.7321896
  45.7436400  69.8174417  64.7777409  46.6441771  69.2787433  64.1437527
  45.3799833  71.0838927  64.5842964  44.5532541  71.4505867  65.0339114
  46.0033582  71.8771709  63.5277631  46.6558903  71.2387917  62.9321348
  44.9305698  72.5090290  62.5876023  45.1929786  72.4825420  61.5299922
  44.0979726  71.8301346  62.7719508  44.5245921  73.9287572  62.9754530
  45.2738934  74.8887027  62.6601353  43.3759288  74.0996977  63.4387119
  47.0791195  72.8459048  64.0607753  47.0076590  73.3084127  65.1962773
  48.1230523  73.0491264  63.2505535  48.1236720  72.6277166  62.3326685
  49.3288407  73.7349513  63.6966380  49.8201155  73.0338055  64.3712808
  50.2701510  74.0110800  62.4988092  50.4700923  73.0787518  61.9707118
  49.7957639  74.7186753  61.8188344  51.5840599  74.5985948  63.0089061
  52.5042664  73.7875100  63.2969392  51.6549979  75.8528697  63.1056637
  49.0428511  75.0181649  64.5213452  49.8314785  75.3664227  65.4000718
  47.9172562  75.6922413  64.2756562  47.3333961  75.4552430  63.4863283
  47.6026919  76.9035275  65.0315524  48.5063820  77.4260889  65.3451973
  46.7033246  77.8970268  64.2380642  46.8965079  77.7571134  63.1744836
  45.2213155  77.6739352  64.5187492  45.0272621  77.8141398  65.5821338
  44.6307761  78.3881366  63.9449199  44.9449637  76.6598191  64.2301321
  47.1040853  79.3404192  64.5522443  48.1449187  79.4987153  64.2699144
  46.4678556  80.0250006  63.9912990  46.9852902  79.5269083  65.6195823
  47.0385596  76.6223749  66.4294751  47.3302720  77.3456743  67.3685613
  46.2457010  75.5698363  66.5618221  46.0140747  75.0439285  65.7312382
  45.7741520  75.0669246  67.8582350  45.2821930  75.8557409  68.4273083
  44.7605561  73.9482402  67.5947173  44.9286196  73.8110106  66.5265311
  45.1261090  73.0747847  68.1346679  43.2775778  74.1180525  67.8545795
  42.7007452  73.8558039  66.9676800  42.9072275  73.1791315  68.9972273
  43.4833596  73.4410743  69.8846711  41.8432518  73.2726858  69.2147219
  43.1299151  72.1514006  68.7103826  42.8887306  75.5701849  68.1267473
  43.1485056  76.1841661  67.2643996  41.8153423  75.6319569  68.3059763
  43.4245168  75.9319669  69.0043269  46.8821876  74.3935478  68.6746385
  46.8948376  74.4809205  69.9031352  47.7718399  73.6733053  67.9959484
  47.6631371  73.5477755  66.9996927  48.8889129  72.9925677  68.6663172
  48.5283341  72.3279645  69.4514190  49.6299733  72.1536262  67.6152831
  48.8886197  71.4562986  67.2251185  49.9152448  72.8557805  66.8318933
  50.8570164  71.3829758  68.0760899  51.3987529  71.0730584  67.1824605
  51.4735935  72.0718285  68.6535124  50.5331747  70.1569812  68.9249543
  51.4198398  69.9336440  69.5182878  49.7130065  70.4326584  69.5878462
  50.1488956  68.9469575  68.1762279  49.2389364  68.5685403  68.3973029
  50.9212110  68.2853766  67.3085197  52.1005785  68.7584218  66.9288587
  52.4311716  69.6382273  67.2986565  52.6627215  68.2366952  66.2716705
  50.4645217  67.1720881  66.7517856  49.5418268  66.8352393  66.9868750
  51.0414319  66.6660037  66.0951640  49.8180709  74.0068669  69.3485316
  50.3651045  73.7291143  70.4388626  49.9744285  75.1904391  68.7322191
  49.4758713  75.4148119  67.8829859  50.8016693  76.2349241  69.3507963
  51.6475054  76.0431057  70.0109979  51.0389457  77.5650671  68.5769555
  50.2567084  78.2647824  68.8712406  52.4099402  78.1838008  68.8613653
  53.1927489  77.4848055  68.5668885  52.5167268  79.1082517  68.2938375
  52.4979471  78.3995381  69.9261711  50.2984060  77.7274959  67.2447924
  50.6049716  76.9065873  66.5965429  49.2309930  77.6479969  67.4507266
  50.5846780  79.0559864  66.5521717  51.6519063  79.1360096  66.3454838
  50.0290634  79.1052347  65.6157069  50.2779295  79.8774196  67.1996690
  50.1673730  76.7926745  70.6110933  50.8668814  77.2518225  71.5200549
  48.8389432  76.7585246  70.6672713  48.3297257  76.4667903  69.8452689
  48.0732934  77.2153133  71.8355086  48.3817591  78.2254374  72.1049477
  46.5721615  77.2273183  71.5282285  46.4597756  76.9271116  70.4864298
  46.1109295  76.4793385  72.1731249  45.8902461  78.5761227  71.7452658
  46.0673143  78.8641070  72.7815152  46.3149171  79.3294226  71.0817179
  44.3843141  78.5104694  71.5079297  43.6463855  77.9366087  72.3089255
  43.9268718  79.0630780  70.3819256  42.9374569  79.0450111  70.1798531
  44.5723274  79.4966622  69.7373380  48.3449510  76.4066340  73.0850717
  48.6919837  76.9810709  74.0953170  48.1815555  75.0786404  73.0189195
  47.9469105  74.6848298  72.1189450  48.4614471  74.1599173  74.1288954
  47.7054975  74.2591844  74.9078598  48.4363934  72.7298231  73.6058505
  48.7254268  72.8544094  72.5622811  49.2487675  72.2511278  74.1526585
  47.1975458  71.8659286  73.6858119  46.3879219  72.4325046  74.1458137
  46.7849580  71.4390818  72.2832228  47.5939549  70.8720178  71.8227216
  45.8921286  70.8164229  72.3402511  46.5730950  72.3228900  71.6814774
  47.4957500  70.6445890  74.5319944  47.7877429  70.9586886  75.5340827
  46.6058571  70.0181158  74.5930141  48.3084397  70.0772609  74.0783720
  49.8872408  74.3336053  74.6176343  50.1938034  74.3590127  75.8277264
  50.7704046  74.3545011  73.6256554  50.4518774  74.2178180  72.6769945
  52.1831158  74.5347927  73.8533000  52.5802298  73.7117735  74.4474708
  52.9229886  74.5636576  72.4886520  52.2877790  73.8132494  72.0180189
  52.7292497  75.5371490  72.0382301  54.4142097  74.1842315  72.2790206
  54.5208949  73.8918266  71.2344066  55.4218369  75.3124336  72.6038798
  55.3160607  75.6050701  73.6485205  56.4366701  74.9556650  72.4280092
  55.2236819  76.1725377  71.9643050  54.7458249  72.8798495  72.9938043
  54.1207478  72.0791891  72.5984297  55.7954423  72.6336263  72.8332468
  54.5588144  72.9924255  74.0617241  52.4320478  75.8401487  74.6268842
  53.2347032  75.8610846  75.5952410  51.7225996  76.9024943  74.2375640
  51.2320450  76.8952025  73.3547264  51.8133582  78.1618830  74.9678564
  52.8608169  78.3649292  75.1907952  51.2447110  79.3411343  74.1713040
  50.4608566  78.9573752  73.5183106  50.8127422  80.0471929  74.8805178
  52.3108140  80.0523086  73.3269424  53.1343077  80.3225702  73.9879398
  52.6655423  79.3475740  72.5748659  51.7806821  81.3029546  72.6398814
  51.2583443  81.9047915  73.3835578  52.6303170  81.8640493  72.2507893
  50.8294850  80.9678243  71.4998758  51.3576834  81.1242485  70.5593235
  50.5492598  79.9181883  71.5884041  49.6019182  81.8135553  71.5267037
  49.8613325  82.7861834  71.4442503  49.0007803  81.5589340  70.7560538
  49.1121048  81.6684362  72.3979799  51.2539630  78.0684916  76.3917848
  51.6281151  78.8759822  77.2366079  50.3954209  77.0776738  76.6621543
  50.1080304  76.4598926  75.9165992  49.7447238  76.9412639  77.9659436
  49.4880081  77.8993607  78.4178803  48.4872878  76.0827464  77.8446202
  48.5786898  75.4458389  76.9647936  48.3062221  75.2142363  79.0832817
  48.2142770  75.8504975  79.9635195  47.4048249  74.6108516  78.9759945
  49.1698445  74.5591376  79.1977421  47.2905755  77.0054378  77.5668860
  47.1509271  77.6161338  78.4588778  47.5738308  77.6443645  76.7304419
  45.9954015  76.2873792  77.2382629  45.7112430  75.6485676  78.0744887
  45.2088357  77.0200714  77.0577761  46.1341476  75.6767961  76.3460535
  50.7127966  76.4304760  79.0495256  51.4579918  75.4361228  78.8481408
  50.7250359  77.1327402  80.1855111  49.9799134  77.7812018  80.3961986
  51.8077386  76.9862907  81.1512862  52.6598985  76.5630380  80.6195158
  52.0613021  77.9851962  81.5062407  51.4853303  76.1118262  82.3361350
  52.3875796  75.6400712  83.0268777  50.1907013  75.8167172  82.5153204
  49.4761161  76.2852226  81.9768316  49.7793797  74.8754612  83.5196717
  50.5975300  74.7118262  84.2210652  48.5728746  75.3879705  84.2912343
  48.8217901  76.3433089  84.7532614  47.7384168  75.5241332  83.6033100
  48.2097685  74.4602535  85.2941824  47.4481850  74.7913982  85.7757772
  49.4557769  73.4979042  82.9479001  48.7294246  73.3638467  81.9506408
  49.9334082  72.4728578  83.6563733  50.6172535  72.6471502  84.3789224
  49.5334274  71.1071086  83.4069074  49.8314556  70.7987475  82.4048136
  50.1941532  70.1851477  84.4144388  49.8980154  70.4756976  85.4223987
  49.8823356  69.1577227  84.2266413  51.2774891  70.2586882  84.3191789
  48.0252648  70.9830626  83.4915951  47.4362166  70.3864938  82.6156653
  47.4087958  71.5655843  84.5280740  47.9617304  72.0858764  85.1941512
  45.9661353  71.4521239  84.7606583  45.6538930  70.4100987  84.8298494
  45.5425669  72.1970004  86.0300971  45.6163758  73.2721282  85.8665340
  44.1150391  71.8357763  86.3625720  44.0405237  70.7607890  86.5267375
  43.8072073  72.3629037  87.2656097  43.4651713  72.1224412  85.5357745
  46.4917338  71.9017980  87.2200390  47.4966880  71.8246859  86.8050431
  46.4381697  72.7655132  87.8827806  46.1706287  70.6433024  88.0032818
  46.2244514  69.7790496  87.3412620  46.8904055  70.5252588  88.8132733
  45.1659315  70.7198762  88.4189978  45.1678473  71.9966357  83.5871605
  44.2765913  71.3279934  83.0790431  45.5000084  73.2190708  83.1665462
  46.2850700  73.6814787  83.6023863  44.8565347  73.8723022  82.0175551
  43.7913756  73.9953430  82.2135050  45.4697804  75.2506281  81.7674123
  46.5308449  75.0615127  81.6046956  45.0162379  75.5963414  80.8384982
  45.3059567  76.3021271  82.8252330  44.2635901  76.5517263  83.0234069
  45.7596755  75.8950693  83.7288619  46.0452681  77.5735205  82.4407961
  47.2665245  77.5601515  82.2116129  45.2993071  78.6646622  82.2790867
  45.7367433  79.5384040  82.0234964  44.2994990  78.6135206  82.4127639
  45.1361426  73.1302263  80.7130519  44.3534043  73.2093549  79.7525934
  46.2909906  72.4571172  80.6683733  46.9836688  72.5751388  81.3938849
  46.6332564  71.6447982  79.5164180  46.3863778  72.2017161  78.6125416
  48.1239861  71.2697925  79.4708025  48.6660652  71.9338023  80.1441081
  48.2299611  70.2404333  79.8132770  48.6958281  71.3981438  78.0600227
  48.0715189  70.8010519  77.3953272  48.6319686  72.4475418  77.7722938
  50.1233799  70.9360592  77.9558938  50.2991319  70.1224766  78.6596648
  50.3248907  70.5890203  76.9424557  51.0367422  72.0262236  78.2657777
  51.1453068  72.7451189  77.5647052  51.7155704  72.1411929  79.4021273
  51.6197097  71.2139001  80.3509860  51.0241540  70.4105536  80.2093955
  52.1429177  71.3174214  81.2086784  52.5105040  73.1869070  79.5852326
  52.5941375  73.8866276  78.8617019  53.0285826  73.2787206  80.4473599
  45.7365716  70.4108099  79.4480409  45.0967441  70.1688857  78.4396811
  45.6636881  69.6623878  80.5384139  46.2397409  69.9097106  81.3303066
  44.7979096  68.4805385  80.6489567  45.0858143  67.7215239  79.9215594
  44.9492791  67.9000354  82.0399954  44.7601346  68.7525213  82.6923690
  44.1512388  67.1673286  82.1598800  46.2774151  67.2658310  82.4092778
  47.0413520  67.7049058  81.7676278  46.6607996  67.4761230  83.8753114
  45.8975130  67.0368765  84.5176157  47.6202067  66.9979220  84.0727008
  46.7382226  68.5436146  84.0816311  46.1753024  65.7922204  82.0995993
  45.9701266  65.6569511  81.0376650  47.1148695  65.3012067  82.3530170
  45.3670590  65.3527337  82.6841444  43.3332053  68.8049891  80.4062116
  42.6639627  68.0770979  79.6887914  42.8346541  69.8773010  81.0270045
  43.4124406  70.3691645  81.6935870  41.4539120  70.3248440  80.8425655
  40.7716989  69.5258004  81.1327618  41.1490413  71.5750906  81.7073935
  42.1046377  71.9774497  82.0436103  40.6556784  72.3025629  81.0628184
  40.2600136  71.2844207  82.9244337  39.2667690  71.0416052  82.5468009
  40.6792993  70.4137694  83.4286834  40.1589443  72.4461682  83.9133982
  39.3982068  72.2028465  84.6551339  41.1232764  72.5635055  84.4077614
  39.8014508  73.7167083  83.2727833  40.5690504  74.3272848  83.0317718
  38.5596996  74.1070210  82.9762229  38.3525997  75.2959698  82.4101776
  39.1371748  75.8987274  82.2071374  37.4120577  75.5886137  82.1869292
  37.5310049  73.3088025  83.2256493  37.6885856  72.4020620  83.6416903
  36.5944658  73.6111061  82.9984804  41.1662739  70.5997053  79.3672064
  40.3581325  69.9118113  78.7391918  41.8455052  71.5951104  78.8185932
  42.4422472  72.1771955  79.3888345  41.6928843  71.9321991  77.4169298
  40.6963688  72.3323360  77.2299898  42.7238685  72.9917030  77.0341818
  42.2589291  73.9764243  76.9866985  43.5386950  73.0097222  77.7579449
  43.4823844  72.7256334  75.4420431  44.2684128  73.7977771  75.4816095
  41.8010362  70.7028209  76.4984063  41.0671850  70.5828396  75.5111283
  42.7100862  69.8007840  76.8387645  43.3028604  69.9894275  77.6344602
  42.8673608  68.5153098  76.1411531  43.1066488  68.6785938  75.0903540
  44.0195012  67.7251966  76.7915405  44.1988042  68.1835354  77.7641017
  43.6562140  66.7071185  76.9316813  45.3146472  67.6955210  75.9999691
  45.2719549  66.8138211  75.3605291  45.3602077  68.5911650  75.3804166
  46.5585167  67.6238787  76.8827494  47.6193095  68.1276432  76.4587447
  46.4856559  67.0504828  77.9864950  41.6570239  67.5821784  76.2120365
  41.3675659  66.8763780  75.2684005  40.9934872  67.5347735  77.3590194
  41.3467598  67.9904378  78.1882769  39.7589106  66.7601783  77.4667364
  39.9304178  65.7509580  77.0923586  39.2946795  66.6707986  78.8925855
  39.6931989  67.5535595  79.3926003  38.2071105  66.6725889  78.9653219
  39.8402699  65.4299619  79.5533822  40.8431094  65.2284509  79.1768092
  39.8969733  65.6395522  81.0574947  38.8943645  65.8406703  81.4348882
  40.2913315  64.7426921  81.5352229  40.5459520  66.4858371  81.2827256
  38.9972646  64.2201184  79.1771974  39.0160824  64.0856157  78.0956918
  39.4013400  63.3306105  79.6605194  37.9697065  64.3763413  79.5055534
  38.6820256  67.3536272  76.6067189  37.8958651  66.6233130  76.0132638
  38.6515039  68.6851279  76.5322517  39.2739013  69.2399089  77.1022857
  37.6703254  69.3764317  75.7074288  36.6727636  69.1043309  76.0522924
  37.8107693  70.9099513  75.7671560  37.2035061  71.2627775  76.6007292
  38.8580755  71.1458354  75.9558579  37.3473573  71.6142133  74.4504490
  36.4608821  71.0859265  73.7205356  37.8856834  72.7031319  74.1486008
  37.7425291  68.8962049  74.2597418  36.7493604  68.4320315  73.7006907
  38.9254471  68.9895465  73.6694256  39.6891638  69.4178150  74.1728362
  39.1509612  68.5804018  72.2910802  38.5293780  69.1549070  71.6042925
  40.6273961  68.8064384  71.9534632  41.2351341  68.4296246  72.7761212
  41.0061280  68.0990152  70.6884898  40.3990909  68.4756508  69.8652327
  42.0597552  68.2771395  70.4734496  40.8355059  67.0287803  70.8050425
  40.8860641  70.3040884  71.8076534  41.1641632  70.4863323  70.7696029
  39.9507493  70.8184590  72.0283538  41.9717512  70.8231495  72.7172792
  42.9075456  70.3095399  72.4968392  42.0991809  71.8938356  72.5576164
  41.6941324  70.6416643  73.7555907  38.7246960  67.1328367  72.0330525
  38.0916184  66.8452550  71.0199136  39.0526979  66.2371473  72.9666542
  39.5168508  66.5466899  73.8085834  38.7456048  64.8051134  72.8256513
  39.1825519  64.4211715  71.9038243  39.3191589  64.0245089  73.9969431
  39.0989640  64.6086161  74.8904934  38.7708479  63.0832120  74.0345631
  40.7827386  63.7447400  73.9344796  41.0142398  63.1673717  73.0394076
  41.3409829  64.6807722  73.9169009  41.2594024  62.7999730  75.3864152
  42.8768115  63.4977588  75.6973874  42.7825052  64.5685240  75.8781282
  43.3173115  63.0195482  76.5722446  43.5176130  63.3310144  74.8315520
  37.2452892  64.5101746  72.8024731  36.8052565  63.5888311  72.1337359
  36.4737826  65.2796846  73.5577551  36.8832476  65.8602951  74.2756194
  35.0260976  65.1950700  73.4833937  34.7190860  64.1710059  73.2709419
  34.4171055  65.6203021  74.8184410  34.8274762  66.6046150  75.0438807
  33.3304828  65.6845578  74.7616753  34.7932752  64.6591984  75.9564243
  35.9739652  64.4270286  76.2344556  33.7875861  64.0491135  76.5702646
  33.9766129  63.4062558  77.3259778  32.8376336  64.2303697  76.2789961
  34.4720130  65.9589698  72.2882713  33.6857145  65.4128450  71.5231240
  34.9276080  67.1976432  72.0958903  35.6487786  67.5451486  72.7117249
  34.3456540  68.1235005  71.1102865  33.2694922  67.9779968  71.2041149
  34.6879273  69.6224071  71.4854782  34.3833548  69.8188074  72.5134674
  35.7611084  69.7860469  71.3874761  33.9425451  70.5644565  70.5460249
  34.2469602  70.3689516  69.5178176  32.8692066  70.4017150  70.6438097
  34.2723609  72.0088042  70.9075579  33.9677905  72.2052051  71.9355475
  35.3455416  72.1724432  70.8095538  33.5269763  72.9508531  69.9681051
  33.8313901  72.7553483  68.9398977  32.4536394  72.7881124  70.0658933
  33.8448991  74.3431091  70.3165984  34.8393771  74.4942342  70.2256350
  33.3512340  74.9670240  69.6944047  33.5625113  74.5245988  71.2691832
  34.7259032  67.8401961  69.6402718  34.0425577  68.2893190  68.7115988
  35.7834449  67.0558977  69.3988665  36.2734421  66.6257081  70.1701893
  36.2634644  66.7952254  68.0385179  35.6963467  67.3890747  67.3217057
  37.7604685  67.1771362  67.9233310  38.2095946  67.1718514  68.9164861
  38.2689458  66.4490484  67.2913191  38.1284126  68.7984170  67.2156928
  39.4509690  68.6944627  67.3102243  36.1346986  65.3082104  67.6144064
  37.1399680  64.5826559  67.4556676  34.9235162  64.9395430  67.2302571
  34.1543525  65.5898565  67.3049498  34.6423275  63.5841393  66.7567925
  35.1707200  62.8540917  67.3699246  33.1560260  63.3142788  66.8563525
  32.8853131  62.5539061  66.1237898  32.7927224  62.8292028  68.2451062
  33.0627328  63.5892938  68.9782198  31.7202943  62.6409805  68.2957981
  33.3334234  61.9078924  68.4617396  32.4560048  64.5300163  66.5834027
  31.5104551  64.3750556  66.6427588  35.1168030  63.2932577  65.3135545
  35.5059581  62.1532093  65.0250932  35.0569930  64.2680090  64.4208593
  34.9025170  65.2184949  64.7255116  35.2993535  64.0221101  62.9758354
  35.2407436  62.9548926  62.7620342  34.2478435  64.7424522  62.1460866
  33.8415320  64.0539453  61.4051626  33.4465913  65.0850869  62.8008358
  34.8336071  65.8656082  61.4820416  34.1637504  66.3143447  60.9609586
  36.6108005  64.5879986  62.4745064  37.0651478  65.5913682  62.9770062
  37.1412109  63.9899328  61.4068135  36.6225302  63.2359391  60.9795393
  38.4270346  64.3960140  60.7907018  38.7453091  65.3484618  61.2145459
  39.5223643  63.3568752  61.0450781  39.0310473  62.4233079  60.7709270
  40.3476903  63.5475775  60.3590972  40.0573905  63.2498229  62.4633379
  39.2445067  63.4705045  63.1551618  40.6076219  61.8578980  62.7536958
  41.4209085  61.6366716  62.0625210  40.9809034  61.8203992  63.7770997
  39.8149866  61.1200859  62.6293450  41.1104364  64.3349550  62.6718651
  40.6580785  65.3149467  62.5199177  41.5036474  64.2702185  63.6864072
  41.9226306  64.1956930  61.9583907  38.2520082  64.5000219  59.2793193
  37.9123351  63.5424111  58.6047818  38.5188689  65.6683254  58.7636544
  38.9635346  66.3733246  59.3340470  38.0979003  66.0365353  57.3975153
  37.6152232  65.1955820  56.8996001  37.0849186  67.1971904  57.4992101
  37.6163012  68.1455890  57.5784053  36.4483868  67.2107295  56.6144819
  35.9177426  67.1250627  58.9833418  35.2587467  68.2441352  58.6964633
  39.3177592  66.3616613  56.5472522  40.4255376  66.5730383  57.0580994
  39.1312797  66.3263537  55.2372600  38.2386229  65.9940125  54.9013842
  40.1185256  66.7634677  54.2584827  41.0278019  66.1636618  54.2978351
  39.4578989  66.5670917  52.8787165  39.2935041  65.5000605  52.7286566
  38.4987057  67.0848022  52.8836533  40.3312612  67.1481986  51.4157456
  39.4043146  66.7688977  50.5406462  40.4153080  68.2379904  54.5050432
  39.4886417  69.0317849  54.4961579  41.6683799  68.5972535  54.8117985
  42.4351936  67.9399765  54.8026917  41.9278142  69.9488137  55.2632183
  41.1860057  70.2231566  56.0132552  43.3100330  70.0849404  55.8755831
  43.2596675  69.6971130  56.8930075  43.9932108  69.4724080  55.2872191
  43.8161589  71.5278894  55.9048687  43.8628353  71.8839807  54.8757325
  43.0918844  72.1222057  56.4619293  45.1847826  71.6633579  56.5497256
  45.5060036  70.6830856  56.9018367  45.8900271  72.0299667  55.8038519
  45.1370507  72.6380022  57.7286125  46.1674090  72.8224926  58.0326283
  44.6961975  73.5641685  57.3598800  44.3475811  72.1425236  58.9088348
  44.7561785  71.2845501  59.2509304  44.3637005  72.8383633  59.6407140
  43.3926935  71.9719161  58.6274421  41.7307336  70.9323571  54.1029068
  41.2281210  72.0472976  54.3027622  42.0977641  70.4891200  52.8960951
  42.4660975  69.5509402  52.8309141  42.0728067  71.3042780  51.6939031
  42.5797820  72.2562119  51.8516909  42.8120955  70.5317870  50.5960162
  43.8429657  70.8855727  50.6115586  42.7844987  69.4816138  50.8866614
  42.2511680  70.6826152  49.2075691  42.8863004  70.1358547  48.5106039
  41.2391964  70.2794622  49.1690579  42.2098155  72.1176956  48.7911401
  41.1498024  72.6464504  48.4225582  43.3623227  72.7666641  48.8281834
  43.3995912  73.7392852  48.5585155  44.1994553  72.2864134  49.1259576
  40.6302997  71.6913342  51.2629273  40.3066244  72.8785458  51.2012500
  39.7775508  70.7079398  50.9673335  40.0756691  69.7437010  51.0056524
  38.4254769  70.9957090  50.5021679  38.3864347  71.9779146  50.0311616
  38.0150707  69.9520019  49.4812299  37.0772699  70.2220695  48.9957484
  38.7882082  69.8137168  48.7254286  37.7443188  68.3247116  50.2257812
  37.4180254  67.7066433  49.0942236  37.4437283  71.0611657  51.6864260
  36.2304825  71.2601988  51.5193319  38.0024093  70.8610996  52.8725179
  38.8758234  70.3543112  52.8928307  37.3783663  71.2273455  54.1539079
  38.0661324  71.0398705  54.9784865  37.0277593  72.7166210  54.1386317
  37.5928459  73.1737209  53.3263287  35.9612228  72.7957752  53.9280742
  37.3422020  73.4369320  55.4436542  36.5174776  73.3185698  56.1464492
  38.2407150  72.9800226  55.8583952  37.6009587  74.9249397  55.2427806
  38.2595043  75.3142954  54.2796639  37.0509650  75.7660924  56.1336847
  37.1957428  76.7612753  56.0401339  36.4950769  75.3996543  56.8931666
  36.1568223  70.4085694  54.5838905  36.1668483  69.7423750  55.6285074
  35.1002807  70.4506147  53.7811994  35.1192764  71.0005391  52.9342510
  33.8086050  69.8307576  54.1924535  33.8155341  69.6900195  55.2733069
  32.5754532  70.7084942  53.8116794  32.7189874  71.0044535  52.7724945
  31.7026008  70.0599895  53.8869812  32.3568726  71.9713686  54.6825530
  33.3323264  72.2657401  55.0697687  31.9829910  72.7466140  54.0137433
  31.3768841  71.7873110  55.8509213  31.0505687  72.7931812  56.5393255
  30.9274599  70.6485742  56.0786237  33.6627808  68.3826623  53.6867132
  32.5677480  67.9195372  53.3669456  34.7522240  67.6278566  53.6971877
  35.6331291  68.0684791  53.9206992  34.7454074  66.1779328  53.4198910
  33.7461110  65.8069490  53.1921261  35.7097741  65.8328756  52.1938895
  36.7013467  66.2250508  52.4199039  35.8037631  64.3074399  51.9394219
  34.8125757  63.9146027  51.7128694  36.4697596  64.1193975  51.0972890
  36.1951691  63.8136291  52.8288334  35.2954110  66.4916878  50.9816359
  35.8971222  66.2606865  50.2701710  35.2563879  65.3652806  54.6553894
  36.4089389  65.4527736  54.9976775  34.4277076  64.4288236  55.1351251
  33.4567302  64.4430730  54.8574579  34.8333977  63.5077765  56.2158544
  35.5316751  64.0418156  56.8602999  33.6534355  62.9671970  57.0950659
  33.2377243  63.8145248  57.6403356  32.8991199  62.5659528  56.4182269
  34.0852989  61.8624173  58.1041135  34.0062503  60.9378212  57.5322969
  35.1272054  62.0337701  58.3746097  33.2316211  61.7483000  59.3886711
  33.7397409  61.1742904  60.3726372  32.0502318  62.1731764  59.4123228
  35.7562282  62.3613337  55.7091920  35.4722218  61.6047089  54.7411397
  36.8764504  62.2340998  56.3700851  37.1703287  62.9306772  57.0397976
  37.7857054  61.1103270  56.0867493  37.5832566  60.6234945  55.1327536
  39.2475126  61.6075372  56.1105308  39.4144692  62.1274262  57.0538978
  40.2500916  60.4562614  55.9777746  40.0840464  59.9361492  55.0343696
  41.2649863  60.8532741  55.9994618  40.1153975  59.7592844  56.8049262
  39.4837206  62.6919481  55.0042633  38.9235141  63.5695314  55.3269351
  40.5507886  62.9127890  55.0306203  39.0743580  62.3223168  53.5754064
  38.0072497  62.1017777  53.5481638  39.2895563  63.1567072  52.9078875
  39.6345230  61.4450333  53.2518499  37.5360498  59.9770644  57.0876998
  37.3731532  58.8108221  56.7058480  37.5050087  60.3332556  58.3596205
  37.6051326  61.3093433  58.5990520  37.5245801  59.3480501  59.4414097
  36.7992969  58.5521530  59.2722614  38.9671443  58.6970353  59.5930580
  39.5074646  58.8504335  58.6589150  39.7520725  59.3030370  60.7341972
  39.2125643  59.1496160  61.6688054  40.7299268  58.8256104  60.7971575
  39.8804578  60.3714310  60.5605535  38.8793718  57.2686123  59.7873691
  39.7625508  56.9028272  59.8756674  36.9297554  59.9704765  60.7528635
  36.5661045  61.1571896  60.8079282  36.7605115  59.1415785  61.7708190
  37.1494519  58.2115621  61.7084149  36.1666938  59.5593725  63.0359849
  35.8859325  60.6122093  63.0075790  34.9320284  58.7396862  63.2849703
  34.1832770  59.3800251  63.7512726  34.3478686  58.1363079  61.9426194
  35.0959392  57.4954419  61.4759496  33.4559795  57.5504522  62.1648941
  34.0889905  58.9470837  61.2616457  35.3040801  57.6893484  64.1709014
  34.5385726  57.1402561  64.3555530  37.0455771  59.2128729  64.2250258
  38.0274864  58.4790335  64.0716410  36.6722764  59.7195236  65.4049230
  35.9429163  60.4171232  65.4434980  37.3691538  59.3767710  66.6425932
  38.4306075  59.5692823  66.4865337  36.9072030  60.1540556  67.8800710
  37.0680996  61.2125123  67.6754223  35.8403158  59.9658257  68.0001598
  37.6522868  59.7602117  69.1851343  38.1390857  58.8012390  69.0076548
  38.4089796  60.5219725  69.3728536  36.7053749  59.6435276  70.4347229
  36.6181146  60.6425083  70.8619490  35.7317150  59.3199722  70.0667588
  37.2008436  58.6547115  71.5269919  36.4374596  57.8791701  71.5892887
  38.1236944  58.2249608  71.1374282  37.4520943  59.2229788  72.8994716
  36.5969781  59.6208630  73.2608084  37.7679915  58.4876811  73.5156259
  38.1597405  59.9413358  72.8420341  37.2559707  57.9040964  66.8523669
  38.2522376  57.2728188  67.1093490  36.0550009  57.3475361  66.6930775
  35.2638029  57.9551720  66.5353321  35.8105843  55.9012562  66.8158220
  35.7753593  55.6288564  67.8706475  34.4500562  55.4919616  66.1460309
  34.5815547  55.3488314  65.0735007  34.1677732  54.5451828  66.6064940
  33.3052024  56.5146642  66.3731526  32.6995890  57.0200620  65.4022790
  32.9662058  56.7723806  67.6447498  32.2267309  57.4310056  67.8434702
  33.4519043  56.3066831  68.3979587  36.9460328  55.0423237  66.2336583
  37.3000429  54.0123245  66.7985304  37.4960815  55.4745458  65.1003214
  37.1831073  56.3476962  64.7006280  38.4074449  54.6428039  64.3191689
  38.2450053  53.5920813  64.5593657  38.1672456  54.8459703  62.8100401
  38.6132925  55.8056148  62.5488434  38.7018414  54.0459841  62.2978590
  36.6615341  54.8328418  62.3708572  36.2513217  55.4133220  63.1972163
  36.5015292  55.3696349  61.4357899  35.9418589  53.4377230  62.3032316
  35.5218303  53.0391622  61.1758616  35.6327497  52.8141603  63.3734662
  39.8881509  54.7900696  64.7101964  40.7029625  53.9377682  64.3625898
  40.2224506  55.8140530  65.4456913  39.5042927  56.4645339  65.7306880
  41.5709661  56.0276218  65.9251245  42.3374952  56.0646862  65.1510711
  41.5686180  57.3277463  66.6934265  40.6493669  57.3904168  67.2757925
  42.7584227  57.4052989  67.6212385  43.6781148  57.3431557  67.0395122
  42.7355861  58.3502757  68.1640073  42.7212075  56.5784970  68.3305429
  41.4941569  58.5144003  65.7227212  42.3835581  58.4824001  65.0934023
  40.6069148  58.3796374  65.1040614  41.4204655  59.8616709  66.4286421
  42.3076541  59.9973603  67.0471764  41.3699079  60.6587906  65.6869256
  40.5310114  59.8945966  67.0578377  41.9888578  54.9289790  66.8888716
  41.2812410  54.6251106  67.8316183  43.1482765  54.3492813  66.6610908
  43.6320098  54.4904541  65.7857785  43.7827631  53.4927349  67.6803890
  43.4577882  53.7932904  68.6764598  43.3944942  52.0668116  67.4615650
  43.6922635  51.3773765  68.2515725  42.3080617  52.0702974  67.3735175
  43.9278450  51.5032818  66.1760565  43.2860736  51.7765130  64.9752388
  42.3964992  52.4063781  64.9804574  43.7541831  51.2689097  63.8012910
  43.2151926  51.4351698  62.8685812  44.9187146  50.5407364  63.8010664
  45.2985371  50.1358464  62.8630372  45.6056648  50.3206331  64.9745292
  46.5350149  49.7511707  64.9635230  45.1226119  50.8156051  66.1509554
  45.6817116  50.6678491  67.0749011  45.2885387  53.5507331  67.6332513
  45.8624912  53.9165670  66.6058872  45.8739816  53.1412247  68.7492950
  45.3032704  52.6972840  69.4544934  47.3140625  53.3002734  69.0147369
  47.6960704  54.1764322  68.4907951  47.5560323  53.4880204  70.5380647
  46.7410718  52.9927588  71.0659421  48.4985330  52.9997964  70.7859150
  47.6130047  54.8563719  70.9300102  47.7635910  54.9121125  71.8764861
  48.0592550  52.0892198  68.5517916  48.1893960  51.1469728  69.3063166
  48.5080505  52.0794517  67.3022588  48.2342641  52.7911725  66.6399946
  49.4096004  51.0535608  66.8640755  48.9972013  50.0756346  67.1124432
  49.6237235  51.1216379  65.3730330  49.3644472  52.1435435  65.0962950
  50.6894708  50.9609854  65.2103267  48.8338898  50.1547549  64.5237425
  47.8534306  50.5787080  64.3067993  49.5729151  49.9010377  63.2248487
  50.5533532  49.4766217  63.4409759  49.0024989  49.2030563  62.6120289
  49.6950766  50.8407307  62.6861892  48.6283441  48.8430272  65.2478636
  48.0830694  49.0206731  66.1748032  48.0568841  48.1638335  64.6152258
  49.5967254  48.3978314  65.4761994  50.7240660  51.2473675  67.5442675
  51.3747990  50.2955067  67.9171060  51.1418036  52.4884640  67.6387225
  50.5953302  53.2440772  67.2507601  52.3797870  52.8111422  68.3019268
  53.1052930  52.0242553  68.0956522  52.9684979  54.1643255  67.8277574
  53.1959483  54.0817641  66.7649549  52.2123175  54.9348231  67.9781718
  54.1659169  54.5190241  68.5491787  54.4968479  55.3602370  68.2259987
  52.0981781  52.8989587  69.7621657  51.0381310  53.3145273  70.1710347
  53.0965035  52.5715463  70.5694956  53.9714542  52.2170114  70.2105172
  52.9473887  52.7000892  71.9838797  52.1045911  52.0831687  72.2956495
  54.1939696  52.2668032  72.7764794  54.1919158  51.1868626  72.6287522
  55.1282341  52.6828028  72.3993929  54.0606048  52.5841835  74.3020723
  53.0376298  52.9143639  74.4826376  54.3745968  51.3773212  75.1990107
  55.3976296  51.0468394  75.0193321  54.2640121  51.6628966  76.2451074
  53.6852707  50.5646324  74.9699544  54.8741049  53.8292789  74.7086667
  54.5182990  54.6948264  74.1498027  54.7514618  54.0113305  75.7763357
  55.9284626  53.6631318  74.4877052  52.6545859  54.1663746  72.2556490
  51.8040734  54.5041819  73.0486254  53.3390462  55.0304132  71.5463701
  54.0832015  54.7262883  70.9349453  53.2437921  56.4121907  71.8543045
  53.2057663  56.5327158  72.9369526  54.4041696  57.1840616  71.3301010
  54.8254679  56.8039143  70.3994587  54.2387875  58.2577990  71.2415750
  55.6823927  56.9777853  72.5767363  56.6025845  57.7093904  71.9547240
  51.9310351  57.0449721  71.6027780  51.6032229  57.9838844  72.3177605
  51.1527815  56.5754146  70.6477314  51.4570785  55.8691485  69.9929865
  49.8169953  57.0839872  70.5273187  49.2443861  56.7603856  71.3965137
  49.8622909  58.1728662  70.5075677  49.1437114  56.6102151  69.3065248
  49.7130492  55.8655899  68.5186461  47.9781204  57.1646164  69.0453700
  47.1476358  58.0038840  69.9280705  47.7578366  58.8059995  70.3432403
  46.7506255  57.3931729  70.7389427  46.0648317  58.5153898  69.0097496
  46.3194910  59.5212294  68.6757819  45.1170092  58.5407094  69.5474230
  46.0019921  57.5557950  67.8590133  45.6701221  58.0771308  66.9611434
  45.3489007  56.7033624  68.0459089  47.4385414  57.0807335  67.6808597
  47.5067290  56.0402557  67.3632835  48.1804250  57.9658976  66.6834675
  47.9118905  57.9251823  65.5027955  49.0704562  58.8093074  67.2037840
  49.1550396  58.8586031  68.2090278  49.9451023  59.6365422  66.4001555
  49.9690639  59.2598584  65.3775928  49.4685336  61.0335311  66.3772095
  48.4113500  61.0403169  66.6425694  50.0321325  61.6010359  67.1177463
  49.6466976  61.6526255  65.0389667  50.6726558  62.0007220  64.9192189
  49.4150757  60.9300247  64.2564699  48.5231850  63.0583121  64.8999137
  49.4918047  64.4058944  65.5621492  50.3965965  64.5303643  64.9672055
  48.9067368  65.3249822  65.5293812  49.7637984  64.1855560  66.5944145
  51.3581967  59.6853906  66.9426977  51.5836271  59.8371629  68.1506713
  52.3059825  59.5826040  65.9936566  52.0209716  59.3098781  65.0638778
  53.7220226  59.8500945  66.2334779  53.8988553  60.4864306  67.1006029
  54.4891654  58.5422979  66.4229903  54.3292801  57.8981073  65.5583775
  55.5531860  58.7560258  66.5243847  54.1330536  58.0385095  67.3215897
  54.2429175  60.5895767  65.0062993  53.5822256  60.6576062  63.9875784
  55.4924609  61.0348205  65.0771396  55.9640227  61.0695635  65.9696202
  56.2050110  61.5245408  63.8964396  55.5048562  61.8809648  63.1408972
  57.1149113  62.6959188  64.3165159  57.8276163  62.3522911  65.0662303
  57.6551342  63.0674065  63.4457367  56.5062541  63.4974717  64.7350233
  57.0336671  60.3813560  63.2497073  57.6217936  59.5247387  63.9160796
  56.9872369  60.3471703  61.9167165  56.3048638  60.8952670  61.4126765
  57.8323300  59.4319242  61.1613575  58.6340688  59.0670917  61.8033945
  57.0268084  58.2212803  60.6415401  56.3099496  58.6313839  59.9301839
  57.7095482  57.5490222  60.1218908  56.2814567  57.4496643  61.7266639
  56.9241070  56.5291423  62.5417552  57.9960560  56.3764066  62.4164694
  56.2225307  55.8032611  63.5106119  56.7427622  55.0644991  64.1202772
  54.8540802  55.9840142  63.6565456  54.1642502  55.2960751  64.6232991
  54.7252436  54.7161232  65.1434354  54.1885362  56.9018785  62.8629674
  53.1170955  57.0653316  62.9787183  54.9057310  57.6229734  61.9049806
  54.3929346  58.3454983  61.2700809  58.5366705  60.2146398  60.0440953
  57.9272541  61.1149373  59.4239591  59.8293753  59.9031859  59.7808165
  60.3809824  59.3216999  60.3953919  60.4653536  60.4282417  58.5569754
  59.9433323  61.2954697  58.1526135  61.9701323  60.7228335  58.5669642
  62.3783630  60.4715032  57.5880464  62.2492554  62.1932253  58.8724066
  61.8416958  62.4452013  59.8514389  63.3252981  62.3670991  58.8716598
  61.7802315  62.8181191  58.1123896  62.7233407  59.7511707  59.4164144
  62.5763216  58.7417709  59.0322276  63.7852067  59.9963163  59.3953479
  62.3586816  59.8056590  60.4421607  60.3302009  59.5171918  57.3931542
  60.4796059  58.3243993  57.5509808  60.1458804  60.0969906  56.2085828
  59.8415519  61.0573859  56.1369981  60.2349750  59.3094710  54.9896398
  60.0989782  58.2580432  55.2428270  59.1549214  59.7126817  53.9269492
  59.2160911  58.8609623  53.2495042  58.1390984  59.7969075  54.3130962
  59.4869818  60.9825266  53.1457502  60.1975372  61.8213432  53.6192548
  58.8111783  61.1814846  52.0358297  58.9904462  62.0054111  51.4798550
  58.1158433  60.5094884  51.7442287  61.6519012  59.3719278  54.4496757
  62.5411968  59.9745335  55.0835122  61.9265292  58.6871589  53.3253088
  60.9933764  57.8705307  52.5551898  60.4175291  58.5019364  51.8785607
  60.3147515  57.3466047  53.2282936  61.8966967  56.9510964  51.8402667
  61.4352942  56.6406925  50.9027934  62.0890436  56.0738206  52.4579165
  63.1444336  57.7145441  51.6025669  63.0241914  58.3307232  50.7115203
  64.0252920  57.0824022  51.4903855  63.2933747  58.5899623  52.8115684
  63.9113542  58.2005671  53.6206241  63.8727050  59.9043148  52.3209923
  65.0852755  60.0921400  52.4111889  63.0373148  60.7970167  51.7961671
  62.0806684  60.5380493  51.6015833  63.5099905  62.0779205  51.3232261
  64.5473902  61.9993749  50.9980621  62.6765802  62.5267566  50.1612862
  61.7266030  62.2402390  50.6124515  62.6092491  63.5504742  49.7930894
  62.8597695  61.6621628  48.9760591  63.8885763  61.8760938  48.0900777
  63.9172200  60.8833410  47.2158361  64.6263094  60.8937083  46.3880778
  62.9952495  60.0006168  47.5562171  62.7658813  59.1519858  47.0589089
  62.3886387  60.4240664  48.7093190  61.6738610  59.7774212  49.2182826
  63.6379214  63.1092593  52.4238933  63.9792630  64.2768468  52.1700796
  63.4382014  62.6649089  53.6613102  63.0913765  61.7274312  53.8060426
  63.7058691  63.4949385  54.8367722  63.9906779  62.8165111  55.6409608
  64.5525222  64.1329771  54.5834255  62.5463681  64.3720837  55.3126637
  62.6929229  65.1717058  56.2307232  61.3618571  64.0957386  54.7460200
  61.3766023  63.4164000  53.9987711  60.0794147  64.6932925  55.1142726
  60.2179385  65.7518551  55.3341716  59.0363679  64.5547239  53.9348316
  59.0507120  63.5465395  53.5207572  58.0821343  64.7292518  54.4319013
  59.2161104  65.5688734  52.8094856  59.1773864  66.9260646  53.0908706
  58.8890922  67.2275800  54.0978832  59.4920766  67.8941324  52.1356058
  59.4807931  68.9470686  52.4172083  59.8016076  67.5365253  50.8696305
  60.0737026  68.5904290  49.9816253  60.0046145  69.4549904  50.3931590
  59.8373780  66.1678311  50.5368261  60.1085995  65.8647980  49.5255347
  59.5245264  65.1925814  51.5045022  59.5229742  64.1368001  51.2335343
  59.4544838  64.0455563  56.3500072  59.3613672  62.8237795  56.4524608
  58.9161306  64.8935514  57.2329942  58.8733428  65.8863748  57.0525219
  58.3549568  64.3901222  58.4935584  58.7119357  63.3833614  58.7105789
  58.6155244  65.2734211  59.7116933  57.7580926  65.9236227  59.8853245
  58.8337692  64.3852895  60.9298811  59.6913815  63.7350795  60.7571705
  59.0206787  65.0075728  61.8050547  57.9456355  63.7767976  61.1003448
  59.7764682  66.2390005  59.4910152  59.5531450  66.8892505  58.6451998
  59.9212901  66.8444184  60.3857753  60.6853685  65.6739897  59.2842208
  56.8349843  64.2516910  58.4405813  56.1122174  65.1566034  57.9424752
  56.3408287  63.1482427  58.9875639  56.9297224  62.4586118  59.4322130
  54.8939675  62.8725136  58.8862857  54.3570544  63.7834737  58.6217575
  54.6386272  61.8264813  57.8083989  55.3994595  61.0511607  57.8984621
  53.6497693  61.3762916  57.8955148  54.7416002  62.3680116  56.4163498
  53.9318893  63.3827512  55.9481055  53.2048695  63.8312741  56.4869646
  54.2601858  63.6655799  54.6982457  53.7245278  64.4357725  54.1432928
  55.2641972  62.8833226  54.3454162  55.5882266  62.0670920  55.4046265
  56.4039482  61.3502474  55.3106402  54.3809569  62.4367644  60.2213395
  54.6830874  61.3336938  60.6759572  53.5499371  63.2931064  60.8085520
  53.4307161  64.2343438  60.4622027  52.8408508  62.9094786  62.0073461
  53.4675383  62.2399656  62.5965102  52.4820505  64.1299031  62.8679020
  51.4652134  64.4076785  62.5904451  52.4947322  63.7855408  63.9019977
  53.3984704  65.3441194  62.7245137  54.4019883  64.9906213  62.4876768
  53.0144680  65.9315159  61.8904833  53.4483307  66.2142023  63.9795101
  53.5297879  65.6412058  65.1159786  53.4240748  67.4795362  63.8004833
  51.5895102  62.1267173  61.5236805  50.5757340  62.7116981  61.1063362
  51.6886520  60.8093328  61.5237971  52.5421686  60.3440482  61.7978756
  50.6559337  60.0313417  60.9421798  49.8999361  60.6823155  60.5030900
  51.1450346  59.0733157  59.8793028  51.4265656  59.6391744  58.9912462
  52.3221391  58.3114448  60.3750675  52.0412406  57.7449312  61.2629065
  52.6642201  57.6254551  59.6001495  53.1249005  59.0047689  60.6260186
  50.0646317  58.1881742  59.5151596  50.3663318  57.5758124  58.8401853
  49.8004370  59.3602909  61.9858706  50.2928711  58.9106589  63.0144816
  48.4991678  59.3269014  61.6891863  48.2273348  59.6303208  60.7649879
  47.4650200  58.8516481  62.5890294  47.8249060  58.7804767  63.6154386
  46.3515049  59.8667444  62.5382391  46.8615067  60.8197192  62.6790810
  45.9639641  59.8094909  61.5210694  45.2054849  59.7579774  63.5213728
  44.7887362  58.7530036  63.4546727  45.6627087  60.0224006  64.9447033
  46.0791830  61.0274274  65.0122992  44.8130312  59.9354606  65.6218963
  46.4246529  59.2944315  65.2232755  44.1648548  60.7841764  63.0975135
  43.8280177  60.5637626  62.0845683  43.3152999  60.7437909  63.7792221
  44.6047922  61.7810788  63.1247107  46.9265828  57.5054420  62.1228196
  46.4628961  57.3847765  61.0078638  46.9883529  56.5180318  62.9906570
  47.3473439  56.7037579  63.9162544  46.5981534  55.1522062  62.6617850
  46.8483790  54.9613464  61.6182052  47.5021389  54.2294554  63.5753746
  46.8964307  53.4415974  64.0231443  48.5368911  53.6337439  62.7499293
  49.1433407  54.4210304  62.3021588  49.1696043  52.9938829  63.3650317
  48.0758602  53.0383450  61.9618613  48.2033677  55.0179774  64.5743632
  48.7447102  54.4394523  65.1164494  45.0821856  54.9604713  62.9205252
  44.6564331  55.1237303  64.0333263  44.3134874  54.6710507  61.8832268
  44.7356844  54.5962217  60.9687600  42.8855974  54.5653580  61.9842076
  42.5646592  54.4199858  63.0156943  42.2125353  55.8566939  61.4307366
  41.1313129  55.7190548  61.4201141  42.5609409  57.0434205  62.3019838
  43.6420450  57.1819823  62.3127287  42.0842705  57.9392992  61.9041305
  42.2078860  56.8652143  63.3177083  42.6047411  56.1689959  60.0058885
  42.3119843  55.3424482  59.3584209  42.1016720  57.0798698  59.6813428
  43.6839977  56.3103525  59.9482318  42.3861629  53.2882847  61.2831948
  43.0689428  52.8125570  60.3878822  41.3040489  52.6794809  61.7990372
  40.7483041  53.1516671  62.4978127  40.8987893  51.3376070  61.3811904
  41.7776021  50.7042246  61.2603025  40.0201937  50.7340859  62.3953483
  39.6538507  51.6233469  62.9082877  39.1777660  50.1847609  61.9750417
  40.7396114  49.8720927  63.3570961  41.4563042  48.7603395  62.9221545
  41.5622571  48.5791742  61.8525505  42.0335901  47.8859658  63.8357538
  42.6322854  47.0452420  63.4852554  41.8798400  48.1131705  65.2154193
  42.4218485  47.2391651  66.1340550  42.8862968  46.5053424  65.7249195
  41.1442454  49.1969067  65.6655519  41.0116929  49.3753087  66.7326522
  40.5724703  50.0611208  64.7406648  39.9783940  50.9089795  65.0817060
  40.1483138  51.3293729  60.0699430  40.5071058  50.5956329  59.1949899
  39.1021451  52.1239164  59.8930737  38.5402016  52.4528030  60.6651828
  38.6384782  52.4170430  58.5053631  39.2871574  51.8352988  57.8504675
  37.1852187  51.9605005  58.2896882  37.0957205  50.9026185  58.5366194
  36.5225301  52.5403509  58.9321190  36.7957376  52.1764104  56.8311575
  36.8845499  53.2342039  56.5835971  37.4577378  51.5964702  56.1880967
  35.3552075  51.7238691  56.6173714  35.2657078  50.6659877  56.8643041
  34.6925200  52.3037212  57.2598013  34.9657280  51.9397774  55.1588396
  35.0545410  52.9975705  54.9112780  35.6277266  51.3598350  54.5157813
  33.5771511  51.5035591  54.9527650  32.9635178  52.0411214  55.5482317
  33.3192004  51.6465527  53.9867866  33.4947324  50.5233058  55.1816967
  38.8563002  53.8851511  58.1333832  39.4653137  54.6969412  58.8878091
  38.3541628  54.2448109  56.9508538  38.0490798  53.5375560  56.2975437
  38.2800795  55.6647371  56.5342108  37.5866683  56.1759897  57.2019688
  39.6448210  56.3182331  56.6591010  40.3480284  55.8229797  55.9895314
  39.5694958  57.3720912  56.3911282  39.9981052  56.2294515  57.6864312
  37.7560455  55.8325490  55.0900195  37.9758986  54.9728600  54.1928214
  37.0359342  56.9199170  54.8914379  37.0459967  57.6775018  55.5593176
  36.1570784  57.0244124  53.7514580  36.0820087  56.0588003  53.2514010
  34.7295138  57.4631679  54.2058707  34.7549371  58.5426960  54.3544364
  34.0438034  57.2248815  53.3927772  33.9797571  56.7564511  55.7287566
  32.8371111  57.4322336  55.6476610  36.7152334  57.9952870  52.7012405
  37.6243173  58.7796375  52.9757177  36.1114256  57.9473252  51.5138329
  35.4748104  57.1859588  51.3263720  36.3406121  58.9456556  50.4510494
  35.8090170  58.6537368  49.5453512  35.8311286  60.3150734  50.8961050
  36.4160263  60.5538786  51.7843426  35.9797559  61.0904293  50.1445511
  34.3873841  60.2842442  51.2701280  34.0737162  60.1295977  52.4250492
  33.4987744  60.3256719  50.2796884  32.5111569  60.3068235  50.4902976
  33.8163127  60.3757611  49.3222119  37.7814143  59.1050330  50.0688583
  38.2417450  60.2205555  49.8636535  38.5114782  57.9993464  49.9302584
  38.1299537  57.1056306  50.2055951  39.8822563  58.0389477  49.4034841
  40.1228197  59.0676844  49.1352881  40.9274032  57.5375179  50.4192648
  40.5123187  56.5650034  50.6838770  41.8915648  57.3995010  49.9299349
  41.1146334  58.3756965  51.6895130  40.1267817  58.6282199  52.0748461
  41.9103744  57.6316437  52.7708051  42.8985779  57.3791769  52.3863401
  42.0146376  58.2688066  53.6490154  41.3837912  56.7178204  53.0460096
  41.7338891  59.7223634  51.3368490  41.0779322  60.2554215  50.6486127
  41.8637355  60.3119717  52.2443749  42.7036511  59.5644866  50.8649005
  40.0023038  57.1815957  48.1431726  39.3056446  56.1751628  47.9466458
  40.9825684  57.5387660  47.3326044  41.4490547  58.4239938  47.4699420
  41.4749771  56.6489268  46.2716309  40.7454121  55.8537142  46.1184285
  41.6937202  57.3684613  44.9507704  42.3666209  58.2134272  45.0968400
  42.1529081  56.6526093  44.2690061  40.4280307  57.8672842  44.3370247
  39.3691149  57.7909649  44.9289730  40.5397303  58.4176207  43.1502080
  39.7183947  58.7743280  42.6830170  41.4464718  58.4816995  42.7099642
  42.8426461  56.1211796  46.6725678  43.6502591  56.8305378  47.3006731
  43.1368853  54.9283989  46.1821777  42.4021403  54.3722743  45.7686869
  44.4612165  54.3815316  46.2243580  45.0989243  54.9925038  46.8632171
  44.4204596  53.0057892  46.7729349  44.0383785  52.4136047  45.9414117
  45.4124960  52.6474898  47.0478626  43.4992045  52.8717993  47.9453793
  43.0126134  53.8308866  48.1228093  42.4159396  51.7814802  47.6746756
  42.9017838  50.8219497  47.4976010  41.7571782  51.7005152  48.5393020
  41.8311853  52.0593701  46.7977833  44.3520772  52.6076299  49.1797102
  45.0392303  53.4399143  49.3321003  43.7071563  52.5051316  50.0524486
  44.9209477  51.6885609  49.0390067  45.0483841  54.3611559  44.7959883
  44.3305352  54.2550063  43.7929114  46.3293755  54.6747343  44.7311922
  46.8009405  54.9862259  45.5682697  47.0737365  54.6580426  43.4902675
  46.4905679  54.1808978  42.7026468  47.4490662  56.0753057  43.0583616
  48.2050137  56.0158802  42.2753467  46.2371964  56.8164537  42.5342430
  45.4809418  56.8766910  43.3168994  46.5283324  57.8226775  42.2328224
  45.8286722  56.2842889  41.6751692  48.0692312  56.8692243  44.2045390
  47.5534782  57.8270551  44.2728017  47.9177365  56.3090157  45.1272064
  49.5557575  57.1083372  43.9956239  49.7080219  57.6689360  43.0733201
  49.9544415  57.6768839  44.8358054  50.0722800  56.1508959  43.9277225
  48.2880539  53.7851771  43.6777996  48.9529550  53.8575005  44.7258691
  48.5827072  52.9683237  42.6711939  48.0200624  52.9532110  41.8325630
  49.7403103  52.0611553  42.7518811  50.0088452  51.7343341  41.7473035
  50.5809410  52.5933162  43.1971272  49.4209097  50.8367499  43.6033438
  48.2566272  50.6136415  43.9860081  50.4568785  50.0613960  43.9206151
  51.3756287  50.3088312  43.5818332  50.2999468  48.8092095  44.6191331
  49.2619581  48.6789702  44.9252644  50.6923642  47.6364797  43.6927280
  51.3621735  48.0403437  42.9335517  51.2315821  46.9134539  44.3047555
  49.4922624  46.9367268  43.0033583  49.4290929  45.9290839  43.4141700
  48.5963530  47.4955970  43.2737512  49.6055215  46.8588931  41.4633718
  48.6960960  46.3956977  41.0806261  49.6844952  47.8756287  41.0785197
  50.7658449  46.0832762  40.9897886  51.5083719  46.6057605  40.5473373
  50.9103135  44.7596261  41.1271722  52.0220976  44.1694797  40.7239498
  52.7617933  44.7202320  40.3120977  52.1268410  43.1704905  40.8295381
  49.9630165  44.0260162  41.6882782  49.1167137  44.4667967  42.0193133
  50.0905266  43.0285859  41.7830025  51.0662885  48.8093679  45.9493817
  52.0182094  49.5799402  46.1617610  50.6052932  47.9807981  46.8657993
  50.1756645  46.6362449  46.4770038  51.0071114  46.1028502  46.0162584
  49.3505762  46.7039942  45.7679634  49.7611187  46.0371293  47.7740830
  50.0304071  44.9809320  47.7685910  48.6798502  46.1353751  47.8705587
  50.4676523  46.7781100  48.8750602  51.2033523  46.0921874  49.2950063
  49.8105228  47.1352907  49.6679678  51.1761745  47.9583631  48.2145084
  50.9800925  48.9181947  48.6923927  52.6841718  47.7100761  48.1711752
  53.1457341  46.8171343  47.4777243  53.4320563  48.5283809  48.9205616
  52.9700039  49.2442868  49.4628583  54.8717833  48.4562766  48.9689064
  55.2265091  47.5123005  48.5551700  55.4393610  49.5973614  48.1344682
  55.5360017  49.2615299  47.1020066  54.7495385  50.4401424  48.1787995
  56.6955789  49.9957985  48.6158674  57.0322195  50.7142306  48.0753785
  55.3678988  48.5511853  50.4479171  54.8624827  49.3588819  51.2357507
  56.3812430  47.7507952  50.7368104  56.7314433  47.1509187  50.0035933
  57.0138318  47.6867141  52.0359231  56.3200839  48.0610006  52.7887329
  57.3953710  46.2454829  52.3946101  56.4957754  45.6932182  52.6663301
  58.0517887  45.5839472  51.2265641  58.9517770  46.1354197  50.9545367
  58.3191666  44.5608238  51.4908114  57.3639293  45.5723547  50.3810964
  58.3128646  46.2406902  53.4945467  58.5463930  45.3353937  53.7124986
  58.2740193  48.5210644  52.0599461  59.0519283  48.4312170  53.0040404
  58.5007324  49.3092076  51.0214157  57.8521268  49.3950409  50.2519726
  59.7043929  50.1052993  50.9938056  60.5793779  49.4657413  51.1098489
  59.8105830  50.8403393  49.6587887  60.0243493  50.0915182  48.8961156
  58.8377911  51.2910207  49.4621616  60.8851328  51.9187261  49.6260856
  60.7877380  52.5042851  50.5402714  61.8519962  51.4155147  49.6188221
  60.7856819  52.8329792  48.4309560  59.8236181  52.7016692  47.6597907
  61.6754844  53.6867848  48.2640827  59.6748812  51.1405596  52.0794576
  58.7647705  51.9313338  52.1541952  60.6975022  51.1466122  52.9118636
  61.4187137  50.4422365  52.8501523  60.8246009  52.1661696  53.9180135
  61.6675120  51.9671401  54.5798196  61.0708429  53.4846026  53.2002842
  61.7559234  53.3473075  52.3636756  60.1184204  53.8646083  52.8307072
  61.6537114  54.5558423  54.0573908  61.6072971  55.8872720  53.7083924
  61.1785656  56.2448760  52.8667224  62.2039721  56.6040041  54.6374973
  62.2677632  57.6886110  54.5499901  62.6439608  55.7835575  55.5726685
  62.3143994  54.4978220  55.2324121  62.5971097  53.6718346  55.8850383
  59.5625039  52.2593879  54.7158364  59.1614012  53.3434977  55.0966510
  58.9149332  51.1422764  54.9891931  59.1819247  50.2303544  54.6468289
  57.6780199  51.2590352  55.7542042  57.1830230  52.1831055  55.4555884
  56.7333182  50.1280323  55.5548103  56.3981108  50.0860820  54.5184824
  57.2048666  49.1823784  55.8221693  55.6196963  50.3569612  56.4026410
  54.9866554  49.6426976  56.2992648  57.9054655  51.4321906  57.2612492
  58.7249941  50.7340889  57.8708161  57.1462467  52.3588249  57.8282232
  56.4122965  52.7739115  57.2722378  57.2661335  52.7584865  59.2181569
  58.2978322  53.0031425  59.4708234  56.4130152  53.9957768  59.4142377
  55.4234385  53.7497078  59.0291570  56.3290650  54.3147024  60.4531500
  56.8735043  55.1400522  58.6673658  58.1281477  55.4261429  58.3826920
  58.8817136  54.7015073  58.6911420  58.1994673  56.6167313  57.7384810
  59.0537646  57.0721158  57.4505563  56.9408050  57.1175060  57.5753003
  56.5049015  58.3069575  56.9685902  57.2547078  58.9451520  56.5010467
  55.1745618  58.5928409  56.9997058  54.8032991  59.5150402  56.5527019
  54.2843835  57.7351510  57.5879528  53.2180023  57.9599185  57.6082106
  54.7190679  56.5351324  58.1855059  53.9700704  55.8854341  58.6382703
  56.0803301  56.2316216  58.1731270  56.7306026  51.7334319  60.2008785
  56.9180045  51.8525879  61.4087454  55.9900908  50.7776759  59.6742157
  55.9010314  50.7278800  58.6693833  55.3285071  49.7660864  60.4735132
  55.5651958  49.8989509  61.5291764  53.8235989  49.8942627  60.2929137
  53.6107118  49.8485008  59.2248855  53.2745594  49.1049986  60.8064483
  53.2747314  51.1746276  60.7781623  53.3010212  51.4860911  62.1310866
  53.6988811  50.7549148  62.8347830  52.8427317  52.6750110  62.5794104
  52.9019076  52.9423295  63.6344648  52.2969963  53.5497649  61.6824669
  51.9352955  54.5207425  62.0208084  52.2033187  53.2038687  60.3457062
  51.7328397  53.8886336  59.6401237  52.6934002  52.0204118  59.9143654
  52.6170448  51.7502354  58.8611444  55.7468386  48.3691567  59.9882531
  55.1059289  47.8053355  59.0758681  56.8151643  47.8207318  60.5952023
  57.0495864  47.9997122  62.0432694  56.0945738  47.9582736  62.5670384
  57.5141109  48.9712158  62.2120791  57.9579260  46.8590649  62.4080118
  57.4065905  46.1693587  63.0471000  58.8111777  47.2584065  62.9562719
  58.4047811  46.1883736  61.1272907  58.4063244  45.1158190  61.3215156
  59.3769680  46.4875558  60.7355737  57.3097806  46.5318104  60.1209353
  57.6893031  46.6354002  59.1044068  56.1576520  45.5145315  60.1357118
  55.4381700  45.3753271  61.1485083  55.9463109  44.8743963  58.9914496
  56.5602936  45.0365224  58.2060582  54.8512808  43.9383912  58.8262057
  55.2547229  42.9758555  58.5117876  54.3393289  43.8226138  59.7815068
  53.8599960  44.4171835  57.7922472  53.1346675  43.5997337  57.2146935
  53.8360222  45.7343314  57.5691156  54.5114041  46.3253791  58.0323880
  52.8465039  46.3682113  56.6797486  52.1385274  45.6222245  56.3186778
  52.0795840  47.4409117  57.4314884  52.8959617  47.9640946  57.9293902
  51.5243515  48.1431733  56.8096800  51.1677375  46.8554951  58.4548443
  51.6603672  46.4880067  59.6926667  52.6952367  46.7199477  59.9443567
  50.8622043  45.8379008  60.6009169  51.2624088  45.5360172  61.5688035
  49.5772486  45.4953192  60.2510901  48.8135176  44.9020486  61.1954263
  49.2729713  44.7845822  62.0301141  49.0587191  45.8167626  59.0202720
  48.0378003  45.5472359  58.7497527  49.8506613  46.4891640  58.1247973
  49.4615161  46.7476557  57.1399887  53.4472074  47.0287012  55.4379823
  54.5763882  47.4737418  55.4510401  52.6824720  47.0457463  54.3681093
  51.8319195  46.5019077  54.3980994  52.9971439  47.7716270  53.1407281
  54.0144520  48.1619015  53.1702104  52.8738274  46.8371573  51.9652272
  51.8578847  46.4451920  51.9170233  53.0981925  47.3776511  51.0456474
  53.5760675  46.0116531  52.0814208  52.0574227  48.9575380  52.9732073
  50.8900260  48.9114707  53.3371958  52.5306280  49.9668267  52.2937066
  53.4604131  49.9223301  51.9017640  51.7754866  51.2061713  52.1440226
  50.8499873  51.1548893  52.7175384  52.6138864  52.3911059  52.6660886
  52.0489953  53.3060893  52.4877558  52.7967543  52.2801041  53.7348907
  53.9913909  52.5862735  52.0007218  55.1961466  52.2385535  52.5095820
  55.2083950  51.7976504  53.5063540  56.1750155  52.5331504  51.6145886
  57.1657309  52.4166253  51.7727160  55.6066727  53.0893313  50.4966063
  56.1885651  53.5607984  49.3352549  57.2624716  53.4271274  49.2050416
  55.3818851  54.1646115  48.4234801  55.8183342  54.6130705  47.5310135
  54.0284309  54.2232615  48.5999909  53.3788382  54.6303157  47.8251130
  53.4488650  53.7741633  49.7513814  52.3633545  53.8314185  49.8319387
  54.2534170  53.1980515  50.7325976  51.3402242  51.4487834  50.7040198
  52.0485614  51.1191002  49.7399698  50.1828732  52.0592379  50.5776950
  49.5979773  52.1980192  51.3893205  49.6814515  52.5029448  49.2778772
  50.4711309  52.4934158  48.5266018  48.6142790  51.5366257  48.8630276
  47.6444336  51.9555149  49.1314154  48.6562148  51.2692924  47.3426344
  49.6256612  50.8499321  47.0735429  47.8690966  50.5642466  47.0753248
  48.5035300  52.2047403  46.8043733  48.8606304  50.3026763  49.5796328
  48.1942235  49.6547067  49.3395546  49.1925923  53.8843496  49.4205606
  48.5488022  54.2030588  50.4249373  49.6097272  54.7596524  48.5012643
  50.1550769  54.4533448  47.7082519  49.2967673  56.2024998  48.6232293
  49.6461466  56.5036761  49.6108153  49.9761861  57.0976549  47.5656181
  50.1113523  56.5141728  46.6549162  49.1369900  58.3356956  47.2567389
  49.0017750  58.9199636  48.1669305  49.6460264  58.9428146  46.5081476
  48.1633663  58.0291741  46.8743737  51.2925071  57.6011071  48.0767237
  51.9441661  56.7558891  48.2981938  51.7598676  58.2310025  47.3198185
  51.1319307  58.1830032  48.9843101  47.8126139  56.3739842  48.4911235
  47.1878221  55.7961186  47.5894143  47.2716686  57.1523349  49.4126713
  47.9338623  57.6114171  50.0216397  45.8561915  57.4561051  49.5772136
  45.1524160  56.8534149  49.0031372  45.5539492  57.2805937  51.0509688
  46.2447647  57.8852201  51.6385918  44.5311724  57.5987054  51.2530401
  45.6680940  56.2313704  51.3233668  45.6486075  58.8850393  49.2169832
  46.3355074  59.6516280  49.7877994  44.6822488  59.2424244  48.3605435
  44.2599603  58.5811683  47.7245309  44.3185951  60.6561825  48.2351768
  44.5859310  61.1769093  49.1546736  45.0340973  61.3210105  47.0766478
  44.8988499  62.3975305  47.1811089  46.0933457  61.0784611  47.1618684
  44.5212104  60.8763637  45.7189836  43.9080197  60.0278932  46.0226211
  43.9196882  61.5647313  45.1253313  45.6494863  60.3726872  44.8709803
  46.0668328  59.2249264  45.0178301  46.3100428  61.2913932  44.1614246
  47.0803625  61.0114183  43.5712355  46.0362232  62.2619042  44.2182811
  42.8366172  60.9796041  48.1465146  42.0509826  60.1670646  47.7206088
  42.4640142  62.1862863  48.5398901  43.1986824  62.8213492  48.8174815
  41.0668571  62.6571191  48.6140418  40.5350532  62.0941991  49.3811173
  40.9992223  64.1703783  48.9710042  41.6867195  64.3658717  49.7939435
  41.3037472  64.7486526  48.0986719  39.3683694  64.8540248  49.4937857
  39.7932060  66.1006213  49.6792830  40.3723302  62.4369163  47.2840858
  40.7288535  63.0775272  46.2593952  39.4114271  61.5523281  47.3092053
  39.3667863  60.9280151  48.1018842  38.4646469  61.3554544  46.2217983
  38.9599963  60.7114905  45.4951357  37.2016929  60.6259021  46.7511204
  37.4953603  59.6934422  47.2331756  36.6898110  61.2620813  47.4731681
  36.2644446  60.3227032  45.5869639  35.9699599  61.2547802  45.1046651
  36.7755069  59.6861392  44.8646733  35.0231458  59.6056625  46.1072089
  35.3168121  58.6732034  46.5892660  34.5112640  60.2418432  46.8292550
  34.0858989  59.3024620  44.9430510  33.7914144  60.2345383  44.4607511
  34.5969612  58.6658965  44.2207638  32.8893678  58.6112838  45.4445339
  32.4154234  59.2011470  46.1135166  32.2686339  58.4104742  44.6735184
  33.1619860  57.7473663  45.8911041  38.0684142  62.6621452  45.4882728
  37.9967391  62.6916761  44.2660696  37.8248452  63.7299373  46.2386829
  38.0052125  63.6846768  47.2314157  37.3266038  64.9917330  45.6788802
  36.6470136  64.8545228  44.8377918  36.6368004  65.9100351  46.7704188
  37.3925407  66.5372258  47.2432705  35.5852536  66.7911190  46.1149058
  34.8288677  66.1645934  45.6422042  35.1148321  67.4199436  46.8708053
  36.0571384  67.4213625  45.3611041  36.0668935  65.1368957  48.0034304
  36.8057812  64.3746474  48.2506616  36.0084566  65.8622696  48.8149212
  34.7006126  64.4780613  47.8097714  34.7583838  63.7521734  46.9986925
  34.4071021  63.9719203  48.7294301  33.9610594  65.2397960  47.5629496
  38.4988294  65.8230835  45.0838049  38.5998714  66.0767397  43.8680533
  39.3920381  66.2156698  45.9821969  39.3244076  65.8640514  46.9265961
  40.4056824  67.2246991  45.6903644  40.1083641  67.8210807  44.8277927
  40.5613193  68.1431676  46.8827577  41.2937099  68.9304206  46.7040515
  39.6144070  68.5903964  47.1851541  41.1494971  67.2333759  48.2928083
  41.1780305  68.2702628  49.1252443  41.7671233  66.6634735  45.2556929
  42.6318082  67.4302575  44.7750898  41.9573362  65.3471134  45.3897126
  41.2612140  64.8045647  45.8807871  43.1711420  64.6615117  44.9178327
  42.9740863  63.5894739  44.9160453  43.5240381  65.0935690  43.5015528
  43.7329610  66.1632843  43.4888836  44.4049371  64.5478233  43.1635015
  42.6872754  64.8794258  42.8366692  44.3310335  64.9040864  45.8470277
  45.4324232  64.3546851  45.6529483  44.1127951  65.7663929  46.8399313
  43.2233946  66.2381219  46.9207884  45.1817930  66.1440772  47.7575609
  46.0761151  66.3705735  47.1770553  44.8197909  67.3943894  48.6268618
  45.7546013  67.8281587  48.9819294  44.3118491  68.1081983  47.9783465
  43.9857240  67.0878987  49.7403934  43.7999004  67.8914181  50.2317446
  45.5779551  64.9528478  48.6199494  44.7312247  64.3118101  49.2488916
  46.8669184  64.6343293  48.6067767  47.4901083  65.1661330  48.0160835
  47.3912720  63.4241467  49.2654947  46.7797984  62.5722084  48.9681727
  48.9122971  63.1205544  48.8796391  48.8738069  62.4846381  47.9952025
  49.4919605  64.0164833  48.6573739  49.6873597  62.3525371  49.9328045
  50.4912074  62.9628161  50.8773432  50.6960299  63.9516476  50.8963151
  50.9384940  62.0599542  51.7334483  51.5598649  62.3519748  52.5800421
  50.4989926  60.8783807  51.3507480  49.7068844  61.0342469  50.2350557
  49.2371601  60.1651800  49.7744224  47.1490836  63.4309720  50.8056490
  47.7761918  64.1707754  51.5677882  46.2648719  62.5553184  51.2253412
  45.9033459  61.8709659  50.5764500  45.7837161  62.5207382  52.6161965
  45.8383341  63.5122125  53.0657459  44.3271191  61.9989127  52.6928587
  44.3103646  60.9971240  52.2636279  43.7742634  61.9487672  54.1522839
  43.7902747  62.9503401  54.5820466  42.7503435  61.5751923  54.1408527
  44.3956883  61.2857155  54.7541914  43.4226243  62.8681892  51.8401725
  43.9394772  63.0599120  50.8998501  42.5108465  62.3038509  51.6445119
  43.0676704  64.1907388  52.5019883  43.9789735  64.7558780  52.6975495
  42.4189433  64.7657169  51.8411913  42.5503445  63.9998166  53.4422130
  46.6055538  61.6043805  53.5338916  46.5585956  61.7418663  54.7277829
  47.2876799  60.6314413  52.9576673  47.3376935  60.5674612  51.9509377
  47.9896753  59.6195583  53.7545288  48.9211218  60.0659750  54.1026937
  47.3586425  59.3823301  54.6110448  48.3021279  58.3544863  53.0135867
  48.6818862  58.3766913  51.8440263  48.1460872  57.2353393  53.7108022
  47.8186893  57.2891608  54.6647483  48.4422324  55.8967348  53.1431606
  48.3222298  55.8995567  52.0597905  49.8808614  55.5466400  53.4704069
  49.9827346  55.5898505  54.5547749  50.1589973  54.5529719  53.1191744
  50.9030955  56.5102346  52.8999494  51.4959307  56.4492533  51.6764700
  51.2060940  55.6241017  51.0259168  52.3698629  57.4926737  51.5281255
  52.9531278  57.6644858  50.7216627  52.3562950  58.2416474  52.6727252
  53.0635501  59.3812712  52.9990592  53.7428809  59.7990319  52.2560354
  52.8647656  59.9203893  54.2487561  53.3609039  60.8522681  54.5199548
  52.0578701  59.3133829  55.1601961  51.9603645  59.7072061  56.1718756
  51.3342802  58.1750915  54.8313324  50.6520252  57.7676648  55.5774103
  51.4860951  57.6264885  53.5680383  47.5341018  54.8289100  53.7081907
  47.2319621  54.8562892  54.8967978  47.1805790  53.8578200  52.8681312
  47.3216874  53.9916019  51.8770257  46.5440409  52.6409862  53.3102474
  46.0527980  52.7766444  54.2737704  45.4946609  52.2825313  52.2780475
  45.3797358  53.1434799  51.6195196  45.8772188  51.4369917  51.7063725
  44.1549784  51.9222681  52.8731368  44.3187054  51.5247749  53.8747822
  43.5514413  52.8277271  52.9362951  43.4310814  50.8912301  52.0335161
  42.4010191  51.2214608  51.8992836  43.9232029  50.8340637  51.0626156
  43.4418120  49.5151341  52.6902037  44.4167972  49.3549091  53.1504562
  42.6690984  49.4882868  53.4585084  43.1837255  48.4437818  51.6898434
  43.8998712  48.4682104  50.9780581  43.1960303  47.5443200  52.1491004
  42.2801446  48.5918230  51.2635519  47.5813200  51.5099532  53.5068347
  48.4480024  51.2828205  52.6697145  47.5497688  50.9031146  54.6839704
  46.8065181  51.1244369  55.3310362  48.5285199  49.9289534  55.0786225
  49.3545344  49.9420696  54.3675478  49.0686521  50.2105271  56.4432754
  48.2708183  50.2854958  57.1821530  49.7561460  49.4151592  56.7310983
  49.8105648  51.4407949  56.5125267  49.2032813  52.6245632  56.2307051
  48.1837855  52.6212385  55.8450663  49.8558383  53.8084935  56.4256084
  49.3409890  54.7574174  56.2753611  51.1546801  53.7960790  56.8091091
  51.6928084  54.7312668  56.9638402  51.7899213  52.6029387  57.0019220
  52.8507849  52.5893709  57.2518914  51.1036754  51.4334186  56.8831135
  51.6018271  50.4859279  57.0885550  47.9101023  48.5656036  55.1059897
  46.8449749  48.3733879  55.6355006  48.6571963  47.6379980  54.6211440
  49.6240038  47.8526637  54.4228987  48.1672882  46.3465755  54.2736342
  47.1774177  46.2122536  54.7097687  48.0248193  46.4251912  52.7536930
  47.9647381  45.4188498  52.3392447  46.7433156  47.2005067  52.4042876
  46.8028648  48.2071678  52.8180351  46.6374704  47.2591463  51.3210253
  45.8801023  46.6854633  52.8258249  49.1125389  47.2037316  52.2345245
  49.0368131  47.2622733  51.2793078  49.1725231  45.3118219  54.8290382
  50.3613579  45.5822850  54.8938655  48.6710362  44.1834452  55.3560751
  47.6739967  44.0492024  55.4454645  49.5527885  43.1672830  55.8971825
  50.3283554  43.6861918  56.4605020  48.8132259  42.2488992  56.8312577
  48.0391077  41.7153619  56.2797335  49.5104741  41.5313599  57.2637882
  48.3534490  42.8335714  57.6280404  50.2427711  42.3739897  54.8043117
  49.7570587  42.3015145  53.6782847  51.4245856  41.8556943  55.1161041
  51.8251135  42.0825197  56.0151185  52.1835720  40.9499855  54.2149759
  51.7804222  40.9940682  53.2032318  53.6881594  41.3440467  54.1683007
  54.1485603  40.8553293  53.3096468  53.8635086  42.8671746  54.0457901
  53.4037328  43.3565862  54.9043832  54.9257148  43.1098856  54.0156491
  53.3855187  43.2159953  53.1303937  54.3527132  40.8890387  55.3551486
  55.2795606  41.1363254  55.3176836  52.1085574  39.4939932  54.6906873
  52.2784689  38.5461191  53.9197042  51.7768955  39.3443522  55.9675968
  51.7071073  40.1615929  56.5569580  51.4915464  38.0308376  56.5613444
  51.7406519  37.2428108  55.8506692  52.3239129  37.8232491  57.8365299
  52.0505329  38.6301345  58.5164553  52.0063920  36.8698078  58.2587033
  53.8370936  37.8138947  57.6412747  54.0800288  37.1609851  56.8029475
  54.1699191  38.8279160  57.4197116  54.5416841  37.3107501  58.8984356
  53.8533072  36.6620602  59.4401345  55.4170110  36.7370944  58.5937694
  54.9745342  38.4537722  59.7994829  54.2918530  39.2900841  59.6490522
  54.9154631  38.1189617  60.8351043  56.3688185  38.8898056  59.4969317
  56.4236713  39.2004925  58.5374711  56.6250427  39.6489802  60.1118325
  57.0016189  38.1151221  59.6366748  50.0021087  37.9785762  56.9230472
  49.4267081  38.9794902  57.3770992  49.3961186  36.8106295  56.7449974
  49.9120468  36.0196743  56.3867976  47.9529041  36.6611855  56.9562776
  47.4521776  37.6135387  56.7819344  47.3781106  35.6216379  55.9890102
  47.1703208  34.7258391  56.5742172  46.4428818  36.0294695  55.6054474
  48.2998534  35.2627375  54.8139260  49.1180556  34.6683251  55.2205214
  47.7155231  34.6525922  54.1251714  48.8703338  36.4724802  54.0660826
  48.7750653  37.3497190  54.7059850  49.9244752  36.2855243  53.8613075
  48.1384569  36.7170939  52.7619836  48.5447130  37.6103376  52.2874606
  48.2839893  35.8593400  52.1053424  46.6814184  36.9077960  53.0143794
  46.5463209  37.7028251  53.6224725  46.2062967  37.0696975  52.1379393
  46.3046883  36.0800411  53.4536918  47.6161872  36.3189282  58.4173703
  46.4571997  36.0329495  58.7366841  48.6151977  36.4307545  59.2958684
  49.5320798  36.7088631  58.9763654  48.4470204  36.0923073  60.7047892
  47.4199507  35.7782396  60.8907693  49.3885797  34.9446455  61.0928607
  49.0557845  34.4611887  62.0113464  49.3257367  34.2363782  60.2667202
  50.8064939  35.3989187  61.2537217  51.3020871  36.0893052  60.3403638
  51.4042999  35.1320932  62.3140901  48.6803225  37.3127411  61.5835870
  48.5034635  37.2485653  62.8091862  48.9181755  38.4795417  60.9567767
  49.0990838  38.4674059  59.9631851  48.9466605  39.7662488  61.6509484
  49.4040142  39.6378898  62.6319941  49.7483306  40.7975994  60.8722250
  49.6565981  40.5598429  59.8124344  49.3077893  41.7759850  61.0640196
  51.1948493  40.8185471  61.2550069  51.3444616  41.5802536  62.0201998
  51.4657306  39.8422818  61.6570410  52.2335591  41.1837953  59.8538924
  53.7888277  41.4126072  60.7203384  54.0487172  40.4959073  61.2496944
  54.5734250  41.6519599  60.0025515  53.6901204  42.2291001  61.4356686
  47.5465405  40.3280878  61.8692462  46.6856676  40.2406438  60.9868102
  47.3497107  40.9587678  63.0276545  48.0105343  40.8696096  63.7862469
  46.1324119  41.7337340  63.2568705  45.3566344  41.4011353  62.5671991
  45.6300073  41.5608832  64.6658567  45.7064256  40.5074150  64.9350485
  46.2569735  42.1522707  65.3331454  44.2857840  41.9815268  64.7868385
  43.9928734  41.8602584  65.6929826  46.3303497  43.2349810  62.9532604
  47.4351087  43.7573433  63.0485188  45.2255152  43.9698530  62.7411259
  45.0624064  44.8810333  63.8785463  45.7165166  44.5763545  64.6954985
  44.0269866  44.8687489  64.2189196  45.4587852  46.2163437  63.2829770
  46.4574033  46.4673045  63.6405796  44.7499950  46.9690444  63.6281718
  45.4264692  46.0962011  61.7894645  46.4167341  46.2130270  61.3492078
  44.7482416  46.8320610  61.3574726  44.9045490  44.6896390  61.5243750
  43.8182208  44.6823174  61.4352928  45.5211046  44.1198003  60.2540711
  46.7324646  44.1583458  60.0631625  44.6857430  43.5658813  59.4047450
  43.7235949  43.4268245  59.6786676  45.0925371  43.1537780  58.0516543
  46.0452208  42.6254981  58.0892486  44.0429520  42.2224026  57.4629811
  43.0963572  42.4363272  57.9592611  43.9559869  42.4524334  56.4010852
  44.3769042  40.7832217  57.6323423  44.5432780  40.5523891  58.6845480
  43.5482727  40.1834001  57.2559304  45.6053560  40.4307444  56.8677874
  45.6904905  40.7146176  55.6742142  46.5850781  39.8237691  57.5511516
  47.4393778  39.5635449  57.0793923  46.4648290  39.6292231  58.5349165
  45.2145227  44.3734950  57.1375312  45.9516990  44.3745436  56.1551306
  44.4157016  45.3903222  57.4633996  43.7275723  45.2415082  58.1875763
  44.4859675  46.7090829  56.8338085  45.5062009  46.8512532  56.4774230
  43.5209700  46.8989481  55.6506822  43.7419496  46.1615744  54.8789650
  42.4946088  46.7686298  55.9937561  43.6904507  48.3015389  55.0765397
  43.4691771  49.0395108  55.8476014  44.7165166  48.4324559  54.7328077
  42.7339349  48.4897365  53.9038146  42.9549124  47.7523622  53.1320977
  41.7075742  48.3594198  54.2468901  42.9034179  49.8923273  53.3296713
  42.6821454  50.6302998  54.1007326  43.9294822  50.0232413  52.9859377
  41.9813979  50.0737375  52.1992429  41.0305422  49.9528957  52.5176302
  42.0936459  51.0026657  51.8189893  42.1865439  49.3902860  51.4844644
  44.1485610  47.7872932  57.8248345  43.5587008  47.5445110  58.8564680
  44.5521356  48.9902979  57.4791641  45.0607314  49.1139131  56.6153649
  44.3002911  50.1780337  58.3193016  43.2279626  50.2823044  58.4846450
  45.0049474  50.0580926  59.6964333  44.5858646  50.6569015  60.5050722
  44.8870857  48.9999291  59.9298827  46.4793655  50.3320647  59.6793286
  46.9450735  51.6199794  59.6681574  46.2413446  52.4521223  59.6480647
  48.3015839  51.8646875  59.6822839  48.6574343  52.8930365  59.6192809
  49.2208994  50.8086143  59.7764034  50.2929005  51.0056666  59.7855569
  48.7580073  49.5140906  59.8576203  49.4515346  48.6755236  59.9202738
  47.3878528  49.2839827  59.8590396  47.0050817  48.2734371  60.0018110
  44.8205560  51.3690388  57.5786902  45.7301672  51.2110593  56.7786908
  44.3307213  52.5628246  57.9043795  43.5308761  52.6534723  58.5144040
  44.8617334  53.7506431  57.2970622  45.4932488  53.4769898  56.4518395
  43.7758992  54.6281650  56.8108675  43.0003477  54.3791280  57.5351600
  43.9271011  55.7075489  56.7978944  43.2576819  54.2669668  55.5086460
  43.4469932  54.9441322  54.3298194  44.1615904  55.7668577  54.3537664
  42.6722267  54.4219353  53.3494362  42.6466632  54.7122203  52.3823888
  41.9081003  53.4402722  53.9000464  40.9079132  52.6673641  53.3193712
  40.7073604  52.7910183  52.2551405  40.2348884  51.7948507  54.1274398
  39.4373153  51.1755195  53.7170667  40.5559979  51.6785364  55.4990322
  40.0060473  50.9960616  56.1470153  41.5954799  52.4401521  56.0702524
  41.7323983  52.3961083  57.1507219  42.2857252  53.3150000  55.2621115
  45.7971391  54.5030610  58.2042102  45.6263211  54.5632756  59.4215304
  46.8316185  55.0466826  57.5991310  47.0026614  54.8250924  56.6286973
  47.7569965  55.9696803  58.2782221  47.4993558  56.0632114  59.3331971
  48.7848214  55.6188621  58.1854757  47.6390740  57.3238950  57.6218518
  47.9509062  57.4849418  56.4299757  47.1321794  58.2989702  58.3718012
  46.9607943  58.1620140  59.3576864  46.7638941  59.5599369  57.7839679
  46.9440575  59.5164285  56.7098416  45.2791502  59.8997127  58.0210202
  45.2348356  60.0269649  59.1026589  45.0334765  60.8435575  57.5342949
  44.2716954  58.8256754  57.5911508  44.6338396  57.8509835  57.9181494
  42.9056062  59.0922721  58.2082015  42.5425780  60.0666565  57.8812697
  42.2058413  58.3191844  57.8907662  42.9889913  59.0821110  59.2949601
  44.1669867  58.6925028  56.0692388  45.1401151  58.4212400  55.6599257
  43.4404510  57.9188507  55.8208249  43.8457563  59.6424900  55.6421153
  47.6179312  60.6719558  58.3208252  47.7151162  60.8619958  59.5271576
  48.2132328  61.4237865  57.4276872  48.1586687  61.2029794  56.4436311
  49.0587349  62.5375174  57.8403018  49.6655268  62.3200573  58.7192864
  50.0016577  63.0057281  56.6861865  50.4712096  62.1310524  56.2361157
  49.1957600  63.7787167  55.5999381  48.7262676  64.6538442  56.0491912
  49.8696679  64.0967317  54.8044423  48.4266703  63.1271872  55.1850755
  51.1238931  63.7877038  57.2101166  51.6881462  64.0636994  56.4841378
  48.2101521  63.6943467  58.3722702  47.2853084  64.1392032  57.7523792
  48.6179557  64.1951210  59.5284494  49.2978415  63.6488652  60.0378209
  48.0417873  65.3689512  60.1820994  46.9677907  65.2247261  60.2996993
  48.6797809  65.6096104  61.6119530  48.3530798  64.7613608  62.2134830
  49.7566785  65.5494491  61.4545613  48.3378636  66.9327034  62.3535294
  48.4498834  67.7285754  61.6172277  47.2906053  66.8529104  62.6450515
  49.1963677  67.2583501  63.5992709  48.5399329  67.5353667  64.4241673
  49.7746777  66.3768568  63.8760858  50.1335766  68.3798764  63.3400276
  50.7912598  68.2090479  62.5927861  50.1901132  69.5623991  63.9907056
  51.0987683  70.5019721  63.6144509  51.7292620  70.3121615  62.8485856
  51.1389267  71.3852516  64.1026150  49.3753334  69.8279982  65.0019276
  48.6984351  69.1383214  65.2956189  49.4351485  70.7188291  65.4740942
  48.0518554  66.6481150  59.3440130  47.1678206  67.4269529  59.4626889
  49.0178503  66.8480961  58.4827109  49.7873982  66.1941337  58.4675946
  49.0719458  68.0004074  57.5899980  48.9973561  68.9214858  58.1680552
  50.4412779  68.0131212  56.7911778  50.2619107  68.6045383  55.8933178
  51.1583885  68.5300395  57.4288673  50.9747810  66.7141601  56.4166907
  51.8000154  66.8323328  55.9406411  47.8802568  68.0354504  56.5984626
  47.4941581  69.0907758  56.0825691  47.3406371  66.8595441  56.3422423
  47.7503606  66.0283507  56.7439183  46.2738775  66.7025541  55.3931800
  46.3587663  67.5245421  54.6823856  46.4691343  65.3971982  54.6493509
  46.3778951  64.5641097  55.3463008  45.7108364  65.3045108  53.8718590
  47.4593486  65.3824982  54.1939843  44.8581334  66.8421773  56.0449889
  43.8363933  66.8086855  55.3387031  44.8042803  67.0057578  57.3520904
  45.6475546  67.1989612  57.8733007  43.5296803  66.8867225  58.0975105
  42.7381012  66.5733339  57.4168568  43.6428800  65.8618283  59.2163477
  44.4063667  66.3220957  59.8435170  42.7144614  65.7737951  59.7806074
  44.1083850  64.4749664  58.7843915  45.1506727  64.5231288  58.4690859
  43.9750170  63.4994722  59.9627013  42.9328560  63.4504228  60.2782856
  44.3076639  62.5084251  59.6540389  44.5897234  63.8461181  60.7934076
  43.3971697  63.9946923  57.5030919  43.6046084  64.6897610  56.6894899
  43.7613123  63.0029735  57.2347726  42.3221818  63.9513993  57.6780938
  43.0463952  68.1943373  58.7345662  43.8450149  69.0400923  59.0933295
  41.7477573  68.2538072  58.9923819  41.1695672  67.5031374  58.6426814
  41.1031631  69.3372325  59.7378462  41.8363653  69.9269447  60.2880764
  40.3993967  70.2533382  58.7185582  41.2220149  70.5365157  58.0618931
  39.6762374  69.6600028  58.1590102  39.7236215  71.5040584  59.2506539
  39.8123505  72.2814654  58.4917952  38.2539340  71.2810702  59.5787221
  38.1644215  70.5040677  60.3379016  37.8204801  72.2076733  59.9550533
  37.7230604  70.9715746  58.6784520  40.4900899  72.0215155  60.4667268
  41.5141260  72.2580455  60.1777580  40.0040708  72.9195655  60.8480310
  40.4996958  71.2566453  61.2432448  40.0950665  68.7169132  60.7203767
  39.0757327  68.2146735  60.3074603  40.4039033  68.7020339  62.0289666
  41.7719723  68.4144043  62.4770987  42.4079458  69.2744968  62.2676262
  42.1509416  67.5439593  61.9415553  41.6125129  68.1535619  63.9729821
  42.2877361  68.8203970  64.5091758  41.8918775  67.1186798  64.1706576
  40.2160476  68.3974936  64.3409915  40.1141342  69.4114841  64.7276903
  39.8281269  67.6892757  65.0731422  39.4440138  68.2623191  63.0218457
  39.1883341  67.2237092  62.8120468  38.1700716  69.1143053  63.0071139
  38.2435167  70.3484086  62.9049582  36.9977738  68.4534851  63.0465550
  36.9488284  67.4698621  62.8225252  35.7683841  69.1843167  63.1756413
  36.0274044  70.2016076  63.4691150  34.8946082  69.2451172  61.8762784
  34.4238925  68.2727944  61.7309675  33.7689446  70.3700498  61.9803603
  34.2389479  71.3427836  62.1252242  33.1822334  70.3837707  61.0618394
  33.1152058  70.1535429  62.8252573  35.7198286  69.5518133  60.7508012
  35.1794652  69.5877285  59.9581362  34.9815952  68.7561701  64.4020828
  35.1238429  67.6039992  64.9275501  34.3867336  69.7978248  64.9803260
  34.8306234  70.6969349  64.8592387  33.1904662  69.7307113  65.7690833
  33.0498814  68.8525957  66.3993595  33.1676555  71.0048488  66.6475259
  33.9496128  70.9258535  67.4027761  33.4080367  72.2716599  65.7854955
  32.6261583  72.3515908  65.0302617  33.3878334  73.1551594  66.4235560
  34.3792878  72.1997601  65.2960050  31.8928540  71.0466770  67.5042695
  32.0383343  71.8251776  68.2531840  31.0739134  71.3284296  66.8424152
  31.5567722  69.7351812  68.1958134  32.3751054  69.4529980  68.8582356
  30.6432197  69.8546406  68.7782655  31.4106866  68.9562490  67.4474662
  31.9384812  69.6545372  64.8474131  31.5218585  70.6684163  64.2154528
  31.3060829  68.4472369  64.7989969  31.7744038  67.2322157  65.4825530
  32.3042631  67.4992084  66.3969186  32.4403578  66.6693567  64.8284932
  30.5043748  66.5145930  65.7491858  30.0352280  66.9058651  66.6519075
  30.6952610  65.4485308  65.8723736  29.6704134  66.7668544  64.5544727
  28.6092720  66.7474263  64.8028684  29.8759636  66.0253152  63.7824827
  30.0639717  68.1636934  64.0565624  30.3307905  68.2103865  63.0007567
  28.8872284  69.0878438  64.3222655  28.8744251  69.7027840  65.3601063
  27.9945144  69.2437886  63.3407687  28.1145634  68.6609577  62.5246831
  26.9477474  70.3092073  63.3025221  26.1751114  70.0063375  62.5958378
  26.2841212  70.5695199  64.6817246  26.9895662  70.9973436  65.3940542
  25.5114031  71.3029458  64.4513052  25.6495419  69.3443433  65.2795443
  26.2757348  68.2614085  65.2156650  24.5723806  69.4935411  65.9025271
  27.3394159  71.6960784  62.6826976  28.5375770  72.0002039  62.3765413
  26.2617926  72.4703295  62.4499999  25.4113025  71.9768296  62.2192967
  26.2501457  73.9482454  62.4007379  27.2564686  74.3597236  62.4788360
  25.5826268  74.4852928  61.0540878  26.2495533  75.2357421  60.6296645
  25.3326737  73.3474365  59.9958305  24.6654158  72.5967991  60.4193988
  24.8773302  73.7749832  59.1025414  26.2819232  72.8813760  59.7316083
  24.3394741  75.1567245  61.3123068  23.9651376  75.4665403  60.4843656
  25.5526853  74.5532750  63.6700339  24.8862117  75.5798807  63.5658819
  25.8102987  73.9745445  64.8633806  26.4896510  73.2277138  64.8920831
  25.0550314  74.3032980  66.1272067  24.2700532  75.0282426  65.9118842
  24.4052925  73.0318298  66.7095899  25.1596850  72.2465098  66.6620119
  24.1736501  73.2497216  67.7521660  23.1356752  72.5638504  65.9918893
  23.2050618  72.8093270  64.9321594  23.1314588  71.4807082  66.1138911
  21.8342421  73.1503594  66.5702404  21.7863057  74.3848051  66.7938874
  20.8401622  72.3832170  66.7453425  25.8613977  75.0447309  67.2727959
  25.2305240  75.5440044  68.2347144  27.2138551  74.9152971  67.2706000
  27.5789712  73.9755818  67.2095697  28.1982032  76.0617017  67.5071147
  27.7207366  76.9830895  67.1736940  28.6484764  76.2419005  69.0092357
  29.7255007  76.3341845  68.8692304  28.2653260  77.1460237  69.4823711
  28.3514241  75.0321671  69.9035852  27.1533815  74.6920541  70.0718289
  29.3049623  74.5407596  70.5714098  29.4812360  76.0396495  66.5938011
  30.5229780  76.5830871  66.9797805  29.3660397  75.5059749  65.3690325
  28.4531598  75.2418729  65.0269804  30.5417409  75.1901691  64.5382765
  31.2202552  74.5963523  65.1507299  30.1171603  74.3456106  63.3069914
  29.6068278  73.4430878  63.6433135  29.4446024  74.9301616  62.6792446
  31.3426978  73.9637717  62.5117825  31.8533395  74.8658384  62.1747045
  32.0155638  73.3787631  63.1387717  30.9250355  73.1329764  61.3005579
  30.6653504  73.7560516  60.2366302  30.8696570  71.8831922  61.4508007
  31.3203329  76.4708100  64.1126024  32.4363691  76.7575131  64.5963612
  35.5437182  77.0468556  63.2755268  35.5556810  77.0586439  62.2656668
  36.8278590  77.1926550  63.9934243  37.5302183  76.4414194  63.6322654
  37.4544825  78.5970283  63.7872311  37.6447236  78.7583464  62.7261543
  36.4915755  79.6633317  64.2985345  36.3012021  79.5029351  65.3597281
  36.9313164  80.6501511  64.1539113  35.5529838  79.6001377  63.7479405
  38.7673665  78.6859778  64.5579762  39.4559629  77.9239786  64.1928813
  39.2080114  79.6724091  64.4134592  38.5778504  78.5252098  65.6192669
  36.6085831  76.9551485  65.4949135  36.1241382  77.8564457  66.1946553
  36.8389717  75.6934123  65.9244245  36.8102315  74.9723595  65.2177731
  37.0660970  75.2872920  67.3379511  36.0932528  75.2754858  67.8294122
  37.6909661  73.8534153  67.3843762  37.0330676  73.1529787  66.8699265
  39.0523784  73.8697448  66.6974161  39.7110200  74.5696613  67.2116231
  39.4881041  72.8711378  66.7294752  38.9324723  74.1801249  65.6594441
  37.8594548  73.4191383  68.8364921  38.5176447  74.1188870  69.3515053
  36.8866104  73.4073339  69.3279533  38.4684305  72.0217380  68.8817368
  39.4415676  72.0328545  68.3908394  38.5890764  71.7108394  69.9194679
  37.8105339  71.3213015  68.3672851  37.9870182  76.3073405  68.1111661
  38.8465488  76.9441733  67.5044832  37.7418669  76.5380802  69.4116652
  36.8518904  76.2688895  69.8060985  38.7351105  77.1930525  70.2984139
  39.6837684  77.3780861  69.7945189  38.1903006  78.5233636  70.8177641
  38.0301460  79.2026844  69.9805228  37.2448824  78.3531470  71.3328475
  39.1932330  79.1396272  71.7872846  39.3535618  78.4610355  72.6250846
  40.5158812  79.3785004  71.0667510  40.3564293  80.0574130  70.2290448
  41.2331247  79.8189888  71.7593060  40.9048020  78.4300772  70.6961645
  38.6496655  80.4669032  72.3054523  37.7042486  80.2966851  72.8205368
  39.3661688  80.9078255  72.9984976  38.4895088  81.1462241  71.4682116
  39.0169824  76.2278470  71.4719229  38.0876558  75.7051150  72.0569147
  40.2830425  75.9304843  71.7766903  41.0368597  76.3225137  71.2306390
  40.6283179  74.9766996  72.8879534  40.1453864  74.0144070  72.7180438
  42.1614822  74.7547447  72.9671569  42.5168073  74.3311329  72.0277973
  42.6583962  75.7082349  73.1461342  42.7351683  73.6373872  74.2704216
  44.0293266  73.7392448  73.9811505  40.0749960  75.5411141  74.2447736
  40.0186598  76.7653940  74.4216435  39.6262057  74.6754465  75.1691782
  39.6080733  73.6865904  74.9643999  38.9896327  75.1506591  76.4449782
  38.9520486  76.2336919  76.3278180  37.5343817  74.6157285  76.5989415
  36.9589962  74.8646153  75.7072654  37.5561407  73.5334147  76.7263130
  36.8832393  75.2578509  77.8193171  37.4578462  75.0090100  78.7115088
  36.8520588  76.7720841  77.6411242  36.2771962  77.0217379  76.7493256
  36.3867278  77.2315604  78.5131616  37.8699353  77.1467977  77.5333392
  35.4588850  74.7342763  77.9700134  35.4806455  73.6519630  78.0973866
  34.9929993  75.1929449  78.8421802  34.8834992  74.9831609  77.0783372
  39.8481361  74.8629279  77.7202742  40.7369179  75.6546203  78.1127129
  39.6002155  73.8931408  78.4333577  60.7172525  57.1562923  47.5292964
  60.0324707  56.4264460  48.6635381  60.4064789  58.5631379  47.2307913
  59.0258857  57.1359318  49.4978722  59.4001407  59.2712319  48.0651697
  58.7153772  58.5421286  49.2000804  58.3413691  56.4054367  50.6328273
  58.7194409  55.0015511  50.9426544  57.2563400  57.1004388  51.4719321
  57.0046936  58.0307568  51.2676100  56.5725223  56.3707569  52.6059650
  57.3673798  55.9203309  53.8424714  55.1147395  56.0859461  52.5285245
  58.8690858  56.1914830  53.9682667  56.6825980  55.1904846  54.9767131
  54.4299577  55.3560997  53.6627663  55.2250621  54.9042820  54.8993170
  54.5402986  54.1751787  56.0342277  57.2005517  54.9058386  55.7645746
  61.7235724  56.4474552  46.6942490  63.9500822  55.2373271  46.6488298
  63.8914519  53.9582283  45.7975487  62.6614896  54.8072309  45.9403919
  63.1675379  56.3945516  47.1411905  65.3753803  54.8565311  46.8760076
  63.6335415  57.4811136  48.0023993  66.3919486  55.5711379  47.6779465
  64.9946232  57.6683156  48.5765474  66.2245855  56.8193130  48.4337041
  67.4429014  57.2806767  49.1392231  68.7184420  56.4741732  49.0391168
  67.3875109  58.5268883  49.9314816  68.5403945  59.4573887  49.8949814
  68.0908410  59.9626334  48.5239050  69.6935434  60.3872403  49.8591946
  68.9397147  58.9375748  51.2238162  60.2783769  55.3744727  48.8701036
  60.9103168  59.0831280  46.4033291  59.1539694  60.3238539  47.8578909
  57.9724406  59.0729147  49.8131525  56.7872235  55.4096547  52.1175185
  54.6054723  57.0540602  52.4192866  55.0377645  55.3794862  51.6889537
  53.6323162  56.0201579  54.0276550  54.1353502  54.4024344  53.1993650
  61.7136579  56.9286434  45.7056380  61.4024367  55.3969935  46.7456687
  65.3272911  53.8511609  47.3183459  65.7681491  55.0818054  45.8736732
  63.4462941  58.3972671  47.4234078  63.0972359  57.2090897  48.9230471
  66.7278700  54.8339559  48.4233178  67.0185769  55.9514661  46.8572685
  65.3071048  58.6576893  48.2120408  64.7530122  57.4013651  49.6165702
  66.9947706  59.8995229  48.4519565  68.4058997  61.0089269  48.3980561
  68.5463780  59.3451402  47.7369354  69.3794484  61.3736488  50.2295628
  70.5008280  59.9953288  50.4952315  70.0560440  60.4818273  48.8249598
  68.0433680  58.6325437  51.7828525  69.6032988  58.0689832  51.0942415
  69.4698965  59.7233334  51.7805987  89.4771522  47.7255416  68.3531111
  93.4399712  49.2734946  75.1848240  93.8230044  54.6184388  74.8218420
  91.3554250  55.8799330  70.7486926  94.7426801  51.7216649  71.2836960
  92.2275501  47.7886662  69.4272438  95.5790037  47.8133183  73.1426777
  99.0608733  48.3592919  71.3359966 102.0836045  47.9793226  68.0118572
  95.4460336  57.1394814  72.3969918  95.7606041  57.9798274  68.4310187
  95.5838737  55.1450407  68.1651812  95.2577147  56.2546032  64.6663560
  93.5003933  58.6036161  61.3415279  95.4499950  58.6131176  57.1851995
  97.0841184  59.3246005  66.5160575  93.0844129  60.6946137  74.4463866
  92.9035065  62.2073578  84.8611693  92.4441845  64.6540878  86.0998634
  94.9863115  63.4744126  76.7071746  97.6953192  64.5936943  72.9020187
  96.8961707  67.3929854  69.1165204  94.7419267  64.4451413  66.0853870
  94.4149680  62.4146952  72.0657985 101.1431256  16.7388755  22.7983057
  99.9510093  19.7894378  22.0161925  99.1770039  67.3013051  63.1514002
  98.1220989  63.6227345  65.8384972  96.3197776  61.8849975  70.2470315
  97.3612956  65.2263027  63.0868887  96.1311741  62.0849962  63.2280866
  97.5390774  61.7020254  56.8952532  92.9351304  54.4945979  66.9375257
 106.4091578  47.7977684  67.7739420 109.6316995  45.3068403  65.8097953
 111.2378557  44.6402990  63.5712593 111.9284723  41.4702971  59.7119433
 115.6536274  39.2992245  58.6714060  96.4992955  76.0962956  63.8332101
  95.2927835  73.4704108  68.3386202  94.5766209  70.3146421  71.5932510
  98.0162597  71.5198677  60.9246021  96.1383961  69.1327298  67.1376934
  97.5556680  67.2848711  73.3320132  98.3534335  66.0216508  56.5773747
  96.0096615  79.2208516  62.3631309  96.4926455  67.8444771  78.9029674
  92.6832110  66.8876623  81.7240151  90.9394510  63.9665996  77.8078308
  89.7424509  59.8272735  77.1719106  91.0211431  59.7805246  81.3509053
  94.8516902  70.8178184  75.2455403  92.2275500  70.7824539  82.7027131
  92.9601521  74.2152435  80.9266666  92.2016524  76.2979075  82.9177421
  90.6237200  73.8980930  86.0181996  94.5211069  76.3590165  77.8488330
  92.8103031  81.0598347  81.5577806 110.6012254  27.5814102  63.5742639
 108.9547789  26.0044071  65.2696719  95.4460337  80.1332690  59.1215222
  91.8430240  82.7849135  58.6596626  92.4763575  83.0702737  63.8839945
  93.6419480  82.4458082  68.5481557  92.1271154  82.1472999  71.1245367
  85.8778593  89.9472036  70.7933051  88.3495212  90.2288721  73.3837032
  91.0669334  84.6649312  73.5172587  90.6454180  88.3885194  77.7226200
  90.3037497  93.3848347  75.9001831  90.0671816  89.5061799  70.8637422
  94.2322632  78.5955647  74.7262325  93.3979753  74.8411991  71.8477988
  86.6932164  89.9797761  77.1209873  84.8363147  91.9534754  80.9832880
  95.7606042  80.9736150  55.1555490  93.8614619  83.5236444  53.6268159
  81.7277044  94.7347902  82.7946325  87.4317947  86.1057301  73.8138702
  90.0599549  86.5772617  70.7706509  68.2170362  55.2867131 132.0056506
  67.5432061  55.5898828 132.6141463  68.6036184  56.0896211 131.6561963
  72.1827103  52.8652614 133.2796329  72.8778007  53.4859307 133.4983643
  72.5250253  52.0147965 133.5548707  66.2741971  52.9714366 132.1871422
  65.7015938  53.5904553 131.7341894  66.8474765  53.5213728 132.7211344
  69.4939231  53.2551516 133.3180005  70.4269904  53.1897078 133.5212880
  69.4062444  54.0907783 132.8594537  72.1227247  52.5717386 130.2783952
  72.0440879  52.2377250 131.1719710  72.9436914  53.0639154 130.2775425
  69.6931199  49.8885382 129.8993931  70.3967049  50.0935384 130.5151586
  68.9693848  50.4562144 130.1643014  71.6017897  50.3267911 131.9492391
  72.4363501  49.8949110 131.7669865  71.4402240  50.1549925 132.8769285
  73.0631752  56.7805458 132.4627343  72.2269064  57.1180145 132.7836618
  72.9236522  56.6454438 131.5254480  72.9370132  56.6252686 129.6625250
  72.0599599  56.5041487 129.2987497  73.4127885  55.8338764 129.4104139
  70.6388601  57.5651688 133.2206905  69.9457845  57.6396043 132.5646941
  70.3940352  56.8012032 133.7428422  75.6825441  57.5617073 129.4642360
  74.7756897  57.2650185 129.5405074  75.9601422  57.2646891 128.5976646
  74.4524226  54.4204008 129.6054339  75.3143390  54.7458906 129.8650157
  74.6374570  53.6335504 129.0927405  75.4053669  51.6600051 132.8934048
  75.3932339  52.6041891 133.0502319  76.2977091  51.4770196 132.5993510
  68.2170363  32.2929253 118.7301812  67.5432062  32.5960950 119.3386770
  68.6036185  33.0958334 118.3807269  72.1827104  29.8714737 120.0041635
  72.8778008  30.4921430 120.2228950  72.5250254  29.0210088 120.2794013
  66.2741972  29.9776489 118.9116729  65.7015939  30.5966676 118.4587201
  66.8474766  30.5275850 119.4456651  69.4939232  30.2613639 120.0425311
  70.4269905  30.1959200 120.2458187  69.4062445  31.0969906 119.5839844
  72.1227249  29.5779509 117.0029259  72.0440880  29.2439373 117.8965017
  72.9436916  30.0701277 117.0020731  69.6931201  26.8947504 116.6239237
  70.3967051  27.0997507 117.2396893  68.9693849  27.4624266 116.8888321
  71.6017898  27.3330034 118.6737697  72.4363502  26.9011232 118.4915172
  71.4402241  27.1612047 119.6014592  80.2302173  37.8499685 128.7692874
  80.8680583  37.7306432 128.0656214  80.1123016  38.7980529 128.8280826
  72.8978695  39.6562589 124.6951290  72.3343560  39.5652526 123.9267577
  72.7831090  38.8362494 125.1753782  78.4778254  43.3233557 120.0065755
  77.8266233  43.9087637 119.6199768  79.2722617  43.8539752 120.0660792
  72.4033881  40.4122694 120.4052889  73.1764757  39.8651681 120.2665765
  72.7559280  41.2766943 120.6167350  74.7400159  36.5715360 118.0371339
  74.9925679  36.0496881 117.2754802  73.8024718  36.4081506 118.1398022
  79.7843442  35.5751139 125.8446082  80.5706531  35.1570562 125.4936499
  80.0482146  36.4797231 126.0127730  79.9553519  41.0123989 120.5434739
  79.3199352  41.0858615 121.2555643  79.6250925  41.6017588 119.8653818
  74.4596447  38.4743466 120.2395714  74.3432706  37.7988370 120.9076798
  74.5698707  37.9875840 119.4227867  76.8027988  37.9353613 123.9442403
  76.4386196  37.4084234 124.6555324  77.6595104  37.5452082 123.7708888
  76.4433475  32.9643513 118.9403752  76.6107878  33.8323749 119.3074223
  76.2530644  33.1270795 118.0165041  76.4222696  35.4201170 119.9250418
  76.3022321  35.8658221 120.7635899  75.7275285  35.7686488 119.3663956
  74.1829588  48.1904812 123.5740550  74.1053618  49.1412637 123.6529030
  73.5791232  47.8450685 124.2315476  82.1207762  35.8922644 120.7530752
  83.0325618  36.1250030 120.5778450  81.6117409  36.4759688 120.1905831
  80.7277345  40.8748462 128.1444334  80.0986207  41.0394176 127.4420402
  80.3403007  41.2890072 128.9155298  84.6066577  41.8102900 125.4988698
  83.9217615  42.1901801 124.9485731  84.6910426  42.4198227 126.2320645
  76.2805307  40.6122870 125.4094419  76.7443652  40.8910573 124.6199041
  76.0162105  39.7106315 125.2267510  75.2174193  36.7346023 122.2183984
  75.9198236  37.1867066 122.6857910  74.8854821  36.0929841 122.8463877
  76.4567957  43.5486965 122.2946089  76.3213632  44.3938501 122.7230937
  76.9977770  43.7506243 121.5312023  69.9097355  41.0662403 122.8674014
  70.4221875  41.8605653 123.0179579  70.5620067  40.3688694 122.8007616
  71.7192239  44.1828160 124.9496768  71.8958868  45.1046124 124.7617751
  72.5149073  43.8686579 125.3791147  72.8423555  45.7006333 130.9507110
  73.3930980  45.5723397 130.1784104  72.0035031  46.0001222 130.6002003
  67.8746271  39.3951058 123.6433585  68.7121493  39.8048066 123.4267293
  68.0524539  38.4550500 123.6133779  79.7710704  37.0626138 119.3317418
  79.2557327  37.8330743 119.5705805  79.4988012  36.3891274 119.9550479
  77.3557815  31.9075839 124.3902656  76.4999411  31.5182689 124.2108295
  77.7684766  31.9867800 123.5302442  84.7444978  39.8158493 121.2670591
  83.9674420  39.4769652 120.8225753  85.4236459  39.8211116 120.5925556
  79.5597007  34.9353230 121.1577199  79.2547142  35.2499379 122.0087342
  80.5127449  35.0134650 121.2004532  78.0043439  41.0943454 122.8070153
  77.4764800  40.3596213 122.4943390  77.5030941  41.8718130 122.5610121
  82.9836285  39.2892474 127.9237199  82.3259959  39.9791735 128.0117328
  83.7876684  39.6788906 128.2671186  81.7941743  37.6436847 125.9741141
  82.3073625  38.2766839 126.4762851  82.4442967  37.0438042 125.6084501
  73.0631753  33.7867581 119.1872650  72.2269066  34.1242267 119.5081925
  72.9236523  33.6516561 118.2499787  76.1496039  38.9123664 115.8105126
  75.2423100  38.6812917 116.0096275  76.6467071  38.1161283 115.9979108
  79.0564118  47.6221171 118.7301812  78.3825816  47.9252868 119.3386770
  79.4429940  48.4250251 118.3807269  79.0557622  36.5177718 123.3502162
  79.8029441  37.0299115 123.0409284  79.3249212  36.1961771 124.2106555
  77.3284272  39.0136259 120.3329116  76.4195491  38.7295292 120.4301586
  77.3579356  39.4335337 119.4732423  82.5603540  42.6242848 124.1020284
  82.1065867  41.7833758 124.1585474  81.9297506  43.2604247 124.4395064
  81.5036459  33.5534834 125.3320951  80.7659216  33.0412220 125.6631194
  81.7563233  33.1135216 124.5204228  81.0036479  44.4619345 125.0370102
  81.2959453  45.0224402 124.3182468  81.5135099  44.7547906 125.7923261
  75.8769166  36.6264879 126.4338912  75.9317776  35.6738716 126.3581388
  75.0660368  36.7824318 126.9180210  77.0260360  40.5545002 117.6717195
  76.5879790  39.8380861 117.2122832  77.7670801  40.7821117 117.1102286
  73.8161526  35.2441939 124.1929290  73.0029392  35.5436110 124.5994483
  74.3120520  34.8497628 124.9103773  75.9670104  45.2399696 126.1263555
  75.9246283  45.4660542 125.1972087  76.8832803  45.0063071 126.2749356
  85.1433475  38.8302199 123.7293513  85.0051373  39.0203795 122.8014703
  84.7869694  39.5921582 124.1861564  74.0835905  42.1162725 125.9225518
  74.8776503  41.6213045 125.7208093  73.3727597  41.5880588 125.5593223
  78.9030749  44.4980821 130.2737885  78.9567772  45.0671757 131.0415601
  78.0345531  44.6682706 129.9091923  70.3918668  36.2605807 121.9985270
  69.4616256  36.1990262 122.2155233  70.4876140  35.7381760 121.2021912
  76.6607181  42.6891747 129.6023355  76.5218266  42.3210531 130.4749293
  75.8721777  43.2039386 129.4307313  77.2555333  47.7900843 120.9448891
  77.4307088  47.3188887 121.7594514  76.5688121  48.4166610 121.1730152
  78.2112396  42.0673350 126.9912193  77.8762229  42.0274120 127.8869843
  77.7116342  41.4018066 126.5182603  81.1471588  39.4129384 117.2649252
  80.5300758  38.6876212 117.1682305  80.6788076  40.1738744 116.9216327
  71.8216418  50.9390206 127.7188752  72.0613016  51.5708730 128.3967770
  70.9785615  50.5878246 128.0054111  72.9370134  33.6314808 116.3870557
  72.0599600  33.5103609 116.0232803  73.4127887  32.8400887 116.1349445
  76.3344280  46.7469329 130.1230256  76.2614451  47.5524300 130.6349560
  75.8921673  46.9461294 129.2978277  76.1234060  45.9841099 123.6333077
  75.3401581  46.5262779 123.7271302  76.8226805  46.5015078 124.0327318
  78.7942963  46.6456163 132.2788414  79.5070936  47.2803628 132.2064316
  78.3032992  46.7420029 131.4628416  80.5160490  40.5507415 123.8505706
  79.5816769  40.6708878 123.6810410  80.6937159  39.6479882 123.5865716
  83.9033042  36.3924735 124.3855740  84.3693494  37.2252726 124.3116043
  84.3540542  35.9269716 125.0900999  81.9709273  42.7368556 121.3841892
  82.2469117  42.6225151 122.2935766  81.1013772  42.3386041 121.3454065
  78.6063337  46.9854907 125.0274706  78.7885731  46.1676563 125.4902458
  79.4296323  47.2022599 124.5899596  78.9405502  45.9123092 122.2889754
  79.4693269  45.4015547 121.6759916  79.2033722  45.5965622 123.1535287
  72.2961250  46.9638209 125.0487530  71.6271626  47.4484336 124.5651570
  72.1574120  47.2107429 125.9630909  76.4366519  48.9981952 131.6470188
  76.9884827  49.1613574 132.4119274  76.7772712  49.5886390 130.9750213
  67.6648827  35.2256664 121.8283462  67.9602268  34.3167342 121.7750516
  66.7636863  35.2044403 121.5064465  79.5734906  46.9463928 128.6333871
  79.4486046  46.1453667 128.1244816  80.2313997  47.4410121 128.1447841
  81.6369814  44.7472948 130.2613421  80.6900150  44.6278299 130.1891747
  81.9852588  43.8595446 130.3439682  78.6416248  44.5425664 126.4617773
  78.4941210  43.6142371 126.6425343  79.4669741  44.5645755 125.9774848
  72.5078492  33.1943731 122.3198265  72.8474565  33.7229652 121.5976873
  72.9550613  33.5324137 123.0956832  82.2450370  45.3654223 127.5482646
  83.1696917  45.1597084 127.4107097  82.0765673  45.1170624 128.4571987
  74.4946639  31.6918353 120.5191558  75.2155002  32.0699605 120.0155275
  73.8711943  32.4107229 120.6226536  78.6377762  32.3963502 121.4549890
  78.8541376  33.2788139 121.1538718  78.1571829  32.0049715 120.7255532
  82.0345686  45.8839890 122.9044737  82.2082563  45.3186313 122.1518590
  82.5274577  46.6840785 122.7224227  87.8885077  38.6476313 124.5235037
  88.3316223  37.8983638 124.1254160  87.0111587  38.6386449 124.1408769
  83.0220858  45.2006655 120.0041635  83.7171763  45.8213347 120.2228950
  83.3644008  44.3502006 120.2794013  84.9212281  42.6506360 121.5328966
  85.4463606  42.9893633 120.8078286  84.8334634  41.7153375 121.3492101
  76.6052942  48.7178343 125.8924219  76.1657932  48.2254722 126.5857076
  77.3561059  48.1751311 125.6516295  69.0845281  44.9089884 125.8948847
  69.9103301  44.6093656 125.5147491  68.7339333  44.1397507 126.3438636
  74.0526814  44.2616352 127.9646521  73.4306824  43.5987057 127.6648749
  74.7231681  44.2877484 127.2820169  73.6140321  42.8120276 121.4404982
  73.7628442  43.4955740 120.7871654  74.4206765  42.7925366 121.9554437
  71.3692954  38.8385453 122.4466051  71.1238996  37.9347783 122.6446261
  71.5388869  38.8402604 121.5045529  70.6388602  34.5713811 119.9452212
  69.9457847  34.6458166 119.2892248  70.3940354  33.8074155 120.4673729
  77.1135727  45.3068406 118.9116729  76.5409694  45.9258593 118.4587201
  77.6868520  45.8567768 119.4456651  80.3332987  45.5905556 120.0425311
  81.2663660  45.5251118 120.2458187  80.2456199  46.4261823 119.5839844
  82.9621003  44.9071427 117.0029259  82.8834635  44.5731290 117.8965017
  83.7830670  45.3993195 117.0020731  77.4982525  36.6429219 116.2532782
  78.4441630  36.5135427 116.3221200  77.1196770  35.9043881 116.7302210
  75.6825442  34.5679195 116.1887667  74.7756898  34.2712308 116.2650380
  75.9601423  34.2709013 115.3221953  77.2987508  29.1116085 122.3431908
  76.4888236  28.7663170 122.7187154  77.9871925  28.8023629 122.9319520
  74.4524227  31.4266131 116.3299646  75.3143391  31.7521029 116.5895463
  74.6374571  30.6397626 115.8172712  82.6056864  30.2994657 123.4734869
  82.0255533  30.9579461 123.0912921  82.3392796  29.4772002 123.0622286
  81.3881742  32.4594747 122.5291217  80.5007597  32.7444398 122.3111412
  81.8035731  32.2988511 121.6818494  69.3965992  47.0402499 127.6162662
  69.2620460  46.2802899 127.0500660  68.9798054  47.7643398 127.1491451
  80.5324955  42.2239422 116.6239237  81.2360805  42.4289425 117.2396893
  79.8087604  42.7916184 116.8888321  81.3622765  37.9749283 122.7441507
  81.3057967  38.4317835 121.9049140  81.9151108  37.2139968 122.5664350
  85.1727571  33.7639015 123.5691627  84.9164505  33.3635651 124.3999835
  84.5480439  34.4782809 123.4441766  72.5535118  47.9371816 127.8281105
  72.4367502  48.8817248 127.7259795  71.7327564  47.6345377 128.2166904
  82.4411652  42.6621951 118.6737697  83.2757256  42.2303150 118.4915172
  82.2795995  42.4903965 119.6014592  82.0957545  39.1654065 120.0394037
  82.0406348  38.9998336 119.0982481  81.4703600  39.8730098 120.1956226
  75.4053670  28.6662174 119.6179355  75.3932340  29.6104014 119.7747626
  76.2977092  28.4832319 119.3238816  73.5789632  48.5900077 131.0437033
  74.4816879  48.6223688 131.3603528  73.3527002  47.6600528 131.0583369
  75.3343234  47.3431064 127.7047112  74.3838865  47.3432926 127.5911484
  75.6375720  46.5963799 127.1883146  83.7372449  54.9854507 124.6951290
  83.1737315  54.8944444 123.9267577  83.6224845  54.1654411 125.1753782
  81.2836881  56.4805699 127.5335510  82.0758173  56.1396523 127.1181809
  81.5233532  56.5900674 128.4537663  89.3172008  58.6525475 120.0065755
  88.6659988  59.2379555 119.6199768  90.1116371  59.1831670 120.0660792
  83.2427635  55.7414612 120.4052889  84.0158511  55.1943599 120.2665765
  83.5953034  56.6058861 120.6167350  85.5793913  51.9007278 118.0371339
  85.8319434  51.3788799 117.2754802  84.6418472  51.7373423 118.1398022
  90.6237196  50.9043056 125.8446082  91.4100285  50.4862479 125.4936499
  90.8875900  51.8089148 126.0127730  90.7947273  56.3415907 120.5434739
  90.1593106  56.4150533 121.2555643  90.4644680  56.9309505 119.8653818
  85.2990202  53.8035384 120.2395714  85.1826460  53.1280287 120.9076798
  85.4092462  53.3167758 119.4227867  87.6421743  53.2645531 123.9442403
  87.2779950  52.7376152 124.6555324  88.4988859  52.8744000 123.7708888
  87.2827230  48.2935431 118.9403752  87.4501632  49.1615667 119.3074223
  87.0924399  48.4562712 118.0165041  83.4915044  53.2066206 126.6406286
  82.5665541  53.0742421 126.8483978  83.7399458  53.9860426 127.1376229
  87.2616451  50.7493088 119.9250418  87.1416076  51.1950139 120.7635899
  86.5669039  51.0978406 119.3663956  80.8523856  52.8499480 127.4750075
  80.9816237  53.1033959 128.3889487  80.1721307  53.4427188 127.1554730
  92.9601517  51.2214561 120.7530752  93.8719373  51.4541948 120.5778450
  92.4511164  51.8051606 120.1905831  87.1199061  55.9414788 125.4094419
  87.5837407  56.2202491 124.6199041  86.8555859  55.0398232 125.2267510
  86.0567947  52.0637940 122.2183984  86.7591990  52.5158984 122.6857910
  85.7248576  51.4221759 122.8463877  79.7993281  50.3221493 127.5201118
  79.0092335  50.5779021 127.0441228  80.2904528  51.1369831 127.6253158
  81.7508026  50.6866072 124.4784594  80.9539190  50.7984766 124.9968090
  81.5233619  51.0252724 123.6125485  78.0830984  50.5751983 129.9516108
  78.3339022  51.4598993 130.2173684  78.6190532  50.3956585 129.1791200
  87.2961712  58.8778883 122.2946089  87.1607387  59.7230419 122.7230937
  87.8371524  59.0798161 121.5312023  80.7491109  56.3954321 122.8674014
  81.2615630  57.1897571 123.0179579  81.4013822  55.6980611 122.8007616
  82.5585994  59.5120077 124.9496768  82.7352622  60.4338042 124.7617751
  83.3542827  59.1978496 125.3791147  78.7140026  54.7242975 123.6433585
  79.5515248  55.1339984 123.4267293  78.8918294  53.7842417 123.6133779
  90.6104458  52.3918056 119.3317418  90.0951081  53.1622660 119.5705805
  90.3381766  51.7183192 119.9550479  88.1951569  47.2367757 124.3902656
  87.3393165  46.8474607 124.2108295  88.6078521  47.3159717 123.5302442
  85.9693602  44.8552830 127.7960398  86.8346598  44.6595638 127.4366287
  86.0371110  44.6263181 128.7229755  95.5838732  55.1450411 121.2670591
  94.8068175  54.8061570 120.8225753  96.2630213  55.1503034 120.5925556
  90.3990761  50.2645148 121.1577199  90.0940897  50.5791297 122.0087342
  91.3521203  50.3426568 121.2004532  88.8437193  56.4235371 122.8070153
  88.3158555  55.6888131 122.4943390  88.3424696  57.2010048 122.5610121
  83.5755921  47.0855038 125.1676765  84.1499673  46.8630219 124.4349958
  84.1626903  47.1543732 125.9205366  83.9025508  49.1159499 119.1872650
  83.0662820  49.4534185 119.5081925  83.7630277  48.9808478 118.2499787
  85.8778588  43.9596286 123.8951834  85.2243001  43.6445304 123.2708449
  85.8359063  43.3372027 124.6211657  86.9889793  54.2415582 115.8105126
  86.0816855  54.0104835 116.0096275  87.4860825  53.4453201 115.9979108
  89.8957872  62.9513089 118.7301812  89.2219571  63.2544785 119.3386770
  90.2823694  63.7542169 118.3807269  89.1116329  50.4478220 128.2199482
  88.1938890  50.6693167 128.0621170  89.5276472  50.5224530 127.3611189
  89.8951376  51.8469636 123.3502162  90.6423195  52.3591033 123.0409284
  90.1642966  51.5253688 124.2106555  88.1678027  54.3428176 120.3329116
  87.2589246  54.0587209 120.4301586  88.1973110  54.7627255 119.4732423
  92.3430214  48.8826752 125.3320951  91.6052970  48.3704138 125.6631194
  92.5956987  48.4427134 124.5204228  78.7366197  52.0633691 124.3144318
  78.5390597  51.4703051 123.5895385  78.1812861  51.7585901 125.0320257
  86.7162921  51.9556797 126.4338912  86.7711530  51.0030633 126.3581388
  85.9054123  52.1116236 126.9180210  87.8654114  55.8836920 117.6717195
  87.4273544  55.1672779 117.2122832  88.6064555  56.1113035 117.1102286
  84.6555281  50.5733857 124.1929290  83.8423146  50.8728027 124.5994483
  85.1514275  50.1789546 124.9103773  95.9827229  54.1594117 123.7293513
  95.8445128  54.3495713 122.8014703  95.6263448  54.9213500 124.1861564
  84.1469355  48.1452212 129.8090525  84.7868735  48.0040971 129.1113489
  83.3146886  47.8586726 129.4329127  84.9229659  57.4454643 125.9225518
  85.7170258  56.9504963 125.7208093  84.2121352  56.9172506 125.5593223
  81.2312423  51.5897724 121.9985270  80.3010011  51.5282180 122.2155233
  81.3269895  51.0673677 121.2021912  81.1497972  48.1152537 124.5863512
  81.4104789  49.0297871 124.4772673  81.9715144  47.6476980 124.7360125
  82.6222897  49.5290294 131.7562337  83.2945951  49.3207657 131.1074986
  81.7952684  49.3312380 131.3167569  88.0949087  63.1192761 120.9448891
  88.2700843  62.6480804 121.7594514  87.4081875  63.7458527 121.1730152
  91.9865342  54.7421302 117.2649252  91.3694513  54.0168130 117.1682305
  91.5181831  55.5030662 116.9216327  83.7763888  48.9606726 116.3870557
  82.8993354  48.8395527 116.0232803  84.2521641  48.1692804 116.1349445
  75.2966028  53.7483886 126.4812064  75.9837068  53.4345616 125.8933079
  75.1414157  54.6525250 126.2079315  80.1000750  48.6374082 130.9097087
  80.0158939  48.0299752 130.1747497  79.2783457  49.1283101 130.9106584
  90.2724464  47.1227646 126.2767283  90.7693164  46.3697608 125.9568353
  89.5011446  47.1591962 125.7110492  91.3554245  55.8799333 123.8505706
  90.4210524  56.0000796 123.6810410  91.5330913  54.9771800 123.5865716
  86.8559433  49.2645029 126.0038967  86.4857220  48.7116069 126.6919873
  87.3518525  48.6603162 125.4513967  94.7426796  51.7216652 124.3855740
  95.2087248  52.5544644 124.3116043  95.1934297  51.2561634 125.0900999
  92.8103027  58.0660474 121.3841892  93.0862871  57.9517068 122.2935766
  91.9407526  57.6677958 121.3454065  89.7799257  61.2415010 122.2889754
  90.3087023  60.7307464 121.6759916  90.0427476  60.9257540 123.1535287
  74.8734004  51.8284479 128.7529531  74.9118104  51.2948070 129.5466649
  74.3674297  51.3019685 128.1340508  82.2524767  46.6749020 132.2492073
  82.3166093  47.5363851 131.8369471  82.1891887  46.0623021 131.5164432
  78.5042582  50.5548581 121.8283462  78.7996023  49.6459260 121.7750516
  77.6030618  50.5336321 121.5064465  82.0336829  48.6304578 127.8111011
  81.3123415  49.2440546 127.6718484  82.8230085  49.1662343 127.7327657
  80.2330423  48.2362679 121.9522787  79.9043130  47.3560058 121.7697893
  80.5869794  48.1810348 122.8399177  83.3472247  48.5235649 122.3198265
  83.6868319  49.0521570 121.5976873  83.7944367  48.8616055 123.0956832
  85.3340394  47.0210270 120.5191558  86.0548756  47.3991523 120.0155275
  84.7105698  47.7399147 120.6226536  89.4771517  47.7255419 121.4549890
  89.6935131  48.6080057 121.1538718  88.9965584  47.3341633 120.7255532
  84.2170738  50.6841133 128.0320635  84.0715319  50.9981436 128.9244916
  83.7395942  51.3026033 127.4791533  86.0767121  47.6743680 128.0801524
  86.0628690  46.7784774 127.7433822  86.7939549  47.6814344 128.7139810
  78.6916400  53.2246477 130.9708296  78.1469868  54.0006285 131.1028570
  79.5695750  53.5717281 130.8127417  85.4804017  46.5558061 123.3489094
  85.6019928  45.6274707 123.5479982  85.1906059  46.5696747 122.4367410
  88.3495207  44.2412971 126.4855814  88.3716904  44.3052304 125.5307794
  88.7663266  43.4017480 126.6796320  93.8614613  60.5298572 120.0041635
  94.5565517  61.1505265 120.2228950  94.2037763  59.6793923 120.2794013
  95.7606036  57.9798278 121.5328966  96.2857360  58.3185551 120.8078286
  95.6728389  57.0445293 121.3492101  79.9239036  60.2381802 125.8948847
  80.7497056  59.9385574 125.5147491  79.5733088  59.4689424 126.3438636
  78.1247641  58.1568128 126.8537781  77.2879549  57.7290303 126.6721782
  78.0971286  58.3500572 127.7908572  84.4534076  58.1412193 121.4404982
  84.6022196  58.8247658 120.7871654  85.2600519  58.1217284 121.9554437
  82.2086709  54.1677371 122.4466051  81.9632751  53.2639701 122.6446261
  82.3782623  54.1694522 121.5045529  81.4782356  49.9005729 119.9452212
  80.7851601  49.9750084 119.2892248  81.2334108  49.1366072 120.4673729
  87.9529481  60.6360324 118.9116729  87.3803448  61.2550511 118.4587201
  88.5262275  61.1859686 119.4456651  91.1726741  60.9197474 120.0425311
  92.1057414  60.8543036 120.2458187  91.0849954  61.7553741 119.5839844
  93.8014758  60.2363344 117.0029259  93.7228389  59.9023208 117.8965017
  94.6224425  60.7285112 117.0020731  88.3376280  51.9721137 116.2532782
  89.2835385  51.8427345 116.3221200  87.9590525  51.2335799 116.7302210
  86.5219197  49.8971113 116.1887667  85.6150652  49.6004226 116.2650380
  86.7995178  49.6000931 115.3221953  77.4397137  51.2177476 126.6386713
  77.1199922  50.3642785 126.3461087  76.8930566  51.4326055 127.3944680
  88.1381263  44.4408003 122.3431908  87.3281991  44.0955088 122.7187154
  88.8265680  44.1315546 122.9319520  90.0671811  43.5186050 123.9656205
  90.6202850  43.9381503 124.6246228  90.3041897  42.5921798 124.0079161
  85.2917982  46.7558048 116.3299646  86.1537146  47.0812947 116.5895463
  85.4768326  45.9689544 115.8172712  77.3085397  54.8380388 128.6079835
  76.6148869  54.4234341 128.0949789  78.0558388  54.8800924 128.0113254
  93.4450618  45.6286575 123.4734869  92.8649287  46.2871379 123.0912921
  93.1786551  44.8063919 123.0622286  79.2222140  54.7698642 126.4845850
  79.1992828  54.8686329 125.5327733  79.5322776  55.6163793 126.8063016
  92.2275496  47.7886665 122.5291217  91.3401351  48.0736316 122.3111412
  92.6429485  47.6280428 121.6818494  91.3718710  57.5531340 116.6239237
  92.0754560  57.7581342 117.2396893  90.6481358  58.1208102 116.8888321
  92.2016520  53.3041201 122.7441507  92.1451721  53.7609752 121.9049140
  92.7544862  52.5431886 122.5664350  96.0121326  49.0930933 123.5691627
  95.7558260  48.6927569 124.3999835  95.3874194  49.8074727 123.4441766
  93.2805407  57.9913869 118.6737697  94.1151011  57.5595067 118.4915172
  93.1189750  57.8195883 119.6014592  92.9351299  54.4945982 120.0394037
  92.8800103  54.3290254 119.0982481  92.3097354  55.2022015 120.1956226
  77.7243814  49.7314047 133.8655459  78.3702678  49.2213001 134.3542684
  77.5160965  50.4682728 134.4398884  86.2447425  43.9954091 119.6179355
  86.2326094  44.9395931 119.7747626  87.1370846  43.8124237 119.3238816
  94.7419262  64.4451416 119.1872650  93.9056575  64.7826103 119.5081925
  94.6024032  64.3100396 118.2499787  94.6157642  64.2898644 116.3870557
  93.7387109  64.1687444 116.0232803  95.0915396  63.4984722 116.1349445
  92.3176111  65.2297646 119.9452212  91.6245356  65.3042001 119.2892248
  92.0727863  64.4657990 120.4673729  97.3612951  65.2263031 116.1887667
  96.4544407  64.9296143 116.2650380  97.6388932  64.9292849 115.3221953
  96.1311736  62.0849966 116.3299646  96.9930900  62.4104864 116.5895463
  96.3162080  61.2981462 115.8172712  97.0841179  59.3246009 119.6179355
  97.0719849  60.2687849 119.7747626  97.9764601  59.1416154 119.3238816
  68.2170364   9.2991376 105.4547119  67.5432063   9.6023073 106.0632077
  68.6036186  10.1020456 105.1052576  72.1827105   6.8776859 106.7286942
  72.8778010   7.4983552 106.9474257  72.5250255   6.0272211 107.0039320
  66.2741974   6.9838611 105.6362036  65.7015941   7.6028798 105.1832508
  66.8474767   7.5337973 106.1701958  69.4939233   7.2675761 106.7670618
  70.4269906   7.2021323 106.9703493  69.4062446   8.1032028 106.3085151
  72.1227250   6.5841632 103.7274566  72.0440882   6.2501495 104.6210323
  72.9436917   7.0763400 103.7266038  69.6931202   3.9009627 103.3484544
  70.3967052   4.1059630 103.9642199  68.9693851   4.4686389 103.6133627
  71.6017899   4.3392156 105.3983004  72.4363503   3.9073355 105.2160479
  71.4402242   4.1674170 106.3259898  80.2302174  14.8561807 115.4938181
  80.8680584  14.7368555 114.7901521  80.1123017  15.8042651 115.5526133
  72.8978696  16.6624712 111.4196596  72.3343561  16.5714649 110.6512884
  72.7831091  15.8424616 111.8999089  78.4778255  20.3295680 106.7311061
  77.8266235  20.9149760 106.3445075  79.2722618  20.8601874 106.7906099
  72.4033882  17.4184817 107.1298196  73.1764758  16.8713804 106.9911071
  72.7559281  18.2829066 107.3412657  74.7400160  13.5777483 104.7616645
  74.9925681  13.0559004 104.0000108  73.8024719  13.4143628 104.8643329
  79.7843443  12.5813261 112.5691389  80.5706532  12.1632684 112.2181806
  80.0482147  13.4859353 112.7373037  79.9553520  18.0186111 107.2680045
  79.3199353  18.0920738 107.9800950  79.6250927  18.6079710 106.5899125
  74.4596449  15.4805589 106.9641020  74.3432707  14.8050492 107.6322105
  74.5698709  14.9937963 106.1473173  76.8027990  14.9415736 110.6687710
  76.4386197  14.4146357 111.3800631  77.6595106  14.5514205 110.4954195
  76.4433477   9.9705636 105.6649058  76.6107879  10.8385872 106.0319529
  76.2530646  10.1332917 104.7410347  76.4222697  12.4263293 106.6495725
  76.3022323  12.8720344 107.4881205  75.7275286  12.7748611 106.0909263
  74.1829590  25.1966935 110.2985856  74.1053619  26.1474760 110.3774337
  73.5791233  24.8512807 110.9560783  82.1207764  12.8984766 107.4776059
  83.0325620  13.1312153 107.3023757  81.6117411  13.4821810 106.9151138
  80.7277346  17.8810585 114.8689640  80.0986208  18.0456299 114.1665708
  80.3403008  18.2952194 115.6400605  84.6066578  18.8165023 112.2234004
  83.9217616  19.1963924 111.6731038  84.6910427  19.4260349 112.9565952
  76.2805308  17.6184993 112.1339726  76.7443653  17.8972696 111.3444348
  76.0162106  16.7168437 111.9512816  75.2174194  13.7408145 108.9429291
  75.9198237  14.1929189 109.4103217  74.8854822  13.0991964 109.5709184
  76.4567958  20.5549088 109.0191396  76.3213633  21.4000624 109.4476244
  76.9977771  20.7568365 108.2557330  69.9097356  18.0724526 109.5919321
  70.4221876  18.8667776 109.7424886  70.5620069  17.3750816 109.5252923
  71.7192241  21.1890282 111.6742074  71.8958869  22.1108247 111.4863058
  72.5149074  20.8748701 112.1036454  72.8423556  22.7068456 117.6752417
  73.3930981  22.5785519 116.9029410  72.0035032  23.0063345 117.3247309
  67.8746273  16.4013180 110.3678892  68.7121495  16.8110188 110.1512599
  68.0524540  15.4612622 110.3379085  79.7710705  14.0688261 106.0562725
  79.2557328  14.8392865 106.2951112  79.4988013  13.3953397 106.6795786
  77.3557816   8.9137962 111.1147963  76.4999412   8.5244812 110.9353602
  77.7684768   8.9929922 110.2547748  84.7444979  16.8220615 107.9915898
  83.9674422  16.4831775 107.5471060  85.4236460  16.8273239 107.3170863
  79.5597008  11.9415353 107.8822506  79.2547144  12.2561502 108.7332649
  80.5127450  12.0196773 107.9249839  78.0043440  18.1005576 109.5315460
  77.4764801  17.3658336 109.2188697  77.5030943  18.8780253 109.2855428
  82.9836286  16.2954597 114.6482506  82.3259960  16.9853858 114.7362635
  83.7876685  16.6851029 114.9916492  81.7941745  14.6498969 112.6986448
  82.3073626  15.2828961 113.2008157  82.4442969  14.0500165 112.3329808
  73.0631755  10.7929703 105.9117956  72.2269067  11.1304390 106.2327231
  72.9236524  10.6578683 104.9745093  76.1496040  15.9185786 102.5350433
  75.2423102  15.6875040 102.7341582  76.6467072  15.1223406 102.7224414
  79.0564119  24.6283294 105.4547119  78.3825818  24.9314990 106.0632077
  79.4429941  25.4312374 105.1052576  79.0557623  13.5239841 110.0747469
  79.8029442  14.0361238 109.7654591  79.3249213  13.2023893 110.9351862
  77.3284273  16.0198381 107.0574423  76.4195493  15.7357414 107.1546893
  77.3579357  16.4397460 106.1977730  82.5603541  19.6304971 110.8265590
  82.1065868  18.7895881 110.8830781  81.9297508  20.2666369 111.1640371
  81.5036460  10.5596957 112.0566258  80.7659217  10.0474343 112.3876500
  81.7563234  10.1197338 111.2449535  81.0036480  21.4681468 111.7615409
  81.2959454  22.0286525 111.0427774  81.5135101  21.7610029 112.5168568
  75.8769167  13.6327002 113.1584218  75.9317777  12.6800838 113.0826695
  75.0660369  13.7886441 113.6425517  77.0260361  17.5607125 104.3962501
  76.5879791  16.8442984 103.9368139  77.7670802  17.7883240 103.8347593
  73.8161527  12.2504062 110.9174597  73.0029393  12.5498232 111.3239789
  74.3120522  11.8559750 111.6349079  75.9670105  22.2461819 112.8508862
  75.9246284  22.4722665 111.9217394  76.8832804  22.0125193 112.9994663
  85.1433476  15.8364322 110.4538820  85.0051375  16.0265918 109.5260009
  84.7869695  16.5983705 110.9106871  74.0835906  19.1224848 112.6470824
  74.8776505  18.6275168 112.4453399  73.3727598  18.5942711 112.2838530
  78.9030751  21.5042943 116.9983192  78.9567773  22.0733879 117.7660908
  78.0345532  21.6744828 116.6337229  70.3918670  13.2667929 108.7230577
  69.4616258  13.2052385 108.9400539  70.4876142  12.7443882 107.9267218
  76.6607182  19.6953870 116.3268662  76.5218268  19.3272654 117.1994600
  75.8721778  20.2101509 116.1552619  77.2555334  24.7962966 107.6694198
  77.4307090  24.3251009 108.4839821  76.5688122  25.4228732 107.8975459
  78.2112397  19.0735472 113.7157499  77.8762230  19.0336242 114.6115149
  77.7116343  18.4080188 113.2427910  81.1471589  16.4191507 103.9894559
  80.5300759  15.6938335 103.8927612  80.6788077  17.1800867 103.6461633
  71.8216419  27.9452329 114.4434058  72.0613018  28.5770853 115.1213077
  70.9785616  27.5940369 114.7299417  72.9370135  10.6376931 103.1115863
  72.0599601  10.5165732 102.7478110  73.4127888   9.8463009 102.8594752
  76.3344281  23.7531451 116.8475562  76.2614453  24.5586423 117.3594867
  75.8921674  23.9523417 116.0223584  76.1234061  22.9903221 110.3578384
  75.3401583  23.5324901 110.4516608  76.8226806  23.5077201 110.7572625
  78.7942965  23.6518285 119.0033721  79.5070937  24.2865750 118.9309622
  78.3032993  23.7482151 118.1873723  80.5160492  17.5569538 110.5751013
  79.5816770  17.6771000 110.4055717  80.6937160  16.6542005 110.3111022
  83.9033043  13.3986857 111.1101047  84.3693495  14.2314849 111.0361349
  84.3540543  12.9331839 111.8146305  81.9709274  19.7430679 108.1087199
  82.2469118  19.6287273 109.0181073  81.1013773  19.3448163 108.0699372
  78.6063338  23.9917029 111.7520012  78.7885733  23.1738685 112.2147765
  79.4296324  24.2084722 111.3144902  78.9405504  22.9185215 109.0135061
  79.4693270  22.4077669 108.4005223  79.2033723  22.6027745 109.8780594
  72.2961252  23.9700331 111.7732837  71.6271627  24.4546459 111.2896877
  72.1574121  24.2169552 112.6876215  76.4366520  26.0044075 118.3715495
  76.9884828  26.1675696 119.1364580  76.7772714  26.5948513 117.6995520
  67.6648829  12.2318786 108.5528769  67.9602270  11.3229465 108.4995823
  66.7636864  12.2106526 108.2309771  79.5734907  23.9526050 115.3579177
  79.4486047  23.1515790 114.8490123  80.2313998  24.4472244 114.8693147
  81.6369816  21.7535070 116.9858727  80.6900151  21.6340422 116.9137054
  81.9852589  20.8657568 117.0684989  78.6416249  21.5487787 113.1863080
  78.4941211  20.6204494 113.3670650  79.4669743  21.5707877 112.7020155
  72.5078493  10.2005854 109.0443572  72.8474566  10.7291775 108.3222180
  72.9550614  10.5386260 109.8202138  82.2450371  22.3716345 114.2727952
  83.1696918  22.1659207 114.1352403  82.0765674  22.1232746 115.1817294
  74.4946640   8.6980475 107.2436865  75.2155003   9.0761728 106.7400581
  73.8711945   9.4169352 107.3471842  78.6377763   9.4025624 108.1795197
  78.8541378  10.2850262 107.8784025  78.1571831   9.0111838 107.4500839
  82.0345687  22.8902013 109.6290044  82.2082565  22.3248435 108.8763896
  82.5274578  23.6902908 109.4469534  87.8885078  15.6538436 111.2480344
  88.3316224  14.9045761 110.8499467  87.0111589  15.6448572 110.8654076
  83.0220860  22.2068777 106.7286942  83.7171764  22.8275470 106.9474257
  83.3644010  21.3564128 107.0039320  84.9212283  19.6568483 108.2574273
  85.4463607  19.9955755 107.5323593  84.8334635  18.7215498 108.0737407
  76.6052943  25.7240466 112.6169526  76.1657934  25.2316845 113.3102383
  77.3561060  25.1813434 112.3761601  69.0845282  21.9152007 112.6194154
  69.9103302  21.6155779 112.2392798  68.7339334  21.1459629 113.0683943
  74.0526816  21.2678475 114.6891828  73.4306825  20.6049180 114.3894056
  74.7231683  21.2939607 114.0065475  73.6140323  19.8182398 108.1650288
  73.7628443  20.5017863 107.5116961  74.4206766  19.7987488 108.6799744
  71.3692956  15.8447576 109.1711357  71.1238997  14.9409906 109.3691567
  71.5388870  15.8464726 108.2290835  70.6388603  11.5775934 106.6697519
  69.9457848  11.6520289 106.0137555  70.3940355  10.8136277 107.1919036
  77.1135728  22.3130529 105.6362036  76.5409695  22.9320716 105.1832508
  77.6868522  22.8629891 106.1701958  80.3332988  22.5967679 106.7670618
  81.2663661  22.5313241 106.9703493  80.2456201  23.4323946 106.3085151
  82.9621005  21.9133549 103.7274566  82.8834636  21.5793413 104.6210323
  83.7830671  22.4055317 103.7266038  77.4982527  13.6491342 102.9778088
  78.4441631  13.5197550 103.0466506  77.1196771  12.9106003 103.4547516
  75.6825444  11.5741318 102.9132973  74.7756899  11.2774431 102.9895687
  75.9601425  11.2771136 102.0467260  77.2987509   6.1178208 109.0677215
  76.4888238   5.7725293 109.4432461  77.9871926   5.8085751 109.6564826
  74.4524228   8.4328253 103.0544953  75.3143392   8.7583151 103.3140770
  74.6374572   7.6459749 102.5418018  82.6056865   7.3056780 110.1980176
  82.0255534   7.9641584 109.8158228  82.3392797   6.4834124 109.7867593
  81.3881743   9.4656870 109.2536524  80.5007598   9.7506521 109.0356719
  81.8035732   9.3050633 108.4063801  69.3965993  24.0464621 114.3407969
  69.2620461  23.2865022 113.7745967  68.9798056  24.7705521 113.8736757
  80.5324956  19.2301545 103.3484544  81.2360806  19.4351547 103.9642199
  79.8087605  19.7978307 103.6133627  81.3622767  14.9811406 109.4686814
  81.3057968  15.4379957 108.6294446  81.9151109  14.2202091 109.2909657
  85.1727572  10.7701138 110.2936934  84.9164507  10.3697773 111.1245141
  84.5480441  11.4844932 110.1687073  72.5535119  24.9433938 114.5526411
  72.4367503  25.8879371 114.4505101  71.7327565  24.6407500 114.9412210
  82.4411654  19.6684074 105.3983004  83.2757258  19.2365272 105.2160479
  82.2795997  19.4966088 106.3259898  82.0957546  16.1716187 106.7639343
  82.0406350  16.0060459 105.8227787  81.4703601  16.8792220 106.9201533
  75.4053671   5.6724296 106.3424662  75.3932341   6.6166136 106.4992932
  76.2977093   5.4894442 106.0484123  73.5789633  25.5962200 117.7682340
  74.4816880  25.6285810 118.0848835  73.3527003  24.6662651 117.7828675
  75.3343235  24.3493187 114.4292418  74.3838866  24.3495048 114.3156791
  75.6375721  23.6025921 113.9128453  91.0695929  30.1853725 115.4938181
  91.7074339  30.0660472 114.7901521  90.9516772  31.1334569 115.5526133
  87.8785635  30.1381153 115.4299705  87.5404147  30.0222218 114.5420240
  88.7475403  29.7372318 115.4100711  83.7372451  31.9916630 111.4196596
  83.1737316  31.9006566 110.6512884  83.6224846  31.1716534 111.8999089
  81.2836883  33.4867821 114.2580817  82.0758175  33.1458646 113.8427116
  81.5233533  33.5962796 115.1782970  89.3172009  35.6587597 106.7311061
  88.6659989  36.2441678 106.3445075  90.1116372  36.1893792 106.7906099
  83.2427637  32.7476734 107.1298196  84.0158513  32.2005721 106.9911071
  83.5953036  33.6120984 107.3412657  85.0812679  34.0753117 120.3365095
  84.7902545  34.9798747 120.2211761  85.7169664  34.1169644 121.0509164
  86.0068886  31.4529965 116.9266454  86.6032458  31.2285988 116.2123417
  86.0643858  30.7114711 117.5291902  85.5793914  28.9069400 104.7616645
  85.8319435  28.3850922 104.0000108  84.6418474  28.7435546 104.8643329
  90.6237197  27.9105179 112.5691389  91.4100286  27.4924602 112.2181806
  90.8875902  28.8151271 112.7373037  90.7947275  33.3478029 107.2680045
  90.1593108  33.4212656 107.9800950  90.4644681  33.9371628 106.5899125
  85.2990203  30.8097506 106.9641020  85.1826461  30.1342410 107.6322105
  85.4092463  30.3229880 106.1473173  87.6421744  30.2707654 110.6687710
  87.2779951  29.7438275 111.3800631  88.4988860  29.8806123 110.4954195
  87.2827231  25.2997553 105.6649058  87.4501633  26.1677790 106.0319529
  87.0924400  25.4624835 104.7410347  90.0402564  33.7614532 117.3314889
  89.7403287  34.6639571 117.2230696  89.6953624  33.4946715 118.1836041
  83.4915046  30.2128329 113.3651593  82.5665542  30.0804543 113.5729285
  83.7399459  30.9922548 113.8621535  87.2616452  27.7555211 106.6495725
  87.1416077  28.2012262 107.4881205  86.5669040  28.1040528 106.0909263
  80.8523857  29.8561603 114.1995382  80.9816238  30.1096081 115.1134794
  80.1721308  30.4489311 113.8800037  85.0223344  40.5258853 110.2985856
  84.9447374  41.4766678 110.3774337  84.4184988  40.1804725 110.9560783
  92.9601518  28.2276684 107.4776059  93.8719374  28.4604071 107.3023757
  92.4511165  28.8113728 106.9151138  91.5671100  33.2102502 114.8689640
  90.9379963  33.3748217 114.1665708  91.1796763  33.6244112 115.6400605
  95.4460332  34.1456940 112.2234004  94.7611370  34.5255842 111.6731038
  95.5304182  34.7552267 112.9565952  87.1199062  32.9476910 112.1339726
  87.5837408  33.2264613 111.3444348  86.8555860  32.0460355 111.9512816
  84.0123143  32.4948392 115.0719489  84.5824500  32.9235660 114.4336973
  84.6031255  32.2130977 115.7703675  86.0567948  29.0700063 108.9429291
  86.7591992  29.5221107 109.4103217  85.7248577  28.4283882 109.5709184
  79.7993282  27.3283615 114.2446424  79.0092336  27.5841144 113.7686535
  80.2904530  28.1431953 114.3498465  81.7508028  27.6928195 111.2029901
  80.9539191  27.8046889 111.7213397  81.5233620  28.0314847 110.3370792
  87.5813695  34.2172898 119.1512416  87.6458128  34.6793305 119.9870587
  86.8724619  33.5870263 119.2794725  78.0830985  27.5814106 116.6761415
  78.3339024  28.4661116 116.9418991  78.6190534  27.4018707 115.9036507
  87.2961713  35.8841005 109.0191396  87.1607388  36.7292541 109.4476244
  87.8371525  36.0860283 108.2557330  80.7491110  33.4016443 109.5919321
  81.2615631  34.1959694 109.7424886  81.4013823  32.7042734 109.5252923
  82.5585995  36.5182200 111.6742074  82.7352623  37.4400164 111.4863058
  83.3542829  36.2040619 112.1036454  81.8438352  28.5646832 121.5504237
  81.7291867  27.6632089 121.8511336  80.9882869  28.8110528 121.1989054
  83.6817311  38.0360374 117.6752417  84.2324736  37.9077437 116.9029410
  82.8428786  38.3355263 117.3247309  87.4784482  34.3011501 122.0196648
  88.0112818  33.5399790 121.7895956  86.9498563  34.0085153 122.7620802
  78.7140027  31.7305098 110.3678892  79.5515249  32.1402106 110.1512599
  78.8918295  30.7904540 110.3379085  90.6104459  29.3980178 106.0562725
  90.0951083  30.1684783 106.2951112  90.3381768  28.7245315 106.6795786
  88.1951570  24.2429879 111.1147963  87.3393167  23.8536730 110.9353602
  88.6078522  24.3221840 110.2547748  85.9693603  21.8614952 114.5205704
  86.8346600  21.6657761 114.1611594  86.0371112  21.6325304 115.4475061
  95.5838733  32.1512533 107.9915898  94.8068176  31.8123693 107.5471060
  96.2630214  32.1565156 107.3170863  90.3990762  27.2707271 107.8822506
  90.0940898  27.5853420 108.7332649  91.3521205  27.3488690 107.9249839
  88.8437194  33.4297494 109.5315460  88.3158556  32.6950253 109.2188697
  88.3424697  34.2072170 109.2855428  93.8230040  31.6246514 114.6482506
  93.1653715  32.3145776 114.7362635  94.6270440  32.0142946 114.9916492
  83.5755922  24.0917160 111.8922071  84.1499674  23.8692342 111.1595264
  84.1626904  24.1605855 112.6450673  92.6335499  29.9790887 112.6986448
  93.1467381  30.6120879 113.2008157  93.2836723  29.3792083 112.3329808
  83.9025509  26.1221621 105.9117956  83.0662821  26.4596308 106.2327231
  83.7630279  25.9870601 104.9745093  85.8778590  20.9658409 110.6197141
  85.2243002  20.6507426 109.9953755  85.8359064  20.3434150 111.3456964
  86.9889794  31.2477704 102.5350433  86.0816856  31.0166958 102.7341582
  87.4860826  30.4515323 102.7224414  89.8957873  39.9575211 105.4547119
  89.2219572  40.2606908 106.0632077  90.2823695  40.7604292 105.1052576
  89.1116330  27.4540343 114.9444788  88.1938891  27.6755290 114.7866476
  89.5276474  27.5286653 114.0856496  89.8951378  28.8531758 110.0747469
  90.6423197  29.3653155 109.7654591  90.1642967  28.5315811 110.9351862
  88.1678028  31.3490299 107.0574423  87.2589247  31.0649332 107.1546893
  88.1973112  31.7689378 106.1977730  93.3997295  34.9596888 110.8265590
  92.9459622  34.1187798 110.8830781  92.7691262  35.5958287 111.1640371
  92.3430215  25.8888875 112.0566258  91.6052972  25.3766261 112.3876500
  92.5956988  25.4489256 111.2449535  91.8430235  36.7973385 111.7615409
  92.1353209  37.3578442 111.0427774  92.3528855  37.0901946 112.5168568
  78.7366198  29.0695813 111.0389625  78.5390598  28.4765174 110.3140692
  78.1812862  28.7648023 111.7565564  86.7162922  28.9618920 113.1584218
  86.7711532  28.0092756 113.0826695  85.9054124  29.1178359 113.6425517
  87.8654116  32.8899043 104.3962501  87.4273546  32.1734902 103.9368139
  88.6064557  33.1175157 103.8347593  84.6555282  27.5795979 110.9174597
  83.8423147  27.8790150 111.3239789  85.1514276  27.1851668 111.6349079
  86.8063860  37.5753736 112.8508862  86.7640039  37.8014583 111.9217394
  87.7226559  37.3417111 112.9994663  95.9827231  31.1656240 110.4538820
  95.8445129  31.3557836 109.5260009  95.6263449  31.9275623 110.9106871
  84.1469357  25.1514335 116.5335832  84.7868736  25.0103094 115.8358795
  83.3146887  24.8648848 116.1574434  84.9229661  34.4516765 112.6470824
  85.7170259  33.9567085 112.4453399  84.2121353  33.9234628 112.2838530
  89.7424505  36.8334861 116.9983192  89.7961527  37.4025797 117.7660908
  88.8739286  37.0036746 116.6337229  81.2312424  28.5959847 108.7230577
  80.3010012  28.5344303 108.9400539  81.3269896  28.0735800 107.9267218
  81.1497973  25.1214660 111.3108819  81.4104790  26.0359993 111.2017979
  81.9715145  24.6539102 111.4605432  82.6222898  26.5352417 118.4807643
  83.2945952  26.3269779 117.8320292  81.7952685  26.3374503 118.0412876
  88.7012605  30.9995123 118.5570124  89.6304665  31.1506282 118.3839091
  88.2803635  31.0879144 117.7018770  87.5000937  35.0245787 116.3268662
  87.3612022  34.6564572 117.1994600  86.7115533  35.5393427 116.1552619
  88.0949089  40.1254884 107.6694198  88.2700844  39.6542927 108.4839821
  87.4081877  40.7520650 107.8975459  89.0506152  34.4027390 113.7157499
  88.7155984  34.3628160 114.6115149  88.5510097  33.7372106 113.2427910
  83.0250396  29.8095020 119.2410080  82.8870194  29.0775259 119.8421620
  83.9355319  29.7203920 118.9594268  91.9865343  31.7483424 103.9894559
  91.3694514  31.0230252 103.8927612  91.5181832  32.5092785 103.6461633
  85.6532696  29.5214979 118.7293760  86.3632315  28.8808172 118.6880379
  85.6102004  29.7727874 119.6519941  82.6610174  43.2744247 114.4434058
  82.9006772  43.9062771 115.1213077  81.8179370  42.9232287 114.7299417
  83.7763889  25.9668849 103.1115863  82.8993356  25.8457649 102.7478110
  84.2521642  25.1754927 102.8594752  75.2966029  30.7546008 113.2057370
  75.9837069  30.4407738 112.6178386  75.1414158  31.6587373 112.9324622
  80.1000752  25.6436205 117.6342394  80.0158940  25.0361874 116.8992804
  79.2783458  26.1345223 117.6351890  87.1738036  39.0823369 116.8475562
  87.1008207  39.8878340 117.3594867  86.7315429  39.2815335 116.0223584
  86.9627815  38.3195139 110.3578384  86.1795337  38.8616819 110.4516608
  87.6620560  38.8369119 110.7572625  90.2724465  24.1289768 113.0012589
  90.7693165  23.3759731 112.6813659  89.5011447  24.1654085 112.4355798
  89.6336719  38.9810203 119.0033721  90.3464691  39.6157668 118.9309622
  89.1426748  39.0774069 118.1873723  91.3554246  32.8861456 110.5751013
  90.4210525  33.0062918 110.4055717  91.5330915  31.9833922 110.3111022
  86.8559434  26.2707151 112.7284274  86.4857222  25.7178192 113.4165179
  87.3518527  25.6665285 112.1759274  94.7426797  28.7278775 111.1101047
  95.2087250  29.5606767 111.0361349  95.1934298  28.2623757 111.8146305
  84.6848633  36.7304646 119.8239292  85.3858092  37.3641129 119.9768686
  84.2143748  37.0719378 119.0634931  92.8103029  35.0722596 108.1087199
  93.0862872  34.9579191 109.0181073  91.9407527  34.6740081 108.0699372
  89.4457093  39.3208947 111.7520012  89.6279487  38.5030603 112.2147765
  90.2690079  39.5376639 111.3144902  89.7799258  38.2477132 109.0135061
  90.3087024  37.7369587 108.4005223  90.0427478  37.9319662 109.8780594
  80.2816351  36.2641001 116.7570394  80.8669788  35.5184689 116.8898299
  80.0841189  36.5744958 117.6407058  83.1355006  39.2992249 111.7732837
  82.4665381  39.7838377 111.2896877  82.9967876  39.5461469 112.6876215
  74.8734006  28.8346602 115.4774838  74.9118105  28.3010192 116.2711956
  74.3674298  28.3081807 114.8585815  87.2760275  41.3335992 118.3715495
  87.8278583  41.4967614 119.1364580  87.6166468  41.9240430 117.6995520
  82.2524768  23.6811142 118.9737380  82.3166094  24.5425973 118.5614778
  82.1891888  23.0685144 118.2409738  78.5042583  27.5610704 108.5528769
  78.7996024  26.6521382 108.4995823  77.6030619  27.5398443 108.2309771
  90.4128662  39.2817968 115.3579177  90.2879801  38.4807708 114.8490123
  91.0707753  39.7764161 114.8693147  82.0336830  25.6366700 114.5356318
  81.3123416  26.2502668 114.3963791  82.8230086  26.1724465 114.4572963
  92.4763570  37.0826988 116.9858727  91.5293906  36.9632339 116.9137054
  92.8246343  36.1949486 117.0684989  80.2330425  25.2424802 108.6768094
  79.9043131  24.3622180 108.4943200  80.5869795  25.1872470 109.5644483
  89.4810004  36.8779704 113.1863080  89.3334966  35.9496412 113.3670650
  90.3063497  36.8999795 112.7020155  83.3472248  25.5297771 109.0443572
  83.6868320  26.0583693 108.3222180  83.7944368  25.8678177 109.8202138
  93.0844125  37.7008263 114.2727952  94.0090673  37.4951124 114.1352403
  92.9159429  37.4524664 115.1817294  85.3340395  24.0272393 107.2436865
  86.0548757  24.4053646 106.7400581  84.7105699  24.7461270 107.3471842
  89.4771518  24.7317542 108.1795197  89.6935132  25.6142180 107.8784025
  88.9965585  24.3403755 107.4500839  84.2170739  27.6903255 114.7565941
  84.0715320  28.0043558 115.6490223  83.7395943  28.3088155 114.2036840
  86.0767122  24.6805803 114.8046831  86.0628691  23.7846896 114.4679129
  86.7939550  24.6876467 115.4385117  92.8739442  38.2193930 109.6290044
  93.0476319  37.6540353 108.8763896  93.3668333  39.0194825 109.4469534
  78.6916401  30.2308599 117.6953603  78.1469869  31.0068407 117.8273877
  79.5695751  30.5779404 117.5372724  85.4804018  23.5620183 110.0734401
  85.6019929  22.6336830 110.2725289  85.1906060  23.5758869 109.1612717
  88.3495208  21.2475094 113.2101121  88.3716905  21.3114427 112.2553101
  88.7663267  20.4079602 113.4041627  98.7278833  30.9830353 111.2480344
  99.1709979  30.2337679 110.8499467  97.8505343  30.9740490 110.8654076
  93.8614614  37.5360695 106.7286942  94.5565519  38.1567387 106.9474257
  94.2037764  36.6856046 107.0039320  79.4782423  29.3578496 120.5883759
  78.7364159  29.5061131 121.1748390  79.1575168  29.6186761 119.7250509
  95.7606037  34.9860400 108.2574273  96.2857361  35.3247673 107.5323593
  95.6728390  34.0507416 108.0737407  87.4226086  38.8994474 120.3864149
  87.7313212  38.6543621 121.2586849  88.2201568  39.1041112 119.8983020
  87.4446698  41.0532384 112.6169526  87.0051688  40.5608762 113.3102383
  88.1954815  40.5105351 112.3761601  79.9239037  37.2443924 112.6194154
  80.7497057  36.9447696 112.2392798  79.5733089  36.4751547 113.0683943
  84.8920570  36.5970393 114.6891828  84.2700579  35.9341098 114.3894056
  85.5625437  36.6231525 114.0065475  78.1247642  35.1630251 113.5783088
  77.2879550  34.7352425 113.3967089  78.0971287  35.3562694 114.5153879
  84.4534077  35.1474316 108.1650288  84.6022197  35.8309780 107.5116961
  85.2600520  35.1279406 108.6799744  82.2086710  31.1739494 109.1711357
  81.9632752  30.2701824 109.3691567  82.3782625  31.1756644 108.2290835
  81.4782358  26.9067851 106.6697519  80.7851602  26.9812206 106.0137555
  81.2334109  26.1428195 107.1919036  87.9529483  37.6422446 105.6362036
  87.3803450  38.2612634 105.1832508  88.5262276  38.1921808 106.1701958
  91.1726742  37.9259597 106.7670618  92.1057415  37.8605158 106.9703493
  91.0849955  38.7615863 106.3085151  93.8014759  37.2425467 103.7274566
  93.7228391  36.9085331 104.6210323  94.6224426  37.7347235 103.7266038
  88.3376281  28.9783259 102.9778088  89.2835386  28.8489467 103.0466506
  87.9590526  28.2397921 103.4547516  86.5219198  26.9033236 102.9132973
  85.6150654  26.6066348 102.9895687  86.7995179  26.6063054 102.0467260
  77.4397139  28.2239599 113.3632020  77.1199923  27.3704907 113.0706394
  76.8930567  28.4388177 114.1189987  81.2177046  30.9402040 117.0801526
  81.4363056  31.8719148 117.0989560  81.6302820  30.5810014 117.8656330
  88.1381264  21.4470125 109.0677215  87.3281992  21.1017210 109.4432461
  88.8265681  21.1377669 109.6564826  90.0671812  20.5248172 110.6901511
  90.6202851  20.9443626 111.3491534  90.3041899  19.5983920 110.7324467
  85.2917983  23.7620171 103.0544953  86.1537147  24.0875069 103.3140770
  85.4768327  22.9751667 102.5418018  77.3085399  31.8442511 115.3325141
  76.6148870  31.4296463 114.8195096  78.0558390  31.8863047 114.7358560
  93.4450619  22.6348697 110.1980176  92.8649288  23.2933501 109.8158228
  93.1786552  21.8126042 109.7867593  79.2222141  31.7760764 113.2091156
  79.1992829  31.8748452 112.2573039  79.5322778  32.6225915 113.5308322
  81.8809519  33.8336919 117.3237771  82.8352773  33.8020862 117.2567702
  81.6822043  33.3727543 118.1387997  82.4708901  32.4038035 119.8908568
  83.2901790  32.8982114 119.9143406  82.7445709  31.4870004 119.8626136
  92.2275497  24.7948788 109.2536524  91.3401352  25.0798438 109.0356719
  92.6429486  24.6342551 108.4063801  80.2359748  39.3756539 114.3407969
  80.1014216  38.6156940 113.7745967  79.8191810  40.0997439 113.8736757
  91.3718711  34.5593462 103.3484544  92.0754561  34.7643465 103.9642199
  90.6481360  35.1270224 103.6133627  92.2016521  30.3103324 109.4686814
  92.1451722  30.7671875 108.6294446  92.7544864  29.5494008 109.2909657
  96.0121327  26.0993055 110.2936934  95.7558261  25.6989691 111.1245141
  95.3874195  26.8136849 110.1687073  83.3928874  40.2725856 114.5526411
  83.2761258  41.2171288 114.4505101  82.5721320  39.9699417 114.9412210
  93.2805408  34.9975992 105.3983004  94.1151012  34.5657190 105.2160479
  93.1189751  34.8258005 106.3259898  92.9351300  31.5008105 106.7639343
  92.8800104  31.3352376 105.8227787  92.3097356  32.2084138 106.9201533
  77.7243815  26.7376169 120.5900765  78.3702679  26.2275123 121.0787991
  77.5160966  27.4744851 121.1644191  86.2447426  21.0016214 106.3424662
  86.2326096  21.9458054 106.4992932  87.1370848  20.8186359 106.0484123
  84.4183388  40.9254118 117.7682340  85.3210634  40.9577728 118.0848835
  84.1920758  39.9954569 117.7828675  86.1736990  39.6785104 114.4292418
  85.2232621  39.6786966 114.3156791  86.4769476  38.9317839 113.9128453
 101.9089683  45.5145643 115.4938181 102.5468093  45.3952390 114.7901521
 101.7910526  46.4626487 115.5526133  98.7179390  45.4673071 115.4299705
  98.3797901  45.3514135 114.5420240  99.5869158  45.0664236 115.4100711
  94.5766205  47.3208547 111.4196596  94.0131070  47.2298484 110.6512884
  94.4618600  46.5008452 111.8999089  92.1230637  48.8159739 114.2580817
  92.9151929  48.4750563 113.8427116  92.3627287  48.9254714 115.1782970
 100.1565764  50.9879515 106.7311061  99.5053744  51.5733595 106.3445075
 100.9510127  51.5185710 106.7906099  94.0821391  48.0768652 107.1298196
  94.8552267  47.5297639 106.9911071  94.4346790  48.9412901 107.3412657
  95.9206434  49.4045034 120.3365095  95.6296300  50.3090665 120.2211761
  96.5563418  49.4461562 121.0509164  96.8462641  46.7821883 116.9266454
  97.4426213  46.5577905 116.2123417  96.9037612  46.0406628 117.5291902
  96.4187669  44.2361318 104.7616645  96.6713190  43.7142839 104.0000108
  95.4812228  44.0727464 104.8643329 101.4630952  43.2397097 112.5691389
 102.2494041  42.8216520 112.2181806 101.7269656  44.1443189 112.7373037
 101.6341029  48.6769947 107.2680045 100.9986862  48.7504573 107.9800950
 101.3038436  49.2663546 106.5899125  96.1383958  46.1389424 106.9641020
  96.0220216  45.4634328 107.6322105  96.2486218  45.6521798 106.1473173
  98.4815499  45.5999571 110.6687710  98.1173706  45.0730192 111.3800631
  99.3382615  45.2098040 110.4954195  98.1220986  40.6289471 105.6649058
  98.2895388  41.4969707 106.0319529  97.9318155  40.7916753 104.7410347
 100.8796319  49.0906450 117.3314889 100.5797042  49.9931489 117.2230696
 100.5347378  48.8238633 118.1836041  94.3308800  45.5420247 113.3651593
  93.4059297  45.4096461 113.5729285  94.5793213  46.3214466 113.8621535
  98.1010206  43.0847128 106.6495725  97.9809832  43.5304179 107.4881205
  97.4062795  43.4332446 106.0909263  91.6917611  45.1853520 114.1995382
  91.8209992  45.4387999 115.1134794  91.0115063  45.7781228 113.8800037
  95.8617099  55.8550770 110.2985856  95.7841128  56.8058595 110.3774337
  95.2578742  55.5096643 110.9560783 103.7995273  43.5568602 107.4776059
 104.7113129  43.7895988 107.3023757 103.2904920  44.1405646 106.9151138
 102.4064855  48.5394420 114.8689640 101.7773717  48.7040134 114.1665708
 102.0190517  48.9536030 115.6400605 106.2854087  49.4748858 112.2234004
 105.6005125  49.8547759 111.6731038 106.3697936  50.0844185 112.9565952
  97.9592817  48.2768828 112.1339726  98.4231162  48.5556531 111.3444348
  97.6949615  47.3752273 111.9512816  94.8516898  47.8240310 115.0719489
  95.4218255  48.2527578 114.4336973  95.4425010  47.5422894 115.7703675
  96.8961703  44.3991981 108.9429291  97.5985746  44.8513024 109.4103217
  96.5642331  43.7575799 109.5709184  90.6387037  42.6575533 114.2446424
  89.8486091  42.9133062 113.7686535  91.1298284  43.4723871 114.3498465
  92.5901782  43.0220112 111.2029901  91.7932945  43.1338807 111.7213397
  92.3627374  43.3606765 110.3370792  98.4207450  49.5464816 119.1512416
  98.4851882  50.0085223 119.9870587  97.7118374  48.9162181 119.2794725
  88.9224740  42.9106024 116.6761415  89.1732778  43.7953034 116.9418991
  89.4584288  42.7310625 115.9036507  98.1355467  51.2132923 109.0191396
  98.0001142  52.0584459 109.4476244  98.6765280  51.4152201 108.2557330
  91.5884865  48.7308361 109.5919321  92.1009385  49.5251611 109.7424886
  92.2407578  48.0334652 109.5252923  93.3979750  51.8474117 111.6742074
  93.5746378  52.7692082 111.4863058  94.1936583  51.5332537 112.1036454
  92.6832106  43.8938749 121.5504237  92.5685621  42.9924007 121.8511336
  91.8276624  44.1402446 121.1989054  94.5211065  53.3652291 117.6752417
  95.0718490  53.2369355 116.9029410  93.6822541  53.6647180 117.3247309
  98.3178236  49.6303419 122.0196648  98.8506573  48.8691707 121.7895956
  97.7892317  49.3377071 122.7620802  89.5533782  47.0597015 110.3678892
  90.3909004  47.4694024 110.1512599  89.7312049  46.1196458 110.3379085
 101.4498214  44.7272096 106.0562725 100.9344837  45.4976701 106.2951112
 101.1775522  44.0537232 106.6795786  99.0345325  39.5721797 111.1147963
  98.1786921  39.1828647 110.9353602  99.4472277  39.6513758 110.2547748
  96.8087357  37.1906870 114.5205704  97.6740354  36.9949679 114.1611594
  96.8764866  36.9617222 115.4475061 106.4232488  47.4804451 107.9915898
 105.6461931  47.1415610 107.5471060 107.1023969  47.4857074 107.3170863
 101.2384517  42.5999188 107.8822506 100.9334653  42.9145337 108.7332649
 102.1914959  42.6780608 107.9249839  99.6830949  48.7589412 109.5315460
  99.1552310  48.0242171 109.2188697  99.1818452  49.5364088 109.2855428
 104.6623795  46.9538432 114.6482506 104.0047469  47.6437693 114.7362635
 105.4664194  47.3434864 114.9916492  94.4149676  39.4209078 111.8922071
  94.9893428  39.1984259 111.1595264  95.0020659  39.4897772 112.6450673
 103.4729254  45.3082805 112.6986448 103.9861135  45.9412797 113.2008157
 104.1230477  44.7084000 112.3329808  94.7419264  41.4513539 105.9117956
  93.9056576  41.7888225 106.2327231  94.6024033  41.3162519 104.9745093
  96.7172344  36.2950327 110.6197141  96.0636756  35.9799344 109.9953755
  96.6752818  35.6726067 111.3456964  97.8283549  46.5769622 102.5350433
  96.9210611  46.3458875 102.7341582  98.3254581  45.7807241 102.7224414
 100.7351628  55.2867129 105.4547119 100.0613327  55.5898826 106.0632077
 101.1217450  56.0896209 105.1052576  99.9510084  42.7832260 114.9444788
  99.0332646  43.0047207 114.7866476 100.3670228  42.8578571 114.0856496
 100.7345132  44.1823676 110.0747469 101.4816951  44.6945073 109.7654591
 101.0036722  43.8607729 110.9351862  99.0071782  46.6782217 107.0574423
  98.0983002  46.3941249 107.1546893  99.0366866  47.0981295 106.1977730
 104.2391050  50.2888806 110.8265590 103.7853377  49.4479716 110.8830781
 103.6085017  50.9250205 111.1640371 103.1823969  41.2180792 112.0566258
 102.4446726  40.7058178 112.3876500 103.4350743  40.7781174 111.2449535
 102.6823989  52.1265303 111.7615409 102.9746963  52.6870360 111.0427774
 103.1922610  52.4193864 112.5168568  89.5759953  44.3987731 111.0389625
  89.3784353  43.8057091 110.3140692  89.0206617  44.0939941 111.7565564
  97.5556676  44.2910837 113.1584218  97.6105286  43.3384674 113.0826695
  96.7447878  44.4470276 113.6425517  98.7047870  48.2190960 104.3962501
  98.2667300  47.5026819 103.9368139  99.4458311  48.4467075 103.8347593
  95.4949036  42.9087897 110.9174597  94.6816902  43.2082068 111.3239789
  95.9908031  42.5143586 111.6349079  97.6457614  52.9045654 112.8508862
  97.6033793  53.1306500 111.9217394  98.5620313  52.6709029 112.9994663
 106.8220985  46.4948157 110.4538820 106.6838884  46.6849753 109.5260009
 106.4657204  47.2567540 110.9106871  94.9863111  40.4806253 116.5335832
  95.6262490  40.3395012 115.8358795  94.1540642  40.1940766 116.1574434
  95.7623415  49.7808683 112.6470824  96.5564014  49.2859003 112.4453399
  95.0515107  49.2526546 112.2838530 100.5818260  52.1626778 116.9983192
 100.6355282  52.7317715 117.7660908  99.7133041  52.3328664 116.6337229
  92.0706178  43.9251765 108.7230577  91.1403767  43.8636220 108.9400539
  92.1663650  43.4027717 107.9267218  91.9891728  40.4506578 111.3108819
  92.2498545  41.3651911 111.2017979  92.8108900  39.9831020 111.4605432
  93.4616653  41.8644335 118.4807643  94.1339706  41.6561697 117.8320292
  92.6346439  41.6666421 118.0412876  99.5406359  46.3287041 118.5570124
 100.4698419  46.4798200 118.3839091  99.1197389  46.4171061 117.7018770
  98.3394691  50.3537705 116.3268662  98.2005777  49.9856489 117.1994600
  97.5509287  50.8685344 116.1552619  98.9342843  55.4546801 107.6694198
  99.1094599  54.9834845 108.4839821  98.2475631  56.0812568 107.8975459
  99.8899906  49.7319308 113.7157499  99.5549739  49.6920078 114.6115149
  99.3903852  49.0664024 113.2427910  93.8644150  45.1386938 119.2410080
  93.7263948  44.4067176 119.8421620  94.7749074  45.0495838 118.9594268
 102.8259098  47.0775342 103.9894559 102.2088268  46.3522170 103.8927612
 102.3575586  47.8384702 103.6461633  96.4926451  44.8506897 118.7293760
  97.2026069  44.2100089 118.6880379  96.4495759  45.1019792 119.6519941
  93.5003928  58.6036164 114.4434058  93.7400527  59.2354688 115.1213077
  92.6573125  58.2524204 114.7299417  94.6157644  41.2960766 103.1115863
  93.7387110  41.1749567 102.7478110  95.0915397  40.5046845 102.8594752
  86.1359784  46.0837926 113.2057370  86.8230824  45.7699656 112.6178386
  85.9807913  46.9879291 112.9324622  90.9394506  40.9728123 117.6342394
  90.8552695  40.3653792 116.8992804  90.1177212  41.4637141 117.6351890
  98.0131790  54.4115287 116.8475562  97.9401962  55.2170258 117.3594867
  97.5709183  54.6107252 116.0223584  97.8021570  53.6487057 110.3578384
  97.0189092  54.1908737 110.4516608  98.5014315  54.1661036 110.7572625
 101.1118220  39.4581686 113.0012589 101.6086919  38.7051648 112.6813659
 100.3405201  39.4946003 112.4355798 100.4730474  54.3102121 119.0033721
 101.1858446  54.9449585 118.9309622  99.9820502  54.4065987 118.1873723
 102.1948001  48.2153373 110.5751013 101.2604279  48.3354836 110.4055717
 102.3724669  47.3125840 110.3111022  97.6953189  41.5999069 112.7284274
  97.3250976  41.0470109 113.4165179  98.1912281  40.9957203 112.1759274
 105.5820552  44.0570693 111.1101047 106.0481004  44.8898684 111.0361349
 106.0328052  43.5915674 111.8146305  95.5242387  52.0596564 119.8239292
  96.2251847  52.6933047 119.9768686  95.0537502  52.4011296 119.0634931
 103.6496783  50.4014514 108.1087199 103.9256627  50.2871108 109.0181073
 102.7801282  50.0031999 108.0699372 100.2850847  54.6500865 111.7520012
 100.4673242  53.8322521 112.2147765 101.1083833  54.8668557 111.3144902
 100.6193013  53.5769050 109.0135061 101.1480779  53.0661504 108.4005223
 100.8821232  53.2611580 109.8780594  91.1210105  51.5932919 116.7570394
  91.7063542  50.8476607 116.8898299  90.9234944  51.9036876 117.6407058
  93.9748760  54.6284167 111.7732837  93.3059136  55.1130294 111.2896877
  93.8361630  54.8753387 112.6876215  85.7127760  44.1638519 115.4774838
  85.7511860  43.6302110 116.2711956  85.2068053  43.6373725 114.8585815
  98.1154029  56.6627910 118.3715495  98.6672337  56.8259532 119.1364580
  98.4560223  57.2532348 117.6995520  93.0918522  39.0103060 118.9737380
  93.1559849  39.8717891 118.5614778  93.0285643  38.3977062 118.2409738
  89.3436338  42.8902622 108.5528769  89.6389779  41.9813300 108.4995823
  88.4424373  42.8690361 108.2309771 101.2522416  54.6109886 115.3579177
 101.1273556  53.8099625 114.8490123 101.9101507  55.1056079 114.8693147
  92.8730585  40.9658618 114.5356318  92.1517170  41.5794586 114.3963791
  93.6623840  41.5016383 114.4572963 103.3157325  52.4118906 116.9858727
 102.3687660  52.2924257 116.9137054 103.6640098  51.5241404 117.0684989
  91.0724179  40.5716719 108.6768094  90.7436885  39.6914098 108.4943200
  91.4263550  40.5164388 109.5644483 100.3203758  52.2071622 113.1863080
 100.1728720  51.2788329 113.3670650 101.1457252  52.2291713 112.7020155
  94.1866002  40.8589689 109.0443572  94.5262075  41.3875610 108.3222180
  94.6338123  41.1970095 109.8202138 103.9237880  53.0300181 114.2727952
 104.8484427  52.8243042 114.1352403 103.7553183  52.7816582 115.1817294
  96.1734149  39.3564311 107.2436865  96.8942512  39.7345563 106.7400581
  95.5499454  40.0753187 107.3471842 100.3165272  40.0609460 108.1795197
 100.5328887  40.9434097 107.8784025  99.8359339  39.6695673 107.4500839
  95.0564494  43.0195173 114.7565941  94.9109074  43.3335476 115.6490223
  94.5789697  43.6380073 114.2036840  96.9160877  40.0097721 114.8046831
  96.9022445  39.1138814 114.4679129  97.6333305  40.0168385 115.4385117
 103.7133196  53.5485848 109.6290044 103.8870074  52.9832271 108.8763896
 104.2062087  54.3486743 109.4469534  89.5310156  45.5600517 117.6953603
  88.9863624  46.3360325 117.8273877  90.4089506  45.9071322 117.5372724
  96.3197773  38.8912101 110.0734401  96.4413684  37.9628747 110.2725289
  96.0299815  38.9050787 109.1612717  99.1888963  36.5767011 113.2101121
  99.2110660  36.6406345 112.2553101  99.6057022  35.7371520 113.4041627
 109.5672587  46.3122271 111.2480344 110.0103733  45.5629596 110.8499467
 108.6899098  46.3032407 110.8654076 104.7008369  52.8652612 106.7286942
 105.3959273  53.4859305 106.9474257 105.0431519  52.0147964 107.0039320
  90.3176178  44.6870413 120.5883759  89.5757914  44.8353049 121.1748390
  89.9968922  44.9478679 119.7250509 106.5999792  50.3152318 108.2574273
 107.1251116  50.6539591 107.5323593 106.5122144  49.3799333 108.0737407
  98.2619840  54.2286392 120.3864149  98.5706967  53.9835538 121.2586849
  99.0595322  54.4333030 119.8983020  98.2840452  56.3824301 112.6169526
  97.8445443  55.8900680 113.3102383  99.0348569  55.8397269 112.3761601
  90.7632791  52.5735842 112.6194154  91.5890811  52.2739614 112.2392798
  90.4126843  51.8043465 113.0683943  95.7314325  51.9262310 114.6891828
  95.1094334  51.2633015 114.3894056  96.4019191  51.9523442 114.0065475
  88.9641396  50.4922169 113.5783088  88.1273305  50.0644343 113.3967089
  88.9365042  50.6854612 114.5153879  95.2927831  50.4766234 108.1650288
  95.4415952  51.1601698 107.5116961  96.0994275  50.4571324 108.6799744
  93.0480464  46.5031411 109.1711357  92.8026506  45.5993741 109.3691567
  93.2176379  46.5048562 108.2290835  92.3176112  42.2359769 106.6697519
  91.6245357  42.3104124 106.0137555  92.0727864  41.4720113 107.1919036
  98.7923237  52.9714364 105.6362036  98.2197204  53.5904551 105.1832508
  99.3656031  53.5213726 106.1701958 102.0120497  53.2551514 106.7670618
 102.9451170  53.1897076 106.9703493 101.9243710  54.0907781 106.3085151
 104.6408513  52.5717385 103.7274566 104.5622145  52.2377248 104.6210323
 105.4618180  53.0639153 103.7266038  99.1770036  44.3075177 102.9778088
 100.1229140  44.1781385 103.0466506  98.7984280  43.5689839 103.4547516
  97.3612953  42.2325153 102.9132973  96.4544408  41.9358266 102.9895687
  97.6388934  41.9354971 102.0467260  88.2790893  43.5531517 113.3632020
  87.9593677  42.6996825 113.0706394  87.7324321  43.7680095 114.1189987
  92.0570801  46.2693958 117.0801526  92.2756810  47.2011066 117.0989560
  92.4696574  45.9101932 117.8656330  98.9775018  36.7762043 109.0677215
  98.1675747  36.4309128 109.4432461  99.6659435  36.4669587 109.6564826
 100.9065567  35.8540090 110.6901511 101.4596605  36.2735543 111.3491534
 101.1435653  34.9275838 110.7324467  96.1311737  39.0912089 103.0544953
  96.9930901  39.4166987 103.3140770  96.3162081  38.3043584 102.5418018
  88.1479153  47.1734428 115.3325141  87.4542624  46.7588381 114.8195096
  88.8952144  47.2154965 114.7358560 104.2844374  37.9640615 110.1980176
 103.7043043  38.6225419 109.8158228 104.0180306  37.1417960 109.7867593
  90.0615896  47.1052682 113.2091156  90.0386584  47.2040369 112.2573039
  90.3716532  47.9517833 113.5308322  92.7203273  49.1628837 117.3237771
  93.6746527  49.1312779 117.2567702  92.5215797  48.7019461 118.1387997
  93.3102656  47.7329953 119.8908568  94.1295545  48.2274032 119.9143406
  93.5839463  46.8161921 119.8626136 103.0669252  40.1240705 109.2536524
 102.1795107  40.4090356 109.0356719 103.4823241  39.9634469 108.4063801
  91.0753502  54.7048457 114.3407969  90.9407970  53.9448857 113.7745967
  90.6585565  55.4289356 113.8736757 102.2112465  49.8885380 103.3484544
 102.9148315  50.0935383 103.9642199 101.4875114  50.4562142 103.6133627
 103.0410276  45.6395241 109.4686814 102.9845477  46.0963793 108.6294446
 103.5938618  44.8785926 109.2909657 106.8515081  41.4284973 110.2936934
 106.5952016  41.0281609 111.1245141 106.2267949  42.1428767 110.1687073
  94.2322628  55.6017774 114.5526411  94.1155012  56.5463206 114.4505101
  93.4115074  55.2991335 114.9412210 104.1199163  50.3267909 105.3983004
 104.9544767  49.8949108 105.2160479 103.9583506  50.1549923 106.3259898
 103.7745055  46.8300023 106.7639343 103.7193859  46.6644294 105.8227787
 103.1491110  47.5376055 106.9201533  88.5637570  42.0668087 120.5900765
  89.2096433  41.5567041 121.0787991  88.3554721  42.8036769 121.1644191
  97.0841180  36.3308132 106.3424662  97.0719850  37.2749971 106.4992932
  97.9764602  36.1478277 106.0484123  95.2577142  56.2546035 117.7682340
  96.1604389  56.2869646 118.0848835  95.0314512  55.3246486 117.7828675
  97.0130744  55.0077022 114.4292418  96.0626375  55.0078884 114.3156791
  97.3163230  54.2609757 113.9128453 105.4159960  62.6500465 111.4196596
 104.8524825  62.5590402 110.6512884 105.3012355  61.8300369 111.8999089
 102.9624392  64.1451656 114.2580817 103.7545684  63.8042481 113.8427116
 103.2021042  64.2546632 115.1782970 110.9959518  66.3171433 106.7311061
 110.3447498  66.9025513 106.3445075 111.7903881  66.8477627 106.7906099
 104.9215146  63.4060570 107.1298196 105.6946022  62.8589557 106.9911071
 105.2740544  64.2704819 107.3412657 107.2581423  59.5653236 104.7616645
 107.5106944  59.0434757 104.0000108 106.3205983  59.4019381 104.8643329
 112.3024706  58.5689014 112.5691389 113.0887795  58.1508437 112.2181806
 112.5663411  59.4735106 112.7373037 112.4734784  64.0061865 107.2680045
 111.8380617  64.0796491 107.9800950 112.1432190  64.5955463 106.5899125
 106.9777712  61.4681342 106.9641020 106.8613970  60.7926245 107.6322105
 107.0879972  60.9813716 106.1473173 109.3209253  60.9291489 110.6687710
 108.9567460  60.4022110 111.3800631 110.1776369  60.5389958 110.4954195
 108.9614740  55.9581389 105.6649058 109.1289142  56.8261625 106.0319529
 108.7711909  56.1208670 104.7410347 105.1702555  60.8712164 113.3651593
 104.2453051  60.7388378 113.5729285 105.4186968  61.6506384 113.8621535
 108.9403961  58.4139046 106.6495725 108.8203586  58.8596097 107.4881205
 108.2456549  58.7624364 106.0909263 102.5311366  60.5145438 114.1995382
 102.6603747  60.7679917 115.1134794 101.8508817  61.1073146 113.8800037
 114.6389027  58.8860519 107.4776059 115.5506883  59.1187906 107.3023757
 114.1298674  59.4697563 106.9151138 108.7986571  63.6060746 112.1339726
 109.2624917  63.8848449 111.3444348 108.5343369  62.7044190 111.9512816
 107.7355457  59.7283898 108.9429291 108.4379501  60.1804942 109.4103217
 107.4036086  59.0867717 109.5709184 101.4780791  57.9867451 114.2446424
 100.6879845  58.2424979 113.7686535 101.9692039  58.8015789 114.3498465
 103.4295537  58.3512030 111.2029901 102.6326700  58.4630724 111.7213397
 103.2021129  58.6898682 110.3370792  99.7618494  58.2397941 116.6761415
 100.0126533  59.1244951 116.9418991 100.2978043  58.0602543 115.9036507
 108.9749222  66.5424841 109.0191396 108.8394897  67.3876377 109.4476244
 109.5159034  66.7444118 108.2557330 102.4278619  64.0600279 109.5919321
 102.9403140  64.8543529 109.7424886 103.0801332  63.3626569 109.5252923
 104.2373504  67.1766035 111.6742074 104.4140132  68.0984000 111.4863058
 105.0330338  66.8624454 112.1036454 100.3927536  62.3888933 110.3678892
 101.2302758  62.7985942 110.1512599 100.5705804  61.4488375 110.3379085
 112.2891968  60.0564014 106.0562725 111.7738592  60.8268618 106.2951112
 112.0169277  59.3829150 106.6795786 109.8739079  54.9013715 111.1147963
 109.0180676  54.5120565 110.9353602 110.2866031  54.9805675 110.2547748
 107.6481112  52.5198788 114.5205704 108.5134109  52.3241596 114.1611594
 107.7158621  52.2909139 115.4475061 117.2626242  62.8096368 107.9915898
 116.4855685  62.4707528 107.5471060 117.9417723  62.8148992 107.3170863
 112.0778271  57.9291106 107.8822506 111.7728407  58.2437255 108.7332649
 113.0308714  58.0072526 107.9249839 110.5224703  64.0881329 109.5315460
 109.9946065  63.3534089 109.2188697 110.0212206  64.8656006 109.2855428
 105.2543431  54.7500995 111.8922071 105.8287183  54.5276177 111.1595264
 105.8414413  54.8189690 112.6450673 105.5813018  56.7805457 105.9117956
 104.7450330  57.1180143 106.2327231 105.4417788  56.6454436 104.9745093
 107.5566099  51.6242244 110.6197141 106.9030511  51.3091262 109.9953755
 107.5146573  51.0017985 111.3456964 108.6677303  61.9061539 102.5350433
 107.7604365  61.6750793 102.7341582 109.1648335  61.1099159 102.7224414
 111.5745382  70.6159047 105.4547119 110.9007081  70.9190743 106.0632077
 111.9611204  71.4188127 105.1052576 110.7903839  58.1124178 114.9444788
 109.8726400  58.3339125 114.7866476 111.2063983  58.1870488 114.0856496
 111.5738887  59.5115594 110.0747469 112.3210706  60.0236991 109.7654591
 111.8430476  59.1899646 110.9351862 109.8465537  62.0074134 107.0574423
 108.9376756  61.7233167 107.1546893 109.8760621  62.4273213 106.1977730
 114.0217724  56.5472710 112.0566258 113.2840481  56.0350096 112.3876500
 114.2744497  56.1073091 111.2449535 100.4153707  59.7279648 111.0389625
 100.2178107  59.1349009 110.3140692  99.8600371  59.4231859 111.7565564
 108.3950431  59.6202755 113.1584218 108.4499041  58.6676591 113.0826695
 107.5841633  59.7762194 113.6425517 109.5441625  63.5482878 104.3962501
 109.1061055  62.8318737 103.9368139 110.2852066  63.7758993 103.8347593
 106.3342791  58.2379815 110.9174597 105.5210656  58.5373985 111.3239789
 106.8301785  57.8435503 111.6349079 117.6614739  61.8240075 110.4538820
 117.5232638  62.0141671 109.5260009 117.3050958  62.5859458 110.9106871
 105.8256866  55.8098170 116.5335832 106.4656245  55.6686929 115.8358795
 104.9934396  55.5232684 116.1574434 106.6017170  65.1100601 112.6470824
 107.3957768  64.6150921 112.4453399 105.8908862  64.5818464 112.2838530
 102.9099933  59.2543682 108.7230577 101.9797521  59.1928138 108.9400539
 103.0057405  58.7319635 107.9267218 102.8285482  55.7798495 111.3108819
 103.0892299  56.6943828 111.2017979 103.6502654  55.3122938 111.4605432
 104.3010407  57.1936252 118.4807643 104.9733461  56.9853615 117.8320292
 103.4740194  56.9958338 118.0412876 109.7736597  70.7838719 107.6694198
 109.9488353  70.3126762 108.4839821 109.0869386  71.4104485 107.8975459
 113.6652852  62.4067260 103.9894559 113.0482023  61.6814088 103.8927612
 113.1969341  63.1676620 103.6461633 105.4551398  56.6252684 103.1115863
 104.5780865  56.5041485 102.7478110 105.9309151  55.8338762 102.8594752
  96.9753538  61.4129844 113.2057370  97.6624578  61.0991574 112.6178386
  96.8201667  62.3171208 112.9324622 101.7788261  56.3020040 117.6342394
 101.6946449  55.6945710 116.8992804 100.9570967  56.7929059 117.6351890
 111.9511974  54.7873604 113.0012589 112.4480674  54.0343566 112.6813659
 111.1798956  54.8237920 112.4355798 113.0341755  63.5445291 110.5751013
 112.0998034  63.6646753 110.4055717 113.2118424  62.6417758 110.3111022
 108.5346943  56.9290987 112.7284274 108.1644731  56.3762027 113.4165179
 109.0306036  56.3249120 112.1759274 116.4214306  59.3862610 111.1101047
 116.8874759  60.2190602 111.0361349 116.8721807  58.9207592 111.8146305
 114.4890538  65.7306432 108.1087199 114.7650381  65.6163026 109.0181073
 113.6195036  65.3323916 108.0699372 111.4586767  68.9060968 109.0135061
 111.9874533  68.3953422 108.4005223 111.7214987  68.5903498 109.8780594
  96.5521514  59.4930437 115.4774838  96.5905614  58.9594028 116.2711956
  96.0461807  58.9665643 114.8585815 103.9312277  54.3394978 118.9737380
 103.9953603  55.2009808 118.5614778 103.8679397  53.7268979 118.2409738
 100.1830092  58.2194539 108.5528769 100.4783533  57.3105218 108.4995823
  99.2818128  58.1982279 108.2309771 103.7124339  56.2950536 114.5356318
 102.9910925  56.9086503 114.3963791 104.5017595  56.8308301 114.4572963
 101.9117934  55.9008637 108.6768094 101.5830640  55.0206016 108.4943200
 102.2657304  55.8456306 109.5644483 105.0259757  56.1881607 109.0443572
 105.3655829  56.7167528 108.3222180 105.4731877  56.5262013 109.8202138
 107.0127904  54.6856228 107.2436865 107.7336266  55.0637481 106.7400581
 106.3893208  55.4045105 107.3471842 111.1559027  55.3901377 108.1795197
 111.3722641  56.2726015 107.8784025 110.6753094  54.9987591 107.4500839
 105.8958248  58.3487090 114.7565941 105.7502829  58.6627394 115.6490223
 105.4183452  58.9671991 114.2036840 107.7554631  55.3389638 114.8046831
 107.7416200  54.4430732 114.4679129 108.4727059  55.3460302 115.4385117
 100.3703910  60.8892435 117.6953603  99.8257378  61.6652243 117.8273877
 101.2483260  61.2363239 117.5372724 107.1591527  54.2204019 110.0734401
 107.2807438  53.2920665 110.2725289 106.8693569  54.2342705 109.1612717
 110.0282717  51.9058929 113.2101121 110.0504414  51.9698262 112.2553101
 110.4450776  51.0663438 113.4041627 115.5402123  68.1944530 106.7286942
 116.2353028  68.8151223 106.9474257 115.8825273  67.3439881 107.0039320
 117.4393546  65.6444236 108.2574273 117.9644870  65.9831508 107.5323593
 117.3515899  64.7091251 108.0737407 101.6026546  67.9027760 112.6194154
 102.4284566  67.6031532 112.2392798 101.2520598  67.1335382 113.0683943
  99.8035151  65.8214086 113.5783088  98.9667059  65.3936261 113.3967089
  99.7758796  66.0146530 114.5153879 106.1321586  65.8058151 108.1650288
 106.2809706  66.4893616 107.5116961 106.9388029  65.7863241 108.6799744
 103.8874219  61.8323329 109.1711357 103.6420261  60.9285659 109.3691567
 104.0570134  61.8340479 108.2290835 103.1569867  57.5651687 106.6697519
 102.4639111  57.6396042 106.0137555 102.9121618  56.8012030 107.1919036
 109.6316992  68.3006282 105.6362036 109.0590959  68.9196469 105.1832508
 110.2049785  68.8505644 106.1701958 112.8514251  68.5843432 106.7670618
 113.7844924  68.5188994 106.9703493 112.7637464  69.4199699 106.3085151
 115.4802268  67.9009302 103.7274566 115.4015900  67.5669166 104.6210323
 116.3011935  68.3931070 103.7266038 110.0163790  59.6367095 102.9778088
 110.9622895  59.5073303 103.0466506 109.6378035  58.8981757 103.4547516
 108.2006707  57.5617071 102.9132973 107.2938163  57.2650184 102.9895687
 108.4782688  57.2646889 102.0467260  99.1184648  58.8823434 113.3632020
  98.7987432  58.0288743 113.0706394  98.5718076  59.0972013 114.1189987
 109.8168773  52.1053961 109.0677215 109.0069501  51.7601046 109.4432461
 110.5053190  51.7961504 109.6564826 111.7459321  51.1832008 110.6901511
 112.2990360  51.6027461 111.3491534 111.9829408  50.2567756 110.7324467
 106.9705492  54.4204006 103.0544953 107.8324656  54.7458905 103.3140770
 107.1555836  53.6335502 102.5418018  98.9872908  62.5026346 115.3325141
  98.2936379  62.0880299 114.8195096  99.7345899  62.5446882 114.7358560
 115.1238128  53.2932533 110.1980176 114.5436797  53.9517337 109.8158228
 114.8574061  52.4709877 109.7867593 100.9009650  62.4344600 113.2091156
 100.8780338  62.5332287 112.2573039 101.2110287  63.2809750 113.5308322
 113.9063006  55.4532623 109.2536524 113.0188861  55.7382274 109.0356719
 114.3216995  55.2926386 108.4063801 113.0506220  65.2177298 103.3484544
 113.7542070  65.4227300 103.9642199 112.3268869  65.7854060 103.6133627
 113.8804030  60.9687159 109.4686814 113.8239231  61.4255710 108.6294446
 114.4332372  60.2077844 109.2909657 117.6908836  56.7576891 110.2936934
 117.4345770  56.3573527 111.1245141 117.0661704  57.4720685 110.1687073
 114.9592917  65.6559827 105.3983004 115.7938521  65.2241025 105.2160479
 114.7977260  65.4841841 106.3259898 114.6138809  62.1591940 106.7639343
 114.5587613  61.9936212 105.8227787 113.9884865  62.8667973 106.9201533
  99.4031324  57.3960005 120.5900765 100.0490188  56.8858959 121.0787991
  99.1948475  58.1328686 121.1644191 107.9234935  51.6600049 106.3424662
 107.9113605  52.6041889 106.4992932 108.8158357  51.4770195 106.0484123
 116.4206772  72.1097374 105.9117956 115.5844085  72.4472061 106.2327231
 116.2811542  71.9746354 104.9745093 116.2945153  71.9544602 103.1115863
 115.4174619  71.8333402 102.7478110 116.7702906  71.1630680 102.8594752
 113.9963621  72.8943604 106.6697519 113.3032866  72.9687959 106.0137555
 113.7515373  72.1303948 107.1919036 119.0400462  72.8908989 102.9132973
 118.1331917  72.5942101 102.9895687 119.3176443  72.5938807 102.0467260
 117.8099246  69.7495924 103.0544953 118.6718410  70.0750822 103.3140770
 117.9949590  68.9627420 102.5418018 118.7628689  66.9891967 106.3424662
 118.7507359  67.9333807 106.4992932 119.6552111  66.8062112 106.0484123
  74.1829591   2.2029057  97.0231163  74.1053621   3.1536883  97.1019643
  73.5791234   1.8574930  97.6806089  71.8216421   4.9514451 101.1679365
  72.0613019   5.5832976 101.8458383  70.9785617   4.6002491 101.4544724
  72.2961253   0.9762454  98.4978143  71.6271628   1.4608581  98.0142183
  72.1574122   1.2231674  99.4121522  76.4366521   3.0106197 105.0960802
  76.9884829   3.1737819 105.8609887  76.7772715   3.6010635 104.4240827
  69.3965995   1.0526744 101.0653275  69.2620462   0.2927145 100.4991273
  68.9798057   1.7767644 100.5982064  72.5535120   1.9496061 101.2771718
  72.4367505   2.8941493 101.1750408  71.7327567   1.6469622 101.6657517
  73.5789635   2.6024323 104.4927646  74.4816881   2.6347933 104.8094141
  73.3527005   1.6724774 104.5073982  87.8785636   7.1443276 102.1545012
  87.5404148   7.0284340 101.2665547  88.7475405   6.7434441 102.1346018
  83.7372452   8.9978752  98.1441903  83.1737317   8.9068689  97.3758191
  83.6224847   8.1778657  98.6244395  81.2836884  10.4929944 100.9826123
  82.0758176  10.1520768 100.5672423  81.5233534  10.6024919 101.9028277
  89.3172011  12.6649720  93.4556368  88.6659990  13.2503800  93.0690382
  90.1116374  13.1955915  93.5151405  83.2427638   9.7538857  93.8543502
  84.0158514   9.2067844  93.7156378  83.5953037  10.6183106  94.0657964
  85.0812680  11.0815239 107.0610401  84.7902546  11.9860870 106.9457068
  85.7169665  11.1231767 107.7754471  86.0068887   8.4592088 103.6511761
  86.6032460   8.2348110 102.9368724  86.0643859   7.7176833 104.2537209
  90.7947276  10.3540152  93.9925352  90.1593109  10.4274778  94.7046257
  90.4644682  10.9433751  93.3144431  85.2990204   7.8159629  93.6886327
  85.1826463   7.1404532  94.3567411  85.4092464   7.3292003  92.8718480
  87.6421745   7.2769776  97.3933016  87.2779953   6.7500397  98.1045938
  88.4988861   6.8868245  97.2199502  90.0402566  10.7676655 104.0560195
  89.7403289  11.6701694 103.9476002  89.6953625  10.5008838 104.9081348
  83.4915047   7.2190452 100.0896900  82.5665543   7.0866666 100.2974591
  83.7399460   7.9984671 100.5866842  80.8523858   6.8623725 100.9240689
  80.9816239   7.1158204 101.8380100  80.1721309   7.4551433 100.6045344
  85.0223345  17.5320975  97.0231163  84.9447375  18.4828800  97.1019643
  84.4184989  17.1866848  97.6806089  91.5671102  10.2164625 101.5934947
  90.9379964  10.3810339 100.8911015  91.1796764  10.6306235 102.3645911
  95.4460334  11.1519063  98.9479311  94.7611372  11.5317964  98.3976344
  95.5304183  11.7614389  99.6811259  87.1199064   9.9539033  98.8585032
  87.5837409  10.2326736  98.0689655  86.8555862   9.0522478  98.6758123
  84.0123145   9.5010515 101.7964795  84.5824502   9.9297783 101.1582280
  84.6031256   9.2193099 102.4948981  79.7993284   4.3345738 100.9691731
  79.0092338   4.5903267 100.4931842  80.2904531   5.1494076 101.0743771
  81.7508029   4.6990317  97.9275208  80.9539192   4.8109012  98.4458703
  81.5233621   5.0376970  97.0616098  87.5813697  11.2235021 105.8757722
  87.6458129  11.6855428 106.7115894  86.8724620  10.5932385 106.0040032
  78.0830987   4.5876229 103.4006722  78.3339025   5.4723238 103.6664298
  78.6190535   4.4080830 102.6281814  87.2961714  12.8903128  95.7436703
  87.1607389  13.7354664  96.1721550  87.8371527  13.0922406  94.9802636
  80.7491112  10.4078566  96.3164628  81.2615632  11.2021816  96.4670192
  81.4013824   9.7104857  96.2498229  82.5585996  13.5244322  98.3987381
  82.7352625  14.4462287  98.2108365  83.3542830  13.2102742  98.8281761
  81.8438353   5.5708954 108.2749544  81.7291868   4.6694211 108.5756643
  80.9882871   5.8172651 107.9234361  83.6817312  15.0422496 104.3997723
  84.2324737  14.9139560 103.6274717  82.8428788  15.3417385 104.0492616
  87.4784483  11.3073624 108.7441954  88.0112820  10.5461912 108.5141262
  86.9498564  11.0147276 109.4866109  78.7140028   8.7367220  97.0924198
  79.5515250   9.1464229  96.8757906  78.8918296   7.7966663  97.0624392
  88.8437196  10.4359616  96.2560766  88.3158557   9.7012376  95.9434004
  88.3424698  11.2134293  96.0100735  93.8230042   8.6308637 101.3727813
  93.1653716   9.3207898 101.4607941  94.6270441   9.0205069 101.7161799
  86.9889796   8.2539827  89.2595739  86.0816857   8.0229080  89.4586888
  87.4860828   7.4577446  89.4469721  89.8957875  16.9637334  92.1792426
  89.2219573  17.2669031  92.7877383  90.2823697  17.7666414  91.8297883
  88.1678029   8.3552422  93.7819729  87.2589248   8.0711454  93.8792199
  88.1973113   8.7751500  92.9223036  93.3997297  11.9659011  97.5510897
  92.9459624  11.1249921  97.6076087  92.7691263  12.6020409  97.8885677
  91.8430236  13.8035508  98.4860715  92.1353210  14.3640565  97.7673081
  92.3528856  14.0964069  99.2413874  78.7366200   6.0757936  97.7634932
  78.5390599   5.4827296  97.0385998  78.1812864   5.7710146  98.4810870
  87.8654117   9.8961165  91.1207808  87.4273547   9.1797024  90.6613445
  88.6064558  10.1237280  90.5592899  86.8063861  14.5815859  99.5754168
  86.7640040  14.8076705  98.6462700  87.7226560  14.3479233  99.7239970
  84.9229662  11.4578888  99.3716131  85.7170260  10.9629208  99.1698706
  84.2121354  10.9296751  99.0083837  89.7424506  13.8396983 103.7228499
  89.7961529  14.4087920 104.4906215  88.8739288  14.0098868 103.3582536
  81.2312425   5.6021970  95.4475884  80.3010013   5.5406425  95.6645846
  81.3269897   5.0797922  94.6512525  88.7012606   8.0057245 105.2815431
  89.6304666   8.1568405 105.1084398  88.2803636   8.0941266 104.4264077
  87.5000938  12.0307910 103.0513968  87.3612023  11.6626694 103.9239906
  86.7115534  12.5455549 102.8797926  88.0949090  17.1317006  94.3939505
  88.2700845  16.6605050  95.2085127  87.4081878  17.7582773  94.6220765
  89.0506153  11.4089513 100.4402806  88.7155986  11.3690283 101.3360456
  88.5510099  10.7434228  99.9673216  83.0250397   6.8157143 105.9655387
  82.8870195   6.0837381 106.5666926  83.9355320   6.7266043 105.6839575
  91.9865345   8.7545547  90.7139866  91.3694515   8.0292375  90.6172918
  91.5181833   9.5154907  90.3706940  85.6532698   6.5277102 105.4539067
  86.3632316   5.8870294 105.4125685  85.6102006   6.7789997 106.3765248
  82.6610175  20.2806369 101.1679365  82.9006773  20.9124893 101.8458383
  81.8179372  19.9294409 101.4544724  75.2966031   7.7608131  99.9302677
  75.9837070   7.4469861  99.3423692  75.1414159   8.6649496  99.6569928
  87.1738037  16.0885492 103.5720869  87.1008208  16.8940463 104.0840173
  86.7315430  16.2877457 102.7468890  86.9627817  15.3257262  97.0823690
  86.1795338  15.8678942  97.1761915  87.6620562  15.8431241  97.4817932
  89.6336720  15.9872326 105.7279028  90.3464693  16.6219790 105.6554929
  89.1426749  16.0836192 104.9119029  91.3554247   9.8923578  97.2996319
  90.4210526  10.0125041  97.1301024  91.5330916   8.9896045  97.0356329
  84.6848634  13.7366769 106.5484598  85.3858093  14.3703252 106.7013993
  84.2143749  14.0781501 105.7880238  92.8103030  12.0784719  94.8332505
  93.0862874  11.9641313  95.7426379  91.9407529  11.6802204  94.7944678
  89.4457094  16.3271070  98.4765319  89.6279488  15.5092726  98.9393071
  90.2690080  16.5438762  98.0390209  89.7799259  15.2539255  95.7380367
  90.3087026  14.7431709  95.1250530  90.0427479  14.9381785  96.6025900
  80.2816352  13.2703124 103.4815701  80.8669789  12.5246812 103.6143605
  80.0841190  13.5807081 104.3652365  83.1355007  16.3054371  98.4978143
  82.4665383  16.7900499  98.0142183  82.9967877  16.5523592  99.4121522
  74.8734007   5.8408724 102.2020144  74.9118106   5.3072315 102.9957262
  74.3674300   5.3143930 101.5831121  87.2760276  18.3398115 105.0960802
  87.8278584  18.5029736 105.8609887  87.6166469  18.9302553 104.4240827
  78.5042584   4.5672826  95.2774076  78.7996025   3.6583505  95.2241129
  77.6030620   4.5460566  94.9555078  90.4128663  16.2880091 102.0824484
  90.2879803  15.4869830 101.5735429  91.0707754  16.7826284 101.5938454
  92.4763571  14.0889111 103.7104034  91.5293907  13.9694462 103.6382361
  92.8246345  13.2011609 103.7930295  89.4810005  13.8841827  99.9108386
  89.3334967  12.9558534 100.0915956  90.3063498  13.9061918  99.4265461
  93.0844127  14.7070386 100.9973259  94.0090674  14.5013247 100.8597710
  92.9159430  14.4586787 101.9062600  92.8739443  15.2256053  96.3535350
  93.0476320  14.6602475  95.6009203  93.3668334  16.0256948  96.1714840
  78.6916403   7.2370722 104.4198909  78.1469871   8.0130530 104.5519184
  79.5695753   7.5841527 104.2618031  93.8614615  14.5422817  93.4532249
  94.5565520  15.1629510  93.6719563  94.2037765  13.6918169  93.7284627
  79.4782425   6.3640618 107.3129066  78.7364161   6.5123254 107.8993697
  79.1575169   6.6248884 106.4495816  95.7606038  11.9922523  94.9819579
  96.2857363  12.3309796  94.2568900  95.6728391  11.0569538  94.7982714
  87.4226087  15.9056597 107.1109456  87.7313214  15.6605743 107.9832156
  88.2201569  16.1103235 106.6228326  87.4446699  18.0594506  99.3414833
  87.0051690  17.5670885 100.0347689  88.1954816  17.5167474  99.1006908
  79.9239038  14.2506047  99.3439461  80.7497058  13.9509819  98.9638104
  79.5733090  13.4813670  99.7929249  84.8920571  13.6032515 101.4137134
  84.2700581  12.9403220 101.1139362  85.5625438  13.6293647 100.7310782
  78.1247643  12.1692374 100.3028394  77.2879552  11.7414548 100.1212396
  78.0971289  12.3624817 101.2399186  84.4534078  12.1536439  94.8895595
  84.6022199  12.8371903  94.2362268  85.2600522  12.1341529  95.4045051
  82.2086711   8.1801616  95.8956664  81.9632753   7.2763946  96.0936874
  82.3782626   8.1818767  94.9536142  87.9529484  14.6484569  92.3607342
  87.3803451  15.2674756  91.9077814  88.5262277  15.1983931  92.8947264
  91.1726744  14.9321719  93.4915925  92.1057417  14.8667281  93.6948800
  91.0849956  15.7677986  93.0330457  93.8014760  14.2487590  90.4519872
  93.7228392  13.9147453  91.3455630  94.6224427  14.7409357  90.4511344
  77.4397140   5.2301722 100.0877326  77.1199924   4.3767030  99.7951700
  76.8930568   5.4450300 100.8435294  81.2177047   7.9464163 103.8046833
  81.4363057   8.8781270 103.8234867  81.6302821   7.5872137 104.5901637
  77.3085400   8.8504633 102.0570448  76.6148871   8.4358586 101.5440402
  78.0558391   8.8925170 101.4603867  79.2222142   8.7822887  99.9336463
  79.1992830   8.8810574  98.9818346  79.5322779   9.6288038 100.2553629
  81.8809520  10.8399042 104.0483077  82.8352774  10.8082984 103.9813009
  81.6822044  10.3789666 104.8633303  82.4708902   9.4100158 106.6153875
  83.2901791   9.9044237 106.6388712  82.7445710   8.4932126 106.5871442
  80.2359749  16.3818661 101.0653275  80.1014217  15.6219062 100.4991273
  79.8191811  17.1059561 100.5982064  91.3718712  11.5655585  90.0729850
  92.0754562  11.7705587  90.6887506  90.6481361  12.1332347  90.3378934
  83.3928875  17.2787978 101.2771718  83.2761259  18.2233411 101.1750408
  82.5721321  16.9761540 101.6657517  93.2805409  12.0038114  92.1228311
  94.1151013  11.5719313  91.9405785  93.1189752  11.8320128  93.0505205
  92.9351302   8.5070227  93.4884650  92.8800105   8.3414499  92.5473094
  92.3097357   9.2146260  93.6446840  77.7243817   3.7438292 107.3146072
  78.3702680   3.2337246 107.8033297  77.5160968   4.4806973 107.8889497
  84.4183389  17.9316240 104.4927646  85.3210636  17.9639851 104.8094141
  84.1920759  17.0016691 104.5073982  86.1736991  16.6847227 101.1537725
  85.2232622  16.6849088 101.0402097  86.4769477  15.9379961 100.6373760
 101.9089685  22.5207765 102.2183487 102.5468094  22.4014513 101.5146827
 101.7910527  23.4688609 102.2771439  98.7179391  22.4735193 102.1545012
  98.3797902  22.3576258 101.2665547  99.5869159  22.0726358 102.1346018
  94.5766206  24.3270670  98.1441903  94.0131072  24.2360607  97.3758191
  94.4618602  23.5070574  98.6244395  92.1230638  25.8221861 100.9826123
  92.9151930  25.4812686 100.5672423  92.3627289  25.9316836 101.9028277
 100.1565765  27.9941637  93.4556368  99.5053745  28.5795718  93.0690382
 100.9510128  28.5247832  93.5151405  94.0821392  25.0830775  93.8543502
  94.8552268  24.5359762  93.7156378  94.4346791  25.9475024  94.0657964
  95.9206435  26.4107157 107.0610401  95.6296301  27.3152788 106.9457068
  96.5563419  26.4523685 107.7754471  96.8462642  23.7884005 103.6511761
  97.4426214  23.5640028 102.9368724  96.9037613  23.0468751 104.2537209
  96.4187670  21.2423441  91.4861952  96.6713191  20.7204962  90.7245415
  95.4812229  21.0789586  91.5888636 101.4630953  20.2459219  99.2936695
 102.2494042  19.8278642  98.9427112 101.7269657  21.1505311  99.4618344
 101.6341030  25.6832069  93.9925352 100.9986863  25.7566696  94.7046257
 101.3038437  26.2725668  93.3144431  96.1383959  23.1451547  93.6886327
  96.0220217  22.4696450  94.3567411  96.2486219  22.6583921  92.8718480
  98.4815500  22.6061694  97.3933016  98.1173707  22.0792315  98.1045938
  99.3382616  22.2160163  97.2199502  98.1220987  17.6351594  92.3894365
  98.2895389  18.5031830  92.7564836  97.9318156  17.7978875  91.4655654
 100.8796320  26.0968572 104.0560195 100.5797043  26.9993611 103.9476002
 100.5347380  25.8300756 104.9081348  94.3308801  22.5482369 100.0896900
  93.4059298  22.4158583 100.2974591  94.5793215  23.3276589 100.5866842
  98.1010208  20.0909251  93.3741032  97.9809833  20.5366302  94.2126512
  97.4062796  20.4394569  92.8154570  91.6917613  22.1915643 100.9240689
  91.8209994  22.4450122 101.8380100  91.0115064  22.7843351 100.6045344
  95.8617100  32.8612893  97.0231163  95.7841130  33.8120718  97.1019643
  95.2578743  32.5158765  97.6806089 103.7995274  20.5630724  94.2021366
 104.7113130  20.7958111  94.0269063 103.2904921  21.1467768  93.6396444
 102.4064856  25.5456543 101.5934947 101.7773719  25.7102257 100.8911015
 102.0190518  25.9598152 102.3645911 106.2854088  26.4810981  98.9479311
 105.6005126  26.8609882  98.3976344 106.3697937  27.0906307  99.6811259
  97.9592818  25.2830951  98.8585032  98.4231164  25.5618654  98.0689655
  97.6949616  24.3814395  98.6758123  94.8516899  24.8302432 101.7964795
  95.4218256  25.2589701 101.1582280  95.4425011  24.5485017 102.4948981
  96.8961704  21.4054103  95.6674597  97.5985747  21.8575147  96.1348524
  96.5642333  20.7637922  96.2954490  90.6387038  19.6637656 100.9691731
  89.8486092  19.9195184 100.4931842  91.1298285  20.4785994 101.0743771
  92.5901783  20.0282235  97.9275208  91.7932947  20.1400929  98.4458703
  92.3627376  20.3668887  97.0616098  98.4207451  26.5526938 105.8757722
  98.4851884  27.0147345 106.7115894  97.7118375  25.9224303 106.0040032
  88.9224741  19.9168146 103.4006722  89.1732779  20.8015156 103.6664298
  89.4584289  19.7372748 102.6281814  98.1355469  28.2195046  95.7436703
  98.0001144  29.0646581  96.1721550  98.6765281  28.4214323  94.9802636
  91.5884866  25.7370484  96.3164628  92.1009387  26.5313734  96.4670192
  92.2407579  25.0396774  96.2498229  93.3979751  28.8536240  98.3987381
  93.5746379  29.7754205  98.2108365  94.1936584  28.5394659  98.8281761
  92.6832107  20.9000872 108.2749544  92.5685623  19.9986129 108.5756643
  91.8276625  21.1464569 107.9234361  94.5211066  30.3714414 104.3997723
  95.0718491  30.2431477 103.6274717  93.6822542  30.6709303 104.0492616
  98.3178237  26.6365542 108.7441954  98.8506574  25.8753830 108.5141262
  97.7892318  26.3439193 109.4866109  89.5533783  24.0659138  97.0924198
  90.3909005  24.4756146  96.8757906  89.7312051  23.1258580  97.0624392
 101.4498215  21.7334219  92.7808031 100.9344838  22.5038823  93.0196419
 101.1775523  21.0599355  93.4041093  99.0345326  16.5783919  97.8393270
  98.1786922  16.1890770  97.6598908  99.4472278  16.6575880  96.9793055
  96.8087359  14.1968992 101.2451011  97.6740355  14.0011801 100.8856901
  96.8764867  13.9679344 102.1720368 106.4232489  24.4866573  94.7161205
 105.6461932  24.1477733  94.2716367 107.1023970  24.4919197  94.0416170
 101.2384518  19.6061311  94.6067812 100.9334654  19.9207460  95.4577956
 102.1914960  19.6842731  94.6495145  99.6830950  25.7651534  96.2560766
  99.1552312  25.0304294  95.9434004  99.1818453  26.5426210  96.0100735
 104.6623796  23.9600555 101.3727813 104.0047471  24.6499816 101.4607941
 105.4664195  24.3496987 101.7161799  94.4149678  16.4271200  98.6167378
  94.9893430  16.2046382  97.8840571  95.0020660  16.4959895  99.3695979
 103.4729255  22.3144927  99.4231754 103.9861137  22.9474919  99.9253464
 104.1230479  21.7146123  99.0575114  94.7419265  18.4575661  92.6363263
  93.9056577  18.7950348  92.9572538  94.6024034  18.3224641  91.6990400
  96.7172345  13.3012449  97.3442447  96.0636758  12.9861466  96.7199062
  96.6752820  12.6788190  98.0702270  97.8283550  23.5831744  89.2595739
  96.9210612  23.3520998  89.4586888  98.3254582  22.7869364  89.4469721
 100.7351629  32.2929252  92.1792426 100.0613328  32.5960948  92.7877383
 101.1217451  33.0958332  91.8297883  99.9510086  19.7894383 101.6690095
  99.0332647  20.0109330 101.5111783 100.3670229  19.8640693 100.8101802
 100.7345133  21.1885799  96.7992775 101.4816952  21.7007196  96.4899897
 101.0036723  20.8669851  97.6597169  99.0071784  23.6844339  93.7819729
  98.0983003  23.4003372  93.8792199  99.0366867  24.1043418  92.9223036
 104.2391051  27.2950929  97.5510897 103.7853378  26.4541839  97.6076087
 103.6085018  27.9312327  97.8885677 103.1823971  18.2242915  98.7811564
 102.4446727  17.7120301  99.1121807 103.4350744  17.7843296  97.9694841
 102.6823990  29.1327425  98.4860715 102.9746965  29.6932483  97.7673081
 103.1922611  29.4255986  99.2413874  89.5759954  21.4049853  97.7634932
  89.3784354  20.8119214  97.0385998  89.0206618  21.1002064  98.4810870
  97.5556678  21.2972960  99.8829525  97.6105287  20.3446796  99.8072001
  96.7447880  21.4532399 100.3670823  98.7047871  25.2253083  91.1207808
  98.2667301  24.5088942  90.6613445  99.4458312  25.4529198  90.5592899
  95.4949038  19.9150020  97.6419904  94.6816903  20.2144190  98.0485096
  95.9908032  19.5205708  98.3594386  97.6457616  29.9107777  99.5754168
  97.6033794  30.1368623  98.6462700  98.5620314  29.6771151  99.7239970
 106.8220986  23.5010280  97.1784127 106.6838885  23.6911876  96.2505316
 106.4657205  24.2629663  97.6352178  94.9863112  17.4868375 103.2581139
  95.6262492  17.3457134 102.5604102  94.1540643  17.2002889 102.8819741
  95.7623416  26.7870806  99.3716131  96.5564015  26.2921126  99.1698706
  95.0515109  26.2588669  99.0083837 100.5818261  29.1688901 103.7228499
 100.6355283  29.7379837 104.4906215  99.7133042  29.3390786 103.3582536
  92.0706180  20.9313887  95.4475884  91.1403768  20.8698343  95.6645846
  92.1663652  20.4089840  94.6512525  91.9891729  17.4568700  98.0354125
  92.2498546  18.3714033  97.9263286  92.8108901  16.9893143  98.1850738
  93.4616654  18.8706457 105.2052950  94.1339708  18.6623819 104.5565599
  92.6346441  18.6728543 104.7658182  99.5406361  23.3349163 105.2815431
 100.4698421  23.4860323 105.1084398  99.1197391  23.4233184 104.4264077
  98.3394692  27.3599828 103.0513968  98.2005778  26.9918612 103.9239906
  97.5509289  27.8747467 102.8797926  98.9342844  32.4608924  94.3939505
  99.1094600  31.9896967  95.2085127  98.2475632  33.0874690  94.6220765
  99.8899907  26.7381430 100.4402806  99.5549740  26.6982200 101.3360456
  99.3903853  26.0726146  99.9673216  93.8644151  22.1449060 105.9655387
  93.7263949  21.4129299 106.5666926  94.7749075  22.0557960 105.6839575
 102.8259099  24.0837465  90.7139866 102.2088270  23.3584293  90.6172918
 102.3575588  24.8446825  90.3706940  96.4926452  21.8569020 105.4539067
  97.2026071  21.2162212 105.4125685  96.4495760  22.1081914 106.3765248
  93.5003930  35.6098287 101.1679365  93.7400528  36.2416811 101.8458383
  92.6573126  35.2586327 101.4544724  94.6157645  18.3022889  89.8361170
  93.7387111  18.1811690  89.4723417  95.0915398  17.5108967  89.5840059
  86.1359785  23.0900049  99.9302677  86.8230825  22.7761779  99.3423692
  85.9807914  23.9941413  99.6569928  90.9394507  17.9790245 104.3587701
  90.8552696  17.3715915 103.6238111  90.1177214  18.4699263 104.3597197
  98.0131791  31.4177409 103.5720869  97.9401963  32.2232381 104.0840173
  97.5709185  31.6169375 102.7468890  97.8021571  30.6549179  97.0823690
  97.0189093  31.1970859  97.1761915  98.5014316  31.1723159  97.4817932
 101.1118221  16.4643809  99.7257896 101.6086921  15.7113771  99.4058966
 100.3405203  16.5008125  99.1601105 100.4730475  31.3164243 105.7279028
 101.1858447  31.9511708 105.6554929  99.9820504  31.4128109 104.9119029
 102.1948002  25.2215496  97.2996319 101.2604281  25.3416958  97.1301024
 102.3724670  24.3187963  97.0356329  97.6953190  18.6061192  99.4529580
  97.3250977  18.0532232 100.1410486  98.1912282  18.0019325  98.9004580
 105.5820553  21.0632815  97.8346353 106.0481005  21.8960807  97.7606656
 106.0328054  20.5977797  98.5391612  95.5242388  29.0658687 106.5484598
  96.2251848  29.6995170 106.7013993  95.0537503  29.4073418 105.7880238
 103.6496784  27.4076636  94.8332505 103.9256628  27.2933231  95.7426379
 102.7801283  27.0094121  94.7944678 100.2850848  31.6562987  98.4765319
 100.4673243  30.8384643  98.9393071 101.1083834  31.8730680  98.0390209
 100.6193014  30.5831172  95.7380367 101.1480780  30.0723627  95.1250530
 100.8821233  30.2673703  96.6025900  91.1210107  28.5995042 103.4815701
  91.7063543  27.8538730 103.6143605  90.9234945  28.9098998 104.3652365
  93.9748762  31.6346289  98.4978143  93.3059137  32.1192417  98.0142183
  93.8361631  31.8815510  99.4121522  85.7127761  21.1700642 102.2020144
  85.7511861  20.6364233 102.9957262  85.2068054  20.6435847 101.5831121
  98.1154030  33.6690033 105.0960802  98.6672338  33.8321654 105.8609887
  98.4560224  34.2594470 104.4240827  93.0918524  16.0165182 105.6982686
  93.1559850  16.8780013 105.2860084  93.0285644  15.4039184 104.9655045
  89.3436339  19.8964744  95.2774076  89.6389780  18.9875423  95.2241129
  88.4424375  19.8752484  94.9555078 101.2522418  31.6172008 102.0824484
 101.1273557  30.8161748 101.5735429 101.9101509  32.1118202 101.5938454
  92.8730586  17.9720741 101.2601624  92.1517172  18.5856708 101.1209097
  93.6623842  18.5078506 101.1818270 103.3157326  29.4181028 103.7104034
 102.3687662  29.2986379 103.6382361 103.6640099  28.5303526 103.7930295
  91.0724180  17.5778842  95.4013401  90.7436887  16.6976221  95.2188507
  91.4263551  17.5226510  96.2889790 100.3203759  29.2133744  99.9108386
 100.1728722  28.2850452 100.0915956 101.1457253  29.2353835  99.4265461
  94.1866004  17.8651812  95.7688878  94.5262076  18.3937733  95.0467487
  94.6338124  18.2032218  96.5447445 103.9237881  30.0362303 100.9973259
 104.8484429  29.8305165 100.8597710 103.7553185  29.7878704 101.9062600
  96.1734151  16.3626433  93.9682171  96.8942513  16.7407686  93.4645888
  95.5499455  17.0815310  94.0717149 100.3165274  17.0671582  94.9040503
 100.5328888  17.9496220  94.6029332  99.8359341  16.6757796  94.1746145
  95.0564495  20.0257295 101.4811248  94.9109076  20.3397598 102.3735530
  94.5789699  20.6442196 100.9282147  96.9160878  17.0159843 101.5292138
  96.9022447  16.1200937 101.1924436  97.6333306  17.0230507 102.1630424
 103.7133197  30.5547971  96.3535350 103.8870075  29.9894393  95.6009203
 104.2062089  31.3548866  96.1714840  89.5310157  22.5662640 104.4198909
  88.9863625  23.3422448 104.5519184  90.4089507  22.9133444 104.2618031
  96.3197774  15.8974224  96.7979708  96.4413685  14.9690870  96.9970595
  96.0299816  15.9112910  95.8858023  99.1888964  13.5829134  99.9346428
  99.2110661  13.6468467  98.9798407  99.6057023  12.7433643 100.1286934
 109.5672589  23.3184394  97.9725650 110.0103735  22.5691719  97.5744773
 108.6899099  23.3094530  97.5899382 104.7008370  29.8714735  93.4532249
 105.3959274  30.4921428  93.6719563 105.0431520  29.0210086  93.7284627
  90.3176179  21.6932536 107.3129066  89.5757915  21.8415171 107.8993697
  89.9968923  21.9540802 106.4495816 106.5999793  27.3214441  94.9819579
 107.1251117  27.6601713  94.2568900 106.5122146  26.3861456  94.7982714
  98.2619842  31.2348514 107.1109456  98.5706968  30.9897661 107.9832156
  99.0595324  31.4395153 106.6228326  98.2840454  33.3886424  99.3414833
  97.8445444  32.8962803 100.0347689  99.0348571  32.8459392  99.1006908
  90.7632793  29.5797965  99.3439461  91.5890813  29.2801737  98.9638104
  90.4126845  28.8105587  99.7929249  95.7314326  28.9324433 101.4137134
  95.1094335  28.2695138 101.1139362  96.4019193  28.9585565 100.7310782
  88.9641398  27.4984291 100.3028394  88.1273306  27.0706466 100.1212396
  88.9365043  27.6916735 101.2399186  95.2927833  27.4828356  94.8895595
  95.4415953  28.1663821  94.2362268  96.0994276  27.4633446  95.4045051
  93.0480466  23.5093534  95.8956664  92.8026508  22.6055864  96.0936874
  93.2176380  23.5110684  94.9536142  92.3176113  19.2421892  93.3942825
  91.6245358  19.3166247  92.7382861  92.0727865  18.4782235  93.9164342
  98.7923238  29.9776487  92.3607342  98.2197205  30.5966674  91.9077814
  99.3656032  30.5275848  92.8947264 102.0120498  30.2613637  93.4915925
 102.9451171  30.1959199  93.6948800 101.9243711  31.0969904  93.0330457
 104.6408515  29.5779507  90.4519872 104.5622146  29.2439371  91.3455630
 105.4618182  30.0701275  90.4511344  99.1770037  21.3137300  89.7023395
 100.1229142  21.1843508  89.7711813  98.7984282  20.5751961  90.1792823
  97.3612954  19.2387276  89.6378280  96.4544409  18.9420389  89.7140994
  97.6388935  18.9417094  88.7712566  88.2790894  20.5593639 100.0877326
  87.9593679  19.7058948  99.7951700  87.7324323  20.7742217 100.8435294
  92.0570802  23.2756080 103.8046833  92.2756812  24.2073188 103.8234867
  92.4696576  22.9164055 104.5901637  98.9775020  13.7824166  95.7922521
  98.1675748  13.4371251  96.1677767  99.6659437  13.4731709  96.3810133
 100.9065568  12.8602212  97.4146818 101.4596607  13.2797666  98.0736841
 101.1435654  11.9337961  97.4569774  96.1311739  16.0974211  89.7790259
  96.9930903  16.4229109  90.0386077  96.3162083  15.3105707  89.2663325
  88.1479154  24.1796551 102.0570448  87.4542626  23.7650504 101.5440402
  88.8952145  24.2217087 101.4603867 104.2844375  14.9702738  96.9225482
 103.7043044  15.6287542  96.5403535 104.0180308  14.1480082  96.5112900
  90.0615897  24.1114805  99.9336463  90.0386585  24.2102492  98.9818346
  90.3716533  24.9579955 100.2553629  92.7203275  26.1690960 104.0483077
  93.6746528  26.1374902 103.9813009  92.5215798  25.7081583 104.8633303
  93.3102657  24.7392076 106.6153875  94.1295546  25.2336154 106.6388712
  93.5839465  23.8224044 106.5871442 103.0669253  17.1302828  95.9781830
 102.1795108  17.4152479  95.7602025 103.4823242  16.9696591  95.1309107
  91.0753504  31.7110579 101.0653275  90.9407971  30.9510980 100.4991273
  90.6585566  32.4351479 100.5982064 102.2112467  26.8947503  90.0729850
 102.9148317  27.0997505  90.6887506 101.4875115  27.4624265  90.3378934
 103.0410277  22.6457364  96.1932121 102.9845478  23.1025915  95.3539753
 103.5938619  21.8848049  96.0154963 106.8515083  18.4347096  97.0182240
 106.5952017  18.0343731  97.8490448 106.2267951  19.1490890  96.8932379
  94.2322629  32.6079896 101.2771718  94.1155014  33.5525329 101.1750408
  93.4115076  32.3053458 101.6657517 104.1199164  27.3330032  92.1228311
 104.9544768  26.9011230  91.9405785 103.9583507  27.1612046  93.0505205
 103.7745056  23.8362145  93.4884650 103.7193860  23.6706417  92.5473094
 103.1491111  24.5438178  93.6446840  88.5637571  19.0730210 107.3146072
  89.2096435  18.5629164 107.8033297  88.3554722  19.8098891 107.8889497
  97.0841182  13.3370254  93.0669968  97.0719851  14.2812094  93.2238239
  97.9764603  13.1540400  92.7729429  95.2577144  33.2608158 104.4927646
  96.1604390  33.2931768 104.8094141  95.0314514  32.3308609 104.5073982
  97.0130746  32.0139145 101.1537725  96.0626377  32.0141006 101.0402097
  97.3163232  31.2671879 100.6373760 112.7483439  37.8499683 102.2183487
 113.3861849  37.7306430 101.5146827 112.6304282  38.7980527 102.2771439
 109.5573145  37.8027111 102.1545012 109.2191657  37.6868176 101.2665547
 110.4262913  37.4018276 102.1346018 105.4159961  39.6562587  98.1441903
 104.8524826  39.5652524  97.3758191 105.3012356  38.8362492  98.6244395
 102.9624393  41.1513779 100.9826123 103.7545685  40.8104604 100.5672423
 103.2021043  41.2608754 101.9028277 110.9959520  43.3233555  93.4556368
 110.3447499  43.9087636  93.0690382 111.7903883  43.8539750  93.5151405
 104.9215147  40.4122692  93.8543502 105.6946023  39.8651679  93.7156378
 105.2740546  41.2766942  94.0657964 106.7600189  41.7399075 107.0610401
 106.4690055  42.6444705 106.9457068 107.3957174  41.7815602 107.7754471
 107.6856396  39.1175923 103.6511761 108.2819969  38.8931946 102.9368724
 107.7431368  38.3760669 104.2537209 107.2581425  36.5715358  91.4861952
 107.5106945  36.0496880  90.7245415 106.3205984  36.4081504  91.5888636
 112.3024708  35.5751137  99.2936695 113.0887797  35.1570560  98.9427112
 112.5663412  36.4797229  99.4618344 112.4734785  41.0123987  93.9925352
 111.8380618  41.0858614  94.7046257 112.1432191  41.6017586  93.3144431
 106.9777713  38.4743464  93.6886327 106.8613972  37.7988368  94.3567411
 107.0879973  37.9875838  92.8718480 109.3209254  37.9353612  97.3933016
 108.9567462  37.4084232  98.1045938 110.1776370  37.5452081  97.2199502
 108.9614741  32.9643511  92.3894365 109.1289144  33.8323748  92.7564836
 108.7711910  33.1270793  91.4655654 111.7190075  41.4260490 104.0560195
 111.4190798  42.3285529 103.9476002 111.3741134  41.1592673 104.9081348
 105.1702556  37.8774287 100.0896900 104.2453052  37.7450501 100.2974591
 105.4186969  38.6568506 100.5866842 108.9403962  35.4201169  93.3741032
 108.8203587  35.8658219  94.2126512 108.2456551  35.7686486  92.8154570
 102.5311367  37.5207560 100.9240689 102.6603748  37.7742039 101.8380100
 101.8508818  38.1135268 100.6045344 106.7010854  48.1904810  97.0231163
 106.6234884  49.1412636  97.1019643 106.0972498  47.8450683  97.6806089
 114.6389028  35.8922642  94.2021366 115.5506884  36.1250029  94.0269063
 114.1298675  36.4759686  93.6396444 113.2458611  40.8748460 101.5934947
 112.6167473  41.0394174 100.8911015 112.8584273  41.2890070 102.3645911
 117.1247843  41.8102898  98.9479311 116.4398881  42.1901800  98.3976344
 117.2091692  42.4198225  99.6811259 108.7986573  40.6122868  98.8585032
 109.2624918  40.8910571  98.0689655 108.5343371  39.7106313  98.6758123
 105.6910654  40.1594350 101.7964795 106.2612011  40.5881618 101.1582280
 106.2818765  39.8776935 102.4948981 107.7355459  36.7346021  95.6674597
 108.4379502  37.1867064  96.1348524 107.4036087  36.0929840  96.2954490
 101.4780793  34.9929573 100.9691731 100.6879847  35.2487102 100.4931842
 101.9692040  35.8077911 101.0743771 103.4295538  35.3574153  97.9275208
 102.6326701  35.4692847  98.4458703 103.2021130  35.6960805  97.0616098
 109.2601206  41.8818856 105.8757722 109.3245638  42.3439263 106.7115894
 108.5512129  41.2516221 106.0040032  99.7618496  35.2460064 103.4006722
 100.0126534  36.1307074 103.6664298 100.2978044  35.0664665 102.6281814
 108.9749223  43.5486963  95.7436703 108.8394898  44.3938499  96.1721550
 109.5159036  43.7506241  94.9802636 102.4278621  41.0662401  96.3164628
 102.9403141  41.8605652  96.4670192 103.0801333  40.3688692  96.2498229
 104.2373505  44.1828158  98.3987381 104.4140134  45.1046122  98.2108365
 105.0330339  43.8686577  98.8281761 103.5225862  36.2292790 108.2749544
 103.4079377  35.3278047 108.5756643 102.6670380  36.4756486 107.9234361
 105.3604821  45.7006332 104.3997723 105.9112246  45.5723395 103.6274717
 104.5216297  46.0001221 104.0492616 109.1571992  41.9657459 108.7441954
 109.6900329  41.2045748 108.5141262 108.6286073  41.6731111 109.4866109
 100.3927537  39.3951056  97.0924198 101.2302759  39.8048064  96.8757906
 100.5705805  38.4550498  97.0624392 112.2891970  37.0626136  92.7808031
 111.7738593  37.8330741  93.0196419 112.0169278  36.3891273  93.4041093
 109.8739081  31.9075837  97.8393270 109.0180677  31.5182688  97.6598908
 110.2866032  31.9867798  96.9793055 107.6481113  29.5260910 101.2451011
 108.5134110  29.3303719 100.8856901 107.7158622  29.2971262 102.1720368
 117.2626244  39.8158491  94.7161205 116.4855686  39.4769651  94.2716367
 117.9417725  39.8211114  94.0416170 112.0778273  34.9353228  94.6067812
 111.7728408  35.2499378  95.4577956 113.0308715  35.0134648  94.6495145
 110.5224705  41.0943452  96.2560766 109.9946066  40.3596211  95.9434004
 110.0212207  41.8718128  96.0100735 115.5017551  39.2892472 101.3727813
 114.8441225  39.9791734 101.4607941 116.3057950  39.6788904 101.7161799
 105.2543432  31.7563118  98.6167378 105.8287184  31.5338300  97.8840571
 105.8414415  31.8251813  99.3695979 114.3123009  37.6436845  99.4231754
 114.8254891  38.2766837  99.9253464 114.9624233  37.0438040  99.0575114
 105.5813019  33.7867579  92.6363263 104.7450332  34.1242266  92.9572538
 105.4417789  33.6516559  91.6990400 107.5566100  28.6304367  97.3442447
 106.9030512  28.3153384  96.7199062 107.5146574  28.0080107  98.0702270
 108.6677305  38.9123662  89.2595739 107.7604366  38.6812916  89.4586888
 109.1648337  38.1161281  89.4469721 111.5745384  47.6221169  92.1792426
 110.9007082  47.9252866  92.7877383 111.9611206  48.4250250  91.8297883
 110.7903840  35.1186301 101.6690095 109.8726402  35.3401248 101.5111783
 111.2063984  35.1932611 100.8101802 111.5738888  36.5177716  96.7992775
 112.3210707  37.0299113  96.4899897 111.8430478  36.1961769  97.6597169
 109.8465538  39.0136257  93.7819729 108.9376757  38.7295290  93.8792199
 109.8760622  39.4335336  92.9223036 115.0784806  42.6242846  97.5510897
 114.6247133  41.7833756  97.6076087 114.4478772  43.2604245  97.8885677
 114.0217725  33.5534832  98.7811564 113.2840482  33.0412219  99.1121807
 114.2744499  33.1135214  97.9694841 113.5217745  44.4619343  98.4860715
 113.8140719  45.0224400  97.7673081 114.0316365  44.7547904  99.2413874
 100.4153709  36.7341771  97.7634932 100.2178108  36.1411132  97.0385998
  99.8600373  36.4293981  98.4810870 108.3950432  36.6264878  99.8829525
 108.4499042  35.6738714  99.8072001 107.5841634  36.7824317 100.3670823
 109.5441626  40.5545001  91.1207808 109.1061056  39.8380860  90.6613445
 110.2852067  40.7821115  90.5592899 106.3342792  35.2441937  97.6419904
 105.5210658  35.5436108  98.0485096 106.8301786  34.8497626  98.3594386
 108.4851370  45.2399694  99.5754168 108.4427549  45.4660541  98.6462700
 109.4014069  45.0063069  99.7239970 117.6614741  38.8302198  97.1784127
 117.5232639  39.0203794  96.2505316 117.3050960  39.5921580  97.6352178
 105.8256867  32.8160293 103.2581139 106.4656246  32.6749052 102.5604102
 104.9934397  32.5294806 102.8819741 106.6017171  42.1162723  99.3716131
 107.3957769  41.6213043  99.1698706 105.8908863  41.5880586  99.0083837
 111.4212015  44.4980819 103.7228499 111.4749038  45.0671755 104.4906215
 110.5526797  44.6682704 103.3582536 102.9099934  36.2605805  95.4475884
 101.9797522  36.1990260  95.6645846 103.0057406  35.7381758  94.6512525
 102.8285483  32.7860618  98.0354125 103.0892301  33.7005951  97.9263286
 103.6502656  32.3185060  98.1850738 104.3010409  34.1998375 105.2052950
 104.9733462  33.9915737 104.5565599 103.4740195  34.0020461 104.7658182
 110.3800115  38.6641081 105.2815431 111.3092175  38.8152240 105.1084398
 109.9591145  38.7525102 104.4264077 109.1788447  42.6891745 103.0513968
 109.0399532  42.3210530 103.9239906 108.3903043  43.2039385 102.8797926
 109.7736599  47.7900842  94.3939505 109.9488354  47.3188885  95.2085127
 109.0869387  48.4166608  94.6220765 110.7293662  42.0673348 100.4402806
 110.3943495  42.0274118 101.3360456 110.2297608  41.4018064  99.9673216
 104.7037906  37.4740978 105.9655387 104.5657704  36.7421217 106.5666926
 105.6142829  37.3849878 105.6839575 113.6652854  39.4129382  90.7139866
 113.0482024  38.6876210  90.6172918 113.1969342  40.1738743  90.3706940
 107.3320207  37.1860937 105.4539067 108.0419825  36.5454129 105.4125685
 107.2889515  37.4373832 106.3765248 104.3397684  50.9390204 101.1679365
 104.5794282  51.5708729 101.8458383 103.4966881  50.5878244 101.4544724
 105.4551399  33.6314807  89.8361170 104.5780866  33.5103607  89.4723417
 105.9309153  32.8400885  89.5840059  96.9753540  38.4191966  99.9302677
  97.6624579  38.1053696  99.3423692  96.8201668  39.3233331  99.6569928
 101.7788262  33.3082163 104.3587701 101.6946450  32.7007832 103.6238111
 100.9570968  33.7991181 104.3597197 108.8525546  46.7469327 103.5720869
 108.7795717  47.5524298 104.0840173 108.4102939  46.9461293 102.7468890
 108.6415326  45.9841097  97.0823690 107.8582847  46.5262777  97.1761915
 109.3408071  46.5015077  97.4817932 111.9511976  31.7935726  99.7257896
 112.4480675  31.0405689  99.4058966 111.1798957  31.8300043  99.1601105
 111.3124229  46.6456161 105.7279028 112.0252202  47.2803626 105.6554929
 110.8214258  46.7420027 104.9119029 113.0341756  40.5507414  97.2996319
 112.0998035  40.6708876  97.1301024 113.2118425  39.6479880  97.0356329
 108.5346944  33.9353109  99.4529580 108.1644732  33.3824150 100.1410486
 109.0306037  33.3311243  98.9004580 116.4214308  36.3924733  97.8346353
 116.8874760  37.2252724  97.7606656 116.8721808  35.9269714  98.5391612
 106.3636143  44.3950604 106.5484598 107.0645602  45.0287087 106.7013993
 105.8931258  44.7365336 105.7880238 114.4890539  42.7368554  94.8332505
 114.7650383  42.6225149  95.7426379 113.6195038  42.3386039  94.7944678
 111.1244603  46.9854905  98.4765319 111.3066997  46.1676561  98.9393071
 111.9477589  47.2022597  98.0390209 111.4586768  45.9123090  95.7380367
 111.9874535  45.4015545  95.1250530 111.7214988  45.5965620  96.6025900
 101.9603861  43.9286959 103.4815701 102.5457298  43.1830647 103.6143605
 101.7628699  44.2390916 104.3652365 104.8142516  46.9638207  98.4978143
 104.1452891  47.4484334  98.0142183 104.6755386  47.2107427  99.4121522
  96.5521516  36.4992560 102.2020144  96.5905615  35.9656150 102.9957262
  96.0461809  35.9727765 101.5831121 108.9547785  48.9981950 105.0960802
 109.5066093  49.1613572 105.8609887 109.2953978  49.5886388 104.4240827
 103.9312278  31.3457100 105.6982686 103.9953605  32.2071931 105.2860084
 103.8679398  30.7331102 104.9655045 100.1830093  35.2256662  95.2774076
 100.4783534  34.3167340  95.2241129  99.2818129  35.2044401  94.9555078
 112.0916172  46.9463926 102.0824484 111.9667312  46.1453666 101.5735429
 112.7495263  47.4410119 101.5938454 103.7124340  33.3012658 101.2601624
 102.9910926  33.9148626 101.1209097 104.5017596  33.8370423 101.1818270
 114.1551080  44.7472946 103.7104034 113.2081416  44.6278297 103.6382361
 114.5033854  43.8595444 103.7930295 101.9117935  32.9070759  95.4013401
 101.5830641  32.0268138  95.2188507 102.2657306  32.8518428  96.2889790
 111.1597514  44.5425662  99.9108386 111.0122476  43.6142370 100.0915956
 111.9851007  44.5645753  99.4265461 105.0259758  33.1943729  95.7688878
 105.3655831  33.7229651  95.0467487 105.4731879  33.5324135  96.5447445
 114.7631636  45.3654221 100.9973259 115.6878183  45.1597082 100.8597710
 114.5946939  45.1170622 101.9062600 107.0127905  31.6918351  93.9682171
 107.7336268  32.0699604  93.4645888 106.3893209  32.4107228  94.0717149
 111.1559028  32.3963500  94.9040503 111.3722642  33.2788138  94.6029332
 110.6753095  32.0049713  94.1746145 105.8958249  35.3549213 101.4811248
 105.7502830  35.6689516 102.3735530 105.4183453  35.9734113 100.9282147
 107.7554632  32.3451761 101.5292138 107.7416201  31.4492854 101.1924436
 108.4727060  32.3522425 102.1630424 114.5526952  45.8839888  96.3535350
 114.7263829  45.3186311  95.6009203 115.0455843  46.6840783  96.1714840
 100.3703912  37.8954557 104.4198909  99.8257380  38.6714365 104.5519184
 101.2483262  38.2425362 104.2618031 107.1591528  31.2266141  96.7979708
 107.2807439  30.2982787  96.9970595 106.8693571  31.2404827  95.8858023
 110.0282719  28.9121052  99.9346428 110.0504416  28.9760385  98.9798407
 110.4450778  28.0725560 100.1286934 120.4066343  38.6476311  97.9725650
 120.8497489  37.8983636  97.5744773 119.5292853  38.6386448  97.5899382
 115.5402124  45.2006653  93.4532249 116.2353029  45.8213345  93.6719563
 115.8825274  44.3502004  93.7284627 101.1569934  37.0224454 107.3129066
 100.4151670  37.1707089 107.8993697 100.8362678  37.2832719 106.4495816
 117.4393547  42.6506358  94.9819579 117.9644872  42.9893631  94.2568900
 117.3515900  41.7153374  94.7982714 109.1013596  46.5640432 107.1109456
 109.4100723  46.3189579 107.9832156 109.8989078  46.7687070 106.6228326
 109.1234208  48.7178342  99.3414833 108.6839198  48.2254720 100.0347689
 109.8742325  48.1751309  99.1006908 101.6026547  44.9089882  99.3439461
 102.4284567  44.6093654  98.9638104 101.2520599  44.1397505  99.7929249
 106.5708080  44.2616351 101.4137134 105.9488090  43.5987056 101.1139362
 107.2412947  44.2877483 100.7310782  99.8035152  42.8276209 100.3028394
  98.9667061  42.3998383 100.1212396  99.7758798  43.0208652 101.2399186
 106.1321587  42.8120274  94.8895595 106.2809708  43.4955738  94.2362268
 106.9388031  42.7925364  95.4045051 103.8874220  38.8385452  95.8956664
 103.6420262  37.9347782  96.0936874 104.0570135  38.8402602  94.9536142
 103.1569868  34.5713809  93.3942825 102.4639113  34.6458164  92.7382861
 102.9121620  33.8074153  93.9164342 109.6316993  45.3068404  92.3607342
 109.0590960  45.9258592  91.9077814 110.2049786  45.8567766  92.8947264
 112.8514253  45.5905555  93.4915925 113.7844926  45.5251116  93.6948800
 112.7637465  46.4261821  93.0330457 115.4802269  44.9071425  90.4519872
 115.4015901  44.5731289  91.3455630 116.3011936  45.3993193  90.4511344
 110.0163791  36.6429217  89.7023395 110.9622896  36.5135425  89.7711813
 109.6378036  35.9043879  90.1792823 108.2006708  34.5679194  89.6378280
 107.2938164  34.2712306  89.7140994 108.4782689  34.2709012  88.7712566
  99.1184649  35.8885557 100.0877326  98.7987433  35.0350865  99.7951700
  98.5718077  36.1034135 100.8435294 102.8964556  38.6047998 103.8046833
 103.1150566  39.5365106 103.8234867 103.3090330  38.2455972 104.5901637
 109.8168774  29.1116083  95.7922521 109.0069502  28.7663168  96.1677767
 110.5053191  28.8023627  96.3810133 111.7459322  28.1894130  97.4146818
 112.2990361  28.6089584  98.0736841 111.9829409  27.2629878  97.4569774
 106.9705493  31.4266129  89.7790259 107.8324657  31.7521027  90.0386077
 107.1555837  30.6397625  89.2663325  98.9872909  39.5088468 102.0570448
  98.2936380  39.0942421 101.5440402  99.7345900  39.5509005 101.4603867
 115.1238130  30.2994655  96.9225482 114.5436799  30.9579459  96.5403535
 114.8574062  29.4772000  96.5112900 100.9009651  39.4406722  99.9336463
 100.8780339  39.5394410  98.9818346 101.2110288  40.2871873 100.2553629
 103.5597029  41.4982877 104.0483077 104.5140283  41.4666820 103.9813009
 103.3609553  41.0373501 104.8633303 104.1496411  40.0683993 106.6153875
 104.9689300  40.5628072 106.6388712 104.4233219  39.1515961 106.5871442
 113.9063008  32.4594746  95.9781830 113.0188863  32.7444396  95.7602025
 114.3216997  32.2988509  95.1309107 101.9147258  47.0402497 101.0653275
 101.7801726  46.2802898 100.4991273 101.4979320  47.7643397 100.5982064
 113.0506221  42.2239420  90.0729850 113.7542071  42.4289423  90.6887506
 112.3268870  42.7916182  90.3378934 113.8804031  37.9749282  96.1932121
 113.8239233  38.4317833  95.3539753 114.4332374  37.2139966  96.0154963
 117.6908837  33.7639013  97.0182240 117.4345771  33.3635649  97.8490448
 117.0661705  34.4782807  96.8932379 105.0716384  47.9371814 101.2771718
 104.9548768  48.8817246 101.1750408 104.2508830  47.6345375 101.6657517
 114.9592918  42.6621950  92.1228311 115.7938522  42.2303148  91.9405785
 114.7977261  42.4903963  93.0505205 114.6138811  39.1654063  93.4884650
 114.5587614  38.9998334  92.5473094 113.9884866  39.8730096  93.6446840
  99.4031326  34.4022127 107.3146072 100.0490189  33.8921081 107.8033297
  99.1948477  35.1390809 107.8889497 107.9234936  28.6662172  93.0669968
 107.9113606  29.6104012  93.2238239 108.8158358  28.4832317  92.7729429
 106.0970898  48.5900076 104.4927646 106.9998145  48.6223686 104.8094141
 105.8708268  47.6600527 104.5073982 107.8524500  47.3431062 101.1537725
 106.9020131  47.3432924 101.0402097 108.1556986  46.5963797 100.6373760
 120.3966900  53.1319029 102.1545012 120.0585411  53.0160093 101.2665547
 121.2656668  52.7310194 102.1346018 116.2553715  54.9854505  98.1441903
 115.6918581  54.8944442  97.3758191 116.1406111  54.1654410  98.6244395
 113.8018147  56.4805697 100.9826123 114.5939439  56.1396521 100.5672423
 114.0414798  56.5900672 101.9028277 115.7608901  55.7414610  93.8543502
 116.5339777  55.1943597  93.7156378 116.1134300  56.6058859  94.0657964
 117.5993944  57.0690992 107.0610401 117.3083810  57.9736623 106.9457068
 118.2350928  57.1107520 107.7754471 118.5250151  54.4467841 103.6511761
 119.1213723  54.2223863 102.9368724 118.5825122  53.7052586 104.2537209
 118.0975179  51.9007276  91.4861952 118.3500700  51.3788797  90.7245415
 117.1599738  51.7373422  91.5888636 117.8171468  53.8035382  93.6886327
 117.7007726  53.1280285  94.3567411 117.9273728  53.3167756  92.8718480
 120.1603009  53.2645529  97.3933016 119.7961216  52.7376150  98.1045938
 121.0170125  52.8743998  97.2199502 119.8008496  48.2935429  92.3894365
 119.9682898  49.1615665  92.7564836 119.6105665  48.4562711  91.4655654
 116.0096310  53.2066205 100.0896900 115.0846807  53.0742419 100.2974591
 116.2580724  53.9860424 100.5866842 119.7797717  50.7493086  93.3741032
 119.6597342  51.1950137  94.2126512 119.0850305  51.0978404  92.8154570
 113.3705122  52.8499478 100.9240689 113.4997503  53.1033957 101.8380100
 112.6902573  53.4427186 100.6045344 117.5404609  63.5196728  97.0231163
 117.4628639  64.4704553  97.1019643 116.9366252  63.1742601  97.6806089
 119.6380327  55.9414786  98.8585032 120.1018673  56.2202489  98.0689655
 119.3737125  55.0398231  98.6758123 116.5304408  55.4886268 101.7964795
 117.1005765  55.9173536 101.1582280 117.1212520  55.2068852 102.4948981
 118.5749213  52.0637938  95.6674597 119.2773256  52.5158982  96.1348524
 118.2429842  51.4221757  96.2954490 112.3174547  50.3221491 100.9691731
 111.5273601  50.5779020 100.4931842 112.8085794  51.1369829 101.0743771
 114.2689292  50.6866070  97.9275208 113.4720456  50.7984765  98.4458703
 114.0414885  51.0252723  97.0616098 120.0994960  57.2110774 105.8757722
 120.1639393  57.6731181 106.7115894 119.3905884  56.5808139 106.0040032
 110.6012250  50.5751982 103.4006722 110.8520288  51.4598991 103.6664298
 111.1371798  50.3956583 102.6281814 119.8142978  58.8778881  95.7436703
 119.6788653  59.7230417  96.1721550 120.3552790  59.0798159  94.9802636
 113.2672375  56.3954319  96.3164628 113.7796896  57.1897569  96.4670192
 113.9195088  55.6980610  96.2498229 115.0767260  59.5120075  98.3987381
 115.2533888  60.4338040  98.2108365 115.8724093  59.1978495  98.8281761
 114.3619616  51.5584707 108.2749544 114.2473131  50.6569965 108.5756643
 113.5064134  51.8048404 107.9234361 116.1998575  61.0298249 104.3997723
 116.7506000  60.9015313 103.6274717 115.3610051  61.3293138 104.0492616
 119.9965746  57.2949377 108.7441954 120.5294083  56.5337665 108.5141262
 119.4679827  57.0023029 109.4866109 111.2321292  54.7242973  97.0924198
 112.0696514  55.1339982  96.8757906 111.4099560  53.7842416  97.0624392
 120.7132835  47.2367755  97.8393270 119.8574431  46.8474605  97.6598908
 121.1259787  47.3159716  96.9793055 118.4874868  44.8552828 101.2451011
 119.3527864  44.6595637 100.8856901 118.5552376  44.6263180 102.1720368
 121.3618459  56.4235369  96.2560766 120.8339821  55.6888129  95.9434004
 120.8605962  57.2010046  96.0100735 116.0937187  47.0855036  98.6167378
 116.6680939  46.8630217  97.8840571 116.6808169  47.1543730  99.3695979
 116.4206774  49.1159497  92.6363263 115.5844086  49.4534183  92.9572538
 116.2811543  48.9808477  91.6990400 118.3959854  43.9596285  97.3442447
 117.7424267  43.6445302  96.7199062 118.3540328  43.3372025  98.0702270
 119.5071059  54.2415580  89.2595739 118.5998121  54.0104833  89.4586888
 120.0042091  53.4453199  89.4469721 120.6859293  54.3428175  93.7819729
 119.7770512  54.0587207  93.8792199 120.7154376  54.7627253  92.9223036
 111.2547463  52.0633689  97.7634932 111.0571863  51.4703049  97.0385998
 110.6994127  51.7585899  98.4810870 119.2344187  51.9556795  99.8829525
 119.2892796  51.0030632  99.8072001 118.4235389  52.1116234 100.3670823
 120.3835380  55.8836918  91.1207808 119.9454810  55.1672777  90.6613445
 121.1245821  56.1113033  90.5592899 117.1736547  50.5733855  97.6419904
 116.3604412  50.8728026  98.0485096 117.6695541  50.1789544  98.3594386
 119.3245124  60.5691612  99.5754168 119.2821303  60.7952458  98.6462700
 120.2407823  60.3354986  99.7239970 116.6650621  48.1452210 103.2581139
 117.3050001  48.0040970 102.5604102 115.8328152  47.8586724 102.8819741
 117.4410925  57.4454641  99.3716131 118.2351524  56.9504961  99.1698706
 116.7302618  56.9172504  99.0083837 113.7493689  51.5897723  95.4475884
 112.8191277  51.5282178  95.6645846 113.8451161  51.0673675  94.6512525
 113.6679238  48.1152535  98.0354125 113.9286055  49.0297869  97.9263286
 114.4896410  47.6476978  98.1850738 115.1404163  49.5290293 105.2052950
 115.8127217  49.3207655 104.5565599 114.3133950  49.3312379 104.7658182
 120.0182201  58.0183663 103.0513968 119.8793287  57.6502447 103.9239906
 119.2296797  58.5331302 102.8797926 120.6130353  63.1192759  94.3939505
 120.7882109  62.6480803  95.2085127 119.9263141  63.7458526  94.6220765
 121.5687416  57.3965266 100.4402806 121.2337249  57.3566036 101.3360456
 121.0691362  56.7309982  99.9673216 115.5431660  52.8032896 105.9655387
 115.4051458  52.0713134 106.5666926 116.4536584  52.7141796 105.6839575
 118.1713961  52.5152855 105.4539067 118.8813580  51.8746047 105.4125685
 118.1283269  52.7665750 106.3765248 115.1791439  66.2682122 101.1679365
 115.4188037  66.9000646 101.8458383 114.3360635  65.9170162 101.4544724
 116.2945154  48.9606724  89.8361170 115.4174620  48.8395525  89.4723417
 116.7702907  48.1692803  89.5840059 107.8147294  53.7483884  99.9302677
 108.5018334  53.4345614  99.3423692 107.6595423  54.6525249  99.6569928
 112.6182016  48.6374081 104.3587701 112.5340205  48.0299750 103.6238111
 111.7964723  49.1283099 104.3597197 119.6919300  62.0761245 103.5720869
 119.6189472  62.8816216 104.0840173 119.2496693  62.2753210 102.7468890
 119.4809080  61.3133015  97.0823690 118.6976602  61.8554695  97.1761915
 120.1801825  61.8306994  97.4817932 119.3740699  49.2645027  99.4529580
 119.0038486  48.7116067 100.1410486 119.8699791  48.6603161  98.9004580
 117.2029897  59.7242522 106.5484598 117.9039357  60.3579005 106.7013993
 116.7325012  60.0657254 105.7880238 112.7997616  59.2578877 103.4815701
 113.3851052  58.5122565 103.6143605 112.6022454  59.5682834 104.3652365
 115.6536271  62.2930125  98.4978143 114.9846646  62.7776252  98.0142183
 115.5149140  62.5399345  99.4121522 107.3915270  51.8284477 102.2020144
 107.4299370  51.2948068 102.9957262 106.8855563  51.3019683 101.5831121
 119.7941539  64.3273868 105.0960802 120.3459847  64.4905490 105.8609887
 120.1347733  64.9178306 104.4240827 114.7706033  46.6749018 105.6982686
 114.8347359  47.5363849 105.2860084 114.7073153  46.0623019 104.9655045
 111.0223848  50.5548579  95.2774076 111.3177289  49.6459258  95.2241129
 110.1211884  50.5336319  94.9555078 114.5518095  48.6304576 101.2601624
 113.8304681  49.2440544 101.1209097 115.3411351  49.1662341 101.1818270
 112.7511689  48.2362677  95.4013401 112.4224396  47.3560056  95.2188507
 113.1051060  48.1810346  96.2889790 115.8653513  48.5235647  95.7688878
 116.2049585  49.0521568  95.0467487 116.3125633  48.8616053  96.5447445
 117.8521660  47.0210269  93.9682171 118.5730022  47.3991521  93.4645888
 117.2286964  47.7399145  94.0717149 116.7352004  50.6841131 101.4811248
 116.5896585  50.9981434 102.3735530 116.2577208  51.3026031 100.9282147
 118.5948387  47.6743679 101.5292138 118.5809956  46.7784772 101.1924436
 119.3120815  47.6814342 102.1630424 111.2097666  53.2246475 104.4198909
 110.6651134  54.0006283 104.5519184 112.0877016  53.5717280 104.2618031
 117.9985283  46.5558059  96.7979708 118.1201194  45.6274705  96.9970595
 117.7087325  46.5696745  95.8858023 120.8676473  44.2412969  99.9346428
 120.8898170  44.3052303  98.9798407 121.2844532  43.4017478 100.1286934
 111.9963688  52.3516371 107.3129066 111.2545424  52.4999007 107.8993697
 111.6756432  52.6124637 106.4495816 119.9407351  61.8932350 107.1109456
 120.2494477  61.6481496 107.9832156 120.7382833  62.0978988 106.6228326
 119.9627963  64.0470259  99.3414833 119.5232953  63.5546638 100.0347689
 120.7136080  63.5043227  99.1006908 112.4420302  60.2381800  99.3439461
 113.2678322  59.9385572  98.9638104 112.0914354  59.4689423  99.7929249
 117.4101835  59.5908268 101.4137134 116.7881844  58.9278973 101.1139362
 118.0806702  59.6169400 100.7310782 110.6428907  58.1568127 100.3028394
 109.8060815  57.7290301 100.1212396 110.6152552  58.3500570 101.2399186
 116.9715342  58.1412192  94.8895595 117.1203462  58.8247656  94.2362268
 117.7781785  58.1217282  95.4045051 114.7267975  54.1677369  95.8956664
 114.4814017  53.2639699  96.0936874 114.8963889  54.1694520  94.9536142
 113.9963622  49.9005727  93.3942825 113.3032867  49.9750082  92.7382861
 113.7515374  49.1366071  93.9164342 120.4710747  60.6360322  92.3607342
 119.8984714  61.2550509  91.9077814 121.0443541  61.1859684  92.8947264
 119.0400463  49.8971111  89.6378280 118.1331918  49.6004224  89.7140994
 119.3176444  49.6000929  88.7712566 109.9578403  51.2177475 100.0877326
 109.6381188  50.3642783  99.7951700 109.4111831  51.4326053 100.8435294
 113.7358311  53.9339916 103.8046833 113.9544321  54.8657023 103.8234867
 114.1484085  53.5747890 104.5901637 120.6562529  44.4408001  95.7922521
 119.8463257  44.0955086  96.1677767 121.3446946  44.1315545  96.3810133
 117.8099248  46.7558046  89.7790259 118.6718412  47.0812945  90.0386077
 117.9949592  45.9689542  89.2663325 109.8266663  54.8380386 102.0570448
 109.1330135  54.4234339 101.5440402 110.5739654  54.8800923 101.4603867
 111.7403406  54.7698640  99.9336463 111.7174094  54.8686327  98.9818346
 112.0504042  55.6163791 100.2553629 114.3990784  56.8274795 104.0483077
 115.3534037  56.7958737 103.9813009 114.2003307  56.3665419 104.8633303
 114.9890166  55.3975911 106.6153875 115.8083055  55.8919990 106.6388712
 115.2626974  54.4807879 106.5871442 112.7541012  62.3694414 101.0653275
 112.6195480  61.6094815 100.4991273 112.3373075  63.0935314 100.5982064
 115.9110138  63.2663731 101.2771718 115.7942523  64.2109164 101.1750408
 115.0902585  62.9637293 101.6657517 110.2425080  49.7314045 107.3146072
 110.8883944  49.2212999 107.8033297 110.0342231  50.4682727 107.8889497
 118.7628691  43.9954090  93.0669968 118.7507360  44.9395929  93.2238239
 119.6552112  43.8124235  92.7729429 116.9364652  63.9191993 104.4927646
 117.8391899  63.9515604 104.8094141 116.7102023  62.9892444 104.5073982
 118.6918255  62.6722980 101.1537725 117.7413886  62.6724842 101.0402097
 118.9950741  61.9255714 100.6373760 118.6541049  69.0775802  99.9302677
 119.3412088  68.7637532  99.3423692 118.4989177  69.9817166  99.6569928
 118.2309025  67.1576395 102.2020144 118.2693124  66.6239986 102.9957262
 117.7249318  66.6311601 101.5831121 121.4822661  73.4860044 100.3028394
 120.6454570  73.0582219 100.1212396 121.4546307  73.6792488 101.2399186
 120.7972158  66.5469392 100.0877326 120.4774942  65.6934701  99.7951700
 120.2505586  66.7617970 100.8435294 120.6660418  70.1672304 102.0570448
 119.9723889  69.7526257 101.5440402 121.4133409  70.2092840 101.4603867
  95.8617101   9.8675015  83.7476469  95.7841131  10.8182840  83.8264950
  95.2578745   9.5220888  84.4051396  93.5003931  12.6160409  87.8924672
  93.7400529  13.2478934  88.5703690  92.6573127  12.2648449  88.1790031
  93.9748763   8.6408412  85.2223450  93.3059138   9.1254539  84.7387490
  93.8361633   8.8877632  86.1366829  98.1154032  10.6752155  91.8206108
  98.6672340  10.8383777  92.5855194  98.4560225  11.2656593  91.1486133
  91.0753505   8.7172702  87.7898582  90.9407973   7.9573103  87.2236580
  90.6585567   9.4413602  87.3227371  94.2322631   9.6142019  88.0017024
  94.1155015  10.5587451  87.8995715  93.4115077   9.3115580  88.3902824
  95.2577145  10.2670281  91.2172953  96.1604391  10.2993891  91.5339448
  95.0314515   9.3370732  91.2319289 109.5573147  14.8089234  88.8790319
 109.2191658  14.6930298  87.9910853 110.4262915  14.4080399  88.8591325
 105.4159962  16.6624710  84.8687210 104.8524827  16.5714647  84.1003497
 105.3012357  15.8424615  85.3489702 102.9624394  18.1575902  87.7071430
 103.7545686  17.8166726  87.2917729 103.2021044  18.2670877  88.6273583
 110.9959521  20.3295678  80.1801674 110.3447501  20.9149758  79.7935688
 111.7903884  20.8601873  80.2396712 104.9215148  17.4184815  80.5788809
 105.6946024  16.8713802  80.4401685 105.2740547  18.2829064  80.7903270
 106.7600191  18.7461197  93.7855708 106.4690057  19.6506828  93.6702374
 107.3957175  18.7877725  94.4999778 107.6856398  16.1238046  90.3757068
 108.2819970  15.8994068  89.6614031 107.7431369  15.3822791  90.9782516
 112.4734786  18.0186110  80.7170659 111.8380619  18.0920736  81.4291563
 112.1432193  18.6079709  80.0389738 106.9777715  15.4805587  80.4131634
 106.8613973  14.8050490  81.0812718 107.0879975  14.9937961  79.5963787
 109.3209256  14.9415734  84.1178323 108.9567463  14.4146355  84.8291244
 110.1776372  14.5514203  83.9444808 111.7190076  18.4322613  90.7805502
 111.4190799  19.3347652  90.6721309 111.3741135  18.1654796  91.6326655
 105.1702557  14.8836410  86.8142206 104.2453054  14.7512624  87.0219898
 105.4186970  15.6630629  87.3112149 102.5311368  14.5269683  87.6485995
 102.6603749  14.7804162  88.5625407 101.8508820  15.1197391  87.3290650
 106.7010856  25.1966933  83.7476469 106.6234885  26.1474758  83.8264950
 106.0972499  24.8512806  84.4051396 113.2458612  17.8810583  88.3180254
 112.6167474  18.0456297  87.6156322 112.8584274  18.2952192  89.0891218
 117.1247844  18.8165021  85.6724618 116.4398882  19.1963922  85.1221651
 117.2091693  19.4260347  86.4056565 108.7986574  17.6184991  85.5830339
 109.2624919  17.8972694  84.7934961 108.5343372  16.7168436  85.4003430
 105.6910655  17.1656473  88.5210102 106.2612012  17.5943741  87.8827587
 106.2818767  16.8839057  89.2194288 101.4780794  11.9991696  87.6937038
 100.6879848  12.2549225  87.2177148 101.9692041  12.8140034  87.7989078
 103.4295539  12.3636275  84.6520514 102.6326702  12.4754970  85.1704010
 103.2021131  12.7022928  83.7861405 109.2601207  18.8880979  92.6003029
 109.3245639  19.3501386  93.4361201 108.5512131  18.2578343  92.7285339
  99.7618497  12.2522186  90.1252028 100.0126535  13.1369196  90.3909604
 100.2978045  12.0726788  89.3527120 108.9749224  20.5549086  82.4682009
 108.8394899  21.4000622  82.8966857 109.5159037  20.7568364  81.7047943
 102.4278622  18.0724524  83.0409934 102.9403142  18.8667774  83.1915499
 103.0801335  17.3750814  82.9743536 104.2373507  21.1890280  85.1232687
 104.4140135  22.1108245  84.9353671 105.0330340  20.8748700  85.5527067
 103.5225863  13.2354912  94.9994851 103.4079378  12.3340169  95.3001950
 102.6670381  13.4818609  94.6479667 105.3604822  22.7068454  91.1243030
 105.9112247  22.5785517  90.3520024 104.5216298  23.0063343  90.7737923
 109.1571993  18.9719582  95.4687261 109.6900330  18.2107870  95.2386569
 108.6286074  18.6793234  96.2111415 100.3927539  16.4013178  83.8169505
 101.2302761  16.8110187  83.6003213 100.5705806  15.4612621  83.7869699
 110.5224706  18.1005574  82.9806073 109.9946067  17.3658334  82.6679310
 110.0212209  18.8780251  82.7346041 115.5017552  16.2954595  88.0973119
 114.8441226  16.9853856  88.1853248 116.3057951  16.6851027  88.4407106
 108.6677306  15.9185785  75.9841046 107.7604368  15.6875038  76.1832195
 109.1648338  15.1223404  76.1715028 111.5745385  24.6283292  78.9037732
 110.9007084  24.9314989  79.5122690 111.9611207  25.4312372  78.5543189
 109.8465539  16.0198380  80.5065036 108.9376759  15.7357412  80.6037506
 109.8760623  16.4397458  79.6468343 115.0784807  19.6304969  84.2756204
 114.6247134  18.7895879  84.3321394 114.4478774  20.2666367  84.6130984
 113.5217746  21.4681466  85.2106022 113.8140720  22.0286523  84.4918387
 114.0316367  21.7610027  85.9659181 100.4153710  13.7403894  84.4880238
 100.2178110  13.1473254  83.7631305  99.8600374  13.4356104  85.2056177
 109.5441627  17.5607123  77.8453115 109.1061057  16.8442982  77.3858752
 110.2852068  17.7883238  77.2838206 108.4851371  22.2461817  86.2999475
 108.4427550  22.4722663  85.3708007 109.4014070  22.0125191  86.4485276
 106.6017172  19.1224846  86.0961438 107.3957771  18.6275166  85.8944013
 105.8908864  18.5942709  85.7329143 111.4212017  21.5042941  90.4473805
 111.4749039  22.0733878  91.2151521 110.5526798  21.6744826  90.0827842
 102.9099936  13.2667928  82.1721190 101.9797524  13.2052383  82.3891153
 103.0057407  12.7443880  81.3757832 110.3800116  15.6703203  92.0060737
 111.3092176  15.8214363  91.8329705 109.9591146  15.7587224  91.1509384
 109.1788448  19.6953868  89.7759275 109.0399534  19.3272652  90.6485213
 108.3903044  20.2101507  89.6043233 109.7736600  24.7962964  81.1184811
 109.9488356  24.3251007  81.9330434 109.0869388  25.4228730  81.3466072
 110.7293663  19.0735471  87.1648113 110.3943496  19.0336240  88.0605762
 110.2297609  18.4080186  86.6918523 104.7037907  14.4803101  92.6900694
 104.5657705  13.7483339  93.2912233 105.6142831  14.3912001  92.4084882
 113.6652855  16.4191505  77.4385172 113.0482025  15.6938333  77.3418225
 113.1969343  17.1800865  77.0952247 107.3320208  14.1923060  92.1784373
 108.0419826  13.5516252  92.1370992 107.2889516  14.4435955  93.1010554
 104.3397685  27.9452327  87.8924672 104.5794284  28.5770851  88.5703690
 103.4966882  27.5940367  88.1790031  96.9753541  15.4254089  86.6547984
  97.6624581  15.1115819  86.0668999  96.8201670  16.3295454  86.3815235
 108.8525547  23.7531449  90.2966176 108.7795719  24.5586421  90.8085480
 108.4102940  23.9523415  89.4714197 108.6415327  22.9903220  83.8068997
 107.8582849  23.5324900  83.9007222 109.3408072  23.5077199  84.2063238
 111.3124231  23.6518284  92.4524334 112.0252203  24.2865748  92.3800236
 110.8214259  23.7482150  91.6364336 113.0341758  17.5569536  84.0241626
 112.0998036  17.6770999  83.8546330 113.2118426  16.6542003  83.7601636
 106.3636144  21.4012727  93.2729905 107.0645604  22.0349210  93.4259299
 105.8931259  21.7427459  92.5125544 114.4890540  19.7430677  81.5577812
 114.7650384  19.6287271  82.4671686 113.6195039  19.3448162  81.5189985
 111.1244604  23.9917028  85.2010626 111.3066999  23.1738684  85.6638378
 111.9477590  24.2084720  84.7635516 111.4586770  22.9185213  82.4625674
 111.9874536  22.4077667  81.8495836 111.7214989  22.6027743  83.3271207
 101.9603862  20.9349082  90.2061008 102.5457299  20.1892770  90.3388912
 101.7628701  21.2453039  91.0897672 104.8142517  23.9700329  85.2223450
 104.1452893  24.4546457  84.7387490 104.6755387  24.2169550  86.1366829
  96.5521517  13.5054682  88.9265451  96.5905617  12.9718273  89.7202569
  96.0461810  12.9789888  88.3076428 108.9547786  26.0044073  91.8206108
 109.5066094  26.1675694  92.5855194 109.2953980  26.5948511  91.1486133
 100.1830095  12.2318784  82.0019382 100.4783536  11.3229463  81.9486436
  99.2818130  12.2106524  81.6800385 112.0916173  23.9526048  88.8069791
 111.9667313  23.1515788  88.2980736 112.7495264  24.4472242  88.3183761
 114.1551082  21.7535069  90.4349341 113.2081417  21.6340420  90.3627667
 114.5033855  20.8657567  90.5175602 111.1597515  21.5487785  86.6353693
 111.0122477  20.6204492  86.8161263 111.9851009  21.5707875  86.1510768
 114.7631637  22.3716343  87.7218566 115.6878184  22.1659205  87.5843017
 114.5946940  22.1232745  88.6307907 114.5526953  22.8902011  83.0780657
 114.7263831  22.3248433  82.3254510 115.0455844  23.6902906  82.8960147
 100.3703913  14.9016680  91.1444216  99.8257381  15.6776488  91.2764490
 101.2483263  15.2487485  90.9863337 115.5402126  22.2068775  80.1777555
 116.2353030  22.8275468  80.3964870 115.8825276  21.3564127  80.4529933
 101.1569935  14.0286576  94.0374373 100.4151671  14.1769212  94.6239003
 100.8362679  14.2894842  93.1741122 117.4393549  19.6568481  81.7064886
 117.9644873  19.9955754  80.9814206 117.3515901  18.7215496  81.5228021
 109.1013597  23.5702555  93.8354763 109.4100724  23.3251701  94.7077462
 109.8989079  23.7749193  93.3473633 109.1234209  25.7240464  86.0660139
 108.6839200  25.2316843  86.7592996 109.8742326  25.1813432  85.8252215
 101.6026548  21.9152005  86.0684767 102.4284568  21.6155777  85.6883411
 101.2520600  21.1459627  86.5174556 106.5708082  21.2678473  88.1382441
 105.9488091  20.6049178  87.8384669 107.2412948  21.2939605  87.4556089
  99.8035153  19.8338331  87.0273701  98.9667062  19.4060506  86.8457702
  99.7758799  20.0270775  87.9644492 106.1321589  19.8182397  81.6140902
 106.2809709  20.5017861  80.9607574 106.9388032  19.7987487  82.1290357
 103.8874221  15.8447574  82.6201970 103.6420263  14.9409904  82.8182181
 104.0570136  15.8464725  81.6781448 109.6316994  22.3130527  79.0852649
 109.0590961  22.9320714  78.6323121 110.2049788  22.8629889  79.6192571
 112.8514254  22.5967677  80.2161231 113.7844927  22.5313239  80.4194107
 112.7637467  23.4323944  79.7575764 115.4802270  21.9133548  77.1765179
 115.4015902  21.5793411  78.0700937 116.3011937  22.4055315  77.1756651
  99.1184650  12.8947680  86.8122633  98.7987434  12.0412988  86.5197007
  98.5718078  13.1096258  87.5680600 102.8964558  15.6110121  90.5292140
 103.1150567  16.5427228  90.5480173 103.3090331  15.2518095  91.3146943
  98.9872910  16.5150591  88.7815755  98.2936381  16.1004544  88.2685709
  99.7345901  16.5571128  88.1849174 100.9009653  16.4468845  86.6581770
 100.8780341  16.5456532  85.7063653 101.2110289  17.2933996  86.9798936
 103.5597030  18.5045000  90.7728384 104.5140284  18.4728942  90.7058316
 103.3609554  18.0435624  91.5878610 104.1496413  17.0746116  93.3399182
 104.9689302  17.5690195  93.3634019 104.4233220  16.1578084  93.3116749
 101.9147259  24.0464619  87.7898582 101.7801727  23.2865020  87.2236580
 101.4979322  24.7705519  87.3227371 113.0506222  19.2301543  76.7975157
 113.7542072  19.4351545  77.4132813 112.3268871  19.7978305  77.0624241
 105.0716385  24.9433936  88.0017024 104.9548769  25.8879369  87.8995715
 104.2508831  24.6407498  88.3902824 114.9592920  19.6684072  78.8473617
 115.7938524  19.2365271  78.6651092 114.7977263  19.4966086  79.7750512
 114.6138812  16.1716185  80.2129956 114.5587616  16.0060457  79.2718401
 113.9884867  16.8792218  80.3692146  99.4031327  11.4084250  94.0391379
 100.0490190  10.8983204  94.5278604  99.1948478  12.1452931  94.6134804
 106.0970899  25.5962198  91.2172953 106.9998146  25.6285809  91.5339448
 105.8708269  24.6662649  91.2319289 107.8524501  24.3493185  87.8783032
 106.9020132  24.3495046  87.7647404 108.1556987  23.6025919  87.3619066
 120.3966901  30.1381151  88.8790319 120.0585413  30.0222216  87.9910853
 121.2656669  29.7372316  88.8591325 116.2553717  31.9916628  84.8687210
 115.6918582  31.9006565  84.1003497 116.1406112  31.1716532  85.3489702
 113.8018149  33.4867819  87.7071430 114.5939441  33.1458644  87.2917729
 114.0414799  33.5962794  88.6273583 115.7608903  32.7476733  80.5788809
 116.5339779  32.2005720  80.4401685 116.1134301  33.6120982  80.7903270
 117.5993945  34.0753115  93.7855708 117.3083811  34.9798746  93.6702374
 118.2350930  34.1169642  94.4999778 118.5250152  31.4529963  90.3757068
 119.1213724  31.2285986  89.6614031 118.5825124  30.7114709  90.9782516
 118.0975180  28.9069399  78.2107259 118.3500701  28.3850920  77.4490722
 117.1599740  28.7435544  78.3133942 117.8171469  30.8097505  80.4131634
 117.7007727  30.1342408  81.0812718 117.9273729  30.3229879  79.5963787
 120.1603010  30.2707652  84.1178323 119.7961217  29.7438273  84.8291244
 121.0170126  29.8806121  83.9444808 119.8008497  25.2997551  79.1139671
 119.9682899  26.1677788  79.4810142 119.6105666  25.4624833  78.1900961
 116.0096312  30.2128327  86.8142206 115.0846808  30.0804541  87.0219898
 116.2580725  30.9922546  87.3112149 119.7797718  27.7555209  80.0986338
 119.6597343  28.2012260  80.9371819 119.0850306  28.1040527  79.5399876
 113.3705123  29.8561601  87.6485995 113.4997504  30.1096080  88.5625407
 112.6902574  30.4489309  87.3290650 117.5404610  40.5258851  83.7476469
 117.4628640  41.4766676  83.8264950 116.9366254  40.1804723  84.4051396
 119.6380328  32.9476909  85.5830339 120.1018674  33.2264612  84.7934961
 119.3737126  32.0460353  85.4003430 116.5304409  32.4948390  88.5210102
 117.1005766  32.9235659  87.8827587 117.1212521  32.2130975  89.2194288
 118.5749214  29.0700061  82.3919904 119.2773258  29.5221105  82.8593830
 118.2429843  28.4283880  83.0199797 112.3174548  27.3283614  87.6937038
 111.5273602  27.5841142  87.2177148 112.8085796  28.1431952  87.7989078
 114.2689294  27.6928193  84.6520514 113.4720457  27.8046887  85.1704010
 114.0414886  28.0314845  83.7861405 120.0994961  34.2172896  92.6003029
 120.1639394  34.6793303  93.4361201 119.3905885  33.5870261  92.7285339
 110.6012251  27.5814104  90.1252028 110.8520290  28.4661114  90.3909604
 111.1371800  27.4018706  89.3527120 119.8142979  35.8841004  82.4682009
 119.6788654  36.7292539  82.8966857 120.3552791  36.0860281  81.7047943
 113.2672376  33.4016442  83.0409934 113.7796897  34.1959692  83.1915499
 113.9195089  32.7042732  82.9743536 115.0767261  36.5182198  85.1232687
 115.2533889  37.4400163  84.9353671 115.8724095  36.2040617  85.5527067
 114.3619618  28.5646830  94.9994851 114.2473133  27.6632087  95.3001950
 113.5064135  28.8110527  94.6479667 116.1998577  38.0360372  91.1243030
 116.7506002  37.9077435  90.3520024 115.3610052  38.3355261  90.7737923
 119.9965748  34.3011500  95.4687261 120.5294084  33.5399788  95.2386569
 119.4679829  34.0085151  96.2111415 111.2321293  31.7305096  83.8169505
 112.0696515  32.1402104  83.6003213 111.4099561  30.7904538  83.7869699
 120.7132836  24.2429877  84.5638576 119.8574433  23.8536728  84.3844215
 121.1259788  24.3221838  83.7038362 118.4874869  21.8614950  87.9696318
 119.3527866  21.6657759  87.6102207 118.5552378  21.6325302  88.8965674
 121.3618460  33.4297492  82.9806073 120.8339822  32.6950252  82.6679310
 120.8605963  34.2072168  82.7346041 116.0937188  24.0917158  85.3412684
 116.6680940  23.8692340  84.6085877 116.6808170  24.1605853  86.0941286
 116.4206775  26.1221619  79.3608570 115.5844087  26.4596306  79.6817844
 116.2811545  25.9870599  78.4235707 118.3959856  20.9658407  84.0687754
 117.7424268  20.6507424  83.4444369 118.3540330  20.3434148  84.7947577
 119.5071060  31.2477702  75.9841046 118.5998122  31.0166956  76.1832195
 120.0042092  30.4515322  76.1715028 120.6859294  31.3490297  80.5065036
 119.7770513  31.0649330  80.6037506 120.7154378  31.7689376  79.6468343
 111.2547464  29.0695811  84.4880238 111.0571864  28.4765172  83.7631305
 110.6994128  28.7648022  85.2056177 119.2344188  28.9618918  86.6074831
 119.2892798  28.0092754  86.5317308 118.4235390  29.1178357  87.0916130
 120.3835382  32.8899041  77.8453115 119.9454812  32.1734900  77.3858752
 121.1245823  33.1175156  77.2838206 117.1736548  27.5795978  84.3665210
 116.3604413  27.8790148  84.7730402 117.6695542  27.1851666  85.0839693
 119.3245126  37.5753734  86.2999475 119.2821305  37.8014581  85.3708007
 120.2407825  37.3417109  86.4485276 116.6650623  25.1514333  89.9826445
 117.3050002  25.0103092  89.2849409 115.8328153  24.8648846  89.6065047
 117.4410927  34.4516763  86.0961438 118.2351525  33.9567084  85.8944013
 116.7302619  33.9234627  85.7329143 113.7493690  28.5959845  82.1721190
 112.8191278  28.5344301  82.3891153 113.8451162  28.0735798  81.3757832
 113.6679239  25.1214658  84.7599432 113.9286056  26.0359991  84.6508593
 114.4896411  24.6539101  84.9096045 115.1404164  26.5352415  91.9298257
 115.8127218  26.3269777  91.2810906 114.3133951  26.3374501  91.4903489
 120.0182203  35.0245785  89.7759275 119.8793288  34.6564570  90.6485213
 119.2296799  35.5393425  89.6043233 120.6130354  40.1254882  81.1184811
 120.7882110  39.6542925  81.9330434 119.9263143  40.7520648  81.3466072
 121.5687418  34.4027388  87.1648113 121.2337250  34.3628158  88.0605762
 121.0691363  33.7372104  86.6918523 115.5431662  29.8095018  92.6900694
 115.4051460  29.0775257  93.2912233 116.4536585  29.7203918  92.4084882
 118.1713962  29.5214978  92.1784373 118.8813581  28.8808170  92.1370992
 118.1283270  29.7727872  93.1010554 115.1791440  43.2744245  87.8924672
 115.4188038  43.9062769  88.5703690 114.3360636  42.9232285  88.1790031
 116.2945155  25.9668847  76.5606477 115.4174622  25.8457648  76.1968723
 116.7702908  25.1754925  76.3085365 107.8147295  30.7546007  86.6547984
 108.5018335  30.4407737  86.0668999 107.6595424  31.6587371  86.3815235
 112.6182018  25.6436203  91.0833007 112.5340206  25.0361873  90.3483417
 111.7964724  26.1345221  91.0842504 119.6919302  39.0823367  90.2966176
 119.6189473  39.8878339  90.8085480 119.2496695  39.2815333  89.4714197
 119.4809081  38.3195137  83.8068997 118.6976603  38.8616817  83.9007222
 120.1801826  38.8369117  84.2063238 119.3740700  26.2707150  86.1774887
 119.0038488  25.7178190  86.8655793 119.8699793  25.6665283  85.6249887
 117.2029899  36.7304645  93.2729905 117.9039358  37.3641128  93.4259299
 116.7325014  37.0719376  92.5125544 112.7997617  36.2641000  90.2061008
 113.3851054  35.5184688  90.3388912 112.6022455  36.5744956  91.0897672
 115.6536272  39.2992247  85.2223450 114.9846647  39.7838375  84.7387490
 115.5149142  39.5461468  86.1366829 107.3915271  28.8346600  88.9265451
 107.4299371  28.3010191  89.7202569 106.8855564  28.3081805  88.3076428
 119.7941541  41.3335991  91.8206108 120.3459849  41.4967612  92.5855194
 120.1347734  41.9240428  91.1486133 114.7706034  23.6811140  92.4227993
 114.8347360  24.5425971  92.0105391 114.7073154  23.0685142  91.6900352
 111.0223849  27.5610702  82.0019382 111.3177290  26.6521380  81.9486436
 110.1211885  27.5398442  81.6800385 114.5518096  25.6366699  87.9846931
 113.8304682  26.2502666  87.8454404 115.3411352  26.1724463  87.9063577
 112.7511691  25.2424800  82.1258707 112.4224397  24.3622179  81.9433813
 113.1051061  25.1872468  83.0135097 115.8653514  25.5297770  82.4934185
 116.2049586  26.0583691  81.7712793 116.3125634  25.8678176  83.2692752
 117.8521661  24.0272391  80.6927478 118.5730023  24.4053644  80.1891195
 117.2286965  24.7461268  80.7962456 116.7352005  27.6903253  88.2056555
 116.5896586  28.0043556  89.0980836 116.2577209  28.3088154  87.6527453
 118.5948388  24.6805801  88.2537444 118.5809957  23.7846895  87.9169742
 119.3120816  24.6876465  88.8875730 111.2097667  30.2308598  91.1444216
 110.6651135  31.0068406  91.2764490 112.0877017  30.5779402  90.9863337
 117.9985284  23.5620182  83.5225014 118.1201195  22.6336828  83.7215902
 117.7087326  23.5758868  82.6103330 120.8676474  21.2475092  86.6591734
 120.8898171  21.3114425  85.7043714 121.2844533  20.4079601  86.8532240
 111.9963689  29.3578494  94.0374373 111.2545425  29.5061129  94.6239003
 111.6756434  29.6186760  93.1741122 119.9407352  38.8994472  93.8354763
 120.2494478  38.6543619  94.7077462 120.7382834  39.1041111  93.3473633
 119.9627964  41.0532382  86.0660139 119.5232954  40.5608761  86.7592996
 120.7136081  40.5105350  85.8252215 112.4420303  37.2443923  86.0684767
 113.2678323  36.9447695  85.6883411 112.0914355  36.4751545  86.5174556
 117.4101836  36.5970391  88.1382441 116.7881845  35.9341096  87.8384669
 118.0806703  36.6231523  87.4556089 110.6428908  35.1630249  87.0273701
 109.8060816  34.7352424  86.8457702 110.6152553  35.3562693  87.9644492
 116.9715343  35.1474314  81.6140902 117.1203463  35.8309779  80.9607574
 117.7781786  35.1279404  82.1290357 114.7267976  31.1739492  82.6201970
 114.4814018  30.2701822  82.8182181 114.8963891  31.1756642  81.6781448
 113.9963624  26.9067849  80.1188132 113.3032868  26.9812204  79.4628168
 113.7515375  26.1428193  80.6409649 120.4710749  37.6422445  79.0852649
 119.8984716  38.2612632  78.6323121 121.0443542  38.1921806  79.6192571
 119.0400464  26.9033234  76.3623587 118.1331920  26.6066347  76.4386300
 119.3176445  26.6063052  75.4957873 109.9578405  28.2239597  86.8122633
 109.6381189  27.3704905  86.5197007 109.4111833  28.4388175  87.5680600
 113.7358312  30.9402038  90.5292140 113.9544322  31.8719146  90.5480173
 114.1484086  30.5810013  91.3146943 120.6562530  21.4470124  82.5167828
 119.8463258  21.1017209  82.8923074 121.3446947  21.1377667  83.1055440
 117.8099249  23.7620169  76.5035566 118.6718413  24.0875067  76.7631383
 117.9949593  22.9751665  75.9908632 109.8266665  31.8442509  88.7815755
 109.1330136  31.4296462  88.2685709 110.5739656  31.8863045  88.1849174
 111.7403407  31.7760763  86.6581770 111.7174095  31.8748450  85.7063653
 112.0504044  32.6225913  86.9798936 114.3990785  33.8336918  90.7728384
 115.3534039  33.8020860  90.7058316 114.2003309  33.3727541  91.5878610
 114.9890167  32.4038034  93.3399182 115.8083056  32.8982112  93.3634019
 115.2626975  31.4870002  93.3116749 112.7541014  39.3756537  87.7898582
 112.6195482  38.6156938  87.2236580 112.3373076  40.0997437  87.3227371
 115.9110140  40.2725854  88.0017024 115.7942524  41.2171287  87.8995715
 115.0902586  39.9699416  88.3902824 110.2425081  26.7376167  94.0391379
 110.8883945  26.2275121  94.5278604 110.0342232  27.4744849  94.6134804
 118.7628692  21.0016212  79.7915275 118.7507362  21.9458052  79.9483546
 119.6552114  20.8186358  79.4974736 116.9364654  40.9254116  91.2172953
 117.8391900  40.9577726  91.5339448 116.7102024  39.9954567  91.2319289
 118.6918256  39.6785103  87.8783032 117.7413887  39.6786964  87.7647404
 118.9950742  38.9317837  87.3619066 118.6541050  46.0837924  86.6547984
 119.3412090  45.7699654  86.0668999 118.4989179  46.9879289  86.3815235
 118.2309026  44.1638518  88.9265451 118.2693125  43.6302108  89.7202569
 117.7249319  43.6373723  88.3076428 121.4822662  50.4922167  87.0273701
 120.6454571  50.0644341  86.8457702 121.4546308  50.6854610  87.9644492
 120.7972159  43.5531515  86.8122633 120.4774943  42.6996823  86.5197007
 120.2505587  43.7680093  87.5680600 120.6660419  47.1734426  88.7815755
 119.9723890  46.7588379  88.2685709 121.4133410  47.2154963  88.1849174
 117.5404611  17.5320973  70.4721776 117.4628641  18.4828798  70.5510257
 116.9366255  17.1866846  71.1296702 115.1791441  20.2806367  74.6169978
 115.4188039  20.9124891  75.2948997 114.3360638  19.9294407  74.9035337
 115.6536273  16.3054370  71.9468757 114.9846649  16.7900497  71.4632797
 115.5149143  16.5523590  72.8612135 119.7941542  18.3398113  78.5451415
 120.3459850  18.5029735  79.3100500 120.1347735  18.9302551  77.8731440
 112.7541015  16.3818660  74.5143888 112.6195483  15.6219061  73.9481887
 112.3373077  17.1059560  74.0472677 115.9110141  17.2787977  74.7262331
 115.7942525  18.2233409  74.6241021 115.0902587  16.9761538  75.1148130
 116.9364655  17.9316239  77.9418260 117.8391902  17.9639849  78.2584754
 116.7102025  17.0016690  77.9564595 118.6541051  23.0900047  73.3793290
 119.3412091  22.7761777  72.7914306 118.4989180  23.9941411  73.1060542
 118.2309027  21.1700640  75.6510757 118.2693127  20.6364231  76.4447876
 117.7249320  20.6435846  75.0321735 121.4822664  27.4984289  73.7519008
 120.6454572  27.0706464  73.5703009 121.4546309  27.6916733  74.6889799
 120.7972160  20.5593638  73.5367940 120.4774945  19.7058946  73.2442314
 120.2505588  20.7742216  74.2925907 120.6660420  24.1796549  75.5061061
 119.9723892  23.7650502  74.9931016 121.4133411  24.2217086  74.9094480
  46.5382853  70.6159048 132.0056503  45.8644552  70.9190745 132.6141460
  46.9248675  71.4188129 131.6561960  50.5039594  68.1944532 133.2796326
  51.1990498  68.8151225 133.4983640  50.8462744  67.3439883 133.5548704
  44.5954462  68.3006284 132.1871419  44.0228429  68.9196471 131.7341891
  45.1687256  68.8505645 132.7211341  47.8151722  68.5843434 133.3180002
  48.7482395  68.5188995 133.5212877  47.7274935  69.4199701 132.8594534
  50.4439739  67.9009304 130.2783949  50.3653370  67.5669168 131.1719707
  51.2649405  68.3931072 130.2775422  48.0143690  65.2177299 129.8993927
  48.7179540  65.4227302 130.5151583  47.2906339  65.7854061 130.1643011
  49.9230388  65.6559829 131.9492388  50.7575992  65.2241027 131.7669862
  49.7614731  65.4841842 132.8769282  51.3844243  72.1097376 132.4627340
  50.5481555  72.4472063 132.7836615  51.2449013  71.9746356 131.5254477
  51.2582623  71.9544603 129.6625247  50.3812090  71.8333404 129.2987494
  51.7340376  71.1630682 129.4104136  48.9601092  72.8943606 133.2206902
  48.2670336  72.9687961 132.5646938  48.7152843  72.1303950 133.7428419
  54.0037932  72.8908990 129.4642357  53.0969388  72.5942103 129.5405071
  54.2813913  72.5938809 128.5976643  52.7736717  69.7495926 129.6054336
  53.6355881  70.0750824 129.8650154  52.9587061  68.9627422 129.0927402
  53.7266160  66.9891969 132.8934045  53.7144830  67.9333809 133.0502316
  54.6189582  66.8062114 132.5993506  46.5382854  47.6221171 118.7301809
  45.8644553  47.9252868 119.3386767  46.9248676  48.4250251 118.3807266
  50.5039595  45.2006655 120.0041632  51.1990499  45.8213347 120.2228947
  50.8462745  44.3502006 120.2794010  44.5954463  45.3068406 118.9116726
  44.0228430  45.9258593 118.4587198  45.1687257  45.8567768 119.4456648
  47.8151723  45.5905556 120.0425308  48.7482396  45.5251118 120.2458184
  47.7274936  46.4261823 119.5839841  50.4439740  44.9071427 117.0029256
  50.3653371  44.5731290 117.8965014  51.2649407  45.3993195 117.0020728
  48.0143692  42.2239422 116.6239234  48.7179542  42.4289425 117.2396890
  47.2906340  42.7916184 116.8888318  49.9230389  42.6621951 118.6737694
  50.7575993  42.2303150 118.4915169  49.7614732  42.4903965 119.6014589
  58.5514664  53.1791602 128.7692871  59.1893074  53.0598350 128.0656211
  58.4335507  54.1272446 128.8280823  51.2191186  54.9854507 124.6951287
  50.6556051  54.8944444 123.9267574  51.1043581  54.1654411 125.1753779
  56.7990745  58.6525475 120.0065751  56.1478725  59.2379555 119.6199765
  57.5935108  59.1831670 120.0660789  50.7246372  55.7414612 120.4052886
  51.4977248  55.1943599 120.2665762  51.0771771  56.6058861 120.6167347
  53.0612650  51.9007278 118.0371336  53.3138170  51.3788799 117.2754799
  52.1237209  51.7373423 118.1398019  58.1055933  50.9043056 125.8446079
  58.8919022  50.4862479 125.4936496  58.3694637  51.8089148 126.0127727
  58.2766010  56.3415907 120.5434736  57.6411843  56.4150533 121.2555640
  57.9463416  56.9309505 119.8653815  63.5064360  50.8418289 126.7479057
  64.2389532  50.2717506 126.9816887  62.7503715  50.4539890 127.1885563
  52.7808938  53.8035384 120.2395711  52.6645197  53.1280287 120.9076795
  52.8911198  53.3167758 119.4227864  55.1240479  53.2645531 123.9442400
  54.7598687  52.7376152 124.6555321  55.9807595  52.8744000 123.7708885
  54.7645966  48.2935431 118.9403748  54.9320369  49.1615667 119.3074219
  54.5743135  48.4562712 118.0165038  54.7435187  50.7493088 119.9250415
  54.6234812  51.1950139 120.7635896  54.0487776  51.0978406 119.3663953
  52.5042079  63.5196730 123.5740547  52.4266109  64.4704555 123.6529027
  51.9003723  63.1742602 124.2315473  60.4420253  51.2214561 120.7530749
  61.3538110  51.4541948 120.5778447  59.9329900  51.8051606 120.1905828
  59.0489836  56.2040380 128.1444331  58.4198698  56.3686094 127.4420399
  58.6615498  56.6181989 128.9155295  62.9279068  57.1394818 125.4988695
  62.2430106  57.5193719 124.9485728  63.0122917  57.7490144 126.2320642
  54.6017798  55.9414788 125.4094416  55.0656143  56.2202491 124.6199038
  54.3374596  55.0398232 125.2267507  53.5386684  52.0637940 122.2183981
  54.2410727  52.5158984 122.6857907  53.2067312  51.4221759 122.8463874
  61.2975827  57.6626732 130.2706395  62.1193271  57.2606919 129.9889077
  61.2938230  57.5594966 131.2222511  69.3881820  54.0065481 126.6191367
  68.6345529  53.4372879 126.4635371  69.5229361  53.9728145 127.5662002
  54.7780448  58.8778883 122.2946086  54.6426123  59.7230419 122.7230934
  55.3190261  59.0798161 121.5312020  48.2309846  56.3954321 122.8674011
  48.7434366  57.1897571 123.0179576  48.8832558  55.6980611 122.8007613
  50.0404730  59.5120077 124.9496764  50.2171359  60.4338042 124.7617748
  50.8361564  59.1978496 125.3791144  51.1636046  61.0298251 130.9507107
  51.7143471  60.9015314 130.1784101  50.3247522  61.3293140 130.6002000
  46.1958762  54.7242975 123.6433582  47.0333984  55.1339984 123.4267290
  46.3737030  53.7842417 123.6133776  58.0923195  52.3918056 119.3317415
  57.5769818  53.1622660 119.5705802  57.8200503  51.7183192 119.9550476
  55.6770306  47.2367757 124.3902653  54.8211902  46.8474607 124.2108292
  56.0897257  47.3159717 123.5302439  63.0657469  55.1450411 121.2670588
  62.2886911  54.8061570 120.8225750  63.7448950  55.1503034 120.5925553
  57.8809498  50.2645148 121.1577196  57.5759633  50.5791297 122.0087339
  58.8339940  50.3426568 121.2004529  56.3255930  56.4235371 122.8070150
  55.7977291  55.6888131 122.4943387  55.8243432  57.2010048 122.5610118
  61.3048776  54.6184392 127.9237196  60.6472450  55.3083653 128.0117325
  62.1089175  55.0080824 128.2671183  60.1154234  52.9728764 125.9741138
  60.6286116  53.6058756 126.4762848  60.7655458  52.3729960 125.6084498
  51.3844244  49.1159499 119.1872647  50.5481557  49.4534185 119.5081921
  51.2449014  48.9808478 118.2499784  54.4708530  54.2415582 115.8105123
  53.5635591  54.0104835 116.0096272  54.9679562  53.4453201 115.9979105
  57.3776609  62.9513089 118.7301809  56.7038307  63.2544785 119.3386767
  57.7642431  63.7542169 118.3807266  57.3770113  51.8469636 123.3502159
  58.1241932  52.3591033 123.0409281  57.6461703  51.5253688 124.2106552
  55.6496763  54.3428176 120.3329113  54.7407982  54.0587209 120.4301583
  55.6791847  54.7627255 119.4732420  60.8816031  57.9534766 124.1020281
  60.4278358  57.1125676 124.1585471  60.2509997  58.5896164 124.4395061
  59.8248950  48.8826752 125.3320948  59.0871707  48.3704138 125.6631191
  60.0775724  48.4427134 124.5204225  59.3248970  59.7911263 125.0370099
  59.6171944  60.3516320 124.3182464  59.8347590  60.0839824 125.7923258
  54.1981657  51.9556797 126.4338908  54.2530267  51.0030633 126.3581385
  53.3872859  52.1116236 126.9180207  55.3472851  55.8836920 117.6717192
  54.9092281  55.1672779 117.2122829  56.0883292  56.1113035 117.1102283
  52.1374017  50.5733857 124.1929287  51.3241883  50.8728027 124.5994479
  52.6333011  50.1789546 124.9103770  54.2882595  60.5691614 126.1263552
  54.2458774  60.7952460 125.1972084  55.2045294  60.3354988 126.2749353
  63.4645966  54.1594117 123.7293510  63.3263864  54.3495713 122.8014699
  63.1082185  54.9213500 124.1861561  63.4915345  56.2270644 128.7404782
  63.9251852  56.1345933 129.5887836  64.2046926  56.2028145 128.1024798
  52.4048396  57.4454643 125.9225515  53.1988994  56.9504963 125.7208090
  51.6940088  56.9172506 125.5593220  57.2243240  59.8272738 130.2737882
  57.2780263  60.3963675 131.0415598  56.3558022  59.9974623 129.9091919
  48.7131159  51.5897724 121.9985267  47.7828747  51.5282180 122.2155230
  48.8088631  51.0673677 121.2021909  64.3530895  56.2694345 131.2737667
  64.5466785  57.1740155 131.5196942  64.2531513  55.8101764 132.1076252
  54.9819672  58.0183665 129.6023352  54.8430758  57.6502449 130.4749290
  54.1934268  58.5331304 129.4307310  55.5767824  63.1192761 120.9448888
  55.7519579  62.6480804 121.7594511  54.8900612  63.7458527 121.1730149
  56.5324887  57.3965267 126.9912190  56.1974720  57.3566037 127.8869839
  56.0328833  56.7309983 126.5182600  59.4684079  54.7421302 117.2649249
  58.8513249  54.0168130 117.1682302  59.0000567  55.5030662 116.9216324
  50.1428909  66.2682124 127.7188749  50.3825507  66.9000648 128.3967767
  49.2998106  65.9170164 128.0054108  51.2582625  48.9606726 116.3870554
  50.3812091  48.8395527 116.0232800  51.7340378  48.1692804 116.1349442
  54.6556771  62.0761246 130.1230253  54.5826942  62.8816218 130.6349557
  54.2134164  62.2753212 129.2978274  54.4446551  61.3133016 123.6333074
  53.6614072  61.8554697 123.7271299  55.1439296  61.8306996 124.0327315
  65.6072958  52.8268011 127.9185571  65.5962834  53.7092727 127.5479504
  64.7390338  52.4739562 127.7240108  57.1155454  61.9748080 132.2788411
  57.8283427  62.6095545 132.2064313  56.6245483  62.0711946 131.4628413
  58.8372981  55.8799333 123.8505703  57.9029260  56.0000796 123.6810407
  59.0149650  54.9771800 123.5865713  62.2245533  51.7216652 124.3855737
  62.6905985  52.5544644 124.3116040  62.6753033  51.2561634 125.0900995
  60.2921764  58.0660474 121.3841889  60.5681608  57.9517068 122.2935763
  59.4226263  57.6677958 121.3454062  56.9275828  62.3146824 125.0274703
  57.1098222  61.4968480 125.4902455  57.7508814  62.5314517 124.5899593
  57.2617993  61.2415010 122.2889751  57.7905760  60.7307464 121.6759913
  57.5246213  60.9257540 123.1535284  50.6173741  62.2930126 125.0487527
  49.9484117  62.7776254 124.5651567  50.4786611  62.5399347 125.9630906
  54.7579010  64.3273870 131.6470185  55.3097318  64.4905491 132.4119271
  55.0985203  64.9178308 130.9750210  45.9861318  50.5548581 121.8283459
  46.2814759  49.6459260 121.7750513  45.0849354  50.5336321 121.5064462
  57.8947397  62.2755845 128.6333868  57.7698537  61.4745585 128.1244813
  58.5526488  62.7702039 128.1447838  59.9582306  60.0764865 130.2613418
  59.0112641  59.9570217 130.1891744  60.3065079  59.1887363 130.3439679
  56.9628739  59.8717582 126.4617770  56.8153701  58.9434289 126.6425340
  57.7882232  59.8937672 125.9774845  50.8290983  48.5235649 122.3198262
  51.1687056  49.0521570 121.5976870  51.2763104  48.8616055 123.0956829
  60.5662861  60.6946140 127.5482643  61.4909408  60.4889002 127.4107094
  60.3978164  60.4462542 128.4571984  52.8159130  47.0210270 120.5191555
  53.5367493  47.3991523 120.0155272  52.1924434  47.7399147 120.6226533
  56.9590253  47.7255419 121.4549887  57.1753868  48.6080057 121.1538715
  56.4784320  47.3341633 120.7255529  60.3558177  61.2131808 122.9044734
  60.5295054  60.6478230 122.1518587  60.8487068  62.0132703 122.7224224
  66.2097568  53.9768231 124.5235034  66.6528714  53.2275556 124.1254157
  65.3324078  53.9678367 124.1408766  61.3433349  60.5298572 120.0041632
  62.0384254  61.1505265 120.2228947  61.6856499  59.6793923 120.2794010
  63.2424772  57.9798278 121.5328963  63.7676097  58.3185551 120.8078283
  63.1547125  57.0445293 121.3492098  54.9265433  64.0470261 125.8924216
  54.4870424  63.5546640 126.5857073  55.6773550  63.5043229 125.6516292
  47.4057772  60.2381802 125.8948844  48.2315792  59.9385574 125.5147488
  47.0551824  59.4689424 126.3438633  52.3739305  59.5908270 127.9646518
  51.7519315  58.9278975 127.6648746  53.0444172  59.6169402 127.2820166
  51.9352812  58.1412193 121.4404979  52.0840933  58.8247658 120.7871651
  52.7419256  58.1217284 121.9554434  65.7530433  55.4473469 126.9157481
  66.5877324  55.8863273 127.0795042  65.8889562  54.9712122 126.0965727
  49.6905445  54.1677371 122.4466047  49.4451487  53.2639701 122.6446258
  49.8601360  54.1694522 121.5045525  48.9601093  49.9005729 119.9452209
  48.2670338  49.9750084 119.2892245  48.7152845  49.1366072 120.4673726
  55.4348218  60.6360324 118.9116726  54.8622185  61.2550511 118.4587198
  56.0081011  61.1859686 119.4456648  58.6545478  60.9197474 120.0425308
  59.5876151  60.8543036 120.2458184  58.5668690  61.7553741 119.5839841
  61.2833494  60.2363344 117.0029256  61.2047126  59.9023208 117.8965014
  62.1043161  60.7285112 117.0020728  63.9811685  53.1025084 130.2105574
  63.9488006  52.1641084 130.3965258  64.5912309  53.1809120 129.4771399
  55.8195016  51.9721137 116.2532778  56.7654121  51.8427345 116.3221196
  55.4409261  51.2335799 116.7302207  69.7988235  54.1641091 129.3511611
  70.5291624  53.9026379 129.9119315  69.1895181  53.4269812 129.3913679
  67.8803532  52.3048953 129.9486062  67.1536696  52.1704918 129.3402554
  67.4650819  52.6125782 130.7542780  54.0037933  49.8971113 116.1887664
  53.0969389  49.6004226 116.2650377  54.2813914  49.6000931 115.3221950
  55.6199999  44.4408003 122.3431905  54.8100728  44.0955088 122.7187151
  56.3084416  44.1315546 122.9319517  52.7736718  46.7558048 116.3299643
  53.6355882  47.0812947 116.5895460  52.9587062  45.9689544 115.8172709
  60.9269355  45.6286575 123.4734866  60.3468024  46.2871379 123.0912918
  60.6605287  44.8063919 123.0622283  59.7094233  47.7886665 122.5291214
  58.8220088  48.0736316 122.3111409  60.1248222  47.6280428 121.6818491
  63.0608769  47.8133186 126.2445553  63.8369159  48.3029639 126.5170170
  62.3356903  48.2391240 126.7017423  65.4981327  48.5260805 127.3019494
  66.0925818  48.2856541 126.5912802  65.5707911  47.8067936 127.9293030
  47.7178483  62.3694416 127.6162659  47.5832951  61.6094817 127.0500657
  47.3010545  63.0935316 127.1491448  58.8537446  57.5531340 116.6239234
  59.5573296  57.7581342 117.2396890  58.1300095  58.1208102 116.8888318
  59.6835256  53.3041201 122.7441504  59.6270458  53.7609752 121.9049137
  60.2363599  52.5431886 122.5664347  63.4940062  49.0930933 123.5691624
  63.2376996  48.6927569 124.3999831  62.8692930  49.8074727 123.4441763
  67.8052400  51.8327006 126.0762915  67.2451958  51.9020195 126.8494477
  67.1995903  51.6567991 125.3562411  50.8747609  63.2663733 127.8281101
  50.7579993  64.2109166 127.7259792  50.0540055  62.9637295 128.2166901
  60.7624143  57.9913869 118.6737694  61.5969747  57.5595067 118.4915169
  60.6008486  57.8195883 119.6014589  60.4170036  54.4945982 120.0394033
  60.3618839  54.3290254 119.0982478  59.7916091  55.2022015 120.1956223
  53.7266161  43.9954091 119.6179352  53.7144831  44.9395931 119.7747623
  54.6189583  43.8124237 119.3238813  51.9002123  63.9191995 131.0437030
  52.8029370  63.9515605 131.3603525  51.6739493  62.9892446 131.0583366
  53.6555725  62.6722982 127.7047109  52.7051356  62.6724843 127.5911481
  53.9588211  61.9255716 127.1883143  62.0584941  70.3146425 124.6951287
  61.4949806  70.2236362 123.9267574  61.9437336  69.4946329 125.1753779
  59.6049372  71.8097616 127.5335507  60.3970664  71.4688441 127.1181806
  59.8446023  71.9192591 128.4537660  67.6384499  73.9817392 120.0065751
  66.9872479  74.5671473 119.6199765  68.4328862  74.5123587 120.0660789
  61.5640126  71.0706529 120.4052886  62.3371002  70.5235517 120.2665762
  61.9165525  71.9350779 120.6167347  63.9006404  67.2299196 118.0371336
  64.1531925  66.7080717 117.2754799  62.9630963  67.0665341 118.1398019
  68.9449687  66.2334974 125.8446079  69.7312776  65.8154397 125.4936496
  69.2088391  67.1381066 126.0127727  69.1159764  71.6707824 120.5434736
  68.4805597  71.7442451 121.2555640  68.7857171  72.2601423 119.8653815
  63.6202693  69.1327302 120.2395711  63.5038951  68.4572205 120.9076795
  63.7304953  68.6459675 119.4227864  65.9634234  68.5937449 123.9442400
  65.5992441  68.0668070 124.6555321  66.8201350  68.2035918 123.7708885
  65.6039721  63.6227348 118.9403748  65.7714123  64.4907585 119.3074219
  65.4136890  63.7854630 118.0165038  61.8127536  68.5358124 126.6406283
  60.8878032  68.4034338 126.8483975  62.0611949  69.3152343 127.1376226
  65.5828942  66.0785006 119.9250415  65.4628567  66.5242057 120.7635896
  64.8881530  66.4270324 119.3663953  59.1736347  68.1791398 127.4750072
  59.3028728  68.4325877 128.3889484  58.4933798  68.7719106 127.1554727
  71.2814008  66.5506479 120.7530749  72.1931864  66.7833866 120.5778447
  70.7723655  67.1343523 120.1905828  68.6249983  62.7264515 129.0020610
  67.7634462  63.0245769 129.2937348  68.6512417  62.9434914 128.0701643
  65.4411552  71.2706706 125.4094416  65.9049898  71.5494409 124.6199038
  65.1768350  70.3690150 125.2267507  64.3780438  67.3929858 122.2183981
  65.0804481  67.8450902 122.6857907  64.0461067  66.7513677 122.8463874
  58.1205772  65.6513411 127.5201115  57.3304826  65.9070939 127.0441225
  58.6117019  66.4661748 127.6253155  60.0720517  66.0157990 124.4784591
  59.2751681  66.1276684 124.9968087  59.8446110  66.3544642 123.6125482
  56.4043475  65.9043901 129.9516105  56.6551513  66.7890911 130.2173681
  56.9403023  65.7248503 129.1791197  65.6174203  74.2070801 122.2946086
  65.4819878  75.0522336 122.7230934  66.1584015  74.4090078 121.5312020
  59.0703600  71.7246239 122.8674011  59.5828121  72.5189489 123.0179576
  59.7226313  71.0272529 122.8007613  60.8798485  74.8411995 124.9496764
  61.0565113  75.7629960 124.7617748  61.6755318  74.5270414 125.3791144
  68.9666666  57.7301362 130.8244980  68.6230936  58.6203004 130.7484090
  69.3345629  57.5403020 129.9614565  57.0352517  70.0534893 123.6433582
  57.8727739  70.4631901 123.4267290  57.2130785  69.1134335 123.6133776
  68.9316949  67.7209974 119.3317415  68.4163572  68.4914578 119.5705802
  68.6594257  67.0475110 119.9550476  66.5164060  62.5659674 124.3902653
  65.6605656  62.1766525 124.2108292  66.9291012  62.6451635 123.5302439
  68.0463207  60.1006018 128.7894213  67.5428002  60.0636153 127.9762018
  68.3393814  61.0098760 128.8490870  64.2906093  60.1844747 127.7960395
  65.1559089  59.9887556 127.4366284  64.3583602  59.9555099 128.7229751
  73.9051223  70.4742328 121.2670588  73.1280666  70.1353488 120.8225750
  74.5842704  70.4794951 120.5925553  68.7203252  65.5937066 121.1577196
  68.4153388  65.9083215 122.0087339  69.6733694  65.6718486 121.2004529
  67.1649684  71.7527289 122.8070150  66.6371046  71.0180049 122.4943387
  66.6637187  72.5301965 122.5610118  61.8968412  62.4146955 125.1676761
  62.4712164  62.1922137 124.4349954  62.4839394  62.4835650 125.9205363
  62.2237999  64.4451416 119.1872647  61.3875311  64.7826103 119.5081921
  62.0842768  64.3100396 118.2499784  64.1991079  59.2888204 123.8951831
  63.5455492  58.9737221 123.2708446  64.1571554  58.6663945 124.6211654
  65.3102284  69.5707499 115.8105123  64.4029346  69.3396753 116.0096272
  65.8073316  68.7745118 115.9979105  68.2170363  78.2805006 118.7301809
  67.5432062  78.5836703 119.3386767  68.6036185  79.0834087 118.3807266
  67.4328820  65.7770138 128.2199479  66.5151381  65.9985085 128.0621167
  67.8488963  65.8516448 127.3611186  68.2163868  67.1761553 123.3502159
  68.9635686  67.6882951 123.0409281  68.4855457  66.8545606 124.2106552
  66.4890518  69.6720094 120.3329113  65.5801737  69.3879127 120.4301583
  66.5185601  70.0919173 119.4732420  70.6642705  64.2118670 125.3320948
  69.9265461  63.6996056 125.6631191  70.9169478  63.7719051 124.5204225
  70.7654332  56.9894922 125.9262717  71.0713209  56.1292285 125.6388632
  71.4906937  57.5812542 125.7261711  57.0578688  67.3925608 124.3144315
  56.8603088  66.7994969 123.5895382  56.5025352  67.0877818 125.0320254
  65.0375412  67.2848715 126.4338908  65.0924022  66.3322551 126.3581385
  64.2266614  67.4408154 126.9180207  66.1866605  71.2128838 117.6717192
  65.7486035  70.4964697 117.2122829  66.9277046  71.4404953 117.1102283
  62.9767772  65.9025774 124.1929287  62.1635637  66.2019945 124.5994479
  63.4726766  65.5081463 124.9103770  74.3039720  69.4886035 123.7293510
  74.1657619  69.6787631 122.8014699  73.9475939  70.2505418 124.1861561
  62.4681846  63.4744130 129.8090522  63.1081226  63.3332889 129.1113486
  61.6359377  63.1878643 129.4329124  63.2442150  72.7746560 125.9225515
  64.0382749  72.2796881 125.7208090  62.5333843  72.2464423 125.5593220
  59.5524914  66.9189642 121.9985267  58.6222502  66.8574098 122.2155230
  59.6482386  66.3965595 121.2021909  59.4710463  63.4444455 124.5863509
  59.7317280  64.3589788 124.4772670  60.2927635  62.9768897 124.7360122
  60.9435388  64.8582212 131.7562334  61.6158442  64.6499574 131.1074983
  60.1165175  64.6604298 131.3167566  66.4161578  78.4484679 120.9448888
  66.5913334  77.9772722 121.7594511  65.7294366  79.0750445 121.1730149
  70.3077833  70.0713219 117.2649249  69.6907004  69.3460048 117.1682302
  69.8394322  70.8322580 116.9216324  62.0976379  64.2898644 116.3870554
  61.2205845  64.1687444 116.0232800  62.5734132  63.4984722 116.1349442
  53.6178519  69.0775803 126.4812061  54.3049559  68.7637533 125.8933076
  53.4626648  69.9817168 126.2079312  58.4213241  63.9666000 130.9097084
  58.3371430  63.3591670 130.1747494  57.5995948  64.4575018 130.9106581
  68.5936955  62.4519564 126.2767279  69.0905655  61.6989526 125.9568350
  67.8223937  62.4883880 125.7110489  69.6766736  71.2091251 123.8505703
  68.7423015  71.3292713 123.6810407  69.8543404  70.3063718 123.5865713
  65.1771924  64.5936947 126.0038964  64.8069711  64.0407987 126.6919870
  65.6731016  63.9895080 125.4513964  73.0639287  67.0508570 124.3855737
  73.5299739  67.8836562 124.3116040  73.5146788  66.5853552 125.0900995
  71.1315518  73.3952391 121.3841889  71.4075362  73.2808986 122.2935763
  70.2620017  72.9969876 121.3454062  71.0355950  59.4189157 128.4246638
  70.1219030  59.6493384 128.5928845  71.4649051  59.5027601 129.2760671
  68.1011748  76.5706927 122.2889751  68.6299514  76.0599382 121.6759913
  68.3639967  76.2549457 123.1535284  53.1946495  67.1576397 128.7529528
  53.2330595  66.6239987 129.5466646  52.6886788  66.6311602 128.1340505
  60.5737258  62.0040937 132.2492070  60.6378584  62.8655768 131.8369468
  60.5104378  61.3914939 131.5164429  56.8255073  65.8840499 121.8283459
  57.1208514  64.9751177 121.7750513  55.9243109  65.8628238 121.5064462
  60.3549320  63.9596496 127.8111008  59.6335906  64.5732463 127.6718481
  61.1442576  64.4954260 127.7327654  58.5542914  63.5654597 121.9522784
  58.2255621  62.6851976 121.7697890  58.9082285  63.5102265 122.8399174
  61.6684738  63.8527566 122.3198262  62.0080810  64.3813488 121.5976870
  62.1156858  64.1907973 123.0956829  64.3628178  62.2364617 131.7701330
  64.0224999  61.4372430 132.1722010  63.6567185  62.5366328 131.1978163
  65.0144650  59.3213930 130.2228653  65.8370720  58.8474408 130.1007543
  65.2582714  60.1004413 130.7227339  63.6552885  62.3502188 120.5191555
  64.3761247  62.7283441 120.0155272  63.0318189  63.0691065 120.6226533
  67.7984008  63.0547337 121.4549887  68.0147622  63.9371975 121.1538715
  67.3178075  62.6633550 120.7255529  62.5383229  66.0133050 128.0320632
  62.3927810  66.3273353 128.9244913  62.0608433  66.6317951 127.4791530
  64.3979612  63.0035598 128.0801521  64.3841181  62.1076691 127.7433819
  65.1152040  63.0106262 128.7139807  66.2505743  63.4372938 130.1254649
  65.9923520  64.3590009 130.1238979  65.7190783  63.0403373 130.8155113
  57.0128891  68.5538395 130.9708293  56.4682359  69.3298203 131.1028567
  57.8908241  68.9009199 130.8127414  63.8016508  61.8849978 123.3489091
  63.9232419  60.9566625 123.5479979  63.5118550  61.8988664 122.4367407
  66.6707698  59.5704889 126.4855811  66.6929395  59.6344222 125.5307791
  67.0875757  58.7309398 126.6796317  72.1827104  75.8590490 120.0041632
  72.8778008  76.4797183 120.2228947  72.5250254  75.0085841 120.2794010
  74.0818527  73.3090195 121.5328963  74.6069851  73.6477468 120.8078283
  73.9940880  72.3737211 121.3492098  58.2451527  75.5673720 125.8948844
  59.0709547  75.2677491 125.5147488  57.8945579  74.7981342 126.3438633
  56.4460132  73.4860046 126.8537778  55.6092040  73.0582220 126.6721779
  56.4183777  73.6792489 127.7908569  62.7746567  73.4704111 121.4404979
  62.9234687  74.1539576 120.7871651  63.5813010  73.4509201 121.9554434
  60.5299200  69.4969289 122.4466047  60.2845242  68.5931619 122.6446258
  60.6995114  69.4986439 121.5045525  59.7994847  65.2297646 119.9452209
  59.1064092  65.3042001 119.2892245  59.5546599  64.4657990 120.4673726
  68.4708504  56.7893248 127.3491700  68.7510258  56.1216437 127.9752126
  69.2559111  56.9822343 126.8366363  66.2741972  75.9652242 118.9116726
  65.7015939  76.5842429 118.4587198  66.8474766  76.5151603 119.4456648
  69.4939232  76.2489392 120.0425308  70.4269905  76.1834953 120.2458184
  69.4062445  77.0845659 119.5839841  72.1227249  75.5655262 117.0029256
  72.0440880  75.2315126 117.8965014  72.9436916  76.0577030 117.0020728
  66.6588771  67.3013054 116.2532778  67.6047876  67.1719262 116.3221196
  66.2803016  66.5627716 116.7302207  72.6310655  58.9669060 126.2159670
  72.4335476  58.6584149 127.1003002  73.2410361  59.6930699 126.3457600
  64.8431688  65.2263031 116.1887664  63.9363143  64.9296143 116.2650377
  65.1207669  64.9292849 115.3221950  55.7609628  66.5469394 126.6386710
  55.4412413  65.6934702 126.3461084  55.2143057  66.7617972 127.3944677
  66.4593754  59.7699920 122.3431905  65.6494482  59.4247005 122.7187151
  67.1478171  59.4607464 122.9319517  68.3884302  58.8477967 123.9656202
  68.9415341  59.2673421 124.6246225  68.6254388  57.9213715 124.0079158
  63.6130473  62.0849966 116.3299643  64.4749637  62.4104864 116.5895460
  63.7980817  61.2981462 115.8172709  55.6297888  70.1672306 128.6079832
  54.9361360  69.7526258 128.0949786  56.3770879  70.2092842 128.0113251
  71.7663109  60.9578492 123.4734866  71.1861778  61.6163296 123.0912918
  71.4999042  60.1355837 123.0622283  70.2166675  60.3583550 125.6756186
  70.7166454  60.4700085 124.8670505  70.8602283  60.0544603 126.3156995
  57.5434631  70.0990559 126.4845847  57.5205319  70.1978247 125.5327730
  57.8535267  70.9455710 126.8063013  70.5487987  63.1178583 122.5291214
  69.6613842  63.4028233 122.3111409  70.9641976  62.9572346 121.6818491
  73.9002523  63.1425104 126.2445553  74.6762913  63.6321556 126.5170170
  73.1750657  63.5683158 126.7017423  69.6931201  72.8823257 116.6239234
  70.3967051  73.0873260 117.2396890  68.9693849  73.4500019 116.8888318
  70.5229011  68.6333119 122.7441504  70.4664212  69.0901670 121.9049137
  71.0757353  67.8723803 122.5664347  74.3333817  64.4222851 123.5691624
  74.0770751  64.0219486 124.3999831  73.7086685  65.1366645 123.4441763
  71.6017898  73.3205787 118.6737694  72.4363502  72.8886985 118.4915169
  71.4402241  73.1487800 119.6014589  71.2563790  69.8237900 120.0394033
  71.2012594  69.6582171 119.0982478  70.6309845  70.5313933 120.1956223
  56.0456305  65.0605964 133.8655456  56.6915169  64.5504918 134.3542681
  55.8373456  65.7974646 134.4398881  64.5659916  59.3246009 119.6179352
  64.5538585  60.2687849 119.7747623  65.4583337  59.1416154 119.3238813
  68.3812035  55.9188786 123.8725289  67.6144431  55.3647272 124.0181971
  68.7922740  55.9910654 124.7339440  73.0631753  79.7743334 119.1872647
  72.2269066  80.1118020 119.5081921  72.9236523  79.6392314 118.2499784
  72.9370134  79.6190561 116.3870554  72.0599600  79.4979362 116.0232800
  73.4127887  78.8276640 116.1349442  70.6388602  80.5589564 119.9452209
  69.9457847  80.6333919 119.2892245  70.3940354  79.7949908 120.4673726
  75.6825442  80.5554948 116.1887664  74.7756898  80.2588061 116.2650377
  75.9601423  80.2584766 115.3221950  74.4524227  77.4141884 116.3299643
  75.3143391  77.7396782 116.5895460  74.6374571  76.6273380 115.8172709
  75.4053670  74.6537927 119.6179352  75.3932340  75.5979767 119.7747623
  76.2977092  74.4708072 119.3238813  46.5382855  24.6283294 105.4547116
  45.8644554  24.9314990 106.0632074  46.9248677  25.4312374 105.1052573
  50.5039596  22.2068777 106.7286939  51.1990501  22.8275470 106.9474254
  50.8462746  21.3564128 107.0039317  44.5954465  22.3130529 105.6362033
  44.0228432  22.9320716 105.1832504  45.1687258  22.8629891 106.1701955
  47.8151724  22.5967679 106.7670615  48.7482398  22.5313241 106.9703490
  47.7274937  23.4323946 106.3085148  50.4439741  21.9133549 103.7274562
  50.3653373  21.5793413 104.6210320  51.2649408  22.4055317 103.7266035
  48.0143693  19.2301545 103.3484541  48.7179543  19.4351547 103.9642196
  47.2906342  19.7978307 103.6133624  49.9230390  19.6684074 105.3983001
  50.7575994  19.2365272 105.2160476  49.7614733  19.4966088 106.3259895
  58.5514665  30.1853725 115.4938178  59.1893075  30.0660472 114.7901518
  58.4335508  31.1334569 115.5526130  51.2191187  31.9916630 111.4196593
  50.6556052  31.9006566 110.6512881  51.1043582  31.1716534 111.8999086
  56.7990746  35.6587597 106.7311058  56.1478726  36.2441678 106.3445072
  57.5935109  36.1893792 106.7906096  50.7246373  32.7476734 107.1298192
  51.4977249  32.2005721 106.9911068  51.0771772  33.6120984 107.3412654
  53.0612651  28.9069400 104.7616642  53.3138172  28.3850922 104.0000105
  52.1237210  28.7435546 104.8643326  58.1055934  27.9105179 112.5691386
  58.8919023  27.4924602 112.2181803  58.3694638  28.8151271 112.7373034
  58.2766011  33.3478029 107.2680042  57.6411844  33.4212656 107.9800947
  57.9463418  33.9371628 106.5899122  63.5064361  27.8480412 113.4724364
  64.2389533  27.2779629 113.7062194  62.7503717  27.4602013 113.9130870
  52.7808940  30.8097506 106.9641017  52.6645198  30.1342410 107.6322102
  52.8911200  30.3229880 106.1473170  55.1240481  30.2707654 110.6687707
  54.7598688  29.7438275 111.3800628  55.9807597  29.8806123 110.4954192
  54.7645968  25.2997553 105.6649055  54.9320370  26.1677790 106.0319526
  54.5743137  25.4624835 104.7410344  54.7435189  27.7555211 106.6495722
  54.6234814  28.2012262 107.4881202  54.0487777  28.1040528 106.0909260
  52.5042081  40.5258853 110.2985853  52.4266110  41.4766678 110.3774334
  51.9003724  40.1804725 110.9560779  60.4420255  28.2276684 107.4776056
  61.3538111  28.4604071 107.3023754  59.9329902  28.8113728 106.9151135
  59.0489837  33.2102502 114.8689637  58.4198699  33.3748217 114.1665705
  58.6615499  33.6244112 115.6400601  62.9279069  34.1456940 112.2234001
  62.2430107  34.5255842 111.6731034  63.0122918  34.7552267 112.9565949
  54.6017799  32.9476910 112.1339723  55.0656144  33.2264613 111.3444345
  54.3374597  32.0460355 111.9512813  53.5386685  29.0700063 108.9429288
  54.2410728  29.5221107 109.4103214  53.2067313  28.4283882 109.5709181
  61.2975828  34.6688855 116.9951702  62.1193272  34.2669042 116.7134384
  61.2938231  34.5657089 117.9467818  69.3881821  31.0127603 113.3436674
  68.6345530  30.4435001 113.1880678  69.5229363  30.9790268 114.2907308
  54.7780450  35.8841005 109.0191393  54.6426124  36.7292541 109.4476241
  55.3190262  36.0860283 108.2557327  48.2309847  33.4016443 109.5919318
  48.7434367  34.1959694 109.7424883  48.8832560  32.7042734 109.5252919
  50.0404732  36.5182200 111.6742071  50.2171360  37.4400164 111.4863055
  50.8361565  36.2040619 112.1036451  51.1636047  38.0360374 117.6752413
  51.7143472  37.9077437 116.9029407  50.3247523  38.3355263 117.3247306
  46.1958764  31.7305098 110.3678888  47.0333986  32.1402106 110.1512596
  46.3737031  30.7904540 110.3379082  58.0923196  29.3980178 106.0562721
  57.5769819  30.1684783 106.2951109  57.8200504  28.7245315 106.6795783
  55.6770307  24.2429879 111.1147960  54.8211903  23.8536730 110.9353599
  56.0897259  24.3221840 110.2547745  63.0657470  32.1512533 107.9915895
  62.2886913  31.8123693 107.5471057  63.7448951  32.1565156 107.3170860
  57.8809499  27.2707271 107.8822503  57.5759635  27.5853420 108.7332646
  58.8339941  27.3488690 107.9249836  56.3255931  33.4297494 109.5315457
  55.7977292  32.6950253 109.2188694  55.8243434  34.2072170 109.2855425
  61.3048777  31.6246514 114.6482503  60.6472451  32.3145776 114.7362632
  62.1089176  32.0142946 114.9916489  60.1154236  29.9790887 112.6986445
  60.6286117  30.6120879 113.2008154  60.7655460  29.3792083 112.3329805
  51.3844246  26.1221621 105.9117953  50.5481558  26.4596308 106.2327228
  51.2449015  25.9870601 104.9745090  54.4708531  31.2477704 102.5350430
  53.5635593  31.0166958 102.7341579  54.9679563  30.4515323 102.7224411
  57.3776610  39.9575211 105.4547116  56.7038309  40.2606908 106.0632074
  57.7642432  40.7604292 105.1052573  57.3770114  28.8531758 110.0747465
  58.1241933  29.3653155 109.7654587  57.6461704  28.5315811 110.9351859
  55.6496764  31.3490299 107.0574420  54.7407984  31.0649332 107.1546889
  55.6791848  31.7689378 106.1977727  60.8816032  34.9596888 110.8265587
  60.4278359  34.1187798 110.8830778  60.2509999  35.5958287 111.1640367
  59.8248951  25.8888875 112.0566255  59.0871708  25.3766261 112.3876497
  60.0775725  25.4489256 111.2449532  59.3248971  36.7973385 111.7615405
  59.6171945  37.3578442 111.0427771  59.8347592  37.0901946 112.5168565
  54.1981658  28.9618920 113.1584215  54.2530268  28.0092756 113.0826692
  53.3872861  29.1178359 113.6425514  55.3472852  32.8899043 104.3962498
  54.9092282  32.1734902 103.9368136  56.0883293  33.1175157 103.8347590
  52.1374018  27.5795979 110.9174594  51.3241884  27.8790150 111.3239786
  52.6333013  27.1851668 111.6349076  54.2882596  37.5753736 112.8508859
  54.2458775  37.8014583 111.9217391  55.2045295  37.3417111 112.9994660
  63.4645967  31.1656240 110.4538817  63.3263866  31.3557836 109.5260006
  63.1082186  31.9275623 110.9106868  63.4915347  33.2332767 115.4650088
  63.9251853  33.1408056 116.3133142  64.2046927  33.2090267 114.8270104
  52.4048397  34.4516765 112.6470821  53.1988996  33.9567085 112.4453396
  51.6940089  33.9234628 112.2838527  57.2243242  36.8334861 116.9983189
  57.2780264  37.4025797 117.7660905  56.3558023  37.0036746 116.6337226
  48.7131161  28.5959847 108.7230574  47.7828749  28.5344303 108.9400536
  48.8088633  28.0735800 107.9267215  64.3530896  33.2756467 117.9982974
  64.5466786  34.1802278 118.2442249  64.2531514  32.8163886 118.8321559
  54.9819673  35.0245787 116.3268658  54.8430759  34.6564572 117.1994597
  54.1934269  35.5393427 116.1552616  55.5767825  40.1254884 107.6694195
  55.7519581  39.6542927 108.4839818  54.8900613  40.7520650 107.8975456
  56.5324888  34.4027390 113.7157496  56.1974721  34.3628160 114.6115146
  56.0328834  33.7372106 113.2427906  59.4684080  31.7483424 103.9894556
  58.8513251  31.0230252 103.8927609  59.0000568  32.5092785 103.6461630
  50.1428910  43.2744247 114.4434055  50.3825509  43.9062771 115.1213074
  49.2998107  42.9232287 114.7299414  51.2582626  25.9668849 103.1115860
  50.3812092  25.8457649 102.7478107  51.7340379  25.1754927 102.8594749
  54.6556772  39.0823369 116.8475559  54.5826944  39.8878340 117.3594864
  54.2134165  39.2815335 116.0223581  54.4446552  38.3195139 110.3578381
  53.6614074  38.8616819 110.4516605  55.1439297  38.8369119 110.7572622
  65.6072959  29.8330134 114.6430878  65.5962836  30.7154849 114.2724811
  64.7390339  29.4801685 114.4485415  57.1155456  38.9810203 119.0033718
  57.8283428  39.6157668 118.9309619  56.6245484  39.0774069 118.1873720
  58.8372983  32.8861456 110.5751009  57.9029261  33.0062918 110.4055714
  59.0149651  31.9833922 110.3111019  62.2245534  28.7278775 111.1101044
  62.6905986  29.5606767 111.0361346  62.6753034  28.2623757 111.8146302
  60.2921765  35.0722596 108.1087196  60.5681609  34.9579191 109.0181070
  59.4226264  34.6740081 108.0699369  56.9275829  39.3208947 111.7520009
  57.1098224  38.5030603 112.2147762  57.7508815  39.5376639 111.3144899
  57.2617995  38.2477132 109.0135058  57.7905761  37.7369587 108.4005220
  57.5246214  37.9319662 109.8780591  50.6173743  39.2992249 111.7732834
  49.9484118  39.7838377 111.2896874  50.4786612  39.5461469 112.6876212
  54.7579011  41.3335992 118.3715492  55.3097319  41.4967614 119.1364577
  55.0985205  41.9240430 117.6995517  45.9861320  27.5610704 108.5528766
  46.2814761  26.6521382 108.4995820  45.0849355  27.5398443 108.2309768
  57.8947398  39.2817968 115.3579174  57.7698538  38.4807708 114.8490120
  58.5526490  39.7764161 114.8693144  59.9582307  37.0826988 116.9858724
  59.0112642  36.9632339 116.9137051  60.3065080  36.1949486 117.0684986
  56.9628740  36.8779704 113.1863077  56.8153703  35.9496412 113.3670647
  57.7882234  36.8999795 112.7020152  50.8290984  25.5297771 109.0443569
  51.1687057  26.0583693 108.3222177  51.2763105  25.8678177 109.8202135
  60.5662862  37.7008263 114.2727949  61.4909409  37.4951124 114.1352400
  60.3978165  37.4524664 115.1817291  52.8159132  24.0272393 107.2436861
  53.5367494  24.4053646 106.7400578  52.1924436  24.7461270 107.3471839
  56.9590254  24.7317542 108.1795194  57.1753869  25.6142180 107.8784022
  56.4784322  24.3403755 107.4500836  60.3558178  38.2193930 109.6290041
  60.5295056  37.6540353 108.8763893  60.8487069  39.0194825 109.4469531
  66.2097569  30.9830353 111.2480340  66.6528715  30.2337679 110.8499464
  65.3324080  30.9740490 110.8654072  61.3433351  37.5360695 106.7286939
  62.0384255  38.1567387 106.9474254  61.6856501  36.6856046 107.0039317
  63.2424774  34.9860400 108.2574270  63.7676098  35.3247673 107.5323590
  63.1547126  34.0507416 108.0737404  54.9265434  41.0532384 112.6169523
  54.4870425  40.5608762 113.3102380  55.6773551  40.5105351 112.3761598
  47.4057773  37.2443924 112.6194151  48.2315793  36.9447696 112.2392795
  47.0551825  36.4751547 113.0683940  52.3739307  36.5970393 114.6891825
  51.7519316  35.9341098 114.3894052  53.0444174  36.6231525 114.0065472
  51.9352814  35.1474316 108.1650285  52.0840934  35.8309780 107.5116958
  52.7419257  35.1279406 108.6799741  65.7530434  32.4535592 113.6402788
  66.5877325  32.8925396 113.8040348  65.8889563  31.9774245 112.8211034
  49.6905447  31.1739494 109.1711354  49.4451488  30.2701824 109.3691564
  49.8601361  31.1756644 108.2290832  48.9601094  26.9067851 106.6697516
  48.2670339  26.9812206 106.0137552  48.7152846  26.1428195 107.1919032
  55.4348219  37.6422446 105.6362033  54.8622186  38.2612634 105.1832504
  56.0081013  38.1921808 106.1701955  58.6545479  37.9259597 106.7670615
  59.5876152  37.8605158 106.9703490  58.5668692  38.7615863 106.3085148
  61.2833496  37.2425467 103.7274562  61.2047127  36.9085331 104.6210320
  62.1043162  37.7347235 103.7266035  63.9811687  30.1087206 116.9350881
  63.9488007  29.1703207 117.1210565  64.5912310  30.1871243 116.2016706
  55.8195018  28.9783259 102.9778085  56.7654122  28.8489467 103.0466503
  55.4409263  28.2397921 103.4547513  69.7988237  31.1703213 116.0756918
  70.5291625  30.9088501 116.6364621  69.1895182  30.4331935 116.1158986
  67.8803534  29.3111076 116.6731369  67.1536697  29.1767041 116.0647861
  67.4650821  29.6187904 117.4788087  54.0037935  26.9033236 102.9132970
  53.0969390  26.6066348 102.9895684  54.2813916  26.6063054 102.0467257
  55.6200000  21.4470125 109.0677212  54.8100729  21.1017210 109.4432458
  56.3084417  21.1377669 109.6564823  52.7736719  23.7620171 103.0544950
  53.6355883  24.0875069 103.3140767  52.9587064  22.9751667 102.5418015
  60.9269356  22.6348697 110.1980173  60.3468025  23.2933501 109.8158225
  60.6605289  21.8126042 109.7867590  59.7094234  24.7948788 109.2536521
  58.8220089  25.0798438 109.0356716  60.1248223  24.6342551 108.4063798
  63.0608770  24.8195309 112.9690860  63.8369160  25.3091761 113.2415477
  62.3356904  25.2453363 113.4262730  65.4981329  25.5322928 114.0264801
  66.0925819  25.2918664 113.3158109  65.5707912  24.8130058 114.6538337
  47.7178484  39.3756539 114.3407965  47.5832952  38.6156940 113.7745964
  47.3010547  40.0997439 113.8736754  58.8537447  34.5593462 103.3484541
  59.5573297  34.7643465 103.9642196  58.1300096  35.1270224 103.6133624
  59.6835258  30.3103324 109.4686811  59.6270459  30.7671875 108.6294443
  60.2363600  29.5494008 109.2909654  63.4940064  26.0993055 110.2936930
  63.2376998  25.6989691 111.1245138  62.8692932  26.8136849 110.1687070
  67.8052401  28.8389129 112.8008222  67.2451959  28.9082318 113.5739784
  67.1995905  28.6630113 112.0807718  50.8747610  40.2725856 114.5526408
  50.7579994  41.2171288 114.4505098  50.0540056  39.9699417 114.9412207
  60.7624145  34.9975992 105.3983001  61.5969749  34.5657190 105.2160476
  60.6008488  34.8258005 106.3259895  60.4170037  31.5008105 106.7639340
  60.3618841  31.3352376 105.8227784  59.7916092  32.2084138 106.9201530
  53.7266162  21.0016214 106.3424659  53.7144832  21.9458054 106.4992929
  54.6189584  20.8186359 106.0484120  51.9002124  40.9254118 117.7682337
  52.8029371  40.9577728 118.0848832  51.6739494  39.9954569 117.7828672
  53.6555726  39.6785104 114.4292415  52.7051357  39.6786966 114.3156787
  53.9588212  38.9317839 113.9128450  69.3908420  45.5145643 115.4938178
  70.0286830  45.3952390 114.7901518  69.2729263  46.4626487 115.5526130
  66.1998126  45.4673071 115.4299702  65.8616638  45.3514135 114.5420237
  67.0687894  45.0664236 115.4100708  62.0584942  47.3208547 111.4196593
  61.4949807  47.2298484 110.6512881  61.9437337  46.5008452 111.8999086
  66.6817909  46.6207923 121.3885908  66.6706550  46.2260721 120.5166411
  66.8438549  45.8873995 121.9819679  59.6049374  48.8159739 114.2580814
  60.3970666  48.4750563 113.8427113  59.8446024  48.9254714 115.1782967
  67.6384501  50.9879515 106.7311058  66.9872480  51.5733595 106.3445072
  68.4328863  51.5185710 106.7906096  61.5640128  48.0768652 107.1298192
  62.3371004  47.5297639 106.9911068  61.9165527  48.9412901 107.3412654
  63.4025170  49.4045034 120.3365092  63.1115036  50.3090665 120.2211758
  64.0382155  49.4461562 121.0509161  64.3281377  46.7821883 116.9266451
  64.9244949  46.5577905 116.2123414  64.3856349  46.0406628 117.5291899
  63.9006405  44.2361318 104.7616642  64.1531926  43.7142839 104.0000105
  62.9630965  44.0727464 104.8643326  68.9449688  43.2397097 112.5691386
  69.7312778  42.8216520 112.2181803  69.2088393  44.1443189 112.7373034
  69.1159766  48.6769947 107.2680042  68.4805599  48.7504573 107.9800947
  68.7857172  49.2663546 106.5899122  74.3458115  43.1772330 113.4724364
  75.0783287  42.6071547 113.7062194  73.5897471  42.7893930 113.9130870
  63.6202694  46.1389424 106.9641017  63.5038952  45.4634328 107.6322102
  63.7304954  45.6521798 106.1473170  65.9634235  45.5999571 110.6687707
  65.5992442  45.0730192 111.3800628  66.8201351  45.2098040 110.4954192
  71.8683536  36.8893904 117.9318973  71.5366861  37.7589315 117.7080188
  71.2729149  36.5730188 118.6113003  65.6039722  40.6289471 105.6649055
  65.7714124  41.4969707 106.0319526  65.4136891  40.7916753 104.7410344
  68.3615055  49.0906450 117.3314885  68.0615778  49.9931489 117.2230693
  68.0166115  48.8238633 118.1836038  61.8127537  45.5420247 113.3651590
  60.8878033  45.4096461 113.5729282  62.0611950  46.3214466 113.8621532
  71.7612199  41.6088990 115.0112323  70.8529076  41.5404398 114.7171084
  71.7099795  42.0860935 115.8394148  65.5828943  43.0847128 106.6495722
  65.4628568  43.5304179 107.4881202  64.8881531  43.4332446 106.0909260
  59.1736348  45.1853520 114.1995379  59.3028729  45.4387999 115.1134791
  58.4933799  45.7781228 113.8800034  63.3435835  55.8550770 110.2985853
  63.2659865  56.8058595 110.3774334  62.7397479  55.5096643 110.9560779
  65.8353065  43.0278636 122.9547220  65.0586399  43.5872556 122.9450085
  66.4743628  43.5135419 123.4762090  73.6273845  39.8105428 116.7890197
  72.9848226  40.1037962 116.1429991  73.1228774  39.6958349 117.5943393
  71.2814009  43.5568602 107.4776056  72.1931865  43.7895988 107.3023754
  70.7723656  44.1405646 106.9151135  64.0899437  45.8364089 122.5165187
  64.8314122  46.3749133 122.2400011  63.3836423  46.4630378 122.6736739
  69.5654777  47.9793229 121.1137349  69.9738133  47.5375640 120.3691981
  68.8432038  47.4045857 121.3671541  65.9185847  42.9165836 118.4870905
  66.7647042  43.3405250 118.6305554  65.8584485  42.2599461 119.1809469
  69.8883591  48.5394420 114.8689637  69.2592454  48.7040134 114.1665705
  69.5009254  48.9536030 115.6400601  73.7672823  49.4748858 112.2234001
  73.0823862  49.8547759 111.6731034  73.8516673  50.0844185 112.9565949
  69.0685292  40.5770205 120.1452079  68.8246224  41.3312265 119.6086355
  69.3445223  40.9555552 120.9799326  71.0223755  47.1208817 118.8229345
  71.2340650  47.7640577 118.1463726  70.9753503  46.2871133 118.3551275
  68.6249984  39.7326638 115.7265917  67.7634463  40.0307891 116.0182654
  68.6512419  39.9497036 114.7946949  65.4411553  48.2768828 112.1339723
  65.9049899  48.5556531 111.3444345  65.1768351  47.3752273 111.9512813
  62.3335634  47.8240310 115.0719486  62.9036991  48.2527578 114.4336970
  62.9243746  47.5422894 115.7703671  64.3780439  44.3991981 108.9429288
  65.0804483  44.8513024 109.4103214  64.0461068  43.7575799 109.5709181
  62.8260801  42.9903737 123.3180497  62.1959462  43.6720018 123.5515894
  62.7196889  42.8786819 122.3733635  58.1205773  42.6575533 114.2446421
  57.3304827  42.9133062 113.7686532  58.6117021  43.4723871 114.3498462
  72.1369583  49.9980772 116.9951702  72.9587027  49.5960960 116.7134384
  72.1331986  49.8949007 117.9467818  60.0720519  43.0220112 111.2029898
  59.2751682  43.1338807 111.7213394  59.8446111  43.3606765 110.3370788
  65.9026186  49.5464816 119.1512413  65.9670619  50.0085223 119.9870584
  65.1937110  48.9162181 119.2794722  56.4043476  42.9106024 116.6761412
  56.6551515  43.7953034 116.9418988  56.9403025  42.7310625 115.9036504
  80.2275576  46.3419521 113.3436674  79.4739284  45.7726919 113.1880678
  80.3623117  46.3082185 114.2907308  65.6174204  51.2132923 109.0191393
  65.4819879  52.0584459 109.4476241  66.1584017  51.4152201 108.2557327
  59.0703601  48.7308361 109.5919318  59.5828122  49.5251611 109.7424883
  59.7226314  48.0334652 109.5252919  60.8798486  51.8474117 111.6742071
  61.0565114  52.7692082 111.4863055  61.6755320  51.5332537 112.1036451
  65.0209505  38.7082382 123.2726005  65.7619218  39.3089535 123.1930467
  65.2527427  37.9660020 122.7144047  60.1650843  43.8938749 121.5504234
  60.0504358  42.9924007 121.8511333  59.3095360  44.1402446 121.1989051
  67.2442680  51.8356490 123.1491735  66.8006535  51.0492868 122.8312639
  67.9059894  52.0235640 122.4835626  62.0029802  53.3652291 117.6752413
  62.5537227  53.2369355 116.9029407  61.1641277  53.6647180 117.3247306
  69.3423918  52.1159290 121.1773136  69.3242394  52.9368171 120.6853405
  70.2643839  51.9913365 121.4023277  65.7996973  49.6303419 122.0196645
  66.3325309  48.8691707 121.7895953  65.2711054  49.3377071 122.7620799
  68.9666668  34.7363485 117.5490286  68.6230937  35.6265127 117.4729397
  69.3345630  34.5465143 116.6859871  57.0352518  47.0597015 110.3678888
  57.8727740  47.4694024 110.1512596  57.2130786  46.1196458 110.3379082
  68.9316950  44.7272096 106.0562721  68.4163574  45.4976701 106.2951109
  68.6594259  44.0537232 106.6795783  66.5164061  39.5721797 111.1147960
  65.6605658  39.1828647 110.9353599  66.9291013  39.6513758 110.2547745
  68.0463208  37.1068140 115.5139520  67.5428004  37.0698275 114.7007325
  68.3393815  38.0160883 115.5736176  64.2906094  37.1906870 114.5205701
  65.1559091  36.9949679 114.1611591  64.3583603  36.9617222 115.4475058
  73.9051224  47.4804451 107.9915895  73.1280667  47.1415610 107.5471057
  74.5842705  47.4857074 107.3170860  68.7203253  42.5999188 107.8822503
  68.4153389  42.9145337 108.7332646  69.6733696  42.6780608 107.9249836
  67.1649685  48.7589412 109.5315457  66.6371047  48.0242171 109.2188694
  66.6637188  49.5364088 109.2855425  72.1442531  46.9538432 114.6482503
  71.4866206  47.6437693 114.7362632  72.9482931  47.3434864 114.9916489
  61.8968413  39.4209078 111.8922068  62.4712165  39.1984259 111.1595261
  62.4839395  39.4897772 112.6450669  70.9547990  45.3082805 112.6986445
  71.4679872  45.9412797 113.2008154  71.6049214  44.7084000 112.3329805
  62.2238000  41.4513539 105.9117953  61.3875312  41.7888225 106.2327228
  62.0842770  41.3162519 104.9745090  64.1991081  36.2950327 110.6197138
  63.5455493  35.9799344 109.9953752  64.1571555  35.6726067 111.3456960
  65.3102285  46.5769622 102.5350430  64.4029347  46.3458875 102.7341579
  65.8073317  45.7807241 102.7224411  68.2170364  55.2867129 105.4547116
  67.5432063  55.5898826 106.0632074  68.6036186  56.0896209 105.1052573
  67.4328821  42.7832260 114.9444785  66.5151382  43.0047207 114.7866473
  67.8488965  42.8578571 114.0856493  68.2163869  44.1823676 110.0747465
  68.9635688  44.6945073 109.7654587  68.4855458  43.8607729 110.9351859
  66.4890519  46.6782217 107.0574420  65.5801738  46.3941249 107.1546889
  66.5185603  47.0981295 106.1977727  71.7209786  50.2888806 110.8265587
  71.2672113  49.4479716 110.8830778  71.0903753  50.9250205 111.1640367
  70.6642706  41.2180792 112.0566255  69.9265463  40.7058178 112.3876497
  70.9169479  40.7781174 111.2449532  70.1642726  52.1265303 111.7615405
  70.4565700  52.6870360 111.0427771  70.6741346  52.4193864 112.5168565
  70.7654333  33.9957044 112.6508024  71.0713210  33.1354408 112.3633939
  71.4906938  34.5874664 112.4507018  57.0578689  44.3987731 111.0389622
  56.8603089  43.8057091 110.3140689  56.5025353  44.0939941 111.7565561
  65.0375413  44.2910837 113.1584215  65.0924023  43.3384674 113.0826692
  64.2266615  44.4470276 113.6425514  66.1866607  48.2190960 104.3962498
  65.7486037  47.5026819 103.9368136  66.9277048  48.4467075 103.8347590
  62.9767773  42.9087897 110.9174594  62.1635638  43.2082068 111.3239786
  63.4726767  42.5143586 111.6349076  65.1276351  52.9045654 112.8508859
  65.0852530  53.1306500 111.9217391  66.0439050  52.6709029 112.9994660
  68.5741985  43.3729721 119.7489488  68.9291372  43.6001195 120.6083954
  69.2214116  43.7048098 119.1266743  74.3039722  46.4948157 110.4538817
  74.1657620  46.6849753 109.5260006  73.9475940  47.2567540 110.9106868
  62.4681848  40.4806253 116.5335829  63.1081227  40.3395012 115.8358792
  61.6359378  40.1940766 116.1574431  74.3309101  48.5624684 115.4650088
  74.7645608  48.4699973 116.3133142  75.0440682  48.5382185 114.8270104
  63.2442152  49.7808683 112.6470821  64.0382750  49.2859003 112.4453396
  62.5333844  49.2526546 112.2838527  68.0636996  52.1626778 116.9983189
  68.1174018  52.7317715 117.7660905  67.1951777  52.3328664 116.6337226
  59.5524915  43.9251765 108.7230574  58.6222503  43.8636220 108.9400536
  59.6482387  43.4027717 107.9267215  59.4710464  40.4506578 111.3108816
  59.7317281  41.3651911 111.2017976  60.2927636  39.9831020 111.4605429
  60.9435389  41.8644335 118.4807640  61.6158443  41.6561697 117.8320289
  60.1165176  41.6666421 118.0412873  75.1924651  48.6048385 117.9982974
  75.3860541  49.5094196 118.2442249  75.0925269  48.1455804 118.8321559
  66.8460961  38.4906276 120.4973301  66.1988876  39.1896225 120.4037778
  67.6161977  38.9242420 120.8649549  70.2539759  48.7555128 123.5723854
  70.1025266  48.5265679 122.6553938  70.2444439  49.7125729 123.5855199
  67.0225096  46.3287041 118.5570121  67.9517156  46.4798200 118.3839088
  66.6016126  46.4171061 117.7018767  65.8213428  50.3537705 116.3268658
  65.6824513  49.9856489 117.1994597  65.0328024  50.8685344 116.1552616
  66.4161580  55.4546801 107.6694195  66.5913335  54.9834845 108.4839818
  65.7294368  56.0812568 107.8975456  67.3718643  49.7319308 113.7157496
  67.0368475  49.6920078 114.6115146  66.8722588  49.0664024 113.2427906
  61.3462887  45.1386938 119.2410077  61.2082685  44.4067176 119.8421616
  62.2567810  45.0495838 118.9594265  70.3077834  47.0775342 103.9894556
  69.6907005  46.3522170 103.8927609  69.8394323  47.8384702 103.6461630
  63.9745187  44.8506897 118.7293757  64.6844806  44.2100089 118.6880375
  63.9314495  45.1019792 119.6519938  71.9631966  51.7874250 121.6500336
  71.9044512  51.1033470 120.9830919  72.3651484  52.5293240 121.1980962
  62.6874121  41.8372115 120.5489397  62.1511478  41.3862853 121.2010993
  62.0990830  41.9718024 119.8059861  60.9822665  58.6036164 114.4434055
  61.2219263  59.2354688 115.1213074  60.1391861  58.2524204 114.7299414
  62.0976380  41.2960766 103.1115860  61.2205847  41.1749567 102.7478107
  62.5734133  40.5046845 102.8594749  71.9649373  49.7513834 119.8814316
  71.0776152  49.4139756 120.0040715  72.5347924  49.0196866 120.1183081
  53.6178520  46.0837926 113.2057367  54.3049560  45.7699656 112.6178383
  53.4626649  46.9879291 112.9324619  58.4213243  40.9728123 117.6342391
  58.3371431  40.3653792 116.8992801  57.5995949  41.4637141 117.6351887
  65.4950527  54.4115287 116.8475559  65.4220698  55.2170258 117.3594864
  65.0527920  54.6107252 116.0223581  65.2840306  53.6487057 110.3578381
  64.5007828  54.1908737 110.4516605  65.9833051  54.1661036 110.7572622
  68.5936956  39.4581686 113.0012586  69.0905656  38.7051648 112.6813656
  67.8223938  39.4946003 112.4355795  76.4466714  45.1622052 114.6430878
  76.4356590  46.0446767 114.2724811  75.5784093  44.8093602 114.4485415
  67.9549210  54.3102121 119.0033718  68.6677182  54.9449585 118.9309619
  67.4639239  54.4065987 118.1873720  69.6766737  48.2153373 110.5751009
  68.7423016  48.3354836 110.4055714  69.8543406  47.3125840 110.3111019
  65.1771925  41.5999069 112.7284271  64.8069713  41.0470109 113.4165176
  65.6731018  40.9957203 112.1759271  73.0639288  44.0570693 111.1101044
  73.5299741  44.8898684 111.0361346  73.5146789  43.5915674 111.8146302
  63.0061124  52.0596564 119.8239289  63.7070583  52.6933047 119.9768683
  62.5356239  52.4011296 119.0634928  71.1315520  50.4014514 108.1087196
  71.4075363  50.2871108 109.0181070  70.2620018  50.0031999 108.0699369
  71.0355951  36.4251280 115.1491945  70.1219031  36.6555506 115.3174152
  71.4649053  36.5089724 116.0005977  70.8062410  44.6141172 117.6491839
  70.1533860  44.8617079 116.9944292  71.1842790  43.8005310 117.3154316
  67.7669584  54.6500865 111.7520009  67.9491978  53.8322521 112.2147762
  68.5902570  54.8668557 111.3144899  68.1011749  53.5769050 109.0135058
  68.6299516  53.0661504 108.4005220  68.3639969  53.2611580 109.8780591
  66.8549983  45.3560983 124.1357876  66.1790620  45.2555112 124.8060251
  67.6777617  45.2000196 124.5993873  58.6028842  51.5932919 116.7570391
  59.1882279  50.8476607 116.8898296  58.4053680  51.9036876 117.6407055
  61.4567497  54.6284167 111.7732834  60.7877872  55.1130294 111.2896874
  61.3180367  54.8753387 112.6876212  53.1946497  44.1638519 115.4774834
  53.2330596  43.6302110 116.2711953  52.6886789  43.6373725 114.8585812
  65.5972766  56.6627910 118.3715492  66.1491074  56.8259532 119.1364577
  65.9378959  57.2532348 117.6995517  60.5737259  39.0103060 118.9737377
  60.6378585  39.8717891 118.5614774  60.5104379  38.3977062 118.2409735
  70.4483640  51.4889168 124.2264146  70.9923544  52.1019126 123.7319101
  69.8670485  52.0468746 124.7431159  56.8255074  42.8902622 108.5528766
  57.1208515  41.9813300 108.4995820  55.9243110  42.8690361 108.2309768
  68.7341153  54.6109886 115.3579174  68.6092292  53.8099625 114.8490120
  69.3920244  55.1056079 114.8693144  60.3549321  40.9658618 114.5356314
  59.6335907  41.5794586 114.3963788  61.1442577  41.5016383 114.4572960
  70.7976061  52.4118906 116.9858724  69.8506397  52.2924257 116.9137051
  71.1458834  51.5241404 117.0684986  63.1575635  38.3013045 120.8096966
  63.6810036  38.5475341 121.5723276  62.9387968  39.1333079 120.3900104
  58.5542916  40.5716719 108.6768091  58.2255622  39.6914098 108.4943197
  58.9082286  40.5164388 109.5644480  67.8022495  52.2071622 113.1863077
  67.6547457  51.2788329 113.3670647  68.6275988  52.2291713 112.7020152
  61.6684739  40.8589689 109.0443569  62.0080811  41.3875610 108.3222177
  62.1156859  41.1970095 109.8202135  71.4056616  53.0300181 114.2727949
  72.3303164  52.8243042 114.1352400  71.2371920  52.7816582 115.1817291
  64.3628180  39.2426740 118.4946637  64.0225000  38.4434553 118.8967317
  63.6567186  39.5428451 117.9223470  65.0144651  36.3276052 116.9473960
  65.8370721  35.8536530 116.8252850  65.2582715  37.1066536 117.4472646
  63.6552886  39.3564311 107.2436861  64.3761248  39.7345563 106.7400578
  63.0318190  40.0753187 107.3471839  67.7984009  40.0609460 108.1795194
  68.0147623  40.9434097 107.8784022  67.3178076  39.6695673 107.4500836
  62.5383230  43.0195173 114.7565938  62.3927811  43.3335476 115.6490220
  62.0608434  43.6380073 114.2036837  64.3979613  40.0097721 114.8046828
  64.3841182  39.1138814 114.4679126  65.1152041  40.0168385 115.4385114
  66.2505744  40.4435061 116.8499955  65.9923522  41.3652132 116.8484286
  65.7190784  40.0465495 117.5400419  71.1951933  53.5485848 109.6290041
  71.3688810  52.9832271 108.8763893  71.6880824  54.3486743 109.4469531
  57.0128892  45.5600517 117.6953600  56.4682360  46.3360325 117.8273874
  57.8908242  45.9071322 117.5372721  63.8016509  38.8912101 110.0734398
  63.9232420  37.9628747 110.2725286  63.5118551  38.9050787 109.1612713
  66.6707699  36.5767011 113.2101118  66.6929396  36.6406345 112.2553097
  67.0875758  35.7371520 113.4041624  77.0491324  46.3122271 111.2480340
  77.4922470  45.5629596 110.8499464  76.1717834  46.3032407 110.8654072
  72.1827105  52.8652612 106.7286939  72.8778010  53.4859305 106.9474254
  72.5250255  52.0147964 107.0039317  57.7994914  44.6870413 120.5883756
  57.0576650  44.8353049 121.1748387  57.4787659  44.9478679 119.7250506
  74.0818528  50.3152318 108.2574270  74.6069852  50.6539591 107.5323590
  73.9940881  49.3799333 108.0737404  65.7438577  54.2286392 120.3864146
  66.0525703  53.9835538 121.2586846  66.5414059  54.4333030 119.8983017
  65.7659189  56.3824301 112.6169523  65.3264179  55.8900680 113.3102380
  66.5167306  55.8397269 112.3761598  58.2451528  52.5735842 112.6194151
  59.0709548  52.2739614 112.2392795  57.8945580  51.8043465 113.0683940
  63.2133061  51.9262310 114.6891825  62.5913070  51.2633015 114.3894052
  63.8837928  51.9523442 114.0065472  56.4460133  50.4922169 113.5783085
  55.6092041  50.0644343 113.3967086  56.4183778  50.6854612 114.5153876
  73.7712434  50.9485222 123.5625468  72.9807978  50.9309361 123.0229967
  73.5345789  51.4873515 124.3174504  73.8910309  47.7977688 120.8758196
  73.9408314  47.6327695 121.8173719  73.7824233  46.9304947 120.4856077
  62.7746568  50.4766234 108.1650285  62.9234688  51.1601698 107.5116958
  63.5813011  50.4571324 108.6799741  71.1814072  43.7808616 122.1917503
  72.0823934  43.6415081 121.9001501  71.2562046  43.9463071 123.1315680
  65.5156877  41.1575471 121.0370689  64.6460186  41.4509037 120.7653278
  65.7516357  41.7415916 121.7577953  75.3928506  50.2174630 121.1200218
  75.1013314  50.5804610 121.9563679  74.7800637  49.5041638 120.9413550
  76.5924188  47.7827509 113.6402788  77.4271080  48.2217313 113.8040348
  76.7283317  47.3066163 112.8211034  73.6415694  45.3407244 119.5880276
  74.1169816  45.5334890 118.7799127  72.7181260  45.3966430 119.3423659
  60.5299201  46.5031411 109.1711354  60.2845243  45.5993741 109.3691564
  60.6995116  46.5048562 108.2290832  68.2195911  37.3755088 118.5536110
  68.7377855  38.1116115 118.2282598  67.8651044  37.6819081 119.3882869
  59.7994849  42.2359769 106.6697516  59.1064093  42.3104124 106.0137552
  59.5546600  41.4720113 107.1919032  68.4708505  33.7955370 114.0737006
  68.7510259  33.1278559 114.6997433  69.2559112  33.9884466 113.5611670
  66.2741974  52.9714364 105.6362033  65.7015941  53.5904551 105.1832504
  66.8474767  53.5213726 106.1701955  72.3417363  42.2173004 117.8208581
  73.2934786  42.3171102 117.8420805  72.1720814  41.4251273 118.3306666
  70.3631743  39.3028587 118.0067982  69.7681675  39.5833600 117.3114471
  70.0781440  39.7922488 118.7784723  69.4939233  53.2551514 106.7670615
  70.4269906  53.1897076 106.9703490  69.4062446  54.0907781 106.3085148
  72.1227250  52.5717385 103.7274562  72.0440882  52.2377248 104.6210320
  72.9436917  53.0639153 103.7266035  74.8205441  45.4379124 116.9350881
  74.7881761  44.4995125 117.1210565  75.4306065  45.5163161 116.2016706
  66.6588772  44.3075177 102.9778085  67.6047877  44.1781385 103.0466503
  66.2803017  43.5689839 103.4547513  74.9699930  42.2290167 116.9809164
  74.4538978  41.4448624 116.7939093  75.8539878  41.9008884 117.1455684
  72.6310657  35.9731183 112.9404977  72.4335478  35.6646271 113.8248309
  73.2410362  36.6992822 113.0702907  80.6381991  46.4995131 116.0756918
  81.3685380  46.2380419 116.6364621  80.0288937  45.7623853 116.1158986
  78.7197288  44.6402993 116.6731369  77.9930452  44.5058958 116.0647861
  78.3044575  44.9479822 117.4788087  66.5427465  48.3592923 124.4378742
  67.4630474  48.5371522 124.6318789  66.5077048  47.4148968 124.2858441
  64.8431689  42.2325153 102.9132970  63.9363145  41.9358266 102.9895684
  65.1207670  41.9354971 102.0467257  55.7609630  43.5531517 113.3632017
  55.4412414  42.6996825 113.0706391  55.2143058  43.7680095 114.1189984
  59.5389537  46.2693958 117.0801523  59.7575547  47.2011066 117.0989557
  59.9515311  45.9101932 117.8656327  66.4593755  36.7762043 109.0677212
  65.6494483  36.4309128 109.4432458  67.1478172  36.4669587 109.6564823
  68.3884303  35.8540090 110.6901508  68.9415342  36.2735543 111.3491531
  68.6254390  34.9275838 110.7324464  63.6130474  39.0912089 103.0544950
  64.4749638  39.4166987 103.3140767  63.7980818  38.3043584 102.5418015
  55.6297890  47.1734428 115.3325138  54.9361361  46.7588381 114.8195093
  56.3770881  47.2154965 114.7358557  71.7663110  37.9640615 110.1980173
  71.1861779  38.6225419 109.8158225  71.4999043  37.1417960 109.7867590
  70.2166677  37.3645673 112.4001493  70.7166455  37.4762207 111.5915812
  70.8602285  37.0606726 113.0402301  64.2748673  45.2724302 125.2869334
  63.7915754  46.0724662 125.4933223  64.3609612  45.2832247 124.3336778
  57.5434632  47.1052682 113.2091153  57.5205320  47.2040369 112.2573036
  57.8535269  47.9517833 113.5308319  60.2022010  49.1628837 117.3237768
  61.1565264  49.1312779 117.2567699  60.0034534  48.7019461 118.1387994
  60.7921392  47.7329953 119.8908565  61.6114281  48.2274032 119.9143403
  61.0658200  46.8161921 119.8626133  70.5487988  40.1240705 109.2536521
  69.6613843  40.4090356 109.0356716  70.9641977  39.9634469 108.4063798
  73.9002524  40.1487226 112.9690860  74.6762915  40.6383679 113.2415477
  73.1750659  40.5745281 113.4262730  76.3375083  40.8614846 114.0264801
  76.9319574  40.6210582 113.3158109  76.4101667  40.1421976 114.6538337
  58.5572239  54.7048457 114.3407965  58.4226707  53.9448857 113.7745964
  58.1404301  55.4289356 113.8736754  69.6931202  49.8885380 103.3484541
  70.3967052  50.0935383 103.9642196  68.9693851  50.4562142 103.6133624
  70.5229012  45.6395241 109.4686811  70.4664213  46.0963793 108.6294443
  71.0757355  44.8785926 109.2909654  74.3333818  41.4284973 110.2936930
  74.0770752  41.0281609 111.1245138  73.7086686  42.1428767 110.1687070
  78.6446156  44.1681046 112.8008222  78.0845714  44.2374236 113.5739784
  78.0389659  43.9922031 112.0807718  61.7141365  55.6017774 114.5526408
  61.5973749  56.5463206 114.4505098  60.8933811  55.2991335 114.9412207
  71.6017899  50.3267909 105.3983001  72.4363503  49.8949108 105.2160476
  71.4402242  50.1549923 106.3259895  71.2563791  46.8300023 106.7639340
  71.2012595  46.6644294 105.8227784  70.6309847  47.5376055 106.9201530
  56.0456306  42.0668087 120.5900762  56.6915170  41.5567041 121.0787988
  55.8373457  42.8036769 121.1644188  68.5709699  49.1348934 126.0892903
  69.4400858  49.3089587 125.7279538  68.0916450  49.9543351 125.9668632
  64.5659917  36.3308132 106.3424659  64.5538587  37.2749971 106.4992929
  65.4583339  36.1478277 106.0484120  62.7395879  56.2546035 117.7682337
  63.6423125  56.2869646 118.0848832  62.5133249  55.3246486 117.7828672
  64.4949481  55.0077022 114.4292415  63.5445112  55.0078884 114.3156787
  64.7981967  54.2609757 113.9128450  68.3812036  32.9250908 110.5970595
  67.6144432  32.3709395 110.7427278  68.7922741  32.9972777 111.4584747
  80.2302174  60.8437560 115.4938178  80.8680584  60.7244308 114.7901518
  80.1123017  61.7918404 115.5526130  77.0391881  60.7964988 115.4299702
  76.7010392  60.6806053 114.5420237  77.9081649  60.3956154 115.4100708
  72.8978696  62.6500465 111.4196593  72.3343561  62.5590402 110.6512881
  72.7831091  61.8300369 111.8999086  77.5211664  61.9499840 121.3885908
  77.5100304  61.5552638 120.5166411  77.6832303  61.2165913 121.9819679
  70.4443128  64.1451656 114.2580814  71.2364420  63.8042481 113.8427113
  70.6839778  64.2546632 115.1782967  78.4778255  66.3171433 106.7311058
  77.8266235  66.9025513 106.3445072  79.2722618  66.8477627 106.7906096
  72.4033882  63.4060570 107.1298192  73.1764758  62.8589557 106.9911068
  72.7559281  64.2704819 107.3412654  74.2418925  64.7336952 120.3365092
  73.9508791  65.6382583 120.2211758  74.8775909  64.7753480 121.0509161
  75.1675132  62.1113801 116.9266451  75.7638704  61.8869823 116.2123414
  75.2250103  61.3698546 117.5291899  74.7400160  59.5653236 104.7616642
  74.9925681  59.0434757 104.0000105  73.8024719  59.4019381 104.8643326
  79.7843443  58.5689014 112.5691386  80.5706532  58.1508437 112.2181803
  80.0482147  59.4735106 112.7373034  79.9553520  64.0061865 107.2680042
  79.3199353  64.0796491 107.9800947  79.6250927  64.5955463 106.5899122
  85.1851870  58.5064247 113.4724364  85.9177042  57.9363464 113.7062194
  84.4291226  58.1185848 113.9130870  74.4596449  61.4681342 106.9641017
  74.3432707  60.7926245 107.6322102  74.5698709  60.9813716 106.1473170
  76.8027990  60.9291489 110.6687707  76.4386197  60.4022110 111.3800628
  77.6595106  60.5389958 110.4954192  82.7077290  52.2185822 117.9318973
  82.3760615  53.0881232 117.7080188  82.1122904  51.9022106 118.6113003
  76.4433477  55.9581389 105.6649055  76.6107879  56.8261625 106.0319526
  76.2530646  56.1208670 104.7410344  79.2008810  64.4198368 117.3314885
  78.9009533  65.3223406 117.2230693  78.8559869  64.1530551 118.1836038
  72.6521291  60.8712164 113.3651590  71.7271788  60.7388378 113.5729282
  72.9005704  61.6506384 113.8621532  82.6005954  56.9380908 115.0112323
  81.6922831  56.8696316 114.7171084  82.5493549  57.4152853 115.8394148
  76.4222697  58.4139046 106.6495722  76.3022323  58.8596097 107.4881202
  75.7275286  58.7624364 106.0909260  70.0130102  60.5145438 114.1995379
  70.1422483  60.7679917 115.1134791  69.3327554  61.1073146 113.8800034
  74.1829590  71.1842688 110.2985853  74.1053619  72.1350513 110.3774334
  73.5791233  70.8388560 110.9560779  76.6746819  58.3570553 122.9547220
  75.8980153  58.9164473 122.9450085  77.3137382  58.8427336 123.4762090
  84.4667600  55.1397346 116.7890197  83.8241980  55.4329879 116.1429991
  83.9622529  55.0250266 117.5943393  82.1207764  58.8860519 107.4776056
  83.0325620  59.1187906 107.3023754  81.6117411  59.4697563 106.9151135
  74.9293192  61.1656007 122.5165187  75.6707876  61.7041051 122.2400011
  74.2230177  61.7922295 122.6736739  80.4048531  63.3085147 121.1137349
  80.8131887  62.8667558 120.3691981  79.6825793  62.7337775 121.3671541
  76.7579601  58.2457754 118.4870905  77.6040797  58.6697167 118.6305554
  76.6978239  57.5891378 119.1809469  80.7277346  63.8686338 114.8689637
  80.0986208  64.0332052 114.1665705  80.3403008  64.2827947 115.6400601
  84.6066578  64.8040776 112.2234001  83.9217616  65.1839677 111.6731034
  84.6910427  65.4136102 112.9565949  79.9079047  55.9062122 120.1452079
  79.6639979  56.6604183 119.6086355  80.1838977  56.2847470 120.9799326
  81.8617509  62.4500735 118.8229345  82.0734405  63.0932494 118.1463726
  81.8147258  61.6163051 118.3551275  79.4643738  55.0618555 115.7265917
  78.6028217  55.3599809 116.0182654  79.4906173  55.2788954 114.7946949
  76.2805308  63.6060746 112.1339723  76.7443653  63.8848449 111.3444345
  76.0162106  62.7044190 111.9512813  73.1729389  63.1532227 115.0719486
  73.7430746  63.5819496 114.4336970  73.7637501  62.8714812 115.7703671
  75.2174194  59.7283898 108.9429288  75.9198237  60.1804942 109.4103214
  74.8854822  59.0867717 109.5709181  73.6654555  58.3195655 123.3180497
  73.0353216  59.0011936 123.5515894  73.5590643  58.2078736 122.3733635
  68.9599528  57.9867451 114.2446421  68.1698582  58.2424979 113.7686532
  69.4510775  58.8015789 114.3498462  82.9763337  65.3272690 116.9951702
  83.7980781  64.9252877 116.7134384  82.9725740  65.2240924 117.9467818
  70.9114273  58.3512030 111.2029898  70.1145436  58.4630724 111.7213394
  70.6839865  58.6898682 110.3370788  76.7419941  64.8756733 119.1512413
  76.8064373  65.3377141 119.9870584  76.0330865  64.2454098 119.2794722
  67.2437231  58.2397941 116.6761412  67.4945269  59.1244951 116.9418988
  67.7796779  58.0602543 115.9036504  91.0669330  61.6711439 113.3436674
  90.3133039  61.1018837 113.1880678  91.2016872  61.6374103 114.2907308
  76.4567958  66.5424841 109.0191393  76.3213633  67.3876377 109.4476241
  76.9977771  66.7444118 108.2557327  72.9435298  52.6216421 125.6805748
  72.5502244  52.0682619 126.3553392  73.7601438  52.9326999 126.0712266
  69.9097356  64.0600279 109.5919318  70.4221876  64.8543529 109.7424883
  70.5620069  63.3626569 109.5252919  71.7192241  67.1766035 111.6742071
  71.8958869  68.0984000 111.4863055  72.5149074  66.8624454 112.1036451
  75.8603259  54.0374300 123.2726005  76.6012973  54.6381453 123.1930467
  76.0921182  53.2951938 122.7144047  71.0044597  59.2230667 121.5504234
  70.8898112  58.3215924 121.8511333  70.1489115  59.4694364 121.1989051
  78.0836435  67.1648407 123.1491735  77.6400289  66.3784786 122.8312639
  78.7453648  67.3527558 122.4835626  72.8423556  68.6944209 117.6752413
  73.3930981  68.5661272 116.9029407  72.0035032  68.9939098 117.3247306
  80.1817673  67.4451207 121.1773136  80.1636148  68.2660088 120.6853405
  81.1037593  67.3205282 121.4023277  76.6390727  64.9595337 122.0196645
  77.1719064  64.1983625 121.7895953  76.1104808  64.6668989 122.7620799
  79.8060422  50.0655403 117.5490286  79.4624691  50.9557044 117.4729397
  80.1739385  49.8757060 116.6859871  67.8746273  62.3888933 110.3678888
  68.7121495  62.7985942 110.1512596  68.0524540  61.4488375 110.3379082
  79.7710705  60.0564014 106.0562721  79.2557328  60.8268618 106.2951109
  79.4988013  59.3829150 106.6795783  77.3557816  54.9013715 111.1147960
  76.4999412  54.5120565 110.9353599  77.7684768  54.9805675 110.2547745
  78.8856962  52.4360058 115.5139520  78.3821758  52.3990193 114.7007325
  79.1787569  53.3452801 115.5736176  75.1299848  52.5198788 114.5205701
  75.9952845  52.3241596 114.1611591  75.1977357  52.2909139 115.4475058
  84.7444979  62.8096368 107.9915895  83.9674422  62.4707528 107.5471057
  85.4236460  62.8148992 107.3170860  79.5597008  57.9291106 107.8822503
  79.2547144  58.2437255 108.7332646  80.5127450  58.0072526 107.9249836
  78.0043440  64.0881329 109.5315457  77.4764801  63.3534089 109.2188694
  77.5030943  64.8656006 109.2855425  82.9836286  62.2830350 114.6482503
  82.3259960  62.9729611 114.7362632  83.7876685  62.6726782 114.9916489
  72.7362167  54.7500995 111.8922068  73.3105919  54.5276177 111.1595261
  73.3233150  54.8189690 112.6450669  81.7941745  60.6374722 112.6986445
  82.3073626  61.2704714 113.2008154  82.4442969  60.0375918 112.3329805
  73.0631755  56.7805457 105.9117953  72.2269067  57.1180143 106.2327228
  72.9236524  56.6454436 104.9745090  75.0384835  51.6242244 110.6197138
  74.3849247  51.3091262 109.9953752  74.9965309  51.0017985 111.3456960
  76.1496040  61.9061539 102.5350430  75.2423102  61.6750793 102.7341579
  76.6467072  61.1099159 102.7224411  79.0564119  70.6159047 105.4547116
  78.3825818  70.9190743 106.0632074  79.4429941  71.4188127 105.1052573
  78.2722575  58.1124178 114.9444785  77.3545137  58.3339125 114.7866473
  78.6882719  58.1870488 114.0856493  79.0557623  59.5115594 110.0747465
  79.8029442  60.0236991 109.7654587  79.3249213  59.1899646 110.9351859
  77.3284273  62.0074134 107.0574420  76.4195493  61.7233167 107.1546889
  77.3579357  62.4273213 106.1977727  82.5603541  65.6180724 110.8265587
  82.1065868  64.7771634 110.8830778  81.9297508  66.2542122 111.1640367
  81.5036460  56.5472710 112.0566255  80.7659217  56.0350096 112.3876497
  81.7563234  56.1073091 111.2449532  81.0036480  67.4557221 111.7615405
  81.2959454  68.0162278 111.0427771  81.5135101  67.7485782 112.5168565
  81.6048088  49.3248962 112.6508024  81.9106965  48.4646325 112.3633939
  82.3300693  49.9166582 112.4507018  67.8972444  59.7279648 111.0389622
  67.6996844  59.1349009 110.3140689  67.3419108  59.4231859 111.7565561
  75.8769167  59.6202755 113.1584215  75.9317777  58.6676591 113.0826692
  75.0660369  59.7762194 113.6425514  77.0260361  63.5482878 104.3962498
  76.5879791  62.8318737 103.9368136  77.7670802  63.7758993 103.8347590
  73.8161527  58.2379815 110.9174594  73.0029393  58.5373985 111.3239786
  74.3120522  57.8435503 111.6349076  75.9670105  68.2337572 112.8508859
  75.9246284  68.4598418 111.9217391  76.8832804  68.0000946 112.9994660
  79.4135739  58.7021639 119.7489488  79.7685127  58.9293112 120.6083954
  80.0607870  59.0340016 119.1266743  85.1433476  61.8240075 110.4538817
  85.0051375  62.0141671 109.5260006  84.7869695  62.5859458 110.9106868
  73.3075602  55.8098170 116.5335829  73.9474981  55.6686929 115.8358792
  72.4753133  55.5232684 116.1574431  85.1702856  63.8916602 115.4650088
  85.6039362  63.7991891 116.3133142  85.8834436  63.8674103 114.8270104
  74.0835906  65.1100601 112.6470821  74.8776505  64.6150921 112.4453396
  73.3727598  64.5818464 112.2838527  78.9030751  67.4918696 116.9983189
  78.9567773  68.0609632 117.7660905  78.0345532  67.6620581 116.6337226
  70.3918670  59.2543682 108.7230574  69.4616258  59.1928138 108.9400536
  70.4876142  58.7319635 107.9267215  70.3104219  55.7798495 111.3108816
  70.5711036  56.6943828 111.2017976  71.1321391  55.3122938 111.4605429
  71.7829144  57.1936252 118.4807640  72.4552197  56.9853615 117.8320289
  70.9558930  56.9958338 118.0412873  86.0318405  63.9340303 117.9982974
  86.2254295  64.8386113 118.2442249  85.9319023  63.4747722 118.8321559
  77.6854716  53.8198193 120.4973301  77.0382631  54.5188143 120.4037778
  78.4555731  54.2534337 120.8649549  81.0933514  64.0847045 123.5723854
  80.9419020  63.8557597 122.6553938  81.0838193  65.0417647 123.5855199
  77.8618850  61.6578958 118.5570121  78.7910910  61.8090118 118.3839088
  77.4409880  61.7462979 117.7018767  76.6607182  65.6829623 116.3268658
  76.5218268  65.3148407 117.1994597  75.8721778  66.1977262 116.1552616
  77.2555334  70.7838719 107.6694195  77.4307090  70.3126762 108.4839818
  76.5688122  71.4104485 107.8975456  78.2112397  65.0611225 113.7157496
  77.8762230  65.0211995 114.6115146  77.7116343  64.3955941 113.2427906
  72.1856641  60.4678855 119.2410077  72.0476439  59.7359094 119.8421616
  73.0961565  60.3787755 118.9594265  81.1471589  62.4067260 103.9894556
  80.5300759  61.6814088 103.8927609  80.6788077  63.1676620 103.6461630
  74.8138942  60.1798815 118.7293757  75.5238560  59.5392007 118.6880375
  74.7708250  60.4311710 119.6519938  82.8025721  67.1166168 121.6500336
  82.7438267  66.4325388 120.9830919  83.2045239  67.8585158 121.1980962
  73.5267876  57.1664033 120.5489397  72.9905233  56.7154771 121.2010993
  72.9384584  57.3009941 119.8059861  71.8216419  73.9328082 114.4434055
  72.0613018  74.5646606 115.1213074  70.9785616  73.5816122 114.7299414
  72.9370135  56.6252684 103.1115860  72.0599601  56.5041485 102.7478107
  73.4127888  55.8338762 102.8594749  82.8043128  65.0805752 119.8814316
  81.9169907  64.7431674 120.0040715  83.3741679  64.3488783 120.1183081
  64.4572275  61.4129844 113.2057367  65.1443315  61.0991574 112.6178383
  64.3020404  62.3171208 112.9324619  69.2606997  56.3020040 117.6342391
  69.1765186  55.6945710 116.8992801  68.4389703  56.7929059 117.6351887
  76.3344281  69.7407204 116.8475559  76.2614453  70.5462176 117.3594864
  75.8921674  69.9399170 116.0223581  76.1234061  68.9778974 110.3578381
  75.3401583  69.5200655 110.4516605  76.8226806  69.4952954 110.7572622
  79.4330711  54.7873604 113.0012586  79.9299410  54.0343566 112.6813656
  78.6617692  54.8237920 112.4355795  87.2860468  60.4913969 114.6430878
  87.2750345  61.3738685 114.2724811  86.4177848  60.1385520 114.4485415
  78.7942965  69.6394038 119.0033718  79.5070937  70.2741503 118.9309619
  78.3032993  69.7357904 118.1873720  80.5160492  63.5445291 110.5751009
  79.5816770  63.6646753 110.4055714  80.6937160  62.6417758 110.3111019
  76.0165680  56.9290987 112.7284271  75.6463467  56.3762027 113.4165176
  76.5124772  56.3249120 112.1759271  83.9033043  59.3862610 111.1101044
  84.3693495  60.2190602 111.0361346  84.3540543  58.9207592 111.8146302
  73.8454878  67.3888482 119.8239289  74.5464338  68.0224965 119.9768683
  73.3749993  67.7303213 119.0634928  81.9709274  65.7306432 108.1087196
  82.2469118  65.6163026 109.0181070  81.1013773  65.3323916 108.0699369
  81.8749706  51.7543197 115.1491945  80.9612785  51.9847424 115.3174152
  82.3042807  51.8381641 116.0005977  81.6456164  59.9433089 117.6491839
  80.9927614  60.1908997 116.9944292  82.0236544  59.1297227 117.3154316
  78.6063338  69.9792782 111.7520009  78.7885733  69.1614438 112.2147762
  79.4296324  70.1960475 111.3144899  78.9405504  68.9060968 109.0135058
  79.4693270  68.3953422 108.4005220  79.2033723  68.5903498 109.8780591
  77.6943737  60.6852900 124.1357876  77.0184374  60.5847030 124.8060251
  78.5171371  60.5292114 124.5993873  69.4422596  66.9224837 116.7570391
  70.0276033  66.1768525 116.8898296  69.2447435  67.2328794 117.6407055
  72.2961252  69.9576084 111.7732834  71.6271627  70.4422212 111.2896874
  72.1574121  70.2045305 112.6876212  64.0340251  59.4930437 115.4774834
  64.0724351  58.9594028 116.2711953  63.5280544  58.9665643 114.8585812
  76.4366520  71.9919828 118.3715492  76.9884828  72.1551449 119.1364577
  76.7772714  72.5824266 117.6995517  71.4131013  54.3394978 118.9737377
  71.4772340  55.2009808 118.5614774  71.3498134  53.7268979 118.2409735
  70.8883286  56.4118110 122.6210411  71.5155325  56.0295187 123.2347935
  70.0311205  56.1932312 122.9866104  67.6648829  58.2194539 108.5528766
  67.9602270  57.3105218 108.4995820  66.7636864  58.1982279 108.2309768
  79.5734907  69.9401803 115.3579174  79.4486047  69.1391543 114.8490120
  80.2313998  70.4347997 114.8693144  71.1943076  56.2950536 114.5356314
  70.4729661  56.9086503 114.3963788  71.9836331  56.8308301 114.4572960
  81.6369816  67.7410823 116.9858724  80.6900151  67.6216175 116.9137051
  81.9852589  66.8533321 117.0684986  73.9969389  53.6304962 120.8096966
  74.5203791  53.8767259 121.5723276  73.7781722  54.4624997 120.3900104
  69.3936670  55.9008637 108.6768091  69.0649376  55.0206016 108.4943197
  69.7476041  55.8456306 109.5644480  78.6416249  67.5363540 113.1863077
  78.4941211  66.6080247 113.3670647  79.4669743  67.5583630 112.7020152
  72.5078493  56.1881607 109.0443569  72.8474566  56.7167528 108.3222177
  72.9550614  56.5262013 109.8202135  82.2450371  68.3592098 114.2727949
  83.1696918  68.1534960 114.1352400  82.0765674  68.1108499 115.1817291
  75.2021934  54.5718657 118.4946637  74.8618755  53.7726470 118.8967317
  74.4960940  54.8720368 117.9223470  75.8538406  51.6567970 116.9473960
  76.6764475  51.1828448 116.8252850  76.0976470  52.4358454 117.4472646
  74.4946640  54.6856228 107.2436861  75.2155003  55.0637481 106.7400578
  73.8711945  55.4045105 107.3471839  78.6377763  55.3901377 108.1795194
  78.8541378  56.2726015 107.8784022  78.1571831  54.9987591 107.4500836
  73.3776985  58.3487090 114.7565938  73.2321565  58.6627394 115.6490220
  72.9002188  58.9671991 114.2036837  75.2373368  55.3389638 114.8046828
  75.2234936  54.4430732 114.4679126  75.9545796  55.3460302 115.4385114
  77.0899498  55.7726979 116.8499955  76.8317276  56.6944049 116.8484286
  76.5584539  55.3757413 117.5400419  82.0345687  68.8777766 109.6290041
  82.2082565  68.3124188 108.8763893  82.5274578  69.6778661 109.4469531
  67.8522647  60.8892435 117.6953600  67.3076115  61.6652243 117.8273874
  68.7301997  61.2363239 117.5372721  74.6410264  54.2204019 110.0734398
  74.7626175  53.2920665 110.2725286  74.3512306  54.2342705 109.1612713
  77.5101454  51.9058929 113.2101118  77.5323151  51.9698262 112.2553097
  77.9269513  51.0663438 113.4041624  87.8885078  61.6414189 111.2480340
  88.3316224  60.8921514 110.8499464  87.0111589  61.6324325 110.8654072
  83.0220860  68.1944530 106.7286939  83.7171764  68.8151223 106.9474254
  83.3644010  67.3439881 107.0039317  68.6388669  60.0162331 120.5883756
  67.8970405  60.1644966 121.1748387  68.3181413  60.2770597 119.7250506
  84.9212283  65.6444236 108.2574270  85.4463607  65.9831508 107.5323590
  84.8334635  64.7091251 108.0737404  76.5832331  69.5578309 120.3864146
  76.8919458  69.3127456 121.2586846  77.3807813  69.7624948 119.8983017
  76.6052943  71.7116219 112.6169523  76.1657934  71.2192598 113.3102380
  77.3561060  71.1689187 112.3761598  69.0845282  67.9027760 112.6194151
  69.9103302  67.6031532 112.2392795  68.7339334  67.1335382 113.0683940
  74.0526816  67.2554228 114.6891825  73.4306825  66.5924933 114.3894052
  74.7231683  67.2815360 114.0065472  67.2853887  65.8214086 113.5783085
  66.4485796  65.3936261 113.3967086  67.2577533  66.0146530 114.5153876
  74.1251343  55.7336016 124.2824331  74.1739499  56.6098139 123.9002100
  74.6673857  55.1913409 123.7095974  84.7304064  63.1269606 120.8758196
  84.7802069  62.9619613 121.8173719  84.6217987  62.2596865 120.4856077
  73.6140323  65.8058151 108.1650285  73.7628443  66.4893616 107.5116958
  74.4206766  65.7863241 108.6799741  82.0207826  59.1100534 122.1917503
  82.9217689  58.9706999 121.9001501  82.0955801  59.2754989 123.1315680
  76.3550632  56.4867388 121.0370689  75.4853941  56.7800955 120.7653278
  76.5910112  57.0707833 121.7577953  86.2322261  65.5466547 121.1200218
  85.9407069  65.9096528 121.9563679  85.6194392  64.8333556 120.9413550
  87.4317943  63.1119427 113.6402788  88.2664834  63.5509231 113.8040348
  87.5677072  62.6358080 112.8211034  84.4809449  60.6699162 119.5880276
  84.9563570  60.8626808 118.7799127  83.5575014  60.7258348 119.3423659
  71.3692956  61.8323329 109.1711354  71.1238997  60.9285659 109.3691564
  71.5388870  61.8340479 108.2290832  79.0589665  52.7047005 118.5536110
  79.5771609  53.4408032 118.2282598  78.7044798  53.0110999 119.3882869
  70.6388603  57.5651687 106.6697516  69.9457848  57.6396042 106.0137552
  70.3940355  56.8012030 107.1919032  79.3102260  49.1247288 114.0737006
  79.5904013  48.4570477 114.6997433  80.0952866  49.3176384 113.5611670
  77.1135728  68.3006282 105.6362033  76.5409695  68.9196469 105.1832504
  77.6868522  68.8505644 106.1701955  83.1811118  57.5464922 117.8208581
  84.1328541  57.6463020 117.8420805  83.0114568  56.7543190 118.3306666
  81.2025497  54.6320505 118.0067982  80.6075429  54.9125518 117.3114471
  80.9175194  55.1214406 118.7784723  80.3332988  68.5843432 106.7670615
  81.2663661  68.5188994 106.9703490  80.2456201  69.4199699 106.3085148
  82.9621005  67.9009302 103.7274562  82.8834636  67.5669166 104.6210320
  83.7830671  68.3931070 103.7266035  85.6599196  60.7671042 116.9350881
  85.6275516  59.8287042 117.1210565  86.2699819  60.8455078 116.2016706
  77.4982527  59.6367095 102.9778085  78.4441631  59.5073303 103.0466503
  77.1196771  58.8981757 103.4547513  85.8093684  57.5582085 116.9809164
  85.2932733  56.7740542 116.7939093  86.6933633  57.2300802 117.1455684
  83.4704411  51.3023101 112.9404977  83.2729232  50.9938189 113.8248309
  84.0804117  52.0284740 113.0702907  91.4775746  61.8287048 116.0756918
  92.2079134  61.5672337 116.6364621  90.8682691  61.0915770 116.1158986
  89.5591043  59.9694911 116.6731369  88.8324206  59.8350876 116.0647861
  89.1438330  60.2771740 117.4788087  77.3821219  63.6884841 124.4378742
  78.3024229  63.8663440 124.6318789  77.3470802  62.7440886 124.2858441
  75.6825444  57.5617071 102.9132970  74.7756899  57.2650184 102.9895684
  75.9601425  57.2646889 102.0467257  66.6003384  58.8823434 113.3632017
  66.2806168  58.0288743 113.0706391  66.0536812  59.0972013 114.1189984
  70.3783292  61.5985875 117.0801523  70.5969301  62.5302983 117.0989557
  70.7909065  61.2393850 117.8656327  77.2987509  52.1053961 109.0677212
  76.4888238  51.7601046 109.4432458  77.9871926  51.7961504 109.6564823
  79.2278058  51.1832008 110.6901508  79.7809096  51.6027461 111.3491531
  79.4648144  50.2567756 110.7324464  75.2511157  57.1719081 126.4704272
  75.1507884  58.1213438 126.4016363  75.0332699  56.8437320 125.5980342
  74.4524228  54.4204006 103.0544950  75.3143392  54.7458905 103.3140767
  74.6374572  53.6335502 102.5418015  66.4691644  62.5026346 115.3325138
  65.7755116  62.0880299 114.8195093  67.2164635  62.5446882 114.7358557
  82.6056865  53.2932533 110.1980173  82.0255534  53.9517337 109.8158225
  82.3392797  52.4709877 109.7867590  81.0560431  52.6937590 112.4001493
  81.5560210  52.8054125 111.5915812  81.6996039  52.3898643 113.0402301
  75.1142427  60.6016220 125.2869334  74.6309509  61.4016580 125.4933223
  75.2003366  60.6124165 124.3336778  68.3828387  62.4344600 113.2091153
  68.3599075  62.5332287 112.2573036  68.6929023  63.2809750 113.5308319
  71.0415764  64.4920755 117.3237768  71.9959018  64.4604697 117.2567699
  70.8428288  64.0311378 118.1387994  71.6315147  63.0621871 119.8908565
  72.4508036  63.5565949 119.9143403  71.9051954  62.1453839 119.8626133
  81.3881743  55.4532623 109.2536521  80.5007598  55.7382274 109.0356716
  81.8035732  55.2926386 108.4063798  84.7396279  55.4779144 112.9690860
  85.5156669  55.9675596 113.2415477  84.0144413  55.9037198 113.4262730
  87.1768838  56.1906763 114.0264801  87.7713328  55.9502499 113.3158109
  87.2495421  55.4713894 114.6538337  69.3965993  70.0340374 114.3407965
  69.2620461  69.2740775 113.7745964  68.9798056  70.7581274 113.8736754
  80.5324956  65.2177298 103.3484541  81.2360806  65.4227300 103.9642196
  79.8087605  65.7854060 103.6133624  81.3622767  60.9687159 109.4686811
  81.3057968  61.4255710 108.6294443  81.9151109  60.2077844 109.2909654
  85.1727572  56.7576891 110.2936930  84.9164507  56.3573527 111.1245138
  84.5480441  57.4720685 110.1687070  89.4839910  59.4972964 112.8008222
  88.9239468  59.5666153 113.5739784  88.8783414  59.3213949 112.0807718
  72.5535119  70.9309691 114.5526408  72.4367503  71.8755124 114.4505098
  71.7327565  70.6283253 114.9412207  82.4411654  65.6559827 105.3983001
  83.2757258  65.2241025 105.2160476  82.2795997  65.4841841 106.3259895
  82.0957546  62.1591940 106.7639340  82.0406350  61.9936212 105.8227784
  81.4703601  62.8667973 106.9201530  66.8850061  57.3960005 120.5900762
  67.5308924  56.8858959 121.0787988  66.6767212  58.1328686 121.1644188
  75.4053671  51.6600049 106.3424659  75.3932341  52.6041889 106.4992929
  76.2977093  51.4770195 106.0484120  73.5789633  71.5837953 117.7682337
  74.4816880  71.6161563 118.0848832  73.3527003  70.6538404 117.7828672
  75.3343235  70.3368940 114.4292415  74.3838866  70.3370801 114.3156787
  75.6375721  69.5901674 113.9128450  79.2205791  48.2542826 110.5970595
  78.4538187  47.7001313 110.7427278  79.6316496  48.3264695 111.4584747
  71.2247552  54.5427622 124.6875777  72.0879013  54.1864427 124.8979101
  70.6512963  54.2041517 125.3751181  83.7372451  77.9792383 111.4196593
  83.1737316  77.8882319 110.6512881  83.6224846  77.1592287 111.8999086
  81.2836883  79.4743574 114.2580814  82.0758175  79.1334399 113.8427113
  81.5233533  79.5838549 115.1782967  89.3172009  81.6463350 106.7311058
  88.6659989  82.2317431 106.3445072  90.1116372  82.1769545 106.7906096
  83.2427637  78.7352487 107.1298192  84.0158513  78.1881474 106.9911068
  83.5953036  79.5996737 107.3412654  85.5793914  74.8945154 104.7616642
  85.8319435  74.3726675 104.0000105  84.6418474  74.7311299 104.8643326
  90.6237197  73.8980932 112.5691386  91.4100286  73.4800355 112.2181803
  90.8875902  74.8027024 112.7373034  90.7947275  79.3353782 107.2680042
  90.1593108  79.4088409 107.9800947  90.4644681  79.9247381 106.5899122
  85.2990203  76.7973259 106.9641017  85.1826461  76.1218163 107.6322102
  85.4092463  76.3105633 106.1473170  87.6421744  76.2583407 110.6687707
  87.2779951  75.7314028 111.3800628  88.4988860  75.8681876 110.4954192
  87.2827231  71.2873306 105.6649055  87.4501633  72.1553543 106.0319526
  87.0924400  71.4500588 104.7410344  83.4915046  76.2004082 113.3651590
  82.5665542  76.0680296 113.5729282  83.7399459  76.9798301 113.8621532
  87.2616452  73.7430964 106.6495722  87.1416077  74.1888015 107.4881202
  86.5669040  74.0916281 106.0909260  80.8523857  75.8437356 114.1995379
  80.9816238  76.0971835 115.1134791  80.1721308  76.4365064 113.8800034
  92.9601518  74.2152437 107.4776056  93.8719374  74.4479824 107.3023754
  92.4511165  74.7989481 106.9151135  90.3037493  70.3910473 115.7265917
  89.4421972  70.6891726 116.0182654  90.3299928  70.6080872 114.7946949
  87.1199062  78.9352663 112.1339723  87.5837408  79.2140366 111.3444345
  86.8555860  78.0336108 111.9512813  86.0567948  75.0575816 108.9429288
  86.7591992  75.5096860 109.4103214  85.7248577  74.4159635 109.5709181
  79.7993282  73.3159369 114.2446421  79.0092336  73.5716897 113.7686532
  80.2904530  74.1307706 114.3498462  81.7508028  73.6803948 111.2029898
  80.9539191  73.7922642 111.7213394  81.5233620  74.0190600 110.3370788
  78.0830985  73.5689859 116.6761412  78.3339024  74.4536869 116.9418988
  78.6190534  73.3894461 115.9036504  87.2961713  81.8716758 109.0191393
  87.1607388  82.7168294 109.4476241  87.8371525  82.0736036 108.2557327
  80.7491110  79.3892197 109.5919318  81.2615631  80.1835447 109.7424883
  81.4013823  78.6918487 109.5252919  82.5585995  82.5057953 111.6742071
  82.7352623  83.4275918 111.4863055  83.3542829  82.1916372 112.1036451
  90.6454177  65.3947320 117.5490286  90.3018446  66.2848962 117.4729397
  91.0133139  65.2048978 116.6859871  78.7140027  77.7180851 110.3678888
  79.5515249  78.1277859 110.1512596  78.8918295  76.7780293 110.3379082
  90.6104459  75.3855931 106.0562721  90.0951083  76.1560536 106.2951109
  90.3381768  74.7121068 106.6795783  88.1951570  70.2305632 111.1147960
  87.3393167  69.8412483 110.9353599  88.6078522  70.3097593 110.2547745
  89.7250717  67.7651976 115.5139520  89.2215513  67.7282111 114.7007325
  90.0181324  68.6744718 115.5736176  85.9693603  67.8490705 114.5205701
  86.8346600  67.6533514 114.1611591  86.0371112  67.6201057 115.4475058
  95.5838733  78.1388286 107.9915895  94.8068176  77.7999446 107.5471057
  96.2630214  78.1440909 107.3170860  90.3990762  73.2583024 107.8822503
  90.0940898  73.5729173 108.7332646  91.3521205  73.3364443 107.9249836
  88.8437194  79.4173247 109.5315457  88.3158556  78.6826006 109.2188694
  88.3424697  80.1947923 109.2855425  83.5755922  70.0792913 111.8922068
  84.1499674  69.8568095 111.1595261  84.1626904  70.1481608 112.6450669
  83.9025509  72.1097374 105.9117953  83.0662821  72.4472061 106.2327228
  83.7630279  71.9746354 104.9745090  85.8778590  66.9534162 110.6197138
  85.2243002  66.6383179 109.9953752  85.8359064  66.3309903 111.3456960
  86.9889794  77.2353457 102.5350430  86.0816856  77.0042711 102.7341579
  87.4860826  76.4391076 102.7224411  89.8957873  85.9450964 105.4547116
  89.2219572  86.2482661 106.0632074  90.2823695  86.7480045 105.1052573
  89.1116330  73.4416096 114.9444785  88.1938891  73.6631043 114.7866473
  89.5276474  73.5162406 114.0856493  89.8951378  74.8407511 110.0747465
  90.6423197  75.3528909 109.7654587  90.1642967  74.5191564 110.9351859
  88.1678028  77.3366052 107.0574420  87.2589247  77.0525085 107.1546889
  88.1973112  77.7565131 106.1977727  92.3430215  71.8764628 112.0566255
  91.6052972  71.3642014 112.3876497  92.5956988  71.4365009 111.2449532
  92.4441842  64.6540880 112.6508024  92.7500719  63.7938243 112.3633939
  93.1694447  65.2458500 112.4507018  78.7366198  75.0571566 111.0389622
  78.5390598  74.4640927 110.3140689  78.1812862  74.7523776 111.7565561
  86.7162922  74.9494673 113.1584215  86.7711532  73.9968509 113.0826692
  85.9054124  75.1054112 113.6425514  87.8654116  78.8774796 104.3962498
  87.4273546  78.1610655 103.9368136  88.6064557  79.1050911 103.8347590
  84.6555282  73.5671732 110.9174594  83.8423147  73.8665903 111.3239786
  85.1514276  73.1727421 111.6349076  95.9827231  77.1531993 110.4538817
  95.8445129  77.3433589 109.5260006  95.6263449  77.9151376 110.9106868
  84.1469357  71.1390088 116.5335829  84.7868736  70.9978847 115.8358792
  83.3146887  70.8524601 116.1574431  84.9229661  80.4392518 112.6470821
  85.7170259  79.9442838 112.4453396  84.2121353  79.9110381 112.2838527
  81.2312424  74.5835600 108.7230574  80.3010012  74.5220056 108.9400536
  81.3269896  74.0611553 107.9267215  81.1497973  71.1090413 111.3108816
  81.4104790  72.0235746 111.2017976  81.9715145  70.6414855 111.4605429
  82.6222898  72.5228170 118.4807640  83.2945952  72.3145532 117.8320289
  81.7952685  72.3250256 118.0412873  88.0949089  86.1130637 107.6694195
  88.2700844  85.6418680 108.4839818  87.4081877  86.7396403 107.8975456
  91.9865343  77.7359177 103.9894556  91.3694514  77.0106005 103.8927609
  91.5181832  78.4968538 103.6461630  83.7763889  71.9544602 103.1115860
  82.8993356  71.8333402 102.7478107  84.2521642  71.1630680 102.8594749
  75.2966029  76.7421761 113.2057367  75.9837069  76.4283491 112.6178383
  75.1414158  77.6463126 112.9324619  80.1000752  71.6311958 117.6342391
  80.0158940  71.0237627 116.8992801  79.2783458  72.1220976 117.6351887
  90.2724465  70.1165521 113.0012586  90.7693165  69.3635484 112.6813656
  89.5011447  70.1529838 112.4355795  91.3554246  78.8737209 110.5751009
  90.4210525  78.9938671 110.4055714  91.5330915  77.9709675 110.3111019
  86.8559434  72.2582904 112.7284271  86.4857222  71.7053945 113.4165176
  87.3518527  71.6541038 112.1759271  94.7426797  74.7154528 111.1101044
  95.2087250  75.5482520 111.0361346  95.1934298  74.2499510 111.8146302
  92.8103029  81.0598349 108.1087196  93.0862872  80.9454944 109.0181070
  91.9407527  80.6615834 108.0699369  92.7143460  67.0835115 115.1491945
  91.8006540  67.3139342 115.3174152  93.1436562  67.1673559 116.0005977
  89.7799258  84.2352885 109.0135058  90.3087024  83.7245340 108.4005220
  90.0427478  83.9195415 109.8780591  74.8734006  74.8222355 115.4774834
  74.9118105  74.2885945 116.2711953  74.3674298  74.2957560 114.8585812
  82.2524768  69.6686895 118.9737377  82.3166094  70.5301726 118.5614774
  82.1891888  69.0560897 118.2409735  78.5042583  73.5486457 108.5528766
  78.7996024  72.6397135 108.4995820  77.6030619  73.5274196 108.2309768
  82.0336830  71.6242453 114.5356314  81.3123416  72.2378421 114.3963788
  82.8230086  72.1600218 114.4572960  80.2330425  71.2300555 108.6768091
  79.9043131  70.3497933 108.4943197  80.5869795  71.1748223 109.5644480
  83.3472248  71.5173524 109.0443569  83.6868320  72.0459446 108.3222177
  83.7944368  71.8553930 109.8202135  86.0415689  69.9010575 118.4946637
  85.7012509  69.1018388 118.8967317  85.3354695  70.2012286 117.9223470
  86.6932160  66.9859887 116.9473960  87.5158230  66.5120366 116.8252850
  86.9370224  67.7650371 117.4472646  85.3340395  70.0148146 107.2436861
  86.0548757  70.3929399 106.7400578  84.7105699  70.7337023 107.3471839
  89.4771518  70.7193295 108.1795194  89.6935132  71.6017933 107.8784022
  88.9965585  70.3279508 107.4500836  84.2170739  73.6779008 114.7565938
  84.0715320  73.9919311 115.6490220  83.7395943  74.2963908 114.2036837
  86.0767122  70.6681556 114.8046828  86.0628691  69.7722649 114.4679126
  86.7939550  70.6752220 115.4385114  87.9293253  71.1018896 116.8499955
  87.6711031  72.0235967 116.8484286  87.3978293  70.7049331 117.5400419
  78.6916401  76.2184353 117.6953600  78.1469869  76.9944160 117.8273874
  79.5695751  76.5655157 117.5372721  85.4804018  69.5495936 110.0734398
  85.6019929  68.6212583 110.2725286  85.1906060  69.5634622 109.1612713
  88.3495208  67.2350847 113.2101118  88.3716905  67.2990180 112.2553097
  88.7663267  66.3955355 113.4041624  93.8614614  83.5236448 106.7286939
  94.5565519  84.1443141 106.9474254  94.2037764  82.6731799 107.0039317
  95.7606037  80.9736153 108.2574270  96.2857361  81.3123426 107.5323590
  95.6728390  80.0383169 108.0737404  79.9239037  83.2319678 112.6194151
  80.7497057  82.9323449 112.2392795  79.5733089  82.4627300 113.0683940
  78.1247642  81.1506004 113.5783085  77.2879550  80.7228178 113.3967086
  78.0971287  81.3438447 114.5153876  84.4534077  81.1350069 108.1650285
  84.6022197  81.8185533 107.5116958  85.2600520  81.1155159 108.6799741
  82.2086710  77.1615247 109.1711354  81.9632752  76.2577577 109.3691564
  82.3782625  77.1632397 108.2290832  81.4782358  72.8943604 106.6697516
  80.7851602  72.9687959 106.0137552  81.2334109  72.1303948 107.1919032
  90.1496014  64.4539206 114.0737006  90.4297768  63.7862395 114.6997433
  90.9346621  64.6468301 113.5611670  87.9529483  83.6298200 105.6362033
  87.3803450  84.2488387 105.1832504  88.5262276  84.1797561 106.1701955
  91.1726742  83.9135350 106.7670615  92.1057415  83.8480911 106.9703490
  91.0849955  84.7491617 106.3085148  93.8014759  83.2301220 103.7274562
  93.7228391  82.8961084 104.6210320  94.6224426  83.7222988 103.7266035
  88.3376281  74.9659012 102.9778085  89.2835386  74.8365220 103.0466503
  87.9590526  74.2273674 103.4547513  94.3098166  66.6315018 112.9404977
  94.1122987  66.3230106 113.8248309  94.9197871  67.3576657 113.0702907
  86.5219198  72.8908989 102.9132970  85.6150654  72.5942101 102.9895684
  86.7995179  72.5938807 102.0467257  77.4397139  74.2115352 113.3632017
  77.1199923  73.3580660 113.0706391  76.8930567  74.4263930 114.1189984
  88.1381264  67.4345878 109.0677212  87.3281992  67.0892963 109.4432458
  88.8265681  67.1253422 109.6564823  90.0671812  66.5123925 110.6901508
  90.6202851  66.9319379 111.3491531  90.3041899  65.5859673 110.7324464
  85.2917983  69.7495924 103.0544950  86.1537147  70.0750822 103.3140767
  85.4768327  68.9627420 102.5418015  77.3085399  77.8318264 115.3325138
  76.6148870  77.4172216 114.8195093  78.0558390  77.8738800 114.7358557
  93.4450619  68.6224450 110.1980173  92.8649288  69.2809254 109.8158225
  93.1786552  67.8001795 109.7867590  91.8954186  68.0229508 112.4001493
  92.3953964  68.1346043 111.5915812  92.5389794  67.7190561 113.0402301
  79.2222141  77.7636517 113.2091153  79.1992829  77.8624205 112.2573036
  79.5322778  78.6101668 113.5308319  92.2275497  70.7824541 109.2536521
  91.3401352  71.0674191 109.0356716  92.6429486  70.6218304 108.4063798
  95.5790033  70.8071062 112.9690860  96.3550424  71.2967514 113.2415477
  94.8538168  71.2329116 113.4262730  91.3718711  80.5469215 103.3484541
  92.0754561  80.7519218 103.9642196  90.6481360  81.1145977 103.6133624
  92.2016521  76.2979077 109.4686811  92.1451722  76.7547628 108.6294443
  92.7544864  75.5369761 109.2909654  96.0121327  72.0868809 110.2936930
  95.7558261  71.6865444 111.1245138  95.3874195  72.8012602 110.1687070
  93.2805408  80.9851745 105.3983001  94.1151012  80.5532943 105.2160476
  93.1189751  80.8133758 106.3259895  92.9351300  77.4883858 106.7639340
  92.8800104  77.3228129 105.8227784  92.3097356  78.1959891 106.9201530
  77.7243815  72.7251922 120.5900762  78.3702679  72.2150876 121.0787988
  77.5160966  73.4620604 121.1644188  86.2447426  66.9891967 106.3424659
  86.2326096  67.9333807 106.4992929  87.1370848  66.8062112 106.0484120
  90.0599545  63.5834744 110.5970595  89.2931941  63.0293230 110.7427278
  90.4710250  63.6556612 111.4584747  94.7419264  87.4389292 105.9117953
  93.9056576  87.7763978 106.2327228  94.6024033  87.3038272 104.9745090
  94.6157644  87.2836519 103.1115860  93.7387110  87.1625320 102.7478107
  95.0915397  86.4922598 102.8594749  92.3176112  88.2235522 106.6697516
  91.6245357  88.2979877 106.0137552  92.0727864  87.4595866 107.1919032
  97.3612953  88.2200906 102.9132970  96.4544408  87.9234019 102.9895684
  97.6388934  87.9230724 102.0467257  96.1311737  85.0787842 103.0544950
  96.9930901  85.4042740 103.3140767  96.3162081  84.2919337 102.5418015
  97.0841180  82.3183885 106.3424659  97.0719850  83.2625725 106.4992929
  97.9764602  82.1354030 106.0484120  46.5382857   1.6345416  92.1792422
  45.8644555   1.9377113  92.7877380  46.9248679   2.4374497  91.8297879
  50.5039597  -0.7869100  93.4532246  51.1990502  -0.1662408  93.6719560
  50.8462748  -1.6373749  93.7284624  44.5954466  -0.6807349  92.3607339
  44.0228433  -0.0617161  91.9077811  45.1687260  -0.1307987  92.8947261
  47.8151726  -0.3970198  93.4915922  48.7482399  -0.4624637  93.6948797
  47.7274938   0.4386068  93.0330454  50.4439742  -1.0804328  90.4519869
  50.3653374  -1.4144465  91.3455627  51.2649409  -0.5882560  90.4511341
  48.0143694  -3.7636333  90.0729847  48.7179544  -3.5586330  90.6887503
  47.2906343  -3.1959571  90.3378931  49.9230391  -3.3253804  92.1228307
  50.7575995  -3.7572605  91.9405782  49.7614734  -3.4971790  93.0505202
  58.5514667   7.1915848 102.2183484  59.1893077   7.0722595 101.5146824
  58.4335509   8.1396692 102.2771436  51.2191189   8.9978752  98.1441900
  50.6556054   8.9068689  97.3758188  51.1043584   8.1778657  98.6244392
  56.7990747  12.6649720  93.4556365  56.1478727  13.2503800  93.0690379
  57.5935110  13.1955915  93.5151402  50.7246374   9.7538857  93.8543499
  51.4977250   9.2067844  93.7156375  51.0771773  10.6183106  94.0657960
  53.0612652   5.9131523  91.4861949  53.3138173   5.3913044  90.7245412
  52.1237211   5.7497669  91.5888633  58.1055935   4.9167301  99.2936692
  58.8919024   4.4986725  98.9427109  58.3694639   5.8213394  99.4618341
  58.2766012  10.3540152  93.9925349  57.6411845  10.4274778  94.7046254
  57.9463419  10.9433751  93.3144428  63.5064362   4.8542535 100.1969671
  64.2389534   4.2841751 100.4307500  62.7503718   4.4664135 100.6376176
  52.7808941   7.8159629  93.6886324  52.6645199   7.1404532  94.3567408
  52.8911201   7.3292003  92.8718477  55.1240482   7.2769776  97.3933013
  54.7598689   6.7500397  98.1045935  55.9807598   6.8868245  97.2199499
  54.7645969   2.3059676  92.3894362  54.9320371   3.1739912  92.7564833
  54.5743138   2.4686958  91.4655651  54.7435190   4.7617333  93.3741029
  54.6234815   5.2074384  94.2126509  54.0487778   5.1102651  92.8154567
  52.5042082  17.5320975  97.0231160  52.4266112  18.4828800  97.1019640
  51.9003725  17.1866848  97.6806086  60.4420256   5.2338807  94.2021363
  61.3538112   5.4666193  94.0269060  59.9329903   5.8175851  93.6396441
  59.0489838  10.2164625 101.5934944  58.4198701  10.3810339 100.8911012
  58.6615500  10.6306235 102.3645908  62.9279070  11.1519063  98.9479308
  62.2430108  11.5317964  98.3976341  63.0122919  11.7614389  99.6811256
  54.6017800   9.9539033  98.8585029  55.0656146  10.2326736  98.0689652
  54.3374598   9.0522478  98.6758120  53.5386686   6.0762185  95.6674594
  54.2410730   6.5283229  96.1348521  53.2067315   5.4346004  96.2954487
  61.2975830  11.6750977 103.7197009  62.1193273  11.2731165 103.4379690
  61.2938233  11.5719211 104.6713124  69.3881823   8.0189726 100.0681980
  68.6345531   7.4497124  99.9125985  69.5229364   7.9852390 101.0152615
  54.7780451  12.8903128  95.7436699  54.6426126  13.7354664  96.1721547
  55.3190263  13.0922406  94.9802633  48.2309848  10.4078566  96.3164625
  48.7434369  11.2021816  96.4670189  48.8832561   9.7104857  96.2498226
  50.0404733  13.5244322  98.3987378  50.2171361  14.4462287  98.2108362
  50.8361566  13.2102742  98.8281758  51.1636048  15.0422496 104.3997720
  51.7143473  14.9139560 103.6274714  50.3247524  15.3417385 104.0492613
  46.1958765   8.7367220  97.0924195  47.0333987   9.1464229  96.8757903
  46.3737033   7.7966663  97.0624389  58.0923197   6.4042301  92.7808028
  57.5769821   7.1746906  93.0196415  57.8200506   5.7307437  93.4041090
  55.6770308   1.2492002  97.8393266  54.8211904   0.8598852  97.6598905
  56.0897260   1.3283963  96.9793052  63.0657471   9.1574656  94.7161202
  62.2886914   8.8185815  94.2716364  63.7448952   9.1627279  94.0416167
  57.8809500   4.2769393  94.6067809  57.5759636   4.5915542  95.4577952
  58.8339942   4.3550813  94.6495142  56.3255932  10.4359616  96.2560763
  55.7977294   9.7012376  95.9434001  55.8243435  11.2134293  96.0100732
  61.3048778   8.6308637 101.3727810  60.6472453   9.3207898 101.4607938
  62.1089177   9.0205069 101.7161796  60.1154237   6.9853010  99.4231751
  60.6286119   7.6183001  99.9253461  60.7655461   6.3854205  99.0575111
  51.3844247   3.1283744  92.6363260  50.5481559   3.4658430  92.9572535
  51.2449016   2.9932724  91.6990397  54.4708532   8.2539827  89.2595736
  53.5635594   8.0229080  89.4586885  54.9679564   7.4577446  89.4469718
  57.3776611  16.9637334  92.1792422  56.7038310  17.2669031  92.7877380
  57.7642433  17.7666414  91.8297879  57.3770116   5.8593881  96.7992772
  58.1241934   6.3715278  96.4899894  57.6461705   5.5377934  97.6597166
  55.6496766   8.3552422  93.7819726  54.7407985   8.0711454  93.8792196
  55.6791850   8.7751500  92.9223033  60.8816033  11.9659011  97.5510894
  60.4278360  11.1249921  97.6076084  60.2510000  12.6020409  97.8885674
  59.8248953   2.8950997  98.7811561  59.0871709   2.3828383  99.1121804
  60.0775726   2.4551379  97.9694838  59.3248972  13.8035508  98.4860712
  59.6171947  14.3640565  97.7673078  59.8347593  14.0964069  99.2413871
  54.1981660   5.9681042  99.8829522  54.2530270   5.0154879  99.8071998
  53.3872862   6.1240481 100.3670820  55.3472854   9.8961165  91.1207805
  54.9092283   9.1797024  90.6613442  56.0883294  10.1237280  90.5592896
  52.1374020   4.5858102  97.6419901  51.3241885   4.8852272  98.0485093
  52.6333014   4.1913791  98.3594383  54.2882598  14.5815859  99.5754165
  54.2458776  14.8076705  98.6462697  55.2045296  14.3479233  99.7239966
  63.4645968   8.1718362  97.1784124  63.3263867   8.3619958  96.2505313
  63.1082187   8.9337745  97.6352175  63.4915348  10.2394889 102.1895395
  63.9251855  10.1470178 103.0378449  64.2046929  10.2152390 101.5515411
  52.4048398  11.4578888  99.3716128  53.1988997  10.9629208  99.1698703
  51.6940091  10.9296751  99.0083834  57.2243243  13.8396983 103.7228496
  57.2780265  14.4087920 104.4906212  56.3558024  14.0098868 103.3582533
  48.7131162   5.6021970  95.4475881  47.7828750   5.5406425  95.6645843
  48.8088634   5.0797922  94.6512522  64.3530897  10.2818590 104.7228280
  64.5466788  11.1864400 104.9687555  64.2531516   9.8226009 105.5566865
  54.9819674  12.0307910 103.0513965  54.8430760  11.6626694 103.9239903
  54.1934271  12.5455549 102.8797923  55.5767826  17.1317006  94.3939502
  55.7519582  16.6605050  95.2085124  54.8900614  17.7582773  94.6220762
  56.5324889  11.4089513 100.4402803  56.1974722  11.3690283 101.3360453
  56.0328835  10.7434228  99.9673213  59.4684081   8.7545547  90.7139863
  58.8513252   8.0292375  90.6172915  59.0000570   9.5154907  90.3706937
  50.1428912  20.2806369 101.1679362  50.3825510  20.9124893 101.8458380
  49.2998108  19.9294409 101.4544721  51.2582627   2.9730971  89.8361167
  50.3812093   2.8519772  89.4723413  51.7340380   2.1817050  89.5840055
  54.6556773  16.0885492 103.5720866  54.5826945  16.8940463 104.0840170
  54.2134167  16.2877457 102.7468887  54.4446553  15.3257262  97.0823687
  53.6614075  15.8678942  97.1761912  55.1439298  15.8431241  97.4817928
  65.6072961   6.8392257 101.3676184  65.5962837   7.7216972 100.9970117
  64.7390340   6.4863807 101.1730721  57.1155457  15.9872326 105.7279024
  57.8283429  16.6219790 105.6554926  56.6245486  16.0836192 104.9119026
  58.8372984   9.8923578  97.2996316  57.9029263  10.0125041  97.1301020
  59.0149652   8.9896045  97.0356326  62.2245535   5.7340898  97.8346350
  62.6905987   6.5668889  97.7606653  62.6753036   5.2685879  98.5391609
  60.2921766  12.0784719  94.8332502  60.5681610  11.9641313  95.7426376
  59.4226265  11.6802204  94.7944675  56.9275830  16.3271070  98.4765316
  57.1098225  15.5092726  98.9393068  57.7508816  16.5438762  98.0390206
  57.2617996  15.2539255  95.7380364  57.7905762  14.7431709  95.1250526
  57.5246215  14.9381785  96.6025897  50.6173744  16.3054371  98.4978140
  49.9484119  16.7900499  98.0142180  50.4786613  16.5523592  99.4121519
  54.7579012  18.3398115 105.0960799  55.3097320  18.5029736 105.8609884
  55.0985206  18.9302553 104.4240824  45.9861321   4.5672826  95.2774072
  46.2814762   3.6583505  95.2241126  45.0849357   4.5460566  94.9555075
  57.8947400  16.2880091 102.0824481  57.7698539  15.4869830 101.5735426
  58.5526491  16.7826284 101.5938451  59.9582308  14.0889111 103.7104031
  59.0112644  13.9694462 103.6382358  60.3065081  13.2011609 103.7930292
  56.9628741  13.8841827  99.9108383  56.8153704  12.9558534 100.0915953
  57.7882235  13.9061918  99.4265458  50.8290986   2.5359894  95.7688875
  51.1687058   3.0645815  95.0467484  51.2763106   2.8740300  96.5447442
  60.5662863  14.7070386 100.9973256  61.4909411  14.5013247 100.8597707
  60.3978167  14.4586787 101.9062597  52.8159133   1.0334515  93.9682168
  53.5367495   1.4115768  93.4645885  52.1924437   1.7523392  94.0717146
  56.9590256   1.7379664  94.9040500  57.1753870   2.6204302  94.6029329
  56.4784323   1.3465878  94.1746142  60.3558179  15.2256053  96.3535347
  60.5295057  14.6602475  95.6009200  60.8487071  16.0256948  96.1714837
  66.2097571   7.9892476  97.9725647  66.6528717   7.2399801  97.5744770
  65.3324081   7.9802612  97.5899379  61.3433352  14.5422817  93.4532246
  62.0384256  15.1629510  93.6719560  61.6856502  13.6918169  93.7284624
  63.2424775  11.9922523  94.9819576  63.7676099  12.3309796  94.2568896
  63.1547128  11.0569538  94.7982711  54.9265436  18.0594506  99.3414830
  54.4870426  17.5670885 100.0347686  55.6773553  17.5167474  99.1006905
  47.4057775  14.2506047  99.3439458  48.2315795  13.9509819  98.9638101
  47.0551827  13.4813670  99.7929246  52.3739308  13.6032515 101.4137131
  51.7519317  12.9403220 101.1139359  53.0444175  13.6293647 100.7310779
  51.9352815  12.1536439  94.8895592  52.0840935  12.8371903  94.2362265
  52.7419258  12.1341529  95.4045048  65.7530435   9.4597714 100.3648095
  66.5877327   9.8987518 100.5285655  65.8889564   8.9836367  99.5456340
  49.6905448   8.1801616  95.8956661  49.4451490   7.2763946  96.0936871
  49.8601362   8.1818767  94.9536139  48.9601095   3.9129974  93.3942822
  48.2670340   3.9874329  92.7382858  48.7152847   3.1490317  93.9164339
  55.4348220  14.6484569  92.3607339  54.8622187  15.2674756  91.9077811
  56.0081014  15.1983931  92.8947261  58.6545480  14.9321719  93.4915922
  59.5876153  14.8667281  93.6948797  58.5668693  15.7677986  93.0330454
  61.2833497  14.2487590  90.4519869  61.2047128  13.9147453  91.3455627
  62.1043164  14.7409357  90.4511341  63.9811688   7.1149329 103.6596188
  63.9488008   6.1765330 103.8455872  64.5912312   7.1933366 102.9262013
  55.8195019   5.9845382  89.7023392  56.7654124   5.8551590  89.7711810
  55.4409264   5.2460044  90.1792820  69.7988238   8.1765336 102.8002224
  70.5291626   7.9150624 103.3609928  69.1895183   7.4394058 102.8404292
  67.8803535   6.3173198 103.3976676  67.1536699   6.1829163 102.7893167
  67.4650822   6.6250027 104.2033394  54.0037936   3.9095358  89.6378277
  53.0969391   3.6128471  89.7140991  54.2813917   3.6125176  88.7712563
  55.6200002  -1.5467752  95.7922518  54.8100730  -1.8920667  96.1677764
  56.3084419  -1.8560208  96.3810130  52.7736721   0.7682293  89.7790256
  53.6355885   1.0937192  90.0386073  52.9587065  -0.0186211  89.2663322
  60.9269357  -0.3589180  96.9225479  60.3468026   0.2995624  96.5403532
  60.6605290  -1.1811835  96.5112897  59.7094235   1.8010910  95.9781827
  58.8220090   2.0860561  95.7602022  60.1248224   1.6404674  95.1309104
  63.0608771   1.8257431  99.6936167  63.8369161   2.3153884  99.9660783
  62.3356905   2.2515485 100.1508036  65.4981330   2.5385050 100.7510107
  66.0925821   2.2980786 100.0403416  65.5707914   1.8192181 101.3783644
  47.7178486  16.3818661 101.0653272  47.5832953  15.6219062 100.4991270
  47.3010548  17.1059561 100.5982061  58.8537449  11.5655585  90.0729847
  59.5573299  11.7705587  90.6887503  58.1300097  12.1332347  90.3378931
  59.6835259   7.3165446  96.1932118  59.6270460   7.7733998  95.3539750
  60.2363601   6.5556131  96.0154960  63.4940065   3.1055178  97.0182237
  63.2376999   2.7051814  97.8490445  62.8692933   3.8198972  96.8932376
  67.8052403   5.8451251  99.5253528  67.2451961   5.9144441 100.2985091
  67.1995906   5.6692236  98.8053025  50.8747611  17.2787978 101.2771715
  50.7579996  18.2233411 101.1750405  50.0540058  16.9761540 101.6657514
  60.7624146  12.0038114  92.1228307  61.5969750  11.5719313  91.9405782
  60.6008489  11.8320128  93.0505202  60.4170038   8.5070227  93.4884647
  60.3618842   8.3414499  92.5473091  59.7916093   9.2146260  93.6446836
  53.7266164  -1.9921664  93.0669965  53.7144833  -1.0479824  93.2238236
  54.6189585  -2.1751518  92.7729426  51.9002126  17.9316240 104.4927643
  52.8029372  17.9639851 104.8094138  51.6739496  17.0016691 104.5073979
  53.6555728  16.6847227 101.1537722  52.7051359  16.6849088 101.0402094
  53.9588214  15.9379961 100.6373756  69.3908421  22.5207765 102.2183484
  70.0286831  22.4014513 101.5146824  69.2729264  23.4688609 102.2771436
  66.1998127  22.4735193 102.1545009  65.8616639  22.3576258 101.2665544
  67.0687896  22.0726358 102.1346015  62.0584943  24.3270670  98.1441900
  61.4949808  24.2360607  97.3758188  61.9437338  23.5070574  98.6244392
  66.6817910  23.6270045 108.1131214  66.6706551  23.2322843 107.2411718
  66.8438550  22.8936118 108.7064986  59.6049375  25.8221861 100.9826120
  60.3970667  25.4812686 100.5672420  59.8446025  25.9316836 101.9028274
  67.6384502  27.9941637  93.4556365  66.9872482  28.5795718  93.0690379
  68.4328865  28.5247832  93.5151402  61.5640129  25.0830775  93.8543499
  62.3371005  24.5359762  93.7156375  61.9165528  25.9475024  94.0657960
  63.4025171  26.4107157 107.0610398  63.1115037  27.3152788 106.9457065
  64.0382156  26.4523685 107.7754468  64.3281378  23.7884005 103.6511758
  64.9244951  23.5640028 102.9368721  64.3856350  23.0468751 104.2537206
  63.9006407  21.2423441  91.4861949  64.1531927  20.7204962  90.7245412
  62.9630966  21.0789586  91.5888633  68.9449690  20.2459219  99.2936692
  69.7312779  19.8278642  98.9427109  69.2088394  21.1505311  99.4618341
  69.1159767  25.6832069  93.9925349  68.4805600  25.7566696  94.7046254
  68.7857173  26.2725668  93.3144428  74.3458117  20.1834452 100.1969671
  75.0783289  19.6133669 100.4307500  73.5897472  19.7956053 100.6376176
  63.6202695  23.1451547  93.6886324  63.5038954  22.4696450  94.3567408
  63.7304955  22.6583921  92.8718477  65.9634236  22.6061694  97.3933013
  65.5992444  22.0792315  98.1045935  66.8201352  22.2160163  97.2199499
  71.8683537  13.8956026 104.6564279  71.5366862  14.7651437 104.4325494
  71.2729150  13.5792310 105.3358310  65.6039723  17.6351594  92.3894362
  65.7714126  18.5031830  92.7564833  65.4136892  17.7978875  91.4655651
  68.3615057  26.0968572 104.0560192  68.0615780  26.9993611 103.9475999
  68.0166116  25.8300756 104.9081345  61.8127538  22.5482369 100.0896897
  60.8878035  22.4158583 100.2974588  62.0611951  23.3276589 100.5866839
  71.7612200  18.6151113 101.7357629  70.8529078  18.5466521 101.4416390
  71.7099796  19.0923058 102.5639455  65.5828944  20.0909251  93.3741029
  65.4628569  20.5366302  94.2126509  64.8881533  20.4394569  92.8154567
  59.1736349  22.1915643 100.9240686  59.3028730  22.4450122 101.8380097
  58.4933800  22.7843351 100.6045341  63.3435836  32.8612893  97.0231160
  63.2659866  33.8120718  97.1019640  62.7397480  32.5158765  97.6806086
  65.8353066  20.0340758 109.6792527  65.0586400  20.5934678 109.6695391
  66.4743629  20.5197541 110.2007397  73.6273847  16.8167551 103.5135503
  72.9848227  17.1100084 102.8675298  73.1228775  16.7020471 104.3188700
  71.2814010  20.5630724  94.2021363  72.1931867  20.7958111  94.0269060
  70.7723657  21.1467768  93.6396441  64.0899438  22.8426212 109.2410494
  64.8314123  23.3811256 108.9645317  63.3836424  23.4692500 109.3982045
  69.5654778  24.9855352 107.8382655  69.9738134  24.5437763 107.0937288
  68.8432040  24.4107980 108.0916848  65.9185848  19.9227959 105.2116212
  66.7647043  20.3467372 105.3550861  65.8584486  19.2661583 105.9054775
  69.8883593  25.5456543 101.5934944  69.2592455  25.7102257 100.8911012
  69.5009255  25.9598152 102.3645908  73.7672825  26.4810981  98.9479308
  73.0823863  26.8609882  98.3976341  73.8516674  27.0906307  99.6811256
  69.0685293  17.5832327 106.8697386  68.8246225  18.3374388 106.3331661
  69.3445224  17.9617675 107.7044633  71.0223756  24.1270940 105.5474651
  71.2340651  24.7702699 104.8709032  70.9753504  23.2933256 105.0796581
  68.6249985  16.7388760 102.4511223  67.7634464  17.0370014 102.7427961
  68.6512420  16.9559159 101.5192256  65.4411555  25.2830951  98.8585029
  65.9049900  25.5618654  98.0689652  65.1768353  24.3814395  98.6758120
  62.3335636  24.8302432 101.7964792  62.9036993  25.2589701 101.1582277
  62.9243748  24.5485017 102.4948978  64.3780441  21.4054103  95.6674594
  65.0804484  21.8575147  96.1348521  64.0461069  20.7637922  96.2954487
  62.8260802  19.9965860 110.0425804  62.1959463  20.6782141 110.2761200
  62.7196890  19.8848941 109.0978942  58.1205775  19.6637656 100.9691728
  57.3304829  19.9195184 100.4931838  58.6117022  20.4785994 101.0743768
  72.1369584  27.0042895 103.7197009  72.9587028  26.6023082 103.4379690
  72.1331987  26.9011129 104.6713124  60.0720520  20.0282235  97.9275205
  59.2751683  20.1400929  98.4458700  59.8446112  20.3668887  97.0616095
  65.9026188  26.5526938 105.8757719  65.9670620  27.0147345 106.7115891
  65.1937111  25.9224303 106.0040029  56.4043478  19.9168146 103.4006719
  56.6551516  20.8015156 103.6664295  56.9403026  19.7372748 102.6281810
  80.2275577  23.3481643 100.0681980  79.4739286  22.7789042  99.9125985
  80.3623118  23.3144308 101.0152615  65.6174205  28.2195046  95.7436699
  65.4819880  29.0646581  96.1721547  66.1584018  28.4214323  94.9802633
  59.0703603  25.7370484  96.3164625  59.5828123  26.5313734  96.4670189
  59.7226315  25.0396774  96.2498226  60.8798487  28.8536240  98.3987378
  61.0565116  29.7754205  98.2108362  61.6755321  28.5394659  98.8281758
  65.0209506  15.7144505 109.9971311  65.7619219  16.3151658 109.9175774
  65.2527429  14.9722142 109.4389354  60.1650844  20.9000872 108.2749541
  60.0504359  19.9986129 108.5756640  59.3095362  21.1464569 107.9234358
  67.2442682  28.8418612 109.8737042  66.8006536  28.0554991 109.5557946
  67.9059895  29.0297763 109.2080932  62.0029803  30.3714414 104.3997720
  62.5537228  30.2431477 103.6274714  61.1641279  30.6709303 104.0492613
  69.3423920  29.1221412 107.9018443  69.3242395  29.9430293 107.4098712
  70.2643840  28.9975487 108.1268584  65.7996974  26.6365542 108.7441951
  66.3325311  25.8753830 108.5141259  65.2711055  26.3439193 109.4866106
  68.9666669  11.7425608 104.2735593  68.6230938  12.6327249 104.1974704
  69.3345631  11.5527265 103.4105178  57.0352519  24.0659138  97.0924195
  57.8727741  24.4756146  96.8757903  57.2130787  23.1258580  97.0624389
  68.9316952  21.7334219  92.7808028  68.4163575  22.5038823  93.0196415
  68.6594260  21.0599355  93.4041090  66.5164063  16.5783919  97.8393266
  65.6605659  16.1890770  97.6598905  66.9291014  16.6575880  96.9793052
  68.0463209  14.1130263 102.2384826  67.5428005  14.0760398 101.4252632
  68.3393816  15.0223005 102.2981483  64.2906095  14.1968992 101.2451008
  65.1559092  14.0011801 100.8856897  64.3583604  13.9679344 102.1720365
  73.9051226  24.4866573  94.7161202  73.1280668  24.1477733  94.2716364
  74.5842707  24.4919197  94.0416167  68.7203255  19.6061311  94.6067809
  68.4153390  19.9207460  95.4577952  69.6733697  19.6842731  94.6495142
  67.1649687  25.7651534  96.2560763  66.6371048  25.0304294  95.9434001
  66.6637189  26.5426210  96.0100732  72.1442533  23.9600555 101.3727810
  71.4866207  24.6499816 101.4607938  72.9482932  24.3496987 101.7161796
  61.8968414  16.4271200  98.6167375  62.4712166  16.2046382  97.8840568
  62.4839397  16.4959895  99.3695976  70.9547991  22.3144927  99.4231751
  71.4679873  22.9474919  99.9253461  71.6049215  21.7146123  99.0575111
  62.2238001  18.4575661  92.6363260  61.3875314  18.7950348  92.9572535
  62.0842771  18.3224641  91.6990397  64.1991082  13.3012449  97.3442444
  63.5455494  12.9861466  96.7199059  64.1571556  12.6788190  98.0702267
  65.3102287  23.5831744  89.2595736  64.4029348  23.3520998  89.4586885
  65.8073319  22.7869364  89.4469718  68.2170366  32.2929252  92.1792422
  67.5432064  32.5960948  92.7877380  68.6036188  33.0958332  91.8297879
  67.4328822  19.7894383 101.6690092  66.5151384  20.0109330 101.5111780
  67.8488966  19.8640693 100.8101799  68.2163870  21.1885799  96.7992772
  68.9635689  21.7007196  96.4899894  68.4855460  20.8669851  97.6597166
  66.4890520  23.6844339  93.7819726  65.5801739  23.4003372  93.8792196
  66.5185604  24.1043418  92.9223033  71.7209788  27.2950929  97.5510894
  71.2672115  26.4541839  97.6076084  71.0903754  27.9312327  97.8885674
  70.6642707  18.2242915  98.7811561  69.9265464  17.7120301  99.1121804
  70.9169481  17.7843296  97.9694838  70.1642727  29.1327425  98.4860712
  70.4565701  29.6932483  97.7673078  70.6741347  29.4255986  99.2413871
  70.7654334  11.0019167  99.3753331  71.0713211  10.1416530  99.0879246
  71.4906939  11.5936787  99.1752325  57.0578691  21.4049853  97.7634929
  56.8603090  20.8119214  97.0385995  56.5025355  21.1002064  98.4810867
  65.0375414  21.2972960  99.8829522  65.0924024  20.3446796  99.8071998
  64.2266616  21.4532399 100.3670820  66.1866608  25.2253083  91.1207805
  65.7486038  24.5088942  90.6613442  66.9277049  25.4529198  90.5592896
  62.9767774  19.9150020  97.6419901  62.1635640  20.2144190  98.0485093
  63.4726768  19.5205708  98.3594383  65.1276352  29.9107777  99.5754165
  65.0852531  30.1368623  98.6462697  66.0439051  29.6771151  99.7239966
  68.5741986  20.3791844 106.4734794  68.9291374  20.6063317 107.3329260
  69.2214117  20.7110221 105.8512050  74.3039723  23.5010280  97.1784124
  74.1657621  23.6911876  96.2505313  73.9475942  24.2629663  97.6352175
  62.4681849  17.4868375 103.2581136  63.1081228  17.3457134 102.5604099
  61.6359379  17.2002889 102.8819738  74.3309102  25.5686807 102.1895395
  74.7645609  25.4762096 103.0378449  75.0440683  25.5444307 101.5515411
  63.2442153  26.7870806  99.3716128  64.0382751  26.2921126  99.1698703
  62.5333845  26.2588669  99.0083834  68.0636997  29.1688901 103.7228496
  68.1174020  29.7379837 104.4906212  67.1951779  29.3390786 103.3582533
  59.5524916  20.9313887  95.4475881  58.6222504  20.8698343  95.6645843
  59.6482388  20.4089840  94.6512522  59.4710465  17.4568700  98.0354122
  59.7317283  18.3714033  97.9263283  60.2927638  16.9893143  98.1850735
  60.9435391  18.8706457 105.2052947  61.6158444  18.6623819 104.5565596
  60.1165177  18.6728543 104.7658179  75.1924652  25.6110508 104.7228280
  75.3860542  26.5156318 104.9687555  75.0925270  25.1517927 105.5566865
  66.8460963  15.4968398 107.2218608  66.1988878  16.1958348 107.1283084
  67.6161978  15.9304542 107.5894856  70.2539761  25.7617250 110.2969161
  70.1025267  25.5327802 109.3799245  70.2444440  26.7187852 110.3100506
  67.0225097  23.3349163 105.2815427  67.9517157  23.4860323 105.1084395
  66.6016127  23.4233184 104.4264074  65.8213429  27.3599828 103.0513965
  65.6824515  26.9918612 103.9239903  65.0328025  27.8747467 102.8797923
  66.4161581  32.4608924  94.3939502  66.5913336  31.9896967  95.2085124
  65.7294369  33.0874690  94.6220762  67.3718644  26.7381430 100.4402803
  67.0368477  26.6982200 101.3360453  66.8722590  26.0726146  99.9673213
  61.3462888  22.1449060 105.9655384  61.2082686  21.4129299 106.5666923
  62.2567811  22.0557960 105.6839572  70.3077836  24.0837465  90.7139863
  69.6907006  23.3584293  90.6172915  69.8394324  24.8446825  90.3706937
  63.9745189  21.8569020 105.4539064  64.6844807  21.2162212 105.4125682
  63.9314497  22.1081914 106.3765244  71.9631967  28.7936373 108.3745643
  71.9044513  28.1095593 107.7076226  72.3651486  29.5355363 107.9226269
  62.6874123  18.8434237 107.2734703  62.1511480  18.3924976 107.9256299
  62.0990831  18.9780146 106.5305168  60.9822666  35.6098287 101.1679362
  61.2219264  36.2416811 101.8458380  60.1391863  35.2586327 101.4544721
  62.0976382  18.3022889  89.8361167  61.2205848  18.1811690  89.4723413
  62.5734135  17.5108967  89.5840055  71.9649375  26.7575957 106.6059623
  71.0776153  26.4201879 106.7286021  72.5347926  26.0258988 106.8428388
  53.6178522  23.0900049  99.9302674  54.3049561  22.7761779  99.3423689
  53.4626650  23.9941413  99.6569925  58.4213244  17.9790245 104.3587698
  58.3371433  17.3715915 103.6238108  57.5995950  18.4699263 104.3597194
  65.4950528  31.4177409 103.5720866  65.4220699  32.2232381 104.0840170
  65.0527921  31.6169375 102.7468887  65.2840308  30.6549179  97.0823687
  64.5007829  31.1970859  97.1761912  65.9833053  31.1723159  97.4817928
  68.5936958  16.4643809  99.7257893  69.0905657  15.7113771  99.4058963
  67.8223939  16.5008125  99.1601102  76.4466715  22.1684174 101.3676184
  76.4356591  23.0508890 100.9970117  75.5784095  21.8155725 101.1730721
  67.9549211  31.3164243 105.7279024  68.6677184  31.9511708 105.6554926
  67.4639240  31.4128109 104.9119026  69.6766738  25.2215496  97.2996316
  68.7423017  25.3416958  97.1301020  69.8543407  24.3187963  97.0356326
  65.1771926  18.6061192  99.4529577  64.8069714  18.0532232 100.1410483
  65.6731019  18.0019325  98.9004577  73.0639290  21.0632815  97.8346350
  73.5299742  21.8960807  97.7606653  73.5146790  20.5977797  98.5391609
  63.0061125  29.0658687 106.5484595  63.7070584  29.6995170 106.7013989
  62.5356240  29.4073418 105.7880235  71.1315521  27.4076636  94.8332502
  71.4075365  27.2933231  95.7426376  70.2620020  27.0094121  94.7944675
  71.0355952  13.4313402 101.8737252  70.1219032  13.6617629 102.0419459
  71.4649054  13.5151846 102.7251284  70.8062411  21.6203294 104.3737146
  70.1533861  21.8679202 103.7189598  71.1842791  20.8067432 104.0399623
  67.7669585  31.6562987  98.4765316  67.9491979  30.8384643  98.9393068
  68.5902571  31.8730680  98.0390206  68.1011750  30.5831172  95.7380364
  68.6299517  30.0723627  95.1250526  68.3639970  30.2673703  96.6025897
  66.8549984  22.3623105 110.8603183  66.1790621  22.2617235 111.5305558
  67.6777618  22.2062319 111.3239180  58.6028843  28.5995042 103.4815698
  59.1882280  27.8538730 103.6143602  58.4053682  28.9098998 104.3652362
  61.4567498  31.6346289  98.4978140  60.7877874  32.1192417  98.0142180
  61.3180368  31.8815510  99.4121519  53.1946498  21.1700642 102.2020141
  53.2330597  20.6364233 102.9957259  52.6886791  20.6435847 101.5831118
  65.5972767  33.6690033 105.0960799  66.1491075  33.8321654 105.8609884
  65.9378960  34.2594470 104.4240824  60.5737260  16.0165182 105.6982683
  60.6378587  16.8780013 105.2860081  60.5104380  15.4039184 104.9655042
  70.4483641  28.4951290 110.9509453  70.9923545  29.1081248 110.4564408
  69.8670486  29.0530869 111.4676466  56.8255075  19.8964744  95.2774072
  57.1208516  18.9875423  95.2241126  55.9243111  19.8752484  94.9555075
  68.7341154  31.6172008 102.0824481  68.6092294  30.8161748 101.5735426
  69.3920245  32.1118202 101.5938451  60.3549322  17.9720741 101.2601621
  59.6335908  18.5856708 101.1209094  61.1442578  18.5078506 101.1818267
  70.7976063  29.4181028 103.7104031  69.8506398  29.2986379 103.6382358
  71.1458836  28.5303526 103.7930292  63.1575636  15.3075167 107.5342273
  63.6810038  15.5537464 108.2968582  62.9387969  16.1395202 107.1145410
  58.5542917  17.5778842  95.4013398  58.2255623  16.6976221  95.2188504
  58.9082288  17.5226510  96.2889787  67.8022496  29.2133744  99.9108383
  67.6547458  28.2850452 100.0915953  68.6275989  29.2353835  99.4265458
  61.6684740  17.8651812  95.7688875  62.0080813  18.3937733  95.0467484
  62.1156861  18.2032218  96.5447442  71.4056618  30.0362303 100.9973256
  72.3303165  29.8305165 100.8597707  71.2371921  29.7878704 101.9062597
  64.3628181  16.2488862 105.2191943  64.0225001  15.4496675 105.6212623
  63.6567187  16.5490573 104.6468777  65.0144653  13.3338175 103.6719266
  65.8370722  12.8598653 103.5498157  65.2582716  14.1128658 104.1717953
  63.6552887  16.3626433  93.9682168  64.3761250  16.7407686  93.4645885
  63.0318191  17.0815310  94.0717146  67.7984010  17.0671582  94.9040500
  68.0147625  17.9496220  94.6029329  67.3178077  16.6757796  94.1746142
  62.5383232  20.0257295 101.4811245  62.3927812  20.3397598 102.3735526
  62.0608435  20.6442196 100.9282144  64.3979614  17.0159843 101.5292135
  64.3841183  16.1200937 101.1924432  65.1152043  17.0230507 102.1630421
  66.2505745  17.4497184 103.5745262  65.9923523  18.3714254 103.5729592
  65.7190785  17.0527618 104.2645726  71.1951934  30.5547971  96.3535347
  71.3688811  29.9894393  95.6009200  71.6880825  31.3548866  96.1714837
  57.0128894  22.5662640 104.4198906  56.4682362  23.3422448 104.5519180
  57.8908244  22.9133444 104.2618028  63.8016510  15.8974224  96.7979705
  63.9232422  14.9690870  96.9970592  63.5118553  15.9112910  95.8858020
  66.6707701  13.5829134  99.9346425  66.6929398  13.6468467  98.9798404
  67.0875760  12.7433643 100.1286931  77.0491325  23.3184394  97.9725647
  77.4922471  22.5691719  97.5744770  76.1717835  23.3094530  97.5899379
  72.1827106  29.8714735  93.4532246  72.8778011  30.4921428  93.6719560
  72.5250257  29.0210086  93.7284624  57.7994916  21.6932536 107.3129063
  57.0576652  21.8415171 107.8993693  57.4787660  21.9540802 106.4495812
  74.0818529  27.3214441  94.9819576  74.6069854  27.6601713  94.2568896
  73.9940882  26.3861456  94.7982711  65.7438578  31.2348514 107.1109453
  66.0525705  30.9897661 107.9832153  66.5414060  31.4395153 106.6228323
  65.7659190  33.3886424  99.3414830  65.3264181  32.8962803 100.0347686
  66.5167307  32.8459392  99.1006905  58.2451529  29.5797965  99.3439458
  59.0709549  29.2801737  98.9638101  57.8945581  28.8105587  99.7929246
  63.2133062  28.9324433 101.4137131  62.5913072  28.2695138 101.1139359
  63.8837929  28.9585565 100.7310779  56.4460134  27.4984291 100.3028391
  55.6092043  27.0706466 100.1212393  56.4183780  27.6916735 101.2399182
  73.7712436  27.9547344 110.2870774  72.9807979  27.9371483 109.7475274
  73.5345790  28.4935638 111.0419811  73.8910311  24.8039811 107.6003503
  73.9408316  24.6389818 108.5419026  73.7824234  23.9367070 107.2101384
  62.7746569  27.4828356  94.8895592  62.9234690  28.1663821  94.2362265
  63.5813013  27.4633446  95.4045048  71.1814073  20.7870739 108.9162810
  72.0823936  20.6477204 108.6246807  71.2562048  20.9525193 109.8560987
  65.5156878  18.1637593 107.7615996  64.6460188  18.4571159 107.4898584
  65.7516359  18.7478038 108.4823260  75.3928507  27.2236752 107.8445524
  75.1013316  27.5866733 108.6808985  74.7800639  26.5103760 107.6658857
  76.5924190  24.7889632 100.3648095  77.4271081  25.2279436 100.5285655
  76.7283319  24.3128285  99.5456340  73.6415696  22.3469367 106.3125582
  74.1169817  22.5397013 105.5044434  72.7181261  22.4028553 106.0668966
  60.5299202  23.5093534  95.8956661  60.2845244  22.6055864  96.0936871
  60.6995117  23.5110684  94.9536139  68.2195912  14.3817210 105.2781416
  68.7377856  15.1178237 104.9527905  67.8651045  14.6881204 106.1128175
  59.7994850  19.2421892  93.3942822  59.1064095  19.3166247  92.7382858
  59.5546602  18.4782235  93.9164339  68.4708506  10.8017493 100.7982313
  68.7510260  10.1340682 101.4242739  69.2559113  10.9946588 100.2856977
  66.2741975  29.9776487  92.3607339  65.7015942  30.5966674  91.9077811
  66.8474768  30.5275848  92.8947261  72.3417365  19.2235127 104.5453888
  73.2934788  19.3233225 104.5666112  72.1720815  18.4313395 105.0551972
  70.3631744  16.3090710 104.7313289  69.7681676  16.5895723 104.0359778
  70.0781441  16.7984611 105.5030030  69.4939235  30.2613637  93.4915922
  70.4269908  30.1959199  93.6948797  69.4062447  31.0969904  93.0330454
  72.1227251  29.5779507  90.4519869  72.0440883  29.2439371  91.3455627
  72.9436918  30.0701275  90.4511341  74.8205442  22.4441247 103.6596188
  74.7881763  21.5057247 103.8455872  75.4306066  22.5225283 102.9262013
  66.6588773  21.3137300  89.7023392  67.6047878  21.1843508  89.7711810
  66.2803018  20.5751961  90.1792820  74.9699931  19.2352290 103.7054471
  74.4538980  18.4510747 103.5184400  75.8539879  18.9071007 103.8700990
  72.6310658  12.9793306  99.6650284  72.4335479  12.6708394 100.5493616
  73.2410363  13.7054944  99.7948213  80.6381992  23.5057253 102.8002224
  81.3685381  23.2442542 103.3609928  80.0288938  22.7685975 102.8404292
  78.7197289  21.6465116 103.3976676  77.9930453  21.5121081 102.7893167
  78.3044576  21.9541945 104.2033394  66.5427466  25.3655046 111.1624049
  67.4630475  25.5433645 111.3564095  66.5077049  24.4211091 111.0103748
  64.8431690  19.2387276  89.6378277  63.9363146  18.9420389  89.7140991
  65.1207671  18.9417094  88.7712563  55.7609631  20.5593639 100.0877323
  55.4412415  19.7058948  99.7951697  55.2143059  20.7742217 100.8435291
  59.5389538  23.2756080 103.8046830  59.7575548  24.2073188 103.8234864
  59.9515312  22.9164055 104.5901634  66.4593756  13.7824166  95.7922518
  65.6494485  13.4371251  96.1677764  67.1478173  13.4731709  96.3810130
  68.3884304  12.8602212  97.4146815  68.9415343  13.2797666  98.0736838
  68.6254391  11.9337961  97.4569771  63.6130475  16.0974211  89.7790256
  64.4749639  16.4229109  90.0386073  63.7980819  15.3105707  89.2663322
  55.6297891  24.1796551 102.0570445  54.9361362  23.7650504 101.5440399
  56.3770882  24.2217087 101.4603864  71.7663112  14.9702738  96.9225479
  71.1861781  15.6287542  96.5403532  71.4999044  14.1480082  96.5112897
  70.2166678  14.3707795  99.1246799  70.7166456  14.4824330  98.3161118
  70.8602286  14.0668848  99.7647608  64.2748674  22.2786425 112.0114640
  63.7915755  23.0786785 112.2178529  64.3609613  22.2894370 111.0582084
  57.5434633  24.1114805  99.9336460  57.5205321  24.2102492  98.9818343
  57.8535270  24.9579955 100.2553626  60.2022011  26.1690960 104.0483074
  61.1565265  26.1374902 103.9813006  60.0034535  25.7081583 104.8633300
  60.7921393  24.7392076 106.6153872  61.6114282  25.2336154 106.6388709
  61.0658201  23.8224044 106.5871439  70.5487990  17.1302828  95.9781827
  69.6613845  17.4152479  95.7602022  70.9641979  16.9696591  95.1309104
  73.9002526  17.1549349  99.6936167  74.6762916  17.6445801  99.9660783
  73.1750660  17.5807403 100.1508036  76.3375084  17.8676968 100.7510107
  76.9319575  17.6272704 100.0403416  76.4101668  17.1484099 101.3783644
  58.5572240  31.7110579 101.0653272  58.4226708  30.9510980 100.4991270
  58.1404302  32.4351479 100.5982061  69.6931203  26.8947503  90.0729847
  70.3967053  27.0997505  90.6887503  68.9693852  27.4624265  90.3378931
  70.5229013  22.6457364  96.1932118  70.4664215  23.1025915  95.3539750
  71.0757356  21.8848049  96.0154960  74.3333819  18.4347096  97.0182237
  74.0770753  18.0343731  97.8490445  73.7086687  19.1490890  96.8932376
  78.6446157  21.1743169  99.5253528  78.0845715  21.2436358 100.2985091
  78.0389660  20.9984154  98.8053025  61.7141366  32.6079896 101.2771715
  61.5973750  33.5525329 101.1750405  60.8933812  32.3053458 101.6657514
  71.6017900  27.3330032  92.1228307  72.4363504  26.9011230  91.9405782
  71.4402243  27.1612046  93.0505202  71.2563793  23.8362145  93.4884647
  71.2012596  23.6706417  92.5473091  70.6309848  24.5438178  93.6446836
  56.0456308  19.0730210 107.3146069  56.6915171  18.5629164 107.8033294
  55.8373459  19.8098891 107.8889494  68.5709700  26.1411057 112.8138210
  69.4400859  26.3151709 112.4524844  68.0916451  26.9605474 112.6913939
  64.5659918  13.3370254  93.0669965  64.5538588  14.2812094  93.2238236
  65.4583340  13.1540400  92.7729426  62.7395880  33.2608158 104.4927643
  63.6423127  33.2931768 104.8094138  62.5133250  32.3308609 104.5073979
  64.4949482  32.0139145 101.1537722  63.5445113  32.0141006 101.0402094
  64.7981968  31.2671879 100.6373756  68.3812038   9.9313031  97.3215902
  67.6144433   9.3771517  97.4672584  68.7922743  10.0034900  98.1830054
  80.2302176  37.8499683 102.2183484  80.8680586  37.7306430 101.5146824
  80.1123018  38.7980527 102.2771436  77.0391882  37.8027111 102.1545009
  76.7010393  37.6868176 101.2665544  77.9081650  37.4018276 102.1346015
  72.8978698  39.6562587  98.1441900  72.3343563  39.5652524  97.3758188
  72.7831093  38.8362492  98.6244392  77.5211665  38.9561963 108.1131214
  77.5100306  38.5614761 107.2411718  77.6832304  38.2228035 108.7064986
  70.4443129  41.1513779 100.9826120  71.2364421  40.8104604 100.5672420
  70.6839780  41.2608754 101.9028274  78.4778256  43.3233555  93.4556365
  77.8266236  43.9087636  93.0690379  79.2722619  43.8539750  93.5151402
  72.4033883  40.4122692  93.8543499  73.1764759  39.8651679  93.7156375
  72.7559282  41.2766942  94.0657960  74.2418926  41.7399075 107.0610398
  73.9508792  42.6444705 106.9457065  74.8775910  41.7815602 107.7754468
  75.1675133  39.1175923 103.6511758  75.7638705  38.8931946 102.9368721
  75.2250104  38.3760669 104.2537206  74.7400161  36.5715358  91.4861949
  74.9925682  36.0496880  90.7245412  73.8024720  36.4081504  91.5888633
  79.7843444  35.5751137  99.2936692  80.5706533  35.1570560  98.9427109
  80.0482148  36.4797229  99.4618341  79.9553521  41.0123987  93.9925349
  79.3199354  41.0858614  94.7046254  79.6250928  41.6017586  93.3144428
  85.1851871  35.5126370 100.1969671  85.9177043  34.9425587 100.4307500
  84.4291227  35.1247970 100.6376176  74.4596450  38.4743464  93.6886324
  74.3432708  37.7988368  94.3567408  74.5698710  37.9875838  92.8718477
  76.8027991  37.9353612  97.3933013  76.4386198  37.4084232  98.1045935
  77.6595107  37.5452081  97.2199499  82.7077292  29.2247944 104.6564279
  82.3760616  30.0943355 104.4325494  82.1122905  28.9084228 105.3358310
  76.4433478  32.9643511  92.3894362  76.6107880  33.8323748  92.7564833
  76.2530647  33.1270793  91.4655651  79.2008811  41.4260490 104.0560192
  78.9009534  42.3285529 103.9475999  78.8559871  41.1592673 104.9081345
  72.6521293  37.8774287 100.0896897  71.7271789  37.7450501 100.2974588
  72.9005706  38.6568506 100.5866839  82.6005955  33.9443030 101.7357629
  81.6922832  33.8758439 101.4416390  82.5493551  34.4214975 102.5639455
  76.4222699  35.4201169  93.3741029  76.3022324  35.8658219  94.2126509
  75.7275287  35.7686486  92.8154567  70.0130104  37.5207560 100.9240686
  70.1422485  37.7742039 101.8380097  69.3327555  38.1135268 100.6045341
  74.1829591  48.1904810  97.0231160  74.1053621  49.1412636  97.1019640
  73.5791234  47.8450683  97.6806086  76.6746821  35.3632676 109.6792527
  75.8980155  35.9226596 109.6695391  77.3137384  35.8489459 110.2007397
  84.4667601  32.1459469 103.5135503  83.8241981  32.4392002 102.8675298
  83.9622530  32.0312389 104.3188700  82.1207765  35.8922642  94.2021363
  83.0325621  36.1250029  94.0269060  81.6117412  36.4759686  93.6396441
  74.9293193  38.1718129 109.2410494  75.6707877  38.7103173 108.9645317
  74.2230178  38.7984418 109.3982045  80.4048533  40.3147270 107.8382655
  80.8131889  39.8729680 107.0937288  79.6825794  39.7399897 108.0916848
  76.7579603  35.2519876 105.2116212  77.6040798  35.6759290 105.3550861
  76.6978240  34.5953501 105.9054775  80.7277347  40.8748460 101.5934944
  80.0986210  41.0394174 100.8911012  80.3403009  41.2890070 102.3645908
  84.6066579  41.8102898  98.9479308  83.9217617  42.1901800  98.3976341
  84.6910428  42.4198225  99.6811256  79.9079048  32.9124245 106.8697386
  79.6639980  33.6666305 106.3331661  80.1838978  33.2909592 107.7044633
  81.8617511  39.4562857 105.5474651  82.0734406  40.0994617 104.8709032
  81.8147259  38.6225174 105.0796581  79.4643740  32.0680678 102.4511223
  78.6028219  32.3661931 102.7427961  79.4906174  32.2851077 101.5192256
  76.2805309  40.6122868  98.8585029  76.7443655  40.8910571  98.0689652
  76.0162107  39.7106313  98.6758120  73.1729390  40.1594350 101.7964792
  73.7430747  40.5881618 101.1582277  73.7637502  39.8776935 102.4948978
  75.2174195  36.7346021  95.6674594  75.9198238  37.1867064  96.1348521
  74.8854824  36.0929840  96.2954487  73.6654557  35.3257777 110.0425804
  73.0353217  36.0074058 110.2761200  73.5590645  35.2140859 109.0978942
  68.9599529  34.9929573 100.9691728  68.1698583  35.2487102 100.4931838
  69.4510776  35.8077911 101.0743768  82.9763339  42.3334813 103.7197009
  83.7980782  41.9315000 103.4379690  82.9725742  42.2303047 104.6713124
  70.9114274  35.3574153  97.9275205  70.1145438  35.4692847  98.4458700
  70.6839867  35.6960805  97.0616095  76.7419942  41.8818856 105.8757719
  76.8064375  42.3439263 106.7115891  76.0330866  41.2516221 106.0040029
  67.2437232  35.2460064 103.4006719  67.4945270  36.1307074 103.6664295
  67.7796780  35.0664665 102.6281810  91.0669332  38.6773561 100.0681980
  90.3133040  38.1080959  99.9125985  91.2016873  38.6436226 101.0152615
  76.4567960  43.5486963  95.7436699  76.3213635  44.3938499  96.1721547
  76.9977772  43.7506241  94.9802633  72.9435299  29.6278543 112.4051055
  72.5502245  29.0744742 113.0798699  73.7601440  29.9389122 112.7957572
  69.9097357  41.0662401  96.3164625  70.4221878  41.8605652  96.4670189
  70.5620070  40.3688692  96.2498226  71.7192242  44.1828158  98.3987378
  71.8958870  45.1046122  98.2108362  72.5149075  43.8686577  98.8281758
  75.8603260  31.0436422 109.9971311  76.6012974  31.6443575 109.9175774
  76.0921183  30.3014060 109.4389354  71.0044598  36.2292790 108.2749541
  70.8898114  35.3278047 108.5756640  70.1489116  36.4756486 107.9234358
  78.0836436  44.1710530 109.8737042  77.6400290  43.3846908 109.5557946
  78.7453650  44.3589680 109.2080932  72.8423557  45.7006332 104.3997720
  73.3930982  45.5723395 103.6274714  72.0035033  46.0001221 104.0492613
  80.1817674  44.4513330 107.9018443  80.1636150  45.2722211 107.4098712
  81.1037594  44.3267405 108.1268584  76.6390728  41.9657459 108.7441951
  77.1719065  41.2045748 108.5141259  76.1104809  41.6731111 109.4866106
  79.8060423  27.0717525 104.2735593  79.4624693  27.9619167 104.1974704
  80.1739386  26.8819183 103.4105178  67.8746274  39.3951056  97.0924195
  68.7121496  39.8048064  96.8757903  68.0524542  38.4550498  97.0624389
  79.7710706  37.0626136  92.7808028  79.2557329  37.8330741  93.0196415
  79.4988014  36.3891273  93.4041090  77.3557817  31.9075837  97.8393266
  76.4999413  31.5182688  97.6598905  77.7684769  31.9867798  96.9793052
  78.8856964  29.4422180 102.2384826  78.3821759  29.4052316 101.4252632
  79.1787571  30.3514923 102.2981483  75.1299850  29.5260910 101.2451008
  75.9952846  29.3303719 100.8856897  75.1977359  29.2971262 102.1720365
  84.7444980  39.8158491  94.7161202  83.9674423  39.4769651  94.2716364
  85.4236461  39.8211114  94.0416167  79.5597009  34.9353228  94.6067809
  79.2547145  35.2499378  95.4577952  80.5127451  35.0134648  94.6495142
  78.0043441  41.0943452  96.2560763  77.4764803  40.3596211  95.9434001
  77.5030944  41.8718128  96.0100732  82.9836287  39.2892472 101.3727810
  82.3259962  39.9791734 101.4607938  83.7876686  39.6788904 101.7161796
  72.7362169  31.7563118  98.6167375  73.3105921  31.5338300  97.8840568
  73.3233151  31.8251813  99.3695976  81.7941746  37.6436845  99.4231751
  82.3073628  38.2766837  99.9253461  82.4442970  37.0438040  99.0575111
  73.0631756  33.7867579  92.6363260  72.2269068  34.1242266  92.9572535
  72.9236525  33.6516559  91.6990397  75.0384836  28.6304367  97.3442444
  74.3849249  28.3153384  96.7199059  74.9965311  28.0080107  98.0702267
  76.1496041  38.9123662  89.2595736  75.2423103  38.6812916  89.4586885
  76.6467073  38.1161281  89.4469718  79.0564120  47.6221169  92.1792422
  78.3825819  47.9252866  92.7877380  79.4429942  48.4250250  91.8297879
  78.2722577  35.1186301 101.6690092  77.3545138  35.3401248 101.5111780
  78.6882720  35.1932611 100.8101799  79.0557625  36.5177716  96.7992772
  79.8029443  37.0299113  96.4899894  79.3249214  36.1961769  97.6597166
  77.3284275  39.0136257  93.7819726  76.4195494  38.7295290  93.8792196
  77.3579358  39.4335336  92.9223033  82.5603542  42.6242846  97.5510894
  82.1065869  41.7833756  97.6076084  81.9297509  43.2604245  97.8885674
  81.5036462  33.5534832  98.7811561  80.7659218  33.0412219  99.1121804
  81.7563235  33.1135214  97.9694838  81.0036481  44.4619343  98.4860712
  81.2959456  45.0224400  97.7673078  81.5135102  44.7547904  99.2413871
  81.6048089  26.3311084  99.3753331  81.9106966  25.4708448  99.0879246
  82.3300694  26.9228705  99.1752325  67.8972445  36.7341771  97.7634929
  67.6996845  36.1411132  97.0385995  67.3419109  36.4293981  98.4810867
  75.8769169  36.6264878  99.8829522  75.9317779  35.6738714  99.8071998
  75.0660371  36.7824317 100.3670820  77.0260362  40.5545001  91.1207805
  76.5879792  39.8380860  90.6613442  77.7670803  40.7821115  90.5592896
  73.8161529  35.2441937  97.6419901  73.0029394  35.5436108  98.0485093
  74.3120523  34.8497626  98.3594383  75.9670107  45.2399694  99.5754165
  75.9246285  45.4660541  98.6462697  76.8832805  45.0063069  99.7239966
  79.4135740  35.7083762 106.4734794  79.7685128  35.9355235 107.3329260
  80.0607872  36.0402139 105.8512050  85.1433477  38.8302198  97.1784124
  85.0051376  39.0203794  96.2505313  84.7869696  39.5921580  97.6352175
  73.3075603  32.8160293 103.2581136  73.9474983  32.6749052 102.5604099
  72.4753134  32.5294806 102.8819738  85.1702857  40.8978725 102.1895395
  85.6039364  40.8054014 103.0378449  85.8834438  40.8736225 101.5515411
  74.0835907  42.1162723  99.3716128  74.8776506  41.6213043  99.1698703
  73.3727600  41.5880586  99.0083834  78.9030752  44.4980819 103.7228496
  78.9567774  45.0671755 104.4906212  78.0345533  44.6682704 103.3582533
  70.3918671  36.2605805  95.4475881  69.4616259  36.1990260  95.6645843
  70.4876143  35.7381758  94.6512522  70.3104220  32.7860618  98.0354122
  70.5711037  33.7005951  97.9263283  71.1321392  32.3185060  98.1850735
  71.7829145  34.1998375 105.2052947  72.4552199  33.9915737 104.5565596
  70.9558932  34.0020461 104.7658179  86.0318406  40.9402425 104.7228280
  86.2254297  41.8448236 104.9687555  85.9319025  40.4809844 105.5566865
  77.6854717  30.8260316 107.2218608  77.0382632  31.5250266 107.1283084
  78.4555733  31.2596460 107.5894856  81.0933515  41.0909168 110.2969161
  80.9419022  40.8619720 109.3799245  81.0838195  42.0479769 110.3100506
  77.8618852  38.6641081 105.2815427  78.7910912  38.8152240 105.1084395
  77.4409882  38.7525102 104.4264074  76.6607183  42.6891745 103.0513965
  76.5218269  42.3210530 103.9239903  75.8721780  43.2039385 102.8797923
  77.2555335  47.7900842  94.3939502  77.4307091  47.3188885  95.2085124
  76.5688123  48.4166608  94.6220762  78.2112398  42.0673348 100.4402803
  77.8762231  42.0274118 101.3360453  77.7116344  41.4018064  99.9673213
  72.1856642  37.4740978 105.9655384  72.0476440  36.7421217 106.5666923
  73.0961566  37.3849878 105.6839572  81.1471590  39.4129382  90.7139863
  80.5300761  38.6876210  90.6172915  80.6788079  40.1738743  90.3706937
  74.8138943  37.1860937 105.4539064  75.5238562  36.5454129 105.4125682
  74.7708251  37.4373832 106.3765244  82.8025722  44.1228291 108.3745643
  82.7438268  43.4387511 107.7076226  83.2045240  44.8647281 107.9226269
  73.5267877  34.1726155 107.2734703  72.9905234  33.7216894 107.9256299
  72.9384586  34.3072064 106.5305168  71.8216421  50.9390204 101.1679362
  72.0613019  51.5708729 101.8458380  70.9785617  50.5878244 101.4544721
  72.9370136  33.6314807  89.8361167  72.0599602  33.5103607  89.4723413
  73.4127889  32.8400885  89.5840055  82.8043129  42.0867875 106.6059623
  81.9169908  41.7493796 106.7286021  83.3741680  41.3550906 106.8428388
  64.4572276  38.4191966  99.9302674  65.1443316  38.1053696  99.3423689
  64.3020405  39.3233331  99.6569925  69.2606998  33.3082163 104.3587698
  69.1765187  32.7007832 103.6238108  68.4389705  33.7991181 104.3597194
  76.3344282  46.7469327 103.5720866  76.2614454  47.5524298 104.0840170
  75.8921676  46.9461293 102.7468887  76.1234062  45.9841097  97.0823687
  75.3401584  46.5262777  97.1761912  76.8226807  46.5015077  97.4817928
  79.4330712  31.7935726  99.7257893  79.9299412  31.0405689  99.4058963
  78.6617694  31.8300043  99.1601102  87.2860470  37.4976092 101.3676184
  87.2750346  38.3800807 100.9970117  86.4177849  37.1447643 101.1730721
  78.7942966  46.6456161 105.7279024  79.5070938  47.2803626 105.6554926
  78.3032995  46.7420027 104.9119026  80.5160493  40.5507414  97.2996316
  79.5816772  40.6708876  97.1301020  80.6937161  39.6479880  97.0356326
  76.0165681  33.9353109  99.4529577  75.6463468  33.3824150 100.1410483
  76.5124773  33.3311243  98.9004577  83.9033044  36.3924733  97.8346350
  84.3693496  37.2252724  97.7606653  84.3540545  35.9269714  98.5391609
  73.8454879  44.3950604 106.5484595  74.5464339  45.0287087 106.7013989
  73.3749994  44.7365336 105.7880235  81.9709275  42.7368554  94.8332502
  82.2469119  42.6225149  95.7426376  81.1013774  42.3386039  94.7944675
  81.8749707  28.7605320 101.8737252  80.9612787  28.9909547 102.0419459
  82.3042808  28.8443764 102.7251284  81.6456165  36.9495212 104.3737146
  80.9927616  37.1971119 103.7189598  82.0236545  36.1359350 104.0399623
  78.6063339  46.9854905  98.4765316  78.7885734  46.1676561  98.9393068
  79.4296325  47.2022597  98.0390206  78.9405505  45.9123090  95.7380364
  79.4693271  45.4015545  95.1250526  79.2033724  45.5965620  96.6025897
  77.6943738  37.6915023 110.8603183  77.0184375  37.5909152 111.5305558
  78.5171372  37.5354237 111.3239180  69.4422598  43.9286959 103.4815698
  70.0276034  43.1830647 103.6143602  69.2447436  44.2390916 104.3652362
  72.2961253  46.9638207  98.4978140  71.6271628  47.4484334  98.0142180
  72.1574122  47.2107427  99.4121519  64.0340252  36.4992560 102.2020141
  64.0724352  35.9656150 102.9957259  63.5280545  35.9727765 101.5831118
  76.4366521  48.9981950 105.0960799  76.9884829  49.1613572 105.8609884
  76.7772715  49.5886388 104.4240824  71.4131015  31.3457100 105.6982683
  71.4772341  32.2071931 105.2860081  71.3498135  30.7331102 104.9655042
  70.8883287  33.4180233 109.3455718  71.5155326  33.0357310 109.9593242
  70.0311206  33.1994435 109.7111410  81.2877396  43.8243208 110.9509453
  81.8317300  44.4373166 110.4564408  80.7064241  44.3822786 111.4676466
  67.6648830  35.2256662  95.2774072  67.9602271  34.3167340  95.2241126
  66.7636866  35.2044401  94.9555075  79.5734909  46.9463926 102.0824481
  79.4486048  46.1453666 101.5735426  80.2314000  47.4410119 101.5938451
  71.1943077  33.3012658 101.2601621  70.4729663  33.9148626 101.1209094
  71.9836333  33.8370423 101.1818267  81.6369817  44.7472946 103.7104031
  80.6900153  44.6278297 103.6382358  81.9852590  43.8595444 103.7930292
  73.9969390  30.6367085 107.5342273  74.5203792  30.8829381 108.2968582
  73.7781724  31.4687120 107.1145410  69.3936671  32.9070759  95.4013398
  69.0649378  32.0268138  95.2188504  69.7476042  32.8518428  96.2889787
  78.6416250  44.5425662  99.9108383  78.4941213  43.6142370 100.0915953
  79.4669744  44.5645753  99.4265458  72.5078495  33.1943729  95.7688875
  72.8474567  33.7229651  95.0467484  72.9550615  33.5324135  96.5447442
  82.2450372  45.3654221 100.9973256  83.1696920  45.1597082 100.8597707
  82.0765676  45.1170622 101.9062597  75.2021935  31.5780780 105.2191943
  74.8618756  30.7788593 105.6212623  74.4960942  31.8782491 104.6468777
  75.8538407  28.6630092 103.6719266  76.6764477  28.1890571 103.5498157
  76.0976471  29.4420576 104.1717953  74.4946642  31.6918351  93.9682168
  75.2155004  32.0699604  93.4645885  73.8711946  32.4107228  94.0717146
  78.6377765  32.3963500  94.9040500  78.8541379  33.2788138  94.6029329
  78.1571832  32.0049713  94.1746142  73.3776986  35.3549213 101.4811245
  73.2321567  35.6689516 102.3735526  72.9002190  35.9734113 100.9282144
  75.2373369  32.3451761 101.5292135  75.2234938  31.4492854 101.1924432
  75.9545797  32.3522425 102.1630421  77.0899500  32.7789101 103.5745262
  76.8317277  33.7006172 103.5729592  76.5584540  32.3819536 104.2645726
  82.0345688  45.8839888  96.3535347  82.2082566  45.3186311  95.6009200
  82.5274580  46.6840783  96.1714837  67.8522648  37.8954557 104.4198906
  67.3076116  38.6714365 104.5519180  68.7301998  38.2425362 104.2618028
  74.6410265  31.2266141  96.7979705  74.7626176  30.2982787  96.9970592
  74.3512307  31.2404827  95.8858020  77.5101455  28.9121052  99.9346425
  77.5323152  28.9760385  98.9798404  77.9269514  28.0725560 100.1286931
  87.8885080  38.6476311  97.9725647  88.3316226  37.8983636  97.5744770
  87.0111590  38.6386448  97.5899379  83.0220861  45.2006653  93.4532246
  83.7171765  45.8213345  93.6719560  83.3644011  44.3502004  93.7284624
  68.6388670  37.0224454 107.3129063  67.8970406  37.1707089 107.8993693
  68.3181414  37.2832719 106.4495812  84.9212284  42.6506358  94.9819576
  85.4463608  42.9893631  94.2568896  84.8334637  41.7153374  94.7982711
  76.5832333  46.5640432 107.1109453  76.8919459  46.3189579 107.9832153
  77.3807815  46.7687070 106.6228323  76.6052945  48.7178342  99.3414830
  76.1657935  48.2254720 100.0347686  77.3561062  48.1751309  99.1006905
  69.0845284  44.9089882  99.3439458  69.9103304  44.6093654  98.9638101
  68.7339336  44.1397505  99.7929246  74.0526817  44.2616351 101.4137131
  73.4306826  43.5987056 101.1139359  74.7231684  44.2877483 100.7310779
  67.2853889  42.8276209 100.3028391  66.4485797  42.3998383 100.1212393
  67.2577534  43.0208652 101.2399182  74.1251344  32.7398139 111.0069637
  74.1739500  33.6160261 110.6247407  74.6673859  32.1975532 110.4341281
  84.6106190  43.2839262 110.2870774  83.8201734  43.2663401 109.7475274
  84.3739545  43.8227556 111.0419811  84.7304065  40.1331728 107.6003503
  84.7802070  39.9681736 108.5419026  84.6217988  39.2658987 107.2101384
  73.6140324  42.8120274  94.8895592  73.7628444  43.4955738  94.2362265
  74.4206767  42.7925364  95.4045048  82.0207827  36.1162656 108.9162810
  82.9217690  35.9769121 108.6246807  82.0955802  36.2817111 109.8560987
  76.3550633  33.4929511 107.7615996  75.4853942  33.7863077 107.4898584
  76.5910113  34.0769956 108.4823260  86.2322262  42.5528670 107.8445524
  85.9407070  42.9158650 108.6808985  85.6194393  41.8395678 107.6658857
  87.4317944  40.1181550 100.3648095  88.2664836  40.5571354 100.5285655
  87.5677073  39.6420203  99.5456340  84.4809450  37.6761284 106.3125582
  84.9563572  37.8688931 105.5044434  83.5575016  37.7320470 106.0668966
  71.3692957  38.8385452  95.8956661  71.1238999  37.9347782  96.0936871
  71.5388871  38.8402602  94.9536139  79.0589667  29.7109128 105.2781416
  79.5771611  30.4470155 104.9527905  78.7044799  30.0173121 106.1128175
  70.6388604  34.5713809  93.3942822  69.9457849  34.6458164  92.7382858
  70.3940356  33.8074153  93.9164339  79.3102261  26.1309411 100.7982313
  79.5904015  25.4632600 101.4242739  80.0952868  26.3238506 100.2856977
  77.1135729  45.3068404  92.3607339  76.5409696  45.9258592  91.9077811
  77.6868523  45.8567766  92.8947261  83.1811119  34.5527045 104.5453888
  84.1328542  34.6525142 104.5666112  83.0114570  33.7605313 105.0551972
  81.2025499  31.6382628 104.7313289  80.6075431  31.9187640 104.0359778
  80.9175195  32.1276529 105.5030030  80.3332989  45.5905555  93.4915922
  81.2663662  45.5251116  93.6948797  80.2456202  46.4261821  93.0330454
  82.9621006  44.9071425  90.4519869  82.8834637  44.5731289  91.3455627
  83.7830673  45.3993193  90.4511341  85.6599197  37.7733164 103.6596188
  85.6275517  36.8349165 103.8455872  86.2699821  37.8517201 102.9262013
  77.4982528  36.6429217  89.7023392  78.4441633  36.5135425  89.7711810
  77.1196773  35.9043879  90.1792820  85.8093685  34.5644208 103.7054471
  85.2932734  33.7802664 103.5184400  86.6933634  34.2362924 103.8700990
  83.4704412  28.3085223  99.6650284  83.2729233  28.0000311 100.5493616
  84.0804118  29.0346862  99.7948213  91.4775747  38.8349171 102.8002224
  92.2079135  38.5734459 103.3609928  90.8682692  38.0977893 102.8404292
  89.5591044  36.9757034 103.3976676  88.8324207  36.8412999 102.7893167
  89.1438331  37.2833862 104.2033394  77.3821220  40.6946963 111.1624049
  78.3024230  40.8725562 111.3564095  77.3470803  39.7503009 111.0103748
  75.6825445  34.5679194  89.6378277  74.7756900  34.2712306  89.7140991
  75.9601426  34.2709012  88.7712563  66.6003385  35.8885557 100.0877323
  66.2806170  35.0350865  99.7951697  66.0536814  36.1034135 100.8435291
  70.3783293  38.6047998 103.8046830  70.5969303  39.5365106 103.8234864
  70.7909067  38.2455972 104.5901634  77.2987511  29.1116083  95.7922518
  76.4888239  28.7663168  96.1677764  77.9871928  28.8023627  96.3810130
  79.2278059  28.1894130  97.4146815  79.7809098  28.6089584  98.0736838
  79.4648145  27.2629878  97.4569771  75.2511158  34.1781204 113.1949579
  75.1507885  35.1275561 113.1261670  75.0332700  33.8499443 112.3225649
  74.4524230  31.4266129  89.7790256  75.3143394  31.7521027  90.0386073
  74.6374574  30.6397625  89.2663322  66.4691645  39.5088468 102.0570445
  65.7755117  39.0942421 101.5440399  67.2164636  39.5509005 101.4603864
  82.6056866  30.2994655  96.9225479  82.0255535  30.9579459  96.5403532
  82.3392799  29.4772000  96.5112897  81.0560432  29.6999713  99.1246799
  81.5560211  29.8116248  98.3161118  81.6996040  29.3960766  99.7647608
  75.1142428  37.6078343 112.0114640  74.6309510  38.4078703 112.2178529
  75.2003367  37.6186287 111.0582084  68.3828388  39.4406722  99.9336460
  68.3599076  39.5394410  98.9818343  68.6929024  40.2871873 100.2553626
  71.0415766  41.4982877 104.0483074  71.9959019  41.4666820 103.9813006
  70.8428289  41.0373501 104.8633300  71.6315148  40.0683993 106.6153872
  72.4508037  40.5628072 106.6388709  71.9051956  39.1515961 106.5871439
  81.3881744  32.4594746  95.9781827  80.5007599  32.7444396  95.7602022
  81.8035733  32.2988509  95.1309104  84.7396280  32.4841267  99.6936167
  85.5156670  32.9737719  99.9660783  84.0144414  32.9099321 100.1508036
  87.1768839  33.1968886 100.7510107  87.7713330  32.9564622 100.0403416
  87.2495423  32.4776016 101.3783644  69.3965995  47.0402497 101.0653272
  69.2620462  46.2802898 100.4991270  68.9798057  47.7643397 100.5982061
  80.5324958  42.2239420  90.0729847  81.2360808  42.4289423  90.6887503
  79.8087606  42.7916182  90.3378931  81.3622768  37.9749282  96.1932118
  81.3057969  38.4317833  95.3539750  81.9151110  37.2139966  96.0154960
  85.1727574  33.7639013  97.0182237  84.9164508  33.3635649  97.8490445
  84.5480442  34.4782807  96.8932376  89.4839912  36.5035087  99.5253528
  88.9239470  36.5728276 100.2985091  88.8783415  36.3276071  98.8053025
  72.5535120  47.9371814 101.2771715  72.4367505  48.8817246 101.1750405
  71.7327567  47.6345375 101.6657514  82.4411655  42.6621950  92.1228307
  83.2757259  42.2303148  91.9405782  82.2795998  42.4903963  93.0505202
  82.0957547  39.1654063  93.4884647  82.0406351  38.9998334  92.5473091
  81.4703602  39.8730096  93.6446836  66.8850062  34.4022127 107.3146069
  67.5308926  33.8921081 107.8033294  66.6767213  35.1390809 107.8889494
  79.4103454  41.4702975 112.8138210  80.2794614  41.6443627 112.4524844
  78.9310206  42.2897392 112.6913939  75.4053673  28.6662172  93.0669965
  75.3932342  29.6104012  93.2238236  76.2977094  28.4832317  92.7729426
  73.5789635  48.5900076 104.4927643  74.4816881  48.6223686 104.8094138
  73.3527005  47.6600527 104.5073979  75.3343237  47.3431062 101.1537722
  74.3838868  47.3432924 101.0402094  75.6375723  46.5963797 100.6373756
  79.2205792  25.2604948  97.3215902  78.4538188  24.7063435  97.4672584
  79.6316497  25.3326817  98.1830054  71.2247553  31.5489744 111.4121083
  72.0879015  31.1926549 111.6224408  70.6512964  31.2103639 112.0996487
  91.0695930  53.1791601 102.2183484  91.7074340  53.0598348 101.5146824
  90.9516773  54.1272445 102.2771436  87.8785636  53.1319029 102.1545009
  87.5404148  53.0160093 101.2665544  88.7475405  52.7310194 102.1346015
  83.7372452  54.9854505  98.1441900  83.1737317  54.8944442  97.3758188
  83.6224847  54.1654410  98.6244392  88.3605419  54.2853880 108.1131214
  88.3494060  53.8906679 107.2411718  88.5226059  53.5519953 108.7064986
  81.2836884  56.4805697 100.9826120  82.0758176  56.1396521 100.5672420
  81.5233534  56.5900672 101.9028274  89.3172011  58.6525473  93.4556365
  88.6659990  59.2379553  93.0690379  90.1116374  59.1831668  93.5151402
  83.2427638  55.7414610  93.8543499  84.0158514  55.1943597  93.7156375
  83.5953037  56.6058859  94.0657960  85.0812680  57.0690992 107.0610398
  84.7902546  57.9736623 106.9457065  85.7169665  57.1107520 107.7754468
  86.0068887  54.4467841 103.6511758  86.6032460  54.2223863 102.9368721
  86.0643859  53.7052586 104.2537206  85.5793916  51.9007276  91.4861949
  85.8319436  51.3788797  90.7245412  84.6418475  51.7373422  91.5888633
  90.6237199  50.9043054  99.2936692  91.4100288  50.4862478  98.9427109
  90.8875903  51.8089147  99.4618341  90.7947276  56.3415905  93.9925349
  90.1593109  56.4150531  94.7046254  90.4644682  56.9309504  93.3144428
  96.0245626  50.8418288 100.1969671  96.7570798  50.2717504 100.4307500
  95.2684981  50.4539888 100.6376176  85.2990204  53.8035382  93.6886324
  85.1826463  53.1280285  94.3567408  85.4092464  53.3167756  92.8718477
  87.6421745  53.2645529  97.3933013  87.2779953  52.7376150  98.1045935
  88.4988861  52.8743998  97.2199499  93.5471046  44.5539862 104.6564279
  93.2154371  45.4235273 104.4325494  92.9516659  44.2376146 105.3358310
  87.2827232  48.2935429  92.3894362  87.4501635  49.1615665  92.7564833
  87.0924401  48.4562711  91.4655651  90.0402566  56.7552408 104.0560192
  89.7403289  57.6577447 103.9475999  89.6953625  56.4884591 104.9081345
  83.4915047  53.2066205 100.0896897  82.5665543  53.0742419 100.2974588
  83.7399460  53.9860424 100.5866839  93.4399709  49.2734948 101.7357629
  92.5316587  49.2050356 101.4416390  93.3887305  49.7506893 102.5639455
  87.2616453  50.7493086  93.3741029  87.1416078  51.1950137  94.2126509
  86.5669042  51.0978404  92.8154567  80.8523858  52.8499478 100.9240686
  80.9816239  53.1033957 101.8380097  80.1721309  53.4427186 100.6045341
  85.0223345  63.5196728  97.0231160  84.9447375  64.4704553  97.1019640
  84.4184989  63.1742601  97.6806086  87.5140575  50.6924594 109.6792527
  86.7373909  51.2518514 109.6695391  88.1531138  51.1781377 110.2007397
  95.3061356  47.4751386 103.5135503  94.6635736  47.7683920 102.8675298
  94.8016284  47.3604307 104.3188700  92.9601519  51.2214560  94.2021363
  93.8719375  51.4541946  94.0269060  92.4511166  51.8051604  93.6396441
  85.7686947  53.5010047 109.2410494  86.5101632  54.0395091 108.9645317
  85.0623933  54.1276336 109.3982045  91.2442287  55.6439187 107.8382655
  91.6525643  55.2021598 107.0937288  90.5219549  55.0691815 108.0916848
  87.5973357  50.5811794 105.2116212  88.4434552  51.0051208 105.3550861
  87.5371995  49.9245418 105.9054775  91.5671102  56.2040378 101.5934944
  90.9379964  56.3686092 100.8911012  91.1796764  56.6181988 102.3645908
  95.4460334  57.1394816  98.9479308  94.7611372  57.5193717  98.3976341
  95.5304183  57.7490143  99.6811256  90.7472802  48.2416163 106.8697386
  90.5033734  48.9958223 106.3331661  91.0232733  48.6201510 107.7044633
  92.7011265  54.7854775 105.5474651  92.9128160  55.4286535 104.8709032
  92.6541013  53.9517091 105.0796581  90.3037494  47.3972596 102.4511223
  89.4421973  47.6953849 102.7427961  90.3299929  47.6142994 101.5192256
  87.1199064  55.9414786  98.8585029  87.5837409  56.2202489  98.0689652
  86.8555862  55.0398231  98.6758120  84.0123145  55.4886268 101.7964792
  84.5824502  55.9173536 101.1582277  84.6031256  55.2068852 102.4948978
  86.0567950  52.0637938  95.6674594  86.7591993  52.5158982  96.1348521
  85.7248578  51.4221757  96.2954487  84.5048311  50.6549695 110.0425804
  83.8746972  51.3365976 110.2761200  84.3984399  50.5432777 109.0978942
  79.7993284  50.3221491 100.9691728  79.0092338  50.5779020 100.4931838
  80.2904531  51.1369829 101.0743768  93.8157093  57.6626730 103.7197009
  94.6374537  57.2606918 103.4379690  93.8119496  57.5594964 104.6713124
  81.7508029  50.6866070  97.9275205  80.9539192  50.7984765  98.4458700
  81.5233621  51.0252723  97.0616095  87.5813697  57.2110774 105.8757719
  87.6458129  57.6731181 106.7115891  86.8724620  56.5808139 106.0040029
  78.0830987  50.5751982 103.4006719  78.3339025  51.4598991 103.6664295
  78.6190535  50.3956583 102.6281810 101.9063086  54.0065479 100.0681980
 101.1526795  53.4372877  99.9125985 102.0410627  53.9728143 101.0152615
  87.2961714  58.8778881  95.7436699  87.1607389  59.7230417  96.1721547
  87.8371527  59.0798159  94.9802633  83.7829054  44.9570461 112.4051055
  83.3895999  44.4036659 113.0798699  84.5995194  45.2681039 112.7957572
  80.7491112  56.3954319  96.3164625  81.2615632  57.1897569  96.4670189
  81.4013824  55.6980610  96.2498226  82.5585996  59.5120075  98.3987378
  82.7352625  60.4338040  98.2108362  83.3542830  59.1978495  98.8281758
  86.6997015  46.3728340 109.9971311  87.4406728  46.9735493 109.9175774
  86.9314938  45.6305978 109.4389354  81.8438353  51.5584707 108.2749541
  81.7291868  50.6569965 108.5756640  80.9882871  51.8048404 107.9234358
  88.9230191  59.5002448 109.8737042  88.4794045  58.7138826 109.5557946
  89.5847404  59.6881598 109.2080932  83.6817312  61.0298249 104.3997720
  84.2324737  60.9015313 103.6274714  82.8428788  61.3293138 104.0492613
  91.0211429  59.7805248 107.9018443  91.0029904  60.6014129 107.4098712
  91.9431349  59.6559323 108.1268584  87.4784483  57.2949377 108.7441951
  88.0112820  56.5337665 108.5141259  86.9498564  57.0023029 109.4866106
  90.6454178  42.4009443 104.2735593  90.3018447  43.2911085 104.1974704
  91.0133140  42.2111101 103.4105178  78.7140028  54.7242973  97.0924195
  79.5515250  55.1339982  96.8757903  78.8918296  53.7842416  97.0624389
  90.6104461  52.3918054  92.7808028  90.0951084  53.1622659  93.0196415
  90.3381769  51.7183190  93.4041090  88.1951572  47.2367755  97.8393266
  87.3393168  46.8474605  97.6598905  88.6078523  47.3159716  96.9793052
  89.7250718  44.7714098 102.2384826  89.2215514  44.7344233 101.4252632
  90.0181325  45.6806841 102.2981483  85.9693604  44.8552828 101.2451008
  86.8346601  44.6595637 100.8856897  86.0371113  44.6263180 102.1720365
  95.5838735  55.1450409  94.7161202  94.8068177  54.8061568  94.2716364
  96.2630216  55.1503032  94.0416167  90.3990764  50.2645146  94.6067809
  90.0940899  50.5791295  95.4577952  91.3521206  50.3426566  94.6495142
  88.8437196  56.4235369  96.2560763  88.3158557  55.6888129  95.9434001
  88.3424698  57.2010046  96.0100732  93.8230042  54.6184390 101.3727810
  93.1653716  55.3083651 101.4607938  94.6270441  55.0080822 101.7161796
  83.5755923  47.0855036  98.6167375  84.1499675  46.8630217  97.8840568
  84.1626906  47.1543730  99.3695976  92.6335500  52.9728763  99.4231751
  93.1467382  53.6058754  99.9253461  93.2836724  52.3729958  99.0575111
  83.9025510  49.1159497  92.6363260  83.0662823  49.4534183  92.9572535
  83.7630280  48.9808477  91.6990397  85.8778591  43.9596285  97.3442444
  85.2243003  43.6445302  96.7199059  85.8359065  43.3372025  98.0702267
  86.9889796  54.2415580  89.2595736  86.0816857  54.0104833  89.4586885
  87.4860828  53.4453199  89.4469718  89.8957875  62.9513087  92.1792422
  89.2219573  63.2544784  92.7877380  90.2823697  63.7542167  91.8297879
  89.1116331  50.4478218 101.6690092  88.1938893  50.6693165 101.5111780
  89.5276475  50.5224529 100.8101799  89.8951379  51.8469634  96.7992772
  90.6423198  52.3591031  96.4899894  90.1642969  51.5253687  97.6597166
  88.1678029  54.3428175  93.7819726  87.2589248  54.0587207  93.8792196
  88.1973113  54.7627253  92.9223033  93.3997297  57.9534764  97.5510894
  92.9459624  57.1125674  97.6076084  92.7691263  58.5896162  97.8885674
  92.3430216  48.8826750  98.7811561  91.6052973  48.3704136  99.1121804
  92.5956990  48.4427132  97.9694838  91.8430236  59.7911261  98.4860712
  92.1353210  60.3516318  97.7673078  92.3528856  60.0839822  99.2413871
  92.4441843  41.6603002  99.3753331  92.7500720  40.8000366  99.0879246
  93.1694448  42.2520622  99.1752325  78.7366200  52.0633689  97.7634929
  78.5390599  51.4703049  97.0385995  78.1812864  51.7585899  98.4810867
  86.7162923  51.9556795  99.8829522  86.7711533  51.0030632  99.8071998
  85.9054125  52.1116234 100.3670820  87.8654117  55.8836918  91.1207805
  87.4273547  55.1672777  90.6613442  88.6064558  56.1113033  90.5592896
  84.6555283  50.5733855  97.6419901  83.8423149  50.8728026  98.0485093
  85.1514277  50.1789544  98.3594383  86.8063861  60.5691612  99.5754165
  86.7640040  60.7952458  98.6462697  87.7226560  60.3354986  99.7239966
  90.2529495  51.0375679 106.4734794  90.6078883  51.2647153 107.3329260
  90.9001626  51.3694056 105.8512050  95.9827232  54.1594115  97.1784124
  95.8445130  54.3495711  96.2505313  95.6263451  54.9213498  97.6352175
  84.1469358  48.1452210 103.2581136  84.7868737  48.0040970 102.5604099
  83.3146888  47.8586724 102.8819738  96.0096611  56.2270642 102.1895395
  96.4433118  56.1345931 103.0378449  96.7228192  56.2028143 101.5515411
  84.9229662  57.4454641  99.3716128  85.7170260  56.9504961  99.1698703
  84.2121354  56.9172504  99.0083834  89.7424506  59.8272736 103.7228496
  89.7961529  60.3963673 104.4906212  88.8739288  59.9974621 103.3582533
  81.2312425  51.5897723  95.4475881  80.3010013  51.5282178  95.6645843
  81.3269897  51.0673675  94.6512522  81.1497974  48.1152535  98.0354122
  81.4104792  49.0297869  97.9263283  81.9715147  47.6476978  98.1850735
  82.6222900  49.5290293 105.2052947  83.2945953  49.3207655 104.5565596
  81.7952686  49.3312379 104.7658179  96.8712161  56.2694343 104.7228280
  97.0648051  57.1740153 104.9687555  96.7712779  55.8101762 105.5566865
  88.5248472  46.1552234 107.2218608  87.8776387  46.8542183 107.1283084
  89.2949487  46.5888377 107.5894856  91.9327270  56.4201086 110.2969161
  91.7812776  56.1911637 109.3799245  91.9231949  57.3771687 110.3100506
  88.7012606  53.9932998 105.2815427  89.6304666  54.1444158 105.1084395
  88.2803636  54.0817019 104.4264074  87.5000938  58.0183663 103.0513965
  87.3612023  57.6502447 103.9239903  86.7115534  58.5331302 102.8797923
  88.0949090  63.1192759  94.3939502  88.2700845  62.6480803  95.2085124
  87.4081878  63.7458526  94.6220762  89.0506153  57.3965266 100.4402803
  88.7155986  57.3566036 101.3360453  88.5510099  56.7309982  99.9673213
  83.0250397  52.8032896 105.9655384  82.8870195  52.0713134 106.5666923
  83.9355320  52.7141796 105.6839572  91.9865345  54.7421300  90.7139863
  91.3694515  54.0168128  90.6172915  91.5181833  55.5030660  90.3706937
  85.6532698  52.5152855 105.4539064  86.3632316  51.8746047 105.4125682
  85.6102006  52.7665750 106.3765244  93.6419476  59.4520208 108.3745643
  93.5832022  58.7679428 107.7076226  94.0438995  60.1939198 107.9226269
  84.3661632  49.5018073 107.2734703  83.8298989  49.0508811 107.9256299
  83.7778340  49.6363982 106.5305168  82.6610175  66.2682122 101.1679362
  82.9006773  66.9000646 101.8458380  81.8179372  65.9170162 101.4544721
  83.7763891  48.9606724  89.8361167  82.8993357  48.8395525  89.4723413
  84.2521644  48.1692803  89.5840055  93.6436884  57.4159792 106.6059623
  92.7563662  57.0785714 106.7286021  94.2135435  56.6842823 106.8428388
  75.2966031  53.7483884  99.9302674  75.9837070  53.4345614  99.3423689
  75.1414159  54.6525249  99.6569925  80.1000753  48.6374081 104.3587698
  80.0158942  48.0299750 103.6238108  79.2783459  49.1283099 104.3597194
  87.1738037  62.0761245 103.5720866  87.1008208  62.8816216 104.0840170
  86.7315430  62.2753210 102.7468887  86.9627817  61.3133015  97.0823687
  86.1795338  61.8554695  97.1761912  87.6620562  61.8306994  97.4817928
  90.2724467  47.1227644  99.7257893  90.7693166  46.3697606  99.4058963
  89.5011448  47.1591961  99.1601102  98.1254224  52.8268010 101.3676184
  98.1144100  53.7092725 100.9970117  97.2571603  52.4739560 101.1730721
  89.6336720  61.9748079 105.7279024  90.3464693  62.6095543 105.6554926
  89.1426749  62.0711945 104.9119026  91.3554247  55.8799331  97.2996316
  90.4210526  56.0000794  97.1301020  91.5330916  54.9771798  97.0356326
  86.8559435  49.2645027  99.4529577  86.4857223  48.7116067 100.1410483
  87.3518528  48.6603161  98.9004577  94.7426799  51.7216651  97.8346350
  95.2087251  52.5544642  97.7606653  95.1934299  51.2561632  98.5391609
  84.6848634  59.7242522 106.5484595  85.3858093  60.3579005 106.7013989
  84.2143749  60.0657254 105.7880235  92.8103030  58.0660472  94.8332502
  93.0862874  57.9517066  95.7426376  91.9407529  57.6677957  94.7944675
  92.7143461  44.0897238 101.8737252  91.8006541  44.3201464 102.0419459
  93.1436563  44.1735682 102.7251284  92.4849920  52.2787130 104.3737146
  91.8321370  52.5263037 103.7189598  92.8630300  51.4651268 104.0399623
  89.4457094  62.3146823  98.4765316  89.6279488  61.4968479  98.9393068
  90.2690080  62.5314515  98.0390206  89.7799259  61.2415008  95.7380364
  90.3087026  60.7307462  95.1250526  90.0427479  60.9257538  96.6025897
  88.5337493  53.0206941 110.8603183  87.8578130  52.9201070 111.5305558
  89.3565127  52.8646154 111.3239180  80.2816352  59.2578877 103.4815698
  80.8669789  58.5122565 103.6143602  80.0841190  59.5682834 104.3652362
  83.1355007  62.2930125  98.4978140  82.4665383  62.7776252  98.0142180
  82.9967877  62.5399345  99.4121519  74.8734007  51.8284477 102.2020141
  74.9118106  51.2948068 102.9957259  74.3674300  51.3019683 101.5831118
  87.2760276  64.3273868 105.0960799  87.8278584  64.4905490 105.8609884
  87.6166469  64.9178306 104.4240824  82.2524769  46.6749018 105.6982683
  82.3166096  47.5363849 105.2860081  82.1891889  46.0623019 104.9655042
  81.7277042  48.7472150 109.3455718  82.3549080  48.3649228 109.9593242
  80.8704960  48.5286352 109.7111410  92.1271150  59.1535126 110.9509453
  92.6711054  59.7665084 110.4564408  91.5457995  59.7114704 111.4676466
  78.5042584  50.5548579  95.2774072  78.7996025  49.6459258  95.2241126
  77.6030620  50.5336319  94.9555075  90.4128663  62.2755844 102.0824481
  90.2879803  61.4745583 101.5735426  91.0707754  62.7702037 101.5938451
  82.0336831  48.6304576 101.2601621  81.3123417  49.2440544 101.1209094
  82.8230087  49.1662341 101.1818267  92.4763571  60.0764864 103.7104031
  91.5293907  59.9570215 103.6382358  92.8246345  59.1887362 103.7930292
  84.8363145  45.9659003 107.5342273  85.3597547  46.2121299 108.2968582
  84.6175478  46.7979037 107.1145410  80.2330426  48.2362677  95.4013398
  79.9043132  47.3560056  95.2188504  80.5869797  48.1810346  96.2889787
  89.4810005  59.8717580  99.9108383  89.3334967  58.9434287 100.0915953
  90.3063498  59.8937671  99.4265458  83.3472249  48.5235647  95.7688875
  83.6868322  49.0521568  95.0467484  83.7944370  48.8616053  96.5447442
  93.0844127  60.6946139 100.9973256  94.0090674  60.4889000 100.8597707
  92.9159430  60.4462540 101.9062597  86.0415690  46.9072698 105.2191943
  85.7012510  46.1080511 105.6212623  85.3354696  47.2074408 104.6468777
  86.6932162  43.9922010 103.6719266  87.5158231  43.5182488 103.5498157
  86.9370225  44.7712494 104.1717953  85.3340396  47.0210269  93.9682168
  86.0548759  47.3991521  93.4645885  84.7105700  47.7399145  94.0717146
  89.4771519  47.7255417  94.9040500  89.6935134  48.6080055  94.6029329
  88.9965586  47.3341631  94.1746142  84.2170740  50.6841131 101.4811245
  84.0715321  50.9981434 102.3735526  83.7395944  51.3026031 100.9282144
  86.0767123  47.6743679 101.5292135  86.0628692  46.7784772 101.1924432
  86.7939551  47.6814342 102.1630421  87.9293254  48.1081019 103.5745262
  87.6711032  49.0298090 103.5729592  87.3978294  47.7111453 104.2645726
  92.8739443  61.2131806  96.3535347  93.0476320  60.6478229  95.6009200
  93.3668334  62.0132701  96.1714837  78.6916403  53.2246475 104.4198906
  78.1469871  54.0006283 104.5519180  79.5695753  53.5717280 104.2618028
  85.4804019  46.5558059  96.7979705  85.6019931  45.6274705  96.9970592
  85.1906062  46.5696745  95.8858020  88.3495210  44.2412969  99.9346425
  88.3716907  44.3052303  98.9798404  88.7663269  43.4017478 100.1286931
  98.7278834  53.9768229  97.9725647  99.1709980  53.2275554  97.5744770
  97.8505344  53.9678365  97.5899379  93.8614615  60.5298570  93.4532246
  94.5565520  61.1505263  93.6719560  94.2037765  59.6793922  93.7284624
  79.4782425  52.3516371 107.3129063  78.7364161  52.4999007 107.8993693
  79.1575169  52.6124637 106.4495812  95.7606038  57.9798276  94.9819576
  96.2857363  58.3185549  94.2568896  95.6728391  57.0445291  94.7982711
  87.4226087  61.8932350 107.1109453  87.7313214  61.6481496 107.9832153
  88.2201569  62.0978988 106.6228323  87.4446699  64.0470259  99.3414830
  87.0051690  63.5546638 100.0347686  88.1954816  63.5043227  99.1006905
  79.9239038  60.2381800  99.3439458  80.7497058  59.9385572  98.9638101
  79.5733090  59.4689423  99.7929246  84.8920571  59.5908268 101.4137131
  84.2700581  58.9278973 101.1139359  85.5625438  59.6169400 100.7310779
  78.1247643  58.1568127 100.3028391  77.2879552  57.7290301 100.1212393
  78.0971289  58.3500570 101.2399182  84.9645099  48.0690056 111.0069637
  85.0133254  48.9452179 110.6247407  85.5067613  47.5267449 110.4341281
  95.4499945  58.6131180 110.2870774  94.6595488  58.5955318 109.7475274
  95.2133299  59.1519473 111.0419811  95.5697820  55.4623646 107.6003503
  95.6195825  55.2973653 108.5419026  95.4611743  54.5950905 107.2101384
  84.4534078  58.1412192  94.8895592  84.6022199  58.8247656  94.2362265
  85.2600522  58.1217282  95.4045048  92.8601582  51.4454574 108.9162810
  93.7611445  51.3061039 108.6246807  92.9349556  51.6109029 109.8560987
  87.1944387  48.8221429 107.7615996  86.3247697  49.1154995 107.4898584
  87.4303868  49.4061874 108.4823260  97.0716016  57.8820587 107.8445524
  96.7800825  58.2450568 108.6808985  96.4588148  57.1687596 107.6658857
  98.2711699  55.4473467 100.3648095  99.1058590  55.8863271 100.5285655
  98.4070828  54.9712120  99.5456340  95.3203205  53.0053202 106.3125582
  95.7957326  53.1980848 105.5044434  94.3968770  53.0612388 106.0668966
  82.2086711  54.1677369  95.8956661  81.9632753  53.2639699  96.0936871
  82.3782626  54.1694520  94.9536139  89.8983421  45.0401046 105.2781416
  90.4165365  45.7762073 104.9527905  89.5438554  45.3465039 106.1128175
  81.4782359  49.9005727  93.3942822  80.7851604  49.9750082  92.7382858
  81.2334111  49.1366071  93.9164339  90.1496015  41.4601328 100.7982313
  90.4297769  40.7924517 101.4242739  90.9346622  41.6530424 100.2856977
  87.9529484  60.6360322  92.3607339  87.3803451  61.2550509  91.9077811
  88.5262277  61.1859684  92.8947261  94.0204874  49.8818962 104.5453888
  94.9722297  49.9817060 104.5666112  93.8508324  49.0897231 105.0551972
  92.0419253  46.9674545 104.7313289  91.4469185  47.2479558 104.0359778
  91.7568950  47.4568446 105.5030030  91.1726744  60.9197472  93.4915922
  92.1057417  60.8543034  93.6948797  91.0849956  61.7553739  93.0330454
  93.8014760  60.2363343  90.4519869  93.7228392  59.9023206  91.3455627
  94.6224427  60.7285111  90.4511341  96.4992951  53.1025082 103.6596188
  96.4669272  52.1641083 103.8455872  97.1093575  53.1809119 102.9262013
  88.3376282  51.9721135  89.7023392  89.2835387  51.8427343  89.7711810
  87.9590527  51.2335797  90.1792820  96.6487440  49.8936125 103.7054471
  96.1326489  49.1094582 103.5184400  97.5327388  49.5654842 103.8700990
  94.3098167  43.6377141  99.6650284  94.1122988  43.3292229 100.5493616
  94.9197872  44.3638780  99.7948213 102.3169501  54.1641089 102.8002224
 103.0472890  53.9026377 103.3609928 101.7076447  53.4269811 102.8404292
 100.3984798  52.3048951 103.3976676  99.6717962  52.1704916 102.7893167
  99.9832085  52.6125780 104.2033394  88.2214975  56.0238881 111.1624049
  89.1417984  56.2017480 111.3564095  88.1864558  55.0794926 111.0103748
  86.5219199  49.8971111  89.6378277  85.6150655  49.6004224  89.7140991
  86.7995180  49.6000929  88.7712563  77.4397140  51.2177475 100.0877323
  77.1199924  50.3642783  99.7951697  76.8930568  51.4326053 100.8435291
  81.2177047  53.9339916 103.8046830  81.4363057  54.8657023 103.8234864
  81.6302821  53.5747890 104.5901634  88.1381265  44.4408001  95.7922518
  87.3281993  44.0955086  96.1677764  88.8265682  44.1315545  96.3810130
  90.0671813  43.5186048  97.4146815  90.6202852  43.9381501  98.0736838
  90.3041900  42.5921796  97.4569771  86.0904913  49.5073121 113.1949579
  85.9901640  50.4567478 113.1261670  85.8726455  49.1791360 112.3225649
  85.2917984  46.7558046  89.7790256  86.1537148  47.0812945  90.0386073
  85.4768328  45.9689542  89.2663322  77.3085400  54.8380386 102.0570445
  76.6148871  54.4234339 101.5440399  78.0558391  54.8800923 101.4603864
  93.4450621  45.6286573  96.9225479  92.8649290  46.2871377  96.5403532
  93.1786553  44.8063918  96.5112897  91.8954187  45.0291631  99.1246799
  92.3953965  45.1408165  98.3161118  92.5389795  44.7252683  99.7647608
  85.9536183  52.9370260 112.0114640  85.4703264  53.7370620 112.2178529
  86.0397122  52.9478205 111.0582084  79.2222142  54.7698640  99.9336460
  79.1992830  54.8686327  98.9818343  79.5322779  55.6163791 100.2553626
  81.8809520  56.8274795 104.0483074  82.8352774  56.7958737 103.9813006
  81.6822044  56.3665419 104.8633300  82.4708902  55.3975911 106.6153872
  83.2901791  55.8919990 106.6388709  82.7445710  54.4807879 106.5871439
  92.2275499  47.7886663  95.9781827  91.3401354  48.0736314  95.7602022
  92.6429488  47.6280427  95.1309104  95.5790035  47.8133184  99.6936167
  96.3550425  48.3029637  99.9660783  94.8538169  48.2391238 100.1508036
  98.0162593  48.5260804 100.7510107  98.6107084  48.2856539 100.0403416
  98.0889177  47.8067934 101.3783644  80.2359749  62.3694414 101.0653272
  80.1014217  61.6094815 100.4991270  79.8191811  63.0935314 100.5982061
  91.3718712  57.5531338  90.0729847  92.0754562  57.7581340  90.6887503
  90.6481361  58.1208100  90.3378931  92.2016522  53.3041199  96.1932118
  92.1451724  53.7609751  95.3539750  92.7544865  52.5431884  96.0154960
  96.0121328  49.0930931  97.0182237  95.7558262  48.6927567  97.8490445
  95.3874196  49.8074725  96.8932376 100.3233666  51.8327004  99.5253528
  99.7633224  51.9020194 100.2985091  99.7177169  51.6567989  98.8053025
  83.3928875  63.2663731 101.2771715  83.2761259  64.2109164 101.1750405
  82.5721321  62.9637293 101.6657514  93.2805409  57.9913867  92.1228307
  94.1151013  57.5595066  91.9405782  93.1189752  57.8195881  93.0505202
  92.9351302  54.4945981  93.4884647  92.8800105  54.3290252  92.5473091
  92.3097357  55.2022013  93.6446836  77.7243817  49.7314045 107.3146069
  78.3702680  49.2212999 107.8033294  77.5160968  50.4682727 107.8889494
  90.2497209  56.7994892 112.8138210  91.1188368  56.9735545 112.4524844
  89.7703960  57.6189309 112.6913939  86.2447427  43.9954090  93.0669965
  86.2326097  44.9395929  93.2238236  87.1370849  43.8124235  92.7729426
  84.4183389  63.9191993 104.4927643  85.3210636  63.9515604 104.8094138
  84.1920759  62.9892444 104.5073979  86.1736991  62.6722980 101.1537722
  85.2232622  62.6724842 101.0402094  86.4769477  61.9255714 100.6373756
  90.0599547  40.5896866  97.3215902  89.2931942  40.0355353  97.4672584
  90.4710252  40.6618735  98.1830054  82.0641308  46.8781662 111.4121083
  82.9272769  46.5218467 111.6224408  81.4906718  46.5395557 112.0996487
 101.9089685  68.5083518 102.2183484 102.5468094  68.3890266 101.5146824
 101.7910527  69.4564362 102.2771436  98.7179391  68.4610946 102.1545009
  98.3797902  68.3452011 101.2665544  99.5869159  68.0602112 102.1346015
  94.5766206  70.3146423  98.1441900  94.0131072  70.2236360  97.3758188
  94.4618602  69.4946327  98.6244392  99.1999174  69.6145798 108.1131214
  99.1887815  69.2198596 107.2411718  99.3619813  68.8811871 108.7064986
  92.1230638  71.8097614 100.9826120  92.9151930  71.4688439 100.5672420
  92.3627289  71.9192589 101.9028274 100.1565765  73.9817391  93.4556365
  99.5053745  74.5671471  93.0690379 100.9510128  74.5123585  93.5151402
  94.0821392  71.0706528  93.8543499  94.8552268  70.5235515  93.7156375
  94.4346791  71.9350777  94.0657960  95.9206435  72.3982910 107.0610398
  95.6296301  73.3028541 106.9457065  96.5563419  72.4399438 107.7754468
  96.8462642  69.7759758 103.6511758  97.4426214  69.5515781 102.9368721
  96.9037613  69.0344504 104.2537206  96.4187670  67.2299194  91.4861949
  96.6713191  66.7080715  90.7245412  95.4812229  67.0665339  91.5888633
 101.4630953  66.2334972  99.2936692 102.2494042  65.8154395  98.9427109
 101.7269657  67.1381064  99.4618341 101.6341030  71.6707822  93.9925349
 100.9986863  71.7442449  94.7046254 101.3038437  72.2601421  93.3144428
 106.8639380  66.1710205 100.1969671 107.5964552  65.6009422 100.4307500
 106.1078736  65.7831806 100.6376176  96.1383959  69.1327300  93.6886324
  96.0220217  68.4572203  94.3567408  96.2486219  68.6459674  92.8718477
  98.4815500  68.5937447  97.3933013  98.1173707  68.0668068  98.1045935
  99.3382616  68.2035916  97.2199499 104.3864800  59.8831779 104.6564279
 104.0548125  60.7527190 104.4325494 103.7910414  59.5668063 105.3358310
  98.1220987  63.6227347  92.3894362  98.2895389  64.4907583  92.7564833
  97.9318156  63.7854628  91.4655651 100.8796320  72.0844325 104.0560192
 100.5797043  72.9869364 103.9475999 100.5347380  71.8176509 104.9081345
  94.3308801  68.5358122 100.0896897  93.4059298  68.4034336 100.2974588
  94.5793215  69.3152342 100.5866839 104.2793464  64.6026866 101.7357629
 103.3710341  64.5342274 101.4416390 104.2281060  65.0798811 102.5639455
  98.1010208  66.0785004  93.3741029  97.9809833  66.5242055  94.2126509
  97.4062796  66.4270322  92.8154567  91.6917613  68.1791396 100.9240686
  91.8209994  68.4325875 101.8380097  91.0115064  68.7719104 100.6045341
  95.8617100  78.8488646  97.0231160  95.7841130  79.7996471  97.1019640
  95.2578743  78.5034518  97.6806086  98.3534330  66.0216511 109.6792527
  97.5767664  66.5810431 109.6695391  98.9924893  66.5073294 110.2007397
 106.1455110  62.8043304 103.5135503 105.5029490  63.0975837 102.8675298
 105.6410039  62.6896224 104.3188700 103.7995274  66.5506477  94.2021363
 104.7113130  66.7833864  94.0269060 103.2904921  67.1343521  93.6396441
  96.6080702  68.8301965 109.2410494  97.3495386  69.3687009 108.9645317
  95.9017687  69.4568253 109.3982045 102.0836042  70.9731105 107.8382655
 102.4919398  70.5313516 107.0937288 101.3613303  70.3983733 108.0916848
  98.4367112  65.9103712 105.2116212  99.2828307  66.3343125 105.3550861
  98.3765749  65.2537336 105.9054775 102.4064856  71.5332296 101.5934944
 101.7773719  71.6978010 100.8911012 102.0190518  71.9473905 102.3645908
 106.2854088  72.4686734  98.9479308 105.6005126  72.8485635  98.3976341
 106.3697937  73.0782060  99.6811256 101.5866557  63.5708080 106.8697386
 101.3427489  64.3250141 106.3331661 101.8626487  63.9493428 107.7044633
 103.5405020  70.1146693 105.5474651 103.7521915  70.7578452 104.8709032
 103.4934768  69.2809009 105.0796581 101.1431249  62.7264513 102.4511223
 100.2815728  63.0245767 102.7427961 101.1693683  62.9434912 101.5192256
  97.9592818  71.2706704  98.8585029  98.4231164  71.5494407  98.0689652
  97.6949616  70.3690148  98.6758120  94.8516899  70.8178185 101.7964792
  95.4218256  71.2465454 101.1582277  95.4425011  70.5360770 102.4948978
  96.8961704  67.3929856  95.6674594  97.5985747  67.8450900  96.1348521
  96.5642333  66.7513675  96.2954487  95.3442066  65.9841613 110.0425804
  94.7140726  66.6657894 110.2761200  95.2378154  65.8724694 109.0978942
  90.6387038  65.6513409 100.9691728  89.8486092  65.9070937 100.4931838
  91.1298285  66.4661747 101.0743768 104.6550848  72.9918648 103.7197009
 105.4768291  72.5898835 103.4379690 104.6513251  72.8886882 104.6713124
  92.5901783  66.0157988  97.9275205  91.7932947  66.1276682  98.4458700
  92.3627376  66.3544640  97.0616095  98.4207451  72.5402691 105.8757719
  98.4851884  73.0023099 106.7115891  97.7118375  71.9100056 106.0040029
  88.9224741  65.9043899 103.4006719  89.1732779  66.7890909 103.6664295
  89.4584289  65.7248501 102.6281810 112.7456841  69.3357396 100.0681980
 111.9920549  68.7664795  99.9125985 112.8804382  69.3020061 101.0152615
  98.1355469  74.2070799  95.7436699  98.0001144  75.0522334  96.1721547
  98.6765281  74.4090076  94.9802633  94.6222808  60.2862379 112.4051055
  94.2289754  59.7328577 113.0798699  95.4388949  60.5972957 112.7957572
  91.5884866  71.7246237  96.3164625  92.1009387  72.5189487  96.4670189
  92.2407579  71.0272527  96.2498226  93.3979751  74.8411993  98.3987378
  93.5746379  75.7629958  98.2108362  94.1936584  74.5270412  98.8281758
  97.5390769  61.7020258 109.9971311  98.2800483  62.3027411 109.9175774
  97.7708692  60.9597895 109.4389354  92.6832107  66.8876625 108.2749541
  92.5685623  65.9861882 108.5756640  91.8276625  67.1340322 107.9234358
  99.7623945  74.8294365 109.8737042  99.3187799  74.0430744 109.5557946
 100.4241159  75.0173516 109.2080932  94.5211066  76.3590167 104.3997720
  95.0718491  76.2307230 103.6274714  93.6822542  76.6585056 104.0492613
 101.8605183  75.1097165 107.9018443 101.8423659  75.9306046 107.4098712
 102.7825103  74.9851240 108.1268584  98.3178237  72.6241295 108.7441951
  98.8506574  71.8629583 108.5141259  97.7892318  72.3314946 109.4866106
 101.4847932  57.7301361 104.2735593 101.1412202  58.6203002 104.1974704
 101.8526895  57.5403018 103.4105178  89.5533783  70.0534891  97.0924195
  90.3909005  70.4631899  96.8757903  89.7312051  69.1134333  97.0624389
 101.4498215  67.7209972  92.7808028 100.9344838  68.4914576  93.0196415
 101.1775523  67.0475108  93.4041090  99.0345326  62.5659673  97.8393266
  98.1786922  62.1766523  97.6598905  99.4472278  62.6451633  96.9793052
 100.5644473  60.1006016 102.2384826 100.0609268  60.0636151 101.4252632
 100.8575080  61.0098759 102.2981483  96.8087359  60.1844746 101.2451008
  97.6740355  59.9887554 100.8856897  96.8764867  59.9555097 102.1720365
 106.4232489  70.4742326  94.7161202 105.6461932  70.1353486  94.2716364
 107.1023970  70.4794950  94.0416167 101.2384518  65.5937064  94.6067809
 100.9334654  65.9083213  95.4577952 102.1914960  65.6718484  94.6495142
  99.6830950  71.7527287  96.2560763  99.1552312  71.0180047  95.9434001
  99.1818453  72.5301964  96.0100732 104.6623796  69.9476308 101.3727810
 104.0047471  70.6375569 101.4607938 105.4664195  70.3372740 101.7161796
  94.4149678  62.4146953  98.6167375  94.9893430  62.1922135  97.8840568
  95.0020660  62.4835648  99.3695976 103.4729255  68.3020680  99.4231751
 103.9861137  68.9350672  99.9253461 104.1230479  67.7021876  99.0575111
  94.7419265  64.4451414  92.6363260  93.9056577  64.7826101  92.9572535
  94.6024034  64.3100394  91.6990397  96.7172345  59.2888202  97.3442444
  96.0636758  58.9737220  96.7199059  96.6752820  58.6663943  98.0702267
  97.8283550  69.5707497  89.2595736  96.9210612  69.3396751  89.4586885
  98.3254582  68.7745117  89.4469718 100.7351629  78.2805005  92.1792422
 100.0613328  78.5836701  92.7877380 101.1217451  79.0834085  91.8297879
  99.9510086  65.7770136 101.6690092  99.0332647  65.9985083 101.5111780
 100.3670229  65.8516446 100.8101799 100.7345133  67.1761552  96.7992772
 101.4816952  67.6882949  96.4899894 101.0036723  66.8545604  97.6597166
  99.0071784  69.6720092  93.7819726  98.0983003  69.3879125  93.8792196
  99.0366867  70.0919171  92.9223033 104.2391051  73.2826682  97.5510894
 103.7853378  72.4417592  97.6076084 103.6085018  73.9188080  97.8885674
 103.1823971  64.2118668  98.7811561 102.4446727  63.6996054  99.1121804
 103.4350744  63.7719049  97.9694838 102.6823990  75.1203178  98.4860712
 102.9746965  75.6808236  97.7673078 103.1922611  75.4131739  99.2413871
 103.2835598  56.9894920  99.3753331 103.5894475  56.1292283  99.0879246
 104.0088203  57.5812540  99.1752325  89.5759954  67.3925606  97.7634929
  89.3784354  66.7994967  97.0385995  89.0206618  67.0877817  98.4810867
  97.5556678  67.2848713  99.8829522  97.6105287  66.3322549  99.8071998
  96.7447880  67.4408152 100.3670820  98.7047871  71.2128836  91.1207805
  98.2667301  70.4964695  90.6613442  99.4458312  71.4404951  90.5592896
  95.4949038  65.9025773  97.6419901  94.6816903  66.2019943  98.0485093
  95.9908032  65.5081461  98.3594383  97.6457616  75.8983530  99.5754165
  97.6033794  76.1244376  98.6462697  98.5620314  75.6646904  99.7239966
 101.0923249  66.3667597 106.4734794 101.4472637  66.5939070 107.3329260
 101.7395381  66.6985974 105.8512050 106.8220986  69.4886033  97.1784124
 106.6838885  69.6787629  96.2505313 106.4657205  70.2505416  97.6352175
  94.9863112  63.4744128 103.2581136  95.6262492  63.3332887 102.5604099
  94.1540643  63.1878642 102.8819738 106.8490366  71.5562560 102.1895395
 107.2826873  71.4637849 103.0378449 107.5621947  71.5320060 101.5515411
  95.7623416  72.7746559  99.3716128  96.5564015  72.2796879  99.1698703
  95.0515109  72.2464422  99.0083834 100.5818261  75.1564654 103.7228496
 100.6355283  75.7255590 104.4906212  99.7133042  75.3266539 103.3582533
  92.0706180  66.9189640  95.4475881  91.1403768  66.8574096  95.6645843
  92.1663652  66.3965593  94.6512522  91.9891729  63.4444453  98.0354122
  92.2498546  64.3589786  97.9263283  92.8108901  62.9768896  98.1850735
  93.4616654  64.8582210 105.2052947  94.1339708  64.6499572 104.5565596
  92.6346441  64.6604296 104.7658179 107.7105915  71.5986261 104.7228280
 107.9041806  72.5032071 104.9687555 107.6106534  71.1393680 105.5566865
  99.3642226  61.4844151 107.2218608  98.7170141  62.1834101 107.1283084
 100.1343242  61.9180295 107.5894856 102.7721024  71.7493003 110.2969161
 102.6206531  71.5203555 109.3799245 102.7625704  72.7063605 110.3100506
  99.5406361  69.3224916 105.2815427 100.4698421  69.4736076 105.1084395
  99.1197391  69.4108937 104.4264074  98.3394692  73.3475581 103.0513965
  98.2005778  72.9794365 103.9239903  97.5509289  73.8623220 102.8797923
  98.9342844  78.4484677  94.3939502  99.1094600  77.9772720  95.2085124
  98.2475632  79.0750443  94.6220762  99.8899907  72.7257183 100.4402803
  99.5549740  72.6857953 101.3360453  99.3903853  72.0601899  99.9673213
  93.8644151  68.1324813 105.9655384  93.7263949  67.4005052 106.5666923
  94.7749075  68.0433713 105.6839572 102.8259099  70.0713218  90.7139863
 102.2088270  69.3460046  90.6172915 102.3575588  70.8322578  90.3706937
  96.4926452  67.8444773 105.4539064  97.2026071  67.2037965 105.4125682
  96.4495760  68.0957667 106.3765244 104.4813231  74.7812126 108.3745643
 104.4225777  74.0971346 107.7076226 104.8832749  75.5231116 107.9226269
  95.2055386  64.8309991 107.2734703  94.6692743  64.3800729 107.9256299
  94.6172094  64.9655899 106.5305168  93.5003930  81.5974040 101.1679362
  93.7400528  82.2292564 101.8458380  92.6573126  81.2462080 101.4544721
  94.6157645  64.2898642  89.8361167  93.7387111  64.1687443  89.4723413
  95.0915398  63.4984720  89.5840055 104.4830638  72.7451710 106.6059623
 103.5957417  72.4077632 106.7286021 105.0529189  72.0134741 106.8428388
  86.1359785  69.0775802  99.9302674  86.8230825  68.7637532  99.3423689
  85.9807914  69.9817166  99.6569925  90.9394507  63.9665998 104.3587698
  90.8552696  63.3591668 103.6238108  90.1177214  64.4575017 104.3597194
  98.0131791  77.4053162 103.5720866  97.9401963  78.2108134 104.0840170
  97.5709185  77.6045128 102.7468887  97.8021571  76.6424932  97.0823687
  97.0189093  77.1846612  97.1761912  98.5014316  77.1598912  97.4817928
 101.1118221  62.4519562  99.7257893 101.6086921  61.6989524  99.4058963
 100.3405203  62.4883878  99.1601102 108.9647979  68.1559927 101.3676184
 108.9537855  69.0384643 100.9970117 108.0965358  67.8031478 101.1730721
 100.4730475  77.3039996 105.7279024 101.1858447  77.9387461 105.6554926
  99.9820504  77.4003862 104.9119026 102.1948002  71.2091249  97.2996316
 101.2604281  71.3292711  97.1301020 102.3724670  70.3063716  97.0356326
  97.6953190  64.5936945  99.4529577  97.3250977  64.0407985 100.1410483
  98.1912282  63.9895078  98.9004577 105.5820553  67.0508568  97.8346350
 106.0481005  67.8836560  97.7606653 106.0328054  66.5853550  98.5391609
  95.5242388  75.0534440 106.5484595  96.2251848  75.6870923 106.7013989
  95.0537503  75.3949171 105.7880235 103.6496784  73.3952390  94.8332502
 103.9256628  73.2808984  95.7426376 102.7801283  72.9969874  94.7944675
 103.5537216  59.4189155 101.8737252 102.6400296  59.6493382 102.0419459
 103.9830317  59.5027599 102.7251284 103.3243674  67.6079047 104.3737146
 102.6715125  67.8554955 103.7189598 103.7024054  66.7943185 104.0399623
 100.2850848  77.6438740  98.4765316 100.4673243  76.8260396  98.9393068
 101.1083834  77.8606433  98.0390206 100.6193014  76.5706925  95.7380364
 101.1480780  76.0599380  95.1250526 100.8821233  76.2549456  96.6025897
  99.3731247  68.3498858 110.8603183  98.6971884  68.2492988 111.5305558
 100.1958881  68.1938072 111.3239180  91.1210107  74.5870795 103.4815698
  91.7063543  73.8414483 103.6143602  90.9234945  74.8974752 104.3652362
  93.9748762  77.6222042  98.4978140  93.3059137  78.1068170  98.0142180
  93.8361631  77.8691263  99.4121519  85.7127761  67.1576395 102.2020141
  85.7511861  66.6239986 102.9957259  85.2068054  66.6311601 101.5831118
  98.1154030  79.6565786 105.0960799  98.6672338  79.8197407 105.8609884
  98.4560224  80.2470224 104.4240824  93.0918524  62.0040936 105.6982683
  93.1559850  62.8655766 105.2860081  93.0285644  61.3914937 104.9655042
  92.5670796  64.0764068 109.3455718  93.1942835  63.6941145 109.9593242
  91.7098715  63.8578270 109.7111410  89.3436339  65.8840497  95.2774072
  89.6389780  64.9751176  95.2241126  88.4424375  65.8628237  94.9555075
 101.2522418  77.6047761 102.0824481 101.1273557  76.8037501 101.5735426
 101.9101509  78.0993955 101.5938451  92.8730586  63.9596494 101.2601621
  92.1517172  64.5732461 101.1209094  93.6623842  64.4954259 101.1818267
 103.3157326  75.4056781 103.7104031 102.3687662  75.2862132 103.6382358
 103.6640099  74.5179279 103.7930292  95.6756899  61.2950920 107.5342273
  96.1991301  61.5413217 108.2968582  95.4569233  62.1270955 107.1145410
  91.0724180  63.5654595  95.4013398  90.7436887  62.6851974  95.2188504
  91.4263551  63.5102264  96.2889787 100.3203759  75.2009498  99.9108383
 100.1728722  74.2726205 100.0915953 101.1457253  75.2229588  99.4265458
  94.1866004  63.8527565  95.7688875  94.5262076  64.3813486  95.0467484
  94.6338124  64.1907971  96.5447442 103.9237881  76.0238056 100.9973256
 104.8484429  75.8180918 100.8597707 103.7553185  75.7754457 101.9062597
  96.8809444  62.2364615 105.2191943  96.5406265  61.4372428 105.6212623
  96.1748451  62.5366326 104.6468777  97.5325916  59.3213928 103.6719266
  98.3551986  58.8474406 103.5498157  97.7763980  60.1004412 104.1717953
  96.1734151  62.3502186  93.9682168  96.8942513  62.7283439  93.4645885
  95.5499455  63.0691063  94.0717146 100.3165274  63.0547335  94.9040500
 100.5328888  63.9371973  94.6029329  99.8359341  62.6633549  94.1746142
  95.0564495  66.0133048 101.4811245  94.9109076  66.3273351 102.3735526
  94.5789699  66.6317949 100.9282144  96.9160878  63.0035596 101.5292135
  96.9022447  62.1076690 101.1924432  97.6333306  63.0106260 102.1630421
  98.7687009  63.4372937 103.5745262  98.5104786  64.3590007 103.5729592
  98.2372049  63.0403371 104.2645726 103.7133197  76.5423724  96.3535347
 103.8870075  75.9770146  95.6009200 104.2062089  77.3424619  96.1714837
  89.5310157  68.5538393 104.4198906  88.9863625  69.3298201 104.5519180
  90.4089507  68.9009197 104.2618028  96.3197774  61.8849977  96.7979705
  96.4413685  60.9566623  96.9970592  96.0299816  61.8988663  95.8858020
  99.1888964  59.5704887  99.9346425  99.2110661  59.6344220  98.9798404
  99.6057023  58.7309396 100.1286931 109.5672589  69.3060147  97.9725647
 110.0103735  68.5567472  97.5744770 108.6899099  69.2970283  97.5899379
 104.7008370  75.8590488  93.4532246 105.3959274  76.4797181  93.6719560
 105.0431520  75.0085839  93.7284624  90.3176179  67.6808289 107.3129063
  89.5757915  67.8290924 107.8993693  89.9968923  67.9416555 106.4495812
 106.5999793  73.3090194  94.9819576 107.1251117  73.6477466  94.2568896
 106.5122146  72.3737209  94.7982711  98.2619842  77.2224267 107.1109453
  98.5706968  76.9773414 107.9832153  99.0595324  77.4270906 106.6228323
  98.2840454  79.3762177  99.3414830  97.8445444  78.8838556 100.0347686
  99.0348571  78.8335145  99.1006905  90.7632793  75.5673718  99.3439458
  91.5890813  75.2677490  98.9638101  90.4126845  74.7981340  99.7929246
  95.7314326  74.9200186 101.4137131  95.1094335  74.2570891 101.1139359
  96.4019193  74.9461318 100.7310779  88.9641398  73.4860044 100.3028391
  88.1273306  73.0582219 100.1212393  88.9365043  73.6792488 101.2399182
  95.8038853  63.3981974 111.0069637  95.8527009  64.2744097 110.6247407
  96.3461368  62.8559367 110.4341281 106.4091574  70.7915564 107.6003503
 106.4589579  70.6265571 108.5419026 106.3005497  69.9242823 107.2101384
  95.2927833  73.4704109  94.8895592  95.4415953  74.1539574  94.2362265
  96.0994276  73.4509199  95.4045048 103.6995336  66.7746492 108.9162810
 104.6005199  66.6352957 108.6246807 103.7743311  66.9400947 109.8560987
  98.0338142  64.1513346 107.7615996  97.1641451  64.4446912 107.4898584
  98.2697622  64.7353791 108.4823260 107.9109771  73.2112505 107.8445524
 107.6194579  73.5742486 108.6808985 107.2981902  72.4979513 107.6658857
 109.1105453  70.7765385 100.3648095 109.9452345  71.2155189 100.5285655
 109.2464582  70.3004038  99.5456340 106.1596959  68.3345120 106.3125582
 106.6351081  68.5272766 105.5044434 105.2362525  68.3904306 106.0668966
  93.0480466  69.4969287  95.8956661  92.8026508  68.5931617  96.0936871
  93.2176380  69.4986437  94.9536139 100.7377176  60.3692963 105.2781416
 101.2559119  61.1053990 104.9527905 100.3832308  60.6756957 106.1128175
  92.3176113  65.2297645  93.3942822  91.6245358  65.3042000  92.7382858
  92.0727865  64.4657988  93.9164339 100.9889770  56.7893246 100.7982313
 101.2691524  56.1216435 101.4242739 101.7740377  56.9822342 100.2856977
  98.7923238  75.9652240  92.3607339  98.2197205  76.5842427  91.9077811
  99.3656032  76.5151601  92.8947261 104.8598628  65.2110880 104.5453888
 105.8116051  65.3108978 104.5666112 104.6902079  64.4189148 105.0551972
 102.8813008  62.2966463 104.7313289 102.2862940  62.5771476 104.0359778
 102.5962704  62.7860364 105.5030030 102.0120498  76.2489390  93.4915922
 102.9451171  76.1834952  93.6948797 101.9243711  77.0845657  93.0330454
 104.6408515  75.5655260  90.4519869 104.5622146  75.2315124  91.3455627
 105.4618182  76.0577028  90.4511341 107.3386706  68.4317000 103.6596188
 107.3063026  67.4933000 103.8455872 107.9487330  68.5101036 102.9262013
  99.1770037  67.3013053  89.7023392 100.1229142  67.1719261  89.7711810
  98.7984282  66.5627714  90.1792820 107.4881194  65.2228043 103.7054471
 106.9720243  64.4386500 103.5184400 108.3721143  64.8946760 103.8700990
 105.1491921  58.9669059  99.6650284 104.9516742  58.6584147 100.5493616
 105.7591627  59.6930697  99.7948213 113.1563256  69.4933006 102.8002224
 113.8866644  69.2318295 103.3609928 112.5470201  68.7561728 102.8404292
 111.2378553  67.6340869 103.3976676 110.5111716  67.4996834 102.7893167
 110.8225840  67.9417698 104.2033394  99.0608729  71.3530799 111.1624049
  99.9811739  71.5309398 111.3564095  99.0258312  70.4086844 111.0103748
  97.3612954  65.2263029  89.6378277  96.4544409  64.9296142  89.7140991
  97.6388935  64.9292847  88.7712563  88.2790894  66.5469392 100.0877323
  87.9593679  65.6934701  99.7951697  87.7324323  66.7617970 100.8435291
  92.0570802  69.2631833 103.8046830  92.2756812  70.1948941 103.8234864
  92.4696576  68.9039808 104.5901634  98.9775020  59.7699919  95.7922518
  98.1675748  59.4247004  96.1677764  99.6659437  59.4607462  96.3810130
 100.9065568  58.8477965  97.4146815 101.4596607  59.2673419  98.0736838
 101.1435654  57.9213714  97.4569771  96.9298667  64.8365039 113.1949579
  96.8295394  65.7859396 113.1261670  96.7120209  64.5083278 112.3225649
  96.1311739  62.0849964  89.7790256  96.9930903  62.4104862  90.0386073
  96.3162083  61.2981460  89.2663322  88.1479154  70.1672304 102.0570445
  87.4542626  69.7526257 101.5440399  88.8952145  70.2092840 101.4603864
 104.2844375  60.9578491  96.9225479 103.7043044  61.6163295  96.5403532
 104.0180308  60.1355835  96.5112897 102.7347941  60.3583548  99.1246799
 103.2347720  60.4700083  98.3161118 103.3783549  60.0544601  99.7647608
  96.7929937  68.2662178 112.0114640  96.3097019  69.0662538 112.2178529
  96.8790876  68.2770123 111.0582084  90.0615897  70.0990558  99.9336460
  90.0386585  70.1978245  98.9818343  90.3716533  70.9455708 100.2553626
  92.7203275  72.1566713 104.0483074  93.6746528  72.1250655 103.9813006
  92.5215798  71.6957336 104.8633300  93.3102657  70.7267829 106.6153872
  94.1295546  71.2211907 106.6388709  93.5839465  69.8099797 106.5871439
 103.0669253  63.1178581  95.9781827 102.1795108  63.4028232  95.7602022
 103.4823242  62.9572344  95.1309104 106.4183789  63.1425102  99.6936167
 107.1944179  63.6321554  99.9660783 105.6931923  63.5683156 100.1508036
 108.8556348  63.8552721 100.7510107 109.4500839  63.6148457 100.0403416
 108.9282932  63.1359852 101.3783644  91.0753504  77.6986332 101.0653272
  90.9407971  76.9386733 100.4991270  90.6585566  78.4227232 100.5982061
 102.2112467  72.8823256  90.0729847 102.9148317  73.0873258  90.6887503
 101.4875115  73.4500018  90.3378931 103.0410277  68.6333117  96.1932118
 102.9845478  69.0901668  95.3539750 103.5938619  67.8723802  96.0154960
 106.8515083  64.4222849  97.0182237 106.5952017  64.0219484  97.8490445
 106.2267951  65.1366643  96.8932376 111.1627421  67.1618922  99.5253528
 110.6026979  67.2312111 100.2985091 110.5570924  66.9859907  98.8053025
  94.2322629  78.5955649 101.2771715  94.1155014  79.5401082 101.1750405
  93.4115076  78.2929211 101.6657514 104.1199164  73.3205785  92.1228307
 104.9544768  72.8886983  91.9405782 103.9583507  73.1487799  93.0505202
 103.7745056  69.8237898  93.4884647 103.7193860  69.6582170  92.5473091
 103.1491111  70.5313931  93.6446836  88.5637571  65.0605963 107.3146069
  89.2096435  64.5504917 107.8033294  88.3554722  65.7974644 107.8889494
  97.0841182  59.3246007  93.0669965  97.0719851  60.2687847  93.2238236
  97.9764603  59.1416153  92.7729426  95.2577144  79.2483911 104.4927643
  96.1604390  79.2807521 104.8094138  95.0314514  78.3184362 104.5073979
  97.0130746  78.0014898 101.1537722  96.0626377  78.0016759 101.0402094
  97.3163232  77.2547632 100.6373756 100.8993301  55.9188784  97.3215902
 100.1325697  55.3647271  97.4672584 101.3104006  55.9910653  98.1830054
  92.9035062  62.2073580 111.4121083  93.7666524  61.8510384 111.6224408
  92.3300473  61.8687474 112.0996487 105.4159961  85.6438341  98.1441900
 104.8524826  85.5528277  97.3758188 105.3012356  84.8238245  98.6244392
 102.9624393  87.1389532 100.9826120 103.7545685  86.7980357 100.5672420
 103.2021043  87.2484507 101.9028274 110.9959520  89.3109308  93.4556365
 110.3447499  89.8963389  93.0690379 111.7903883  89.8415503  93.5151402
 104.9215147  86.3998445  93.8543499 105.6946023  85.8527432  93.7156375
 105.2740546  87.2642695  94.0657960 107.2581425  82.5591111  91.4861949
 107.5106945  82.0372633  90.7245412 106.3205984  82.3957257  91.5888633
 112.3024708  81.5626890  99.2936692 113.0887797  81.1446313  98.9427109
 112.5663412  82.4672982  99.4618341 112.4734785  86.9999740  93.9925349
 111.8380618  87.0734367  94.7046254 112.1432191  87.5893339  93.3144428
 106.9777713  84.4619217  93.6886324 106.8613972  83.7864121  94.3567408
 107.0879973  83.9751591  92.8718477 109.3209254  83.9229365  97.3933013
 108.9567462  83.3959986  98.1045935 110.1776370  83.5327834  97.2199499
 108.9614741  78.9519264  92.3894362 109.1289144  79.8199501  92.7564833
 108.7711910  79.1146546  91.4655651 105.1702556  83.8650040 100.0896897
 104.2453052  83.7326254 100.2974588 105.4186969  84.6444259 100.5866839
 108.9403962  81.4076922  93.3741029 108.8203587  81.8533972  94.2126509
 108.2456551  81.7562239  92.8154567 102.5311367  83.5083314 100.9240686
 102.6603748  83.7617792 101.8380097 101.8508818  84.1011022 100.6045341
 114.6389028  81.8798395  94.2021363 115.5506884  82.1125782  94.0269060
 114.1298675  82.4635439  93.6396441 111.9825003  78.0556431 102.4511223
 111.1209482  78.3537684 102.7427961 112.0087438  78.2726830 101.5192256
 108.7986573  86.5998621  98.8585029 109.2624918  86.8786324  98.0689652
 108.5343371  85.6982066  98.6758120 107.7355459  82.7221774  95.6674594
 108.4379502  83.1742817  96.1348521 107.4036087  82.0805593  96.2954487
 101.4780793  80.9805326 100.9691728 100.6879847  81.2362855 100.4931838
 101.9692040  81.7953664 101.0743768 103.4295538  81.3449906  97.9275205
 102.6326701  81.4568600  98.4458700 103.2021130  81.6836558  97.0616095
  99.7618496  81.2335817 103.4006719 100.0126534  82.1182827 103.6664295
 100.2978044  81.0540418 102.6281810 108.9749223  89.5362716  95.7436699
 108.8394898  90.3814252  96.1721547 109.5159036  89.7381994  94.9802633
 102.4278621  87.0538154  96.3164625 102.9403141  87.8481405  96.4670189
 103.0801333  86.3564445  96.2498226 104.2373505  90.1703911  98.3987378
 104.4140134  91.0921875  98.2108362 105.0330339  89.8562330  98.8281758
 112.3241687  73.0593278 104.2735593 111.9805956  73.9494920 104.1974704
 112.6920649  72.8694936 103.4105178 100.3927537  85.3826809  97.0924195
 101.2302759  85.7923817  96.8757903 100.5705805  84.4426251  97.0624389
 112.2891970  83.0501889  92.7808028 111.7738593  83.8206494  93.0196415
 112.0169278  82.3767026  93.4041090 109.8739081  77.8951590  97.8393266
 109.0180677  77.5058441  97.6598905 110.2866032  77.9743551  96.9793052
 111.4038227  75.4297933 102.2384826 110.9003023  75.3928069 101.4252632
 111.6968834  76.3390676 102.2981483 107.6481113  75.5136663 101.2451008
 108.5134110  75.3179472 100.8856897 107.7158622  75.2847015 102.1720365
 117.2626244  85.8034244  94.7161202 116.4855686  85.4645404  94.2716364
 117.9417725  85.8086867  94.0416167 112.0778273  80.9228982  94.6067809
 111.7728408  81.2375131  95.4577952 113.0308715  81.0010401  94.6495142
 110.5224705  87.0819205  96.2560763 109.9946066  86.3471964  95.9434001
 110.0212207  87.8593881  96.0100732 105.2543432  77.7438871  98.6167375
 105.8287184  77.5214053  97.8840568 105.8414415  77.8127566  99.3695976
 105.5813019  79.7743332  92.6363260 104.7450332  80.1118019  92.9572535
 105.4417789  79.6392312  91.6990397 107.5566100  74.6180120  97.3442444
 106.9030512  74.3029137  96.7199059 107.5146574  73.9955860  98.0702267
 108.6677305  84.8999415  89.2595736 107.7604366  84.6688669  89.4586885
 109.1648337  84.1037034  89.4469718 111.5745384  93.6096922  92.1792422
 110.9007082  93.9128619  92.7877380 111.9611206  94.4126003  91.8297879
 110.7903840  81.1062054 101.6690092 109.8726402  81.3277001 101.5111780
 111.2063984  81.1808364 100.8101799 111.5738888  82.5053469  96.7992772
 112.3210707  83.0174866  96.4899894 111.8430478  82.1837522  97.6597166
 109.8465538  85.0012010  93.7819726 108.9376757  84.7171043  93.8792196
 109.8760622  85.4211089  92.9223033 114.0217725  79.5410586  98.7811561
 113.2840482  79.0287972  99.1121804 114.2744499  79.1010967  97.9694838
 114.1229352  72.3186838  99.3753331 114.4288229  71.4584201  99.0879246
 114.8481957  72.9104458  99.1752325 100.4153709  82.7217524  97.7634929
 100.2178108  82.1286885  97.0385995  99.8600373  82.4169734  98.4810867
 108.3950432  82.6140631  99.8829522 108.4499042  81.6614467  99.8071998
 107.5841634  82.7700070 100.3670820 109.5441626  86.5420754  91.1207805
 109.1061056  85.8256613  90.6613442 110.2852067  86.7696868  90.5592896
 106.3342792  81.2317690  97.6419901 105.5210658  81.5311861  98.0485093
 106.8301786  80.8373379  98.3594383 117.6614741  84.8177951  97.1784124
 117.5232639  85.0079547  96.2505313 117.3050960  85.5797333  97.6352175
 105.8256867  78.8036046 103.2581136 106.4656246  78.6624805 102.5604099
 104.9934397  78.5170559 102.8819738 106.6017171  88.1038476  99.3716128
 107.3957769  87.6088796  99.1698703 105.8908863  87.5756339  99.0083834
 102.9099934  82.2481558  95.4475881 101.9797522  82.1866013  95.6645843
 103.0057406  81.7257511  94.6512522 102.8285483  78.7736371  98.0354122
 103.0892301  79.6881704  97.9263283 103.6502656  78.3060813  98.1850735
 104.3010409  80.1874128 105.2052947 104.9733462  79.9791490 104.5565596
 103.4740195  79.9896214 104.7658179 109.7736599  93.7776595  94.3939502
 109.9488354  93.3064638  95.2085124 109.0869387  94.4042361  94.6220762
 113.6652854  85.4005135  90.7139863 113.0482024  84.6751963  90.6172915
 113.1969342  86.1614496  90.3706937 105.4551399  79.6190560  89.8361167
 104.5780866  79.4979360  89.4723413 105.9309153  78.8276638  89.5840055
  96.9753540  84.4067719  99.9302674  97.6624579  84.0929449  99.3423689
  96.8201668  85.3109084  99.6569925 101.7788262  79.2957916 104.3587698
 101.6946450  78.6883585 103.6238108 100.9570968  79.7866934 104.3597194
 111.9511976  77.7811479  99.7257893 112.4480675  77.0281442  99.4058963
 111.1798957  77.8175796  99.1601102 113.0341756  86.5383167  97.2996316
 112.0998035  86.6584629  97.1301020 113.2118425  85.6355633  97.0356326
 108.5346944  79.9228862  99.4529577 108.1644732  79.3699903 100.1410483
 109.0306037  79.3186996  98.9004577 116.4214308  82.3800486  97.8346350
 116.8874760  83.2128478  97.7606653 116.8721808  81.9145467  98.5391609
 114.4890539  88.7244307  94.8332502 114.7650383  88.6100902  95.7426376
 113.6195038  88.3261792  94.7944675 114.3930970  74.7481073 101.8737252
 113.4794050  74.9785300 102.0419459 114.8224072  74.8319517 102.7251284
 111.4586768  91.8998843  95.7380364 111.9874535  91.3891298  95.1250526
 111.7214988  91.5841373  96.6025897  96.5521516  82.4868313 102.2020141
  96.5905615  81.9531903 102.9957259  96.0461809  81.9603518 101.5831118
 103.9312278  77.3332853 105.6982683 103.9953605  78.1947684 105.2860081
 103.8679398  76.7206855 104.9655042 100.1830093  81.2132415  95.2774072
 100.4783534  80.3043093  95.2241126  99.2818129  81.1920154  94.9555075
 103.7124340  79.2888411 101.2601621 102.9910926  79.9024379 101.1209094
 104.5017596  79.8246176 101.1818267 101.9117935  78.8946512  95.4013398
 101.5830641  78.0143891  95.2188504 102.2657306  78.8394181  96.2889787
 105.0259758  79.1819482  95.7688875 105.3655831  79.7105404  95.0467484
 105.4731879  79.5199888  96.5447442 107.7203199  77.5656533 105.2191943
 107.3800019  76.7664346 105.6212623 107.0142205  77.8658244 104.6468777
 108.3719671  74.6505845 103.6719266 109.1945740  74.1766324 103.5498157
 108.6157734  75.4296329 104.1717953 107.0127905  77.6794104  93.9682168
 107.7336268  78.0575357  93.4645885 106.3893209  78.3982981  94.0717146
 111.1559028  78.3839253  94.9040500 111.3722642  79.2663891  94.6029329
 110.6753095  77.9925466  94.1746142 105.8958249  81.3424966 101.4811245
 105.7502830  81.6565269 102.3735526 105.4183453  81.9609866 100.9282144
 107.7554632  78.3327514 101.5292135 107.7416201  77.4368607 101.1924432
 108.4727060  78.3398178 102.1630421 109.6080763  78.7664854 103.5745262
 109.3498541  79.6881925 103.5729592 109.0765803  78.3695289 104.2645726
 100.3703912  83.8830310 104.4198906  99.8257380  84.6590118 104.5519180
 101.2483262  84.2301115 104.2618028 107.1591528  77.2141894  96.7979705
 107.2807439  76.2858541  96.9970592 106.8693571  77.2280580  95.8858020
 110.0282719  74.8996805  99.9346425 110.0504416  74.9636138  98.9798404
 110.4450778  74.0601313 100.1286931 115.5402124  91.1882406  93.4532246
 116.2353029  91.8089098  93.6719560 115.8825274  90.3377757  93.7284624
 117.4393547  88.6382111  94.9819576 117.9644872  88.9769384  94.2568896
 117.3515900  87.7029127  94.7982711 101.6026547  90.8965635  99.3439458
 102.4284567  90.5969407  98.9638101 101.2520599  90.1273258  99.7929246
  99.8035152  88.8151962 100.3028391  98.9667061  88.3874136 100.1212393
  99.7758798  89.0084405 101.2399182 106.1321587  88.7996027  94.8895592
 106.2809708  89.4831491  94.2362265 106.9388031  88.7801117  95.4045048
 103.8874220  84.8261205  95.8956661 103.6420262  83.9223535  96.0936871
 104.0570135  84.8278355  94.9536139 103.1569868  80.5589562  93.3942822
 102.4639113  80.6333917  92.7382858 102.9121620  79.7949906  93.9164339
 111.8283524  72.1185164 100.7982313 112.1085278  71.4508353 101.4242739
 112.6134131  72.3114259 100.2856977 109.6316993  91.2944157  92.3607339
 109.0590960  91.9134345  91.9077811 110.2049786  91.8443519  92.8947261
 112.8514253  91.5781308  93.4915922 113.7844926  91.5126869  93.6948797
 112.7637465  92.4137574  93.0330454 115.4802269  90.8947178  90.4519869
 115.4015901  90.5607042  91.3455627 116.3011936  91.3868946  90.4511341
 110.0163791  82.6304970  89.7023392 110.9622896  82.5011178  89.7711810
 109.6378036  81.8919632  90.1792820 115.9885676  74.2960976  99.6650284
 115.7910497  73.9876064 100.5493616 116.5985381  75.0222615  99.7948213
 108.2006708  80.5554947  89.6378277 107.2938164  80.2588059  89.7140991
 108.4782689  80.2584765  88.7712563  99.1184649  81.8761310 100.0877323
  98.7987433  81.0226618  99.7951697  98.5718077  82.0909888 100.8435291
 109.8168774  75.0991836  95.7922518 109.0069502  74.7538921  96.1677764
 110.5053191  74.7899380  96.3810130 111.7459322  74.1769883  97.4146815
 112.2990361  74.5965337  98.0736838 111.9829409  73.2505631  97.4569771
 106.9705493  77.4141882  89.7790256 107.8324657  77.7396780  90.0386073
 107.1555837  76.6273378  89.2663322  98.9872909  85.4964222 102.0570445
  98.2936380  85.0818174 101.5440399  99.7345900  85.5384758 101.4603864
 115.1238130  76.2870408  96.9225479 114.5436799  76.9455212  96.5403532
 114.8574062  75.4647753  96.5112897 113.5741696  75.6875466  99.1246799
 114.0741474  75.7992001  98.3161118 114.2177304  75.3836519  99.7647608
 100.9009651  85.4282475  99.9336460 100.8780339  85.5270163  98.9818343
 101.2110288  86.2747626 100.2553626 113.9063008  78.4470499  95.9781827
 113.0188863  78.7320149  95.7602022 114.3216997  78.2864262  95.1309104
 117.2577544  78.4717020  99.6936167 118.0337934  78.9613472  99.9660783
 116.5325678  78.8975074 100.1508036 113.0506221  88.2115173  90.0729847
 113.7542071  88.4165176  90.6887503 112.3268870  88.7791935  90.3378931
 113.8804031  83.9625035  96.1932118 113.8239233  84.4193586  95.3539750
 114.4332374  83.2015719  96.0154960 117.6908837  79.7514766  97.0182237
 117.4345771  79.3511402  97.8490445 117.0661705  80.4658560  96.8932376
 114.9592918  88.6497703  92.1228307 115.7938522  88.2178901  91.9405782
 114.7977261  88.4779716  93.0505202 114.6138811  85.1529816  93.4884647
 114.5587614  84.9874087  92.5473091 113.9884866  85.8605849  93.6446836
  99.4031326  80.3897880 107.3146069 100.0490189  79.8796834 107.8033294
  99.1948477  81.1266562 107.8889494 107.9234936  74.6537925  93.0669965
 107.9113606  75.5979765  93.2238236 108.8158358  74.4708070  92.7729426
 111.7387056  71.2480701  97.3215902 110.9719451  70.6939188  97.4672584
 112.1497760  71.3202570  98.1830054 116.4206774  95.1035250  92.6363260
 115.5844086  95.4409936  92.9572535 116.2811543  94.9684230  91.6990397
 116.2945154  94.9482477  89.8361167 115.4174620  94.8271278  89.4723413
 116.7702907  94.1568556  89.5840055 113.9963622  95.8881480  93.3942822
 113.3032867  95.9625835  92.7382858 113.7515374  95.1241824  93.9164339
 119.0400463  95.8846864  89.6378277 118.1331918  95.5879977  89.7140991
 119.3176444  95.5876682  88.7712563 117.8099248  92.7433800  89.7790256
 118.6718412  93.0688698  90.0386073 117.9949592  91.9565295  89.2663322
 118.7628691  89.9829843  93.0669965 118.7507360  90.9271682  93.2238236
 119.6552112  89.7999988  92.7729426  52.5042083  -5.4616902  83.7476466
  52.4266113  -4.5109077  83.8264947  51.9003727  -5.8071030  84.4051393
  50.1428913  -2.7131508  87.8924668  50.3825511  -2.0812984  88.5703687
  49.2998109  -3.0643468  88.1790028  50.6173745  -6.6883506  85.2223447
  49.9484120  -6.2037378  84.7387487  50.4786615  -6.4414285  86.1366825
  54.7579014  -4.6539762  91.8206105  55.3097322  -4.4908141  92.5855191
  55.0985207  -4.0635325  91.1486130  47.7178487  -6.6119216  87.7898579
  47.5832955  -7.3718815  87.2236577  47.3010549  -5.8878316  87.3227368
  50.8747613  -5.7149899  88.0017021  50.7579997  -4.7704466  87.8995712
  50.0540059  -6.0176337  88.3902821  51.9002127  -5.0621637  91.2172950
  52.8029374  -5.0298027  91.5339445  51.6739497  -5.9921186  91.2319286
  66.1998129  -0.5202684  88.8790316  65.8616640  -0.6361619  87.9910850
  67.0687897  -0.9211519  88.8591322  62.0584944   1.3332792  84.8687206
  61.4949809   1.2422729  84.1003494  61.9437339   0.5132697  85.3489699
  66.6817912   0.6332168  94.8376521  66.6706552   0.2384966  93.9657025
  66.8438551  -0.1001760  95.4310293  59.6049376   2.8283984  87.7071427
  60.3970668   2.4874809  87.2917726  59.8446026   2.9378959  88.6273580
  67.6384503   5.0003760  80.1801671  66.9872483   5.5857841  79.7935685
  68.4328866   5.5309955  80.2396709  61.5640130   2.0892897  80.5788806
  62.3371006   1.5421884  80.4401682  61.9165529   2.9537147  80.7903267
  63.4025173   3.4169280  93.7855705  63.1115039   4.3214910  93.6702371
  64.0382157   3.4585807  94.4999775  64.3281380   0.7946128  90.3757065
  64.9244952   0.5702150  89.6614028  64.3856351   0.0530874  90.9782513
  69.1159768   2.6894192  80.7170656  68.4805601   2.7628819  81.4291560
  68.7857175   3.2787791  80.0389735  63.6202697   0.1513669  80.4131631
  63.5038955  -0.5241427  81.0812715  63.7304957  -0.3353957  79.5963784
  65.9634238  -0.3876184  84.1178320  65.5992445  -0.9145563  84.8291241
  66.8201354  -0.7777715  83.9444805  68.3615058   3.1030695  90.7805499
  68.0615781   4.0055734  90.6721306  68.0166117   2.8362878  91.6326652
  61.8127539  -0.4455508  86.8142203  60.8878036  -0.5779294  87.0219895
  62.0611953   0.3338711  87.3112146  59.1736350  -0.8022235  87.6485992
  59.3028732  -0.5487756  88.5625404  58.4933802  -0.2094527  87.3290647
  63.3435838   9.8675015  83.7476466  63.2659867  10.8182840  83.8264947
  62.7397481   9.5220888  84.4051393  64.0899440  -0.1511666  95.9655800
  64.8314124   0.3873378  95.6890624  63.3836425   0.4754623  96.1227352
  69.5654779   1.9917475  94.5627962  69.9738135   1.5499885  93.8182594
  68.8432041   1.4170102  94.8162155  69.8883594   2.5518665  88.3180251
  69.2592456   2.7164379  87.6156319  69.5009256   2.9660275  89.0891215
  73.7672826   3.4873103  85.6724614  73.0823864   3.8672004  85.1221648
  73.8516675   4.0968430  86.4056562  71.0223757   1.1333062  92.2719958
  71.2340653   1.7764822  91.5954339  70.9753506   0.2995379  91.8041888
  65.4411556   2.2893073  85.5830336  65.9049901   2.5680776  84.7934958
  65.1768354   1.3876518  85.4003426  62.3335637   1.8364555  88.5210099
  62.9036994   2.2651823  87.8827584  62.9243749   1.5547140  89.2194285
  58.1205776  -3.3300222  87.6937034  57.3304830  -3.0742693  87.2177145
  58.6117023  -2.5151884  87.7989075  72.1369585   4.0105018  90.4442315
  72.9587029   3.6085205  90.1624997  72.1331988   3.9073252  91.3958431
  60.0720521  -2.9655642  84.6520511  59.2751685  -2.8536948  85.1704007
  59.8446113  -2.6268990  83.7861402  65.9026189   3.5589061  92.6003026
  65.9670621   4.0209468  93.4361198  65.1937113   2.9286426  92.7285336
  56.4043479  -3.0769731  90.1252025  56.6551517  -2.1922721  90.3909601
  56.9403027  -3.2565130  89.3527117  65.6174207   5.2257168  82.4682006
  65.4819881   6.0708704  82.8966854  66.1584019   5.4276446  81.7047940
  59.0703604   2.7432606  83.0409931  59.5828124   3.5375857  83.1915496
  59.7226317   2.0458897  82.9743533  60.8798489   5.8598363  85.1232684
  61.0565117   6.7816327  84.9353668  61.6755322   5.5456782  85.5527064
  60.1650845  -2.0937005  94.9994848  60.0504360  -2.9951748  95.3001947
  59.3095363  -1.8473309  94.6479664  67.2442683   5.8480735  96.5982348
  66.8006537   5.0617113  96.2803253  67.9059896   6.0359885  95.9326239
  62.0029804   7.3776536  91.1243027  62.5537229   7.2493600  90.3520021
  61.1641280   7.6771425  90.7737920  69.3423921   6.1283535  94.6263750
  69.3242396   6.9492416  94.1344019  70.2643841   6.0037610  94.8513891
  65.7996975   3.6427664  95.4687258  66.3325312   2.8815952  95.2386566
  65.2711056   3.3501316  96.2111412  57.0352521   1.0721261  83.8169502
  57.8727743   1.4818269  83.6003209  57.2130788   0.1320703  83.7869696
  67.1649688   2.7713657  82.9806070  66.6371049   2.0366416  82.6679307
  66.6637191   3.5488333  82.7346038  72.1442534   0.9662677  88.0973116
  71.4866208   1.6561939  88.1853245  72.9482933   1.3559109  88.4407103
  65.3102288   0.5893867  75.9841043  64.4029350   0.3583120  76.1832192
  65.8073320  -0.2068514  76.1715024  68.2170367   9.2991374  78.9037729
  67.5432066   9.6023071  79.5122687  68.6036189  10.1020455  78.5543186
  66.4890521   0.6906462  80.5065033  65.5801741   0.4065495  80.6037503
  66.5185605   1.1105540  79.6468340  71.7209789   4.3013051  84.2756201
  71.2672116   3.4603961  84.3321391  71.0903756   4.9374450  84.6130981
  70.1642728   6.1389548  85.2106019  70.4565702   6.6994605  84.4918384
  70.6741349   6.4318109  85.9659178  57.0578692  -1.5888024  84.4880235
  56.8603092  -2.1818663  83.7631302  56.5025356  -1.8935814  85.2056174
  66.1866609   2.2315206  77.8453112  65.7486039   1.5151064  77.3858749
  66.9277050   2.4591320  77.2838203  65.1276353   6.9169899  86.2999472
  65.0852532   7.1430745  85.3708004  66.0439052   6.6833274  86.4485273
  74.3309104   2.5748930  88.9140702  74.7645610   2.4824219  89.7623756
  75.0440684   2.5506430  88.2760718  63.2442154   3.7932928  86.0961435
  64.0382753   3.2983248  85.8944010  62.5333846   3.2650791  85.7329140
  68.0636999   6.1751024  90.4473802  68.1174021   6.7441960  91.2151518
  67.1951780   6.3452909  90.0827839  59.5524918  -2.0623990  82.1721187
  58.6222506  -2.1239535  82.3891149  59.6482390  -2.5848037  81.3757829
  75.1924653   2.6172630  91.4473587  75.3860543   3.5218441  91.6932862
  75.0925271   2.1580049  92.2812172  70.2539762   2.7679373  97.0214468
  70.1025268   2.5389925  96.1044551  70.2444441   3.7249974  97.0345813
  67.0225098   0.3411286  92.0060734  67.9517158   0.4922445  91.8329701
  66.6016128   0.4295307  91.1509381  65.8213430   4.3661950  89.7759272
  65.6824516   3.9980735  90.6485210  65.0328026   4.8809590  89.6043230
  66.4161582   9.4671047  81.1184808  66.5913338   8.9959090  81.9330431
  65.7294370  10.0936813  81.3466069  67.3718645   3.7443553  87.1648110
  67.0368478   3.7044323  88.0605759  66.8722591   3.0788269  86.6918520
  61.3462889  -0.8488817  92.6900691  61.2082687  -1.5808578  93.2912230
  62.2567813  -0.9379917  92.4084878  70.3077837   1.0899587  77.4385169
  69.6907008   0.3646415  77.3418222  69.8394325   1.8508947  77.0952243
  63.9745190  -1.1368858  92.1784370  64.6844808  -1.7775666  92.1370989
  63.9314498  -0.8855963  93.1010551  71.9631969   5.7998496  95.0990950
  71.9044515   5.1157716  94.4321533  72.3651487   6.5417486  94.6471576
  60.9822667  12.6160409  87.8924668  61.2219266  13.2478934  88.5703687
  60.1391864  12.2648449  88.1790028  71.9649376   3.7638079  93.3304929
  71.0776155   3.4264001  93.4531328  72.5347927   3.0321111  93.5673695
  53.6178523   0.0962171  86.6547981  54.3049563  -0.2176099  86.0668996
  53.4626652   1.0003536  86.3815232  65.4950529   8.4239532  90.2966172
  65.4220701   9.2294503  90.8085477  65.0527922   8.6231498  89.4714194
  65.2840309   7.6611302  83.8068994  64.5007831   8.2032982  83.9007218
  65.9833054   8.1785281  84.2063235  67.9549213   8.3226366  92.4524331
  68.6677185   8.9573831  92.3800233  67.4639241   8.4190232  91.6364333
  69.6766740   2.2277619  84.0241623  68.7423018   2.3479081  83.8546327
  69.8543408   1.3250085  83.7601633  63.0061126   6.0720809  93.2729902
  63.7070586   6.7057292  93.4259296  62.5356241   6.4135541  92.5125541
  71.1315522   4.4138759  81.5577809  71.4075366   4.2995354  82.4671683
  70.2620021   4.0156244  81.5189982  67.7669586   8.6625110  85.2010623
  67.9491981   7.8446766  85.6638375  68.5902572   8.8792802  84.7635513
  68.1011752   7.5893295  82.4625671  68.6299518   7.0785750  81.8495833
  68.3639971   7.2735825  83.3271204  66.8549985  -0.6314772  97.5848489
  66.1790622  -0.7320643  98.2550865  67.6777619  -0.7875558  98.0484487
  58.6028844   5.6057164  90.2061005  59.1882281   4.8600852  90.3388909
  58.4053683   5.9161121  91.0897668  61.4567500   8.6408412  85.2223447
  60.7877875   9.1254539  84.7387487  61.3180369   8.8877632  86.1366825
  53.1946499  -1.8237235  88.9265448  53.2330599  -2.3573645  89.7202566
  52.6886792  -2.3502030  88.3076425  65.5972768  10.6752155  91.8206105
  66.1491076  10.8383777  92.5855191  65.9378962  11.2656593  91.1486130
  70.4483642   5.5013413  97.6754760  70.9923546   6.1143371  97.1809715
  69.8670487   6.0592991  98.1921773  56.8255077  -3.0973133  82.0019379
  57.1208518  -4.0062455  81.9486433  55.9243112  -3.1185394  81.6800381
  68.7341155   8.6234131  88.8069788  68.6092295   7.8223871  88.2980733
  69.3920247   9.1180324  88.3183757  70.7976064   6.4243151  90.4349338
  69.8506399   6.3048502  90.3627664  71.1458837   5.5365649  90.5175599
  67.8022497   6.2195867  86.6353690  67.6547460   5.2912575  86.8161260
  68.6275991   6.2415958  86.1510765  71.4056619   7.0424426  87.7218563
  72.3303166   6.8367287  87.5843014  71.2371922   6.7940827  88.6307904
  71.1951935   7.5610093  83.0780654  71.3688813   6.9956516  82.3254506
  71.6880826   8.3610988  82.8960144  57.0128895  -0.4275238  91.1444213
  56.4682363   0.3484570  91.2764487  57.8908245  -0.0804433  90.9863334
  72.1827108   6.8776858  80.1777552  72.8778012   7.4983550  80.3964867
  72.5250258   6.0272209  80.4529930  57.7994917  -1.3005341  94.0374370
  57.0576653  -1.1522706  94.6239000  57.4787661  -1.0397076  93.1741119
  74.0818531   4.3276563  81.7064883  74.6069855   4.6663836  80.9814203
  73.9940883   3.3923579  81.5228018  65.7438579   8.2410637  93.8354760
  66.0525706   7.9959784  94.7077459  66.5414061   8.4457275  93.3473630
  65.7659191  10.3948546  86.0660136  65.3264182   9.9024925  86.7592993
  66.5167308   9.8521514  85.8252211  58.2451530   6.5860087  86.0684764
  59.0709550   6.2863859  85.6883408  57.8945582   5.8167710  86.5174553
  63.2133064   5.9386556  88.1382438  62.5913073   5.2757261  87.8384666
  63.8837931   5.9647687  87.4556086  56.4460136   4.5046414  87.0273698
  55.6092044   4.0768588  86.8457699  56.4183781   4.6978857  87.9644489
  73.7712437   4.9609467  97.0116081  72.9807981   4.9433606  96.4720580
  73.5345791   5.4997761  97.7665118  62.7746571   4.4890479  81.6140898
  62.9234691   5.1725943  80.9607571  63.5813014   4.4695569  82.1290354
  75.3928509   4.2298875  94.5690831  75.1013317   4.5928855  95.4054292
  74.7800640   3.5165883  94.3904163  60.5299204   0.5155657  82.6201967
  60.2845245  -0.3882013  82.8182178  60.6995118   0.5172807  81.6781445
  66.2741976   6.9838609  79.0852646  65.7015943   7.6028796  78.6323118
  66.8474770   7.5337971  79.6192568  69.4939236   7.2675759  80.2161228
  70.4269909   7.2021321  80.4194104  69.4062449   8.1032026  79.7575761
  72.1227253   6.5841630  77.1765176  72.0440884   6.2501493  78.0700934
  72.9436919   7.0763398  77.1756648  66.5427467   2.3717168  97.8869355
  67.4630477   2.5495767  98.0809402  66.5077050   1.4273214  97.7349055
  55.7609632  -2.4344238  86.8122630  55.4412416  -3.2878930  86.5197004
  55.2143060  -2.2195660  87.5680597  59.5389540   0.2818203  90.5292137
  59.7575549   1.2135311  90.5480170  59.9515313  -0.0773823  91.3146940
  55.6297892   1.1858673  88.7815752  54.9361364   0.7712626  88.2685706
  56.3770883   1.2279210  88.1849170  64.2748675  -0.7151452  98.7359947
  63.7915757   0.0848908  98.9423836  64.3609614  -0.7043508  97.7827391
  57.5434635   1.1176927  86.6581766  57.5205323   1.2164614  85.7063650
  57.8535271   1.9642078  86.9798933  60.2022013   3.1753082  90.7728381
  61.1565266   3.1437025  90.7058312  60.0034536   2.7143706  91.5878607
  60.7921395   1.7454198  93.3399179  61.6114284   2.2398277  93.3634016
  61.0658202   0.8286166  93.3116746  58.5572241   8.7172702  87.7898579
  58.4226709   7.9573103  87.2236577  58.1404304   9.4413602  87.3227368
  69.6931204   3.9009625  76.7975154  70.3967054   4.1059628  77.4132810
  68.9693853   4.4686387  77.0624238  61.7141367   9.6142019  88.0017021
  61.5973751  10.5587451  87.8995712  60.8933813   9.3115580  88.3902821
  71.6017902   4.3392154  78.8473614  72.4363506   3.9073353  78.6651089
  71.4402245   4.1674168  79.7750509  71.2563794   0.8424268  80.2129953
  71.2012598   0.6768539  79.2718398  70.6309849   1.5500301  80.3692143
  56.0456309  -3.9207668  94.0391376  56.6915172  -4.4308714  94.5278601
  55.8373460  -3.1838986  94.6134801  68.5709701   3.1473180  99.5383516
  69.4400861   3.3213832  99.1770151  68.0916453   3.9667596  99.4159246
  62.7395881  10.2670281  91.2172950  63.6423128  10.2993891  91.5339445
  62.5133251   9.3370732  91.2319286  64.4949483   9.0201267  87.8783028
  63.5445114   9.0203129  87.7647401  64.7981969   8.2734002  87.3619063
  80.2302177  14.8561806  88.9428791  80.8680587  14.7368553  88.2392131
  80.1123020  15.8042650  89.0016743  77.0391883  14.8089234  88.8790316
  76.7010395  14.6930298  87.9910850  77.9081651  14.4080399  88.8591322
  72.8978699  16.6624710  84.8687206  72.3343564  16.5714647  84.1003494
  72.7831094  15.8424615  85.3489699  77.5211666  15.9624085  94.8376521
  77.5100307  15.5676884  93.9657025  77.6832306  15.2290158  95.4310293
  70.4443131  18.1575902  87.7071427  71.2364423  17.8166726  87.2917726
  70.6839781  18.2670877  88.6273580  78.4778258  20.3295678  80.1801671
  77.8266237  20.9149758  79.7935685  79.2722620  20.8601873  80.2396709
  72.4033885  17.4184815  80.5788806  73.1764761  16.8713802  80.4401682
  72.7559284  18.2829064  80.7903267  74.2418927  18.7461197  93.7855705
  73.9508793  19.6506828  93.6702371  74.8775912  18.7877725  94.4999775
  75.1675134  16.1238046  90.3757065  75.7638706  15.8994068  89.6614028
  75.2250106  15.3822791  90.9782513  74.7400162  13.5777481  78.2107256
  74.9925683  13.0559002  77.4490719  73.8024722  13.4143626  78.3133939
  79.7843445  12.5813259  86.0181999  80.5706535  12.1632683  85.6672416
  80.0482150  13.4859352  86.1863647  79.9553523  18.0186110  80.7170656
  79.3199356  18.0920736  81.4291560  79.6250929  18.6079709  80.0389735
  85.1851872  12.5188493  86.9214977  85.9177044  11.9487709  87.1552807
  84.4291228  12.1310093  87.3621483  74.4596451  15.4805587  80.4131631
  74.3432709  14.8050490  81.0812715  74.5698711  14.9937961  79.5963784
  76.8027992  14.9415734  84.1178320  76.4386199  14.4146355  84.8291241
  77.6595108  14.5514203  83.9444805  82.7077293   6.2310067  91.3809586
  82.3760618   7.1005478  91.1570801  82.1122906   5.9146351  92.0603616
  76.4433479   9.9705634  79.1139668  76.6107881  10.8385870  79.4810139
  76.2530648  10.1332915  78.1900958  79.2008812  18.4322613  90.7805499
  78.9009535  19.3347652  90.6721306  78.8559872  18.1654796  91.6326652
  72.6521294  14.8836410  86.8142203  71.7271790  14.7512624  87.0219895
  72.9005707  15.6630629  87.3112146  82.6005956  10.9505153  88.4602936
  81.6922833  10.8820561  88.1661697  82.5493552  11.4277098  89.2884762
  76.4222700  12.4263291  80.0986335  76.3022325  12.8720342  80.9371815
  75.7275288  12.7748609  79.5399873  70.0130105  14.5269683  87.6485992
  70.1422486  14.7804162  88.5625404  69.3327556  15.1197391  87.3290647
  74.1829592  25.1966933  83.7476466  74.1053622  26.1474758  83.8264947
  73.5791236  24.8512806  84.4051393  76.6746822  12.3694798  96.4037833
  75.8980156  12.9288719  96.3940698  77.3137385  12.8551581  96.9252703
  84.4667602   9.1521591  90.2380810  83.8241983   9.4454124  89.5920605
  83.9622531   9.0374512  91.0434007  82.1207766  12.8984764  80.9266669
  83.0325622  13.1312151  80.7514367  81.6117413  13.4821809  80.3641748
  74.9293194  15.1780252  95.9655800  75.6707879  15.7165296  95.6890624
  74.2230180  15.8046541  96.1227352  80.4048534  17.3209392  94.5627962
  80.8131890  16.8791803  93.8182594  79.6825795  16.7462020  94.8162155
  76.7579604  12.2581999  91.9361519  77.6040799  12.6821413  92.0796168
  76.6978242  11.6015623  92.6300082  80.7277348  17.8810583  88.3180251
  80.0986211  18.0456297  87.6156319  80.3403011  18.2952192  89.0891215
  84.6066580  18.8165021  85.6724614  83.9217619  19.1963922  85.1221648
  84.6910430  19.4260347  86.4056562  79.9079049   9.9186367  93.5942692
  79.6639981  10.6728428  93.0576968  80.1838980  10.2971715  94.4289939
  81.8617512  16.4624980  92.2719958  82.0734407  17.1056740  91.5954339
  81.8147260  15.6287296  91.8041888  79.4643741   9.0742800  89.1756530
  78.6028220   9.3724054  89.4673268  79.4906176   9.2913199  88.2437563
  76.2805310  17.6184991  85.5830336  76.7443656  17.8972694  84.7934958
  76.0162108  16.7168436  85.4003426  73.1729391  17.1656473  88.5210099
  73.7430748  17.5943741  87.8827584  73.7637503  16.8839057  89.2194285
  75.2174196  13.7408143  82.3919901  75.9198240  14.1929187  82.8593827
  74.8854825  13.0991962  83.0199794  73.6654558  12.3319900  96.7671110
  73.0353219  13.0136181  97.0006507  73.5590646  12.2202982  95.8224249
  68.9599530  11.9991696  87.6937034  68.1698584  12.2549225  87.2177145
  69.4510778  12.8140034  87.7989075  82.9763340  19.3396935  90.4442315
  83.7980784  18.9377122  90.1624997  82.9725743  19.2365169  91.3958431
  70.9114276  12.3636275  84.6520511  70.1145439  12.4754970  85.1704007
  70.6839868  12.7022928  83.7861402  76.7419943  18.8880979  92.6003026
  76.8064376  19.3501386  93.4361198  76.0330867  18.2578343  92.7285336
  67.2437233  12.2522186  90.1252025  67.4945272  13.1369196  90.3909601
  67.7796782  12.0726788  89.3527117  91.0669333  15.6835684  86.7927287
  90.3133041  15.1143082  86.6371291  91.2016874  15.6498348  87.7397921
  76.4567961  20.5549086  82.4682006  76.3213636  21.4000622  82.8966854
  76.9977774  20.7568364  81.7047940  72.9435301   6.6340666  99.1296361
  72.5502246   6.0806864  99.8044006  73.7601441   6.9451244  99.5202879
  69.9097358  18.0724524  83.0409931  70.4221879  18.8667774  83.1915496
  70.5620071  17.3750814  82.9743533  71.7192243  21.1890280  85.1232684
  71.8958871  22.1108245  84.9353668  72.5149077  20.8748700  85.5527064
  75.8603262   8.0498545  96.7216618  76.6012975   8.6505698  96.6421080
  76.0921184   7.3076183  96.1634661  71.0044600  13.2354912  94.9994848
  70.8898115  12.3340169  95.3001947  70.1489117  13.4818609  94.6479664
  78.0836437  21.1772653  96.5982348  77.6400292  20.3909031  96.2803253
  78.7453651  21.3651803  95.9326239  72.8423559  22.7068454  91.1243027
  73.3930984  22.5785517  90.3520021  72.0035034  23.0063343  90.7737920
  80.1817675  21.4575452  94.6263750  80.1636151  22.2784333  94.1344019
  81.1037596  21.3329528  94.8513891  76.6390730  18.9719582  95.4687258
  77.1719066  18.2107870  95.2386566  76.1104811  18.6793234  96.2111412
  79.8060425   4.0779648  90.9980900  79.4624694   4.9681290  90.9220010
  80.1739387   3.8881306  90.1350485  67.8746275  16.4013178  83.8169502
  68.7121497  16.8110187  83.6003209  68.0524543  15.4612621  83.7869696
  79.7710707  14.0688259  79.5053335  79.2557331  14.8392864  79.7441722
  79.4988016  13.3953395  80.1286396  77.3557818   8.9137960  84.5638573
  76.4999415   8.5244810  84.3844212  77.7684770   8.9929921  83.7038359
  78.8856965   6.4484303  88.9630133  78.3821761   6.4114438  88.1497938
  79.1787572   7.3577046  89.0226790  75.1299851   6.5323033  87.9696315
  75.9952848   6.3365841  87.6102204  75.1977360   6.3033385  88.8965671
  84.7444981  16.8220614  81.4406508  83.9674424  16.4831773  80.9961670
  85.4236462  16.8273237  80.7661473  79.5597010  11.9415351  81.3313116
  79.2547146  12.2561500  82.1823259  80.5127453  12.0196771  81.3740449
  78.0043442  18.1005574  82.9806070  77.4764804  17.3658334  82.6679307
  77.5030945  18.8780251  82.7346038  82.9836288  16.2954595  88.0973116
  82.3259963  16.9853856  88.1853245  83.7876688  16.6851027  88.4407103
  72.7362170   8.7625241  85.3412681  73.3105922   8.5400422  84.6085874
  73.3233152   8.8313935  86.0941283  81.7941747  14.6498968  86.1477058
  82.3073629  15.2828959  86.6498768  82.4442971  14.0500163  85.7820418
  73.0631757  10.7929702  79.3608567  72.2269069  11.1304388  79.6817841
  72.9236527  10.6578682  78.4235704  75.0384838   5.6366490  84.0687751
  74.3849250   5.3215507  83.4444366  74.9965312   5.0142230  84.7947574
  76.1496043  15.9185785  75.9841043  75.2423104  15.6875038  76.1832192
  76.6467074  15.1223404  76.1715024  79.0564121  24.6283292  78.9037729
  78.3825820  24.9314989  79.5122687  79.4429943  25.4312372  78.5543186
  78.2722578  12.1248423  88.3935398  77.3545139  12.3463370  88.2357087
  78.6882722  12.1994734  87.5347106  79.0557626  13.5239839  83.5238079
  79.8029445  14.0361236  83.2145201  79.3249215  13.2023892  84.3842472
  77.3284276  16.0198380  80.5065033  76.4195495  15.7357412  80.6037503
  77.3579360  16.4397458  79.6468340  82.5603543  19.6304969  84.2756201
  82.1065870  18.7895879  84.3321391  81.9297510  20.2666367  84.6130981
  81.5036463  10.5596955  85.5056868  80.7659220  10.0474341  85.8367111
  81.7563236  10.1197337  84.6940145  81.0036483  21.4681466  85.2106019
  81.2959457  22.0286523  84.4918384  81.5135103  21.7610027  85.9659178
  67.8972446  13.7403894  84.4880235  67.6996846  13.1473254  83.7631302
  67.3419110  13.4356104  85.2056174  75.8769170  13.6327000  86.6074828
  75.9317780  12.6800837  86.5317305  75.0660372  13.7886439  87.0916127
  77.0260364  17.5607123  77.8453112  76.5879794  16.8442982  77.3858749
  77.7670805  17.7883238  77.2838203  73.8161530  12.2504060  84.3665207
  73.0029395  12.5498230  84.7730399  74.3120524  11.8559749  85.0839689
  75.9670108  22.2461817  86.2999472  75.9246287  22.4722663  85.3708004
  76.8832807  22.0125191  86.4485273  79.4135742  12.7145884  93.1980101
  79.7685129  12.9417357  94.0574567  80.0607873  13.0464261  92.5757356
  85.1433479  15.8364320  83.9029430  85.0051377  16.0265916  82.9750619
  84.7869697  16.5983703  84.3597481  73.3075605   9.8222415  89.9826442
  73.9474984   9.6811175  89.2849406  72.4753135   9.5356929  89.6065044
  85.1702858  17.9040847  88.9140702  85.6039365  17.8116136  89.7623756
  85.8834439  17.8798348  88.2760718  74.0835909  19.1224846  86.0961435
  74.8776507  18.6275166  85.8944010  73.3727601  18.5942709  85.7329140
  78.9030753  21.5042941  90.4473802  78.9567775  22.0733878  91.2151518
  78.0345534  21.6744826  90.0827839  70.3918672  13.2667928  82.1721187
  69.4616260  13.2052383  82.3891149  70.4876144  12.7443880  81.3757829
  70.3104221   9.7922740  84.7599429  70.5711038  10.7068074  84.6508589
  71.1321393   9.3247183  84.9096042  71.7829146  11.2060498  91.9298254
  72.4552200  10.9977860  91.2810902  70.9558933  11.0082584  91.4903486
  86.0318408  17.9464548  91.4473587  86.2254298  18.8510358  91.6932862
  85.9319026  17.4871967  92.2812172  77.6854718   7.8322438  93.9463914
  77.0382633   8.5312388  93.8528391  78.4555734   8.2658582  94.3140163
  81.0933516  18.0971291  97.0214468  80.9419023  17.8681842  96.1044551
  81.0838196  19.0541892  97.0345813  77.8618853  15.6703203  92.0060734
  78.7910913  15.8214363  91.8329701  77.4409883  15.7587224  91.1509381
  76.6607185  19.6953868  89.7759272  76.5218270  19.3272652  90.6485210
  75.8721781  20.2101507  89.6043230  77.2555337  24.7962964  81.1184808
  77.4307092  24.3251007  81.9330431  76.5688125  25.4228730  81.3466069
  78.2112400  19.0735471  87.1648110  77.8762232  19.0336240  88.0605759
  77.7116345  18.4080186  86.6918520  72.1856644  14.4803101  92.6900691
  72.0476442  13.7483339  93.2912230  73.0961567  14.3912001  92.4084878
  81.1471591  16.4191505  77.4385169  80.5300762  15.6938333  77.3418222
  80.6788080  17.1800865  77.0952243  74.8138944  14.1923060  92.1784370
  75.5238563  13.5516252  92.1370989  74.7708252  14.4435955  93.1010551
  82.8025723  21.1290413  95.0990950  82.7438269  20.4449633  94.4321533
  83.2045241  21.8709403  94.6471576  73.5267878  11.1788278  93.9980010
  72.9905235  10.7279016  94.6501606  72.9384587  11.3134187  93.2550474
  71.8216422  27.9452327  87.8924668  72.0613020  28.5770851  88.5703687
  70.9785618  27.5940367  88.1790028  72.9370137  10.6376929  76.5606473
  72.0599604  10.5165730  76.1968720  73.4127890   9.8463007  76.3085362
  82.8043130  19.0929997  93.3304929  81.9169909  18.7555919  93.4531328
  83.3741681  18.3613028  93.5673695  64.4572277  15.4254089  86.6547981
  65.1443317  15.1115819  86.0668996  64.3020406  16.3295454  86.3815232
  69.2607000  10.3144285  91.0833004  69.1765188   9.7069955  90.3483414
  68.4389706  10.8053304  91.0842501  76.3344284  23.7531449  90.2966172
  76.2614455  24.5586421  90.8085477  75.8921677  23.9523415  89.4714194
  76.1234063  22.9903220  83.8068994  75.3401585  23.5324900  83.9007218
  76.8226808  23.5077199  84.2063235  79.4330713   8.7997849  86.4503199
  79.9299413   8.0467811  86.1304270  78.6617695   8.8362166  85.8846409
  87.2860471  14.5038215  88.0921491  87.2750347  15.3862930  87.7215424
  86.4177850  14.1509765  87.8976028  78.7942967  23.6518284  92.4524331
  79.5070939  24.2865748  92.3800233  78.3032996  23.7482150  91.6364333
  80.5160494  17.5569536  84.0241623  79.5816773  17.6770999  83.8546327
  80.6937163  16.6542003  83.7601633  76.0165682  10.9415232  86.1774884
  75.6463470  10.3886272  86.8655790  76.5124775  10.3373365  85.6249884
  83.9033045  13.3986855  84.5591657  84.3693498  14.2314847  84.4851960
  84.3540546  12.9331837  85.2636915  73.8454881  21.4012727  93.2729902
  74.5464340  22.0349210  93.4259296  73.3749996  21.7427459  92.5125541
  81.9709277  19.7430677  81.5577809  82.2469120  19.6287271  82.4671683
  81.1013775  19.3448162  81.5189982  81.8749708   5.7667442  88.5982558
  80.9612788   5.9971669  88.7664765  82.3042810   5.8505887  89.4496591
  81.6456167  13.9557334  91.0982452  80.9927617  14.2033242  90.4434905
  82.0236547  13.1421473  90.7644930  78.6063341  23.9917028  85.2010623
  78.7885735  23.1738684  85.6638375  79.4296327  24.2084720  84.7635513
  78.9405506  22.9185213  82.4625671  79.4693273  22.4077667  81.8495833
  79.2033726  22.6027743  83.3271204  77.6943740  14.6977145  97.5848489
  77.0184377  14.5971275  98.2550865  78.5171374  14.5416359  98.0484487
  69.4422599  20.9349082  90.2061005  70.0276036  20.1892770  90.3388909
  69.2447437  21.2453039  91.0897668  72.2961254  23.9700329  85.2223447
  71.6271629  24.4546457  84.7387487  72.1574124  24.2169550  86.1366825
  64.0340254  13.5054682  88.9265448  64.0724353  12.9718273  89.7202566
  63.5280546  12.9789888  88.3076425  76.4366523  26.0044073  91.8206105
  76.9884831  26.1675694  92.5855191  76.7772716  26.5948511  91.1486130
  71.4131016   8.3519223  92.4227990  71.4772342   9.2134054  92.0105388
  71.3498136   7.7393224  91.6900349  70.8883288  10.4242355  96.0701024
  71.5155327  10.0419433  96.6838549  70.0311207  10.2056557  96.4356717
  81.2877397  20.8305330  97.6754760  81.8317301  21.4435289  97.1809715
  80.7064242  21.3884909  98.1921773  67.6648831  12.2318784  82.0019379
  67.9602272  11.3229463  81.9486433  66.7636867  12.2106524  81.6800381
  79.5734910  23.9526048  88.8069788  79.4486049  23.1515788  88.2980733
  80.2314001  24.4472242  88.3183757  71.1943078  10.3074781  87.9846928
  70.4729664  10.9210749  87.8454401  71.9836334  10.8432546  87.9063574
  81.6369818  21.7535069  90.4349338  80.6900154  21.6340420  90.3627664
  81.9852591  20.8657567  90.5175599  73.9969392   7.6429207  94.2587579
  74.5203793   7.8891504  95.0213889  73.7781725   8.4749242  93.8390717
  69.3936673   9.9132882  82.1258704  69.0649379   9.0330261  81.9433810
  69.7476043   9.8580551  83.0135094  78.6416252  21.5487785  86.6353690
  78.4941214  20.6204492  86.8161260  79.4669745  21.5707875  86.1510765
  72.5078496  10.2005852  82.4934182  72.8474568  10.7291773  81.7712790
  72.9550616  10.5386258  83.2692748  82.2450373  22.3716343  87.7218563
  83.1696921  22.1659205  87.5843014  82.0765677  22.1232745  88.6307904
  75.2021937   8.5842903  91.9437250  74.8618757   7.7850716  92.3457930
  74.4960943   8.8844613  91.3714083  75.8538408   5.6692215  90.3964573
  76.6764478   5.1952693  90.2743463  76.0976472   6.4482699  90.8963259
  74.4946643   8.6980473  80.6927475  75.2155005   9.0761726  80.1891192
  73.8711947   9.4169350  80.7962453  78.6377766   9.4025622  81.6285807
  78.8541380  10.2850260  81.3274635  78.1571833   9.0111836  80.8991449
  73.3776987  12.3611336  88.2056552  73.2321568  12.6751639  89.0980833
  72.9002191  12.9796236  87.6527450  75.2373370   9.3513884  88.2537441
  75.2234939   8.4554977  87.9169739  75.9545798   9.3584547  88.8875727
  77.0899501   9.7851224  90.2990569  76.8317279  10.7068294  90.2974899
  76.5584541   9.3881658  90.9891033  82.0345690  22.8902011  83.0780654
  82.2082567  22.3248433  82.3254506  82.5274581  23.6902906  82.8960144
  67.8522649  14.9016680  91.1444213  67.3076117  15.6776488  91.2764487
  68.7301999  15.2487485  90.9863334  74.6410266   8.2328264  83.5225011
  74.7626177   7.3044910  83.7215899  74.3512308   8.2466950  82.6103327
  77.5101456   5.9183174  86.6591731  77.5323153   5.9822507  85.7043711
  77.9269515   5.0787683  86.8532237  87.8885081  15.6538434  84.6970954
  88.3316227  14.9045759  84.2990077  87.0111591  15.6448570  84.3144686
  83.0220862  22.2068775  80.1777552  83.7171767  22.8275468  80.3964867
  83.3644012  21.3564127  80.4529930  68.6388671  14.0286576  94.0374370
  67.8970407  14.1769212  94.6239000  68.3181416  14.2894842  93.1741119
  84.9212285  19.6568481  81.7064883  85.4463609  19.9955754  80.9814203
  84.8334638  18.7215496  81.5228018  76.5832334  23.5702555  93.8354760
  76.8919460  23.3251701  94.7077459  77.3807816  23.7749193  93.3473630
  76.6052946  25.7240464  86.0660136  76.1657936  25.2316843  86.7592993
  77.3561063  25.1813432  85.8252211  69.0845285  21.9152005  86.0684764
  69.9103305  21.6155777  85.6883408  68.7339337  21.1459627  86.5174553
  74.0526818  21.2678473  88.1382438  73.4306827  20.6049178  87.8384666
  74.7231685  21.2939605  87.4556086  67.2853890  19.8338331  87.0273698
  66.4485798  19.4060506  86.8457699  67.2577535  20.0270775  87.9644489
  74.1251346   9.7460261  97.7314944  74.1739501  10.6222384  97.3492714
  74.6673860   9.2037654  97.1586587  84.6106191  20.2901385  97.0116081
  83.8201735  20.2725523  96.4720580  84.3739546  20.8289678  97.7665118
  84.7304066  17.1393851  94.3248810  84.7802071  16.9743858  95.2664332
  84.6217990  16.2721110  93.9346690  73.6140325  19.8182397  81.6140898
  73.7628445  20.5017861  80.9607571  74.4206768  19.7987487  82.1290354
  82.0207829  13.1224779  95.6408116  82.9217691  12.9831244  95.3492114
  82.0955803  13.2879234  96.5806294  76.3550634  10.4991634  94.4861303
  75.4853943  10.7925200  94.2143891  76.5910114  11.0832079  95.2068566
  86.2322263  19.5590792  94.5690831  85.9407071  19.9220773  95.4054292
  85.6194394  18.8457801  94.3904163  87.4317945  17.1243672  87.0893401
  88.2664837  17.5633476  87.2530962  87.5677074  16.6482325  86.2701647
  84.4809451  14.6823407  93.0370889  84.9563573  14.8751053  92.2289740
  83.5575017  14.7382593  92.7914273  71.3692958  15.8447574  82.6201967
  71.1239000  14.9409904  82.8182178  71.5388873  15.8464725  81.6781445
  79.0589668   6.7171251  92.0026723  79.5771612   7.4532278  91.6773212
  78.7044801   7.0235244  92.8373482  70.6388606  11.5775932  80.1188129
  69.9457850  11.6520287  79.4628165  70.3940357  10.8136275  80.6409646
  77.1135731  22.3130527  79.0852646  76.5409698  22.9320714  78.6323118
  77.6868524  22.8629889  79.6192568  83.1811120  11.5589167  91.2699195
  84.1328543  11.6587265  91.2911419  83.0114571  10.7667436  91.7797279
  81.2025500   8.6444750  91.4558596  80.6075432   8.9249763  90.7605084
  80.9175197   9.1338651  92.2275337  80.3332990  22.5967677  80.2161228
  81.2663664  22.5313239  80.4194104  80.2456203  23.4323944  79.7575761
  82.9621007  21.9133548  77.1765176  82.8834639  21.5793411  78.0700934
  83.7830674  22.4055315  77.1756648  85.6599198  14.7795287  90.3841494
  85.6275518  13.8411288  90.5701178  86.2699822  14.8579324  89.6507319
  77.4982529  13.6491340  76.4268698  78.4441634  13.5197548  76.4957116
  77.1196774  12.9106002  76.9038127  85.8093687  11.5706330  90.4299778
  85.2932735  10.7864787  90.2429706  86.6933635  11.2425047  90.5946297
  83.4704414   5.3147346  86.3895590  83.2729235   5.0062434  87.2738922
  84.0804119   6.0408985  86.5193520  91.4775748  15.8411294  89.5247531
  92.2079137  15.5796582  90.0855234  90.8682694  15.1040016  89.5649599
  89.5591045  13.9819156  90.1221982  88.8324209  13.8475121  89.5138474
  89.1438332  14.2895985  90.9278700  77.3821222  17.7009086  97.8869355
  78.3024231  17.8787685  98.0809402  77.3470805  16.7565131  97.7349055
  75.6825446  11.5741316  76.3623584  74.7756902  11.2774429  76.4386297
  75.9601427  11.2771134  75.4957870  66.6003387  12.8947680  86.8122630
  66.2806171  12.0412988  86.5197004  66.0536815  13.1096258  87.5680597
  70.3783294  15.6110121  90.5292137  70.5969304  16.5427228  90.5480170
  70.7909068  15.2518095  91.3146940  77.2987512   6.1178206  82.5167825
  76.4888240   5.7725291  82.8923071  77.9871929   5.8085750  83.1055436
  79.2278060   5.1956253  84.1392122  79.7809099   5.6151706  84.7982145
  79.4648147   4.2692001  84.1815078  75.2511159  11.1843326  99.9194885
  75.1507886  12.1337683  99.8506977  75.0332702  10.8561565  99.0470956
  74.4524231   8.4328251  76.5035563  75.3143395   8.7583150  76.7631380
  74.6374575   7.6459747  75.9908629  66.4691647  16.5150591  88.7815752
  65.7755118  16.1004544  88.2685706  67.2164638  16.5571128  88.1849170
  82.6056867   7.3056778  83.6470786  82.0255536   7.9641582  83.2648838
  82.3392800   6.4834122  83.2358203  81.0560434   6.7061836  85.8492106
  81.5560212   6.8178370  85.0406425  81.6996042   6.4022888  86.4892915
  75.1142430  14.6140465  98.7359947  74.6309511  15.4140825  98.9423836
  75.2003369  14.6248410  97.7827391  68.3828389  16.4468845  86.6581766
  68.3599077  16.5456532  85.7063650  68.6929026  17.2933996  86.9798933
  71.0415767  18.5045000  90.7728381  71.9959021  18.4728942  90.7058312
  70.8428291  18.0435624  91.5878607  71.6315149  17.0746116  93.3399179
  72.4508038  17.5690195  93.3634016  71.9051957  16.1578084  93.3116746
  81.3881745   9.4656868  82.7027134  80.5007600   9.7506519  82.4847329
  81.8035734   9.3050632  81.8554411  84.7396281   9.4903389  86.4181473
  85.5156672   9.9799842  86.6906090  84.0144416   9.9161443  86.8753343
  87.1768840  10.2031008  87.4755414  87.7713331   9.9626744  86.7648722
  87.2495424   9.4838139  88.1028950  69.3965996  24.0464619  87.7898579
  69.2620464  23.2865020  87.2236577  68.9798058  24.7705519  87.3227368
  80.5324959  19.2301543  76.7975154  81.2360809  19.4351545  77.4132810
  79.8087608  19.7978305  77.0624238  81.3622769  14.9811404  82.9177424
  81.3057970  15.4379956  82.0785057  81.9151112  14.2202089  82.7400267
  85.1727575  10.7701136  83.7427544  84.9164509  10.3697772  84.5735751
  84.5480443  11.4844930  83.6177683  89.4839913  13.5097209  86.2498835
  88.9239471  13.5790399  87.0230397  88.8783416  13.3338194  85.5298331
  72.5535122  24.9433936  88.0017021  72.4367506  25.8879369  87.8995712
  71.7327568  24.6407498  88.3902821  82.4411656  19.6684072  78.8473614
  83.2757260  19.2365271  78.6651089  82.2795999  19.4966086  79.7750509
  82.0957548  16.1716185  80.2129953  82.0406352  16.0060457  79.2718398
  81.4703604  16.8792218  80.3692143  66.8850063  11.4084250  94.0391376
  67.5308927  10.8983204  94.5278601  66.6767214  12.1452931  94.6134801
  79.4103456  18.4765097  99.5383516  80.2794615  18.6505750  99.1770151
  78.9310207  19.2959514  99.4159246  75.4053674   5.6724294  79.7915272
  75.3932344   6.6166134  79.9483543  76.2977096   5.4894440  79.4974733
  73.5789636  25.5962198  91.2172950  74.4816882  25.6285809  91.5339445
  73.3527006  24.6662649  91.2319286  75.3343238  24.3493185  87.8783028
  74.3838869  24.3495046  87.7647401  75.6375724  23.6025919  87.3619063
  71.2247554   8.5551867  98.1366390  72.0879016   8.1988672  98.3469714
  70.6512965   8.2165762  98.8241794  91.0695931  30.1853723  88.9428791
  91.7074341  30.0660471  88.2392131  90.9516774  31.1334567  89.0016743
  87.8785638  30.1381151  88.8790316  87.5404149  30.0222216  87.9910850
  88.7475406  29.7372316  88.8591322  83.7372453  31.9916628  84.8687206
  83.1737318  31.9006565  84.1003494  83.6224848  31.1716532  85.3489699
  88.3605421  31.2916003  94.8376521  88.3494061  30.8968801  93.9657025
  88.5226060  30.5582076  95.4310293  81.2836885  33.4867819  87.7071427
  82.0758177  33.1458644  87.2917726  81.5233535  33.5962794  88.6273580
  89.3172012  35.6587595  80.1801671  88.6659992  36.2441676  79.7935685
  90.1116375  36.1893790  80.2396709  83.2427639  32.7476733  80.5788806
  84.0158515  32.2005720  80.4401682  83.5953038  33.6120982  80.7903267
  85.0812682  34.0753115  93.7855705  84.7902548  34.9798746  93.6702371
  85.7169666  34.1169642  94.4999775  86.0068889  31.4529963  90.3757065
  86.6032461  31.2285986  89.6614028  86.0643860  30.7114709  90.9782513
  85.5793917  28.9069399  78.2107256  85.8319438  28.3850920  77.4490719
  84.6418476  28.7435544  78.3133939  90.6237200  27.9105177  86.0181999
  91.4100289  27.4924600  85.6672416  90.8875904  28.8151269  86.1863647
  90.7947277  33.3478027  80.7170656  90.1593110  33.4212654  81.4291560
  90.4644684  33.9371626  80.0389735  96.0245627  27.8480410  86.9214977
  96.7570799  27.2779627  87.1552807  95.2684983  27.4602011  87.3621483
  85.2990206  30.8097505  80.4131631  85.1826464  30.1342408  81.0812715
  85.4092466  30.3229879  79.5963784  87.6421747  30.2707652  84.1178320
  87.2779954  29.7438273  84.8291241  88.4988863  29.8806121  83.9444805
  93.5471047  21.5601984  91.3809586  93.2154372  22.4297395  91.1570801
  92.9516661  21.2438268  92.0603616  87.2827234  25.2997551  79.1139668
  87.4501636  26.1677788  79.4810139  87.0924403  25.4624833  78.1900958
  90.0402567  33.7614530  90.7805499  89.7403290  34.6639569  90.6721306
  89.6953626  33.4946714  91.6326652  83.4915048  30.2128327  86.8142203
  82.5665545  30.0804541  87.0219895  83.7399461  30.9922546  87.3112146
  93.4399711  26.2797071  88.4602936  92.5316588  26.2112479  88.1661697
  93.3887306  26.7569015  89.2884762  87.2616454  27.7555209  80.0986335
  87.1416080  28.2012260  80.9371815  86.5669043  28.1040527  79.5399873
  80.8523859  29.8561601  87.6485992  80.9816240  30.1096080  88.5625404
  80.1721311  30.4489309  87.3290647  85.0223347  40.5258851  83.7476466
  84.9447376  41.4766676  83.8264947  84.4184990  40.1804723  84.4051393
  87.5140576  27.6986716  96.4037833  86.7373910  28.2580636  96.3940698
  88.1531139  28.1843499  96.9252703  95.3061357  24.4813509  90.2380810
  94.6635737  24.7746042  89.5920605  94.8016286  24.3666429  91.0434007
  92.9601521  28.2276682  80.9266669  93.8719377  28.4604069  80.7514367
  92.4511168  28.8113726  80.3641748  85.7686949  30.5072170  95.9655800
  86.5101633  31.0457213  95.6890624  85.0623934  31.1338458  96.1227352
  91.2442288  32.6501310  94.5627962  91.6525644  32.2083720  93.8182594
  90.5219550  32.0753937  94.8162155  87.5973358  27.5873917  91.9361519
  88.4434554  28.0113330  92.0796168  87.5371996  26.9307541  92.6300082
  91.5671103  33.2102501  88.3180251  90.9379965  33.3748215  87.6156319
  91.1796765  33.6244110  89.0891215  95.4460335  34.1456938  85.6724614
  94.7611373  34.5255840  85.1221648  95.5304184  34.7552265  86.4056562
  90.7472804  25.2478285  93.5942692  90.5033736  26.0020346  93.0576968
  91.0232734  25.6263633  94.4289939  92.7011266  31.7916897  92.2719958
  92.9128162  32.4348657  91.5954339  92.6541015  30.9579214  91.8041888
  90.3037495  24.4034718  89.1756530  89.4421974  24.7015972  89.4673268
  90.3299930  24.6205117  88.2437563  87.1199065  32.9476909  85.5830336
  87.5837410  33.2264612  84.7934958  86.8555863  32.0460353  85.4003426
  84.0123146  32.4948390  88.5210099  84.5824503  32.9235659  87.8827584
  84.6031258  32.2130975  89.2194285  86.0567951  29.0700061  82.3919901
  86.7591994  29.5221105  82.8593827  85.7248579  28.4283880  83.0199794
  84.5048312  27.6611818  96.7671110  83.8746973  28.3428099  97.0006507
  84.3984400  27.5494899  95.8224249  79.7993285  27.3283614  87.6937034
  79.0092339  27.5841142  87.2177145  80.2904532  28.1431952  87.7989075
  93.8157094  34.6688853  90.4442315  94.6374538  34.2669040  90.1624997
  93.8119497  34.5657087  91.3958431  81.7508030  27.6928193  84.6520511
  80.9539194  27.8046887  85.1704007  81.5233622  28.0314845  83.7861402
  87.5813698  34.2172896  92.6003026  87.6458130  34.6793303  93.4361198
  86.8724622  33.5870261  92.7285336  78.0830988  27.5814104  90.1252025
  78.3339026  28.4661114  90.3909601  78.6190536  27.4018706  89.3527117
 101.9063087  31.0127601  86.7927287 101.1526796  30.4434999  86.6371291
 102.0410629  30.9790266  87.7397921  87.2961716  35.8841004  82.4682006
  87.1607390  36.7292539  82.8966854  87.8371528  36.0860281  81.7047940
  83.7829055  21.9632584  99.1296361  83.3896001  21.4098782  99.8044006
  84.5995195  22.2743162  99.5202879  80.7491113  33.4016442  83.0409931
  81.2615633  34.1959692  83.1915496  81.4013826  32.7042732  82.9743533
  82.5585998  36.5182198  85.1232684  82.7352626  37.4400163  84.9353668
  83.3542831  36.2040617  85.5527064  86.6997016  23.3790463  96.7216618
  87.4406730  23.9797616  96.6421080  86.9314939  22.6368100  96.1634661
  81.8438354  28.5646830  94.9994848  81.7291869  27.6632087  95.3001947
  80.9882872  28.8110527  94.6479664  88.9230192  36.5064570  96.5982348
  88.4794046  35.7200949  96.2803253  89.5847405  36.6943721  95.9326239
  83.6817313  38.0360372  91.1243027  84.2324738  37.9077435  90.3520021
  82.8428789  38.3355261  90.7737920  91.0211430  36.7867370  94.6263750
  91.0029905  37.6076251  94.1344019  91.9431350  36.6621445  94.8513891
  87.4784484  34.3011500  95.4687258  88.0112821  33.5399788  95.2386566
  86.9498565  34.0085151  96.2111412  90.6454179  19.4071566  90.9980900
  90.3018448  20.2973207  90.9220010  91.0133142  19.2173223  90.1350485
  78.7140030  31.7305096  83.8169502  79.5515252  32.1402104  83.6003209
  78.8918297  30.7904538  83.7869696  90.6104462  29.3980177  79.5053335
  90.0951085  30.1684781  79.7441722  90.3381770  28.7245313  80.1286396
  88.1951573  24.2429877  84.5638573  87.3393169  23.8536728  84.3844212
  88.6078525  24.3221838  83.7038359  89.7250719  21.7776221  88.9630133
  89.2215515  21.7406356  88.1497938  90.0181326  22.6868963  89.0226790
  85.9693605  21.8614950  87.9696315  86.8346602  21.6657759  87.6102204
  86.0371114  21.6325302  88.8965671  95.5838736  32.1512531  81.4406508
  94.8068179  31.8123691  80.9961670  96.2630217  32.1565154  80.7661473
  90.3990765  27.2707269  81.3313116  90.0940901  27.5853418  82.1823259
  91.3521207  27.3488689  81.3740449  88.8437197  33.4297492  82.9806070
  88.3158558  32.6950252  82.6679307  88.3424700  34.2072168  82.7346038
  93.8230043  31.6246513  88.0973116  93.1653717  32.3145774  88.1853245
  94.6270442  32.0142945  88.4407103  83.5755924  24.0917158  85.3412681
  84.1499676  23.8692340  84.6085874  84.1626907  24.1605853  86.0941283
  92.6335502  29.9790885  86.1477058  93.1467383  30.6120877  86.6498768
  93.2836726  29.3792081  85.7820418  83.9025512  26.1221619  79.3608567
  83.0662824  26.4596306  79.6817841  83.7630281  25.9870599  78.4235704
  85.8778592  20.9658407  84.0687751  85.2243004  20.6507424  83.4444366
  85.8359066  20.3434148  84.7947574  86.9889797  31.2477702  75.9841043
  86.0816859  31.0166956  76.1832192  87.4860829  30.4515322  76.1715024
  89.8957876  39.9575210  78.9037729  89.2219575  40.2606906  79.5122687
  90.2823698  40.7604290  78.5543186  89.1116332  27.4540341  88.3935398
  88.1938894  27.6755288  88.2357087  89.5276476  27.5286651  87.5347106
  89.8951380  28.8531756  83.5238079  90.6423199  29.3653154  83.2145201
  90.1642970  28.5315809  84.3842472  88.1678030  31.3490297  80.5065033
  87.2589250  31.0649330  80.6037503  88.1973114  31.7689376  79.6468340
  93.3997298  34.9596887  84.2756201  92.9459625  34.1187797  84.3321391
  92.7691265  35.5958285  84.6130981  92.3430217  25.8888873  85.5056868
  91.6052974  25.3766259  85.8367111  92.5956991  25.4489254  84.6940145
  91.8430237  36.7973383  85.2106019  92.1353211  37.3578441  84.4918384
  92.3528858  37.0901944  85.9659178  92.4441845  18.6665125  86.0998637
  92.7500722  17.8062488  85.8124552  93.1694450  19.2582745  85.8997631
  78.7366201  29.0695811  84.4880235  78.5390601  28.4765172  83.7631302
  78.1812865  28.7648022  85.2056174  86.7162924  28.9618918  86.6074828
  86.7711534  28.0092754  86.5317305  85.9054127  29.1178357  87.0916127
  87.8654118  32.8899041  77.8453112  87.4273548  32.1734900  77.3858749
  88.6064559  33.1175156  77.2838203  84.6555284  27.5795978  84.3665207
  83.8423150  27.8790148  84.7730399  85.1514279  27.1851666  85.0839689
  86.8063862  37.5753734  86.2999472  86.7640041  37.8014581  85.3708004
  87.7226561  37.3417109  86.4485273  90.2529496  28.0437802  93.1980101
  90.6078884  28.2709275  94.0574567  90.9001627  28.3756179  92.5757356
  95.9827233  31.1656238  83.9029430  95.8445132  31.3557834  82.9750619
  95.6263452  31.9275621  84.3597481  84.1469359  25.1514333  89.9826442
  84.7868738  25.0103092  89.2849406  83.3146890  24.8648846  89.6065044
  96.0096613  33.2332765  88.9140702  96.4433119  33.1408054  89.7623756
  96.7228193  33.2090265  88.2760718  84.9229663  34.4516763  86.0961435
  85.7170262  33.9567084  85.8944010  84.2121355  33.9234627  85.7329140
  89.7424508  36.8334859  90.4473802  89.7961530  37.4025795  91.2151518
  88.8739289  37.0036744  90.0827839  81.2312427  28.5959845  82.1721187
  80.3010015  28.5344301  82.3891149  81.3269899  28.0735798  81.3757829
  81.1497976  25.1214658  84.7599429  81.4104793  26.0359991  84.6508589
  81.9715148  24.6539101  84.9096042  82.6222901  26.5352415  91.9298254
  83.2945954  26.3269777  91.2810902  81.7952687  26.3374501  91.4903486
  96.8712162  33.2756466  91.4473587  97.0648052  34.1802276  91.6932862
  96.7712780  32.8163885  92.2812172  88.5248473  23.1614356  93.9463914
  87.8776388  23.8604306  93.8528391  89.2949488  23.5950500  94.3140163
  91.9327271  33.4263208  97.0214468  91.7812777  33.1973760  96.1044551
  91.9231950  34.3833810  97.0345813  88.7012607  30.9995121  92.0060734
  89.6304667  31.1506281  91.8329701  88.2803637  31.0879142  91.1509381
  87.5000939  35.0245785  89.7759272  87.3612025  34.6564570  90.6485210
  86.7115535  35.5393425  89.6043230  88.0949091  40.1254882  81.1184808
  88.2700847  39.6542925  81.9330431  87.4081879  40.7520648  81.3466069
  89.0506154  34.4027388  87.1648110  88.7155987  34.3628158  88.0605759
  88.5510100  33.7372104  86.6918520  83.0250398  29.8095018  92.6900691
  82.8870196  29.0775257  93.2912230  83.9355322  29.7203918  92.4084878
  91.9865346  31.7483423  77.4385169  91.3694516  31.0230251  77.3418222
  91.5181834  32.5092783  77.0952243  85.6532699  29.5214978  92.1784370
  86.3632317  28.8808170  92.1370989  85.6102007  29.7727872  93.1010551
  93.6419478  36.4582331  95.0990950  93.5832024  35.7741551  94.4321533
  94.0438996  37.2001321  94.6471576  84.3661633  26.5080195  93.9980010
  83.8298990  26.0570934  94.6501606  83.7778341  26.6426104  93.2550474
  82.6610176  43.2744245  87.8924668  82.9006775  43.9062769  88.5703687
  81.8179373  42.9232285  88.1790028  83.7763892  25.9668847  76.5606473
  82.8993358  25.8457648  76.1968720  84.2521645  25.1754925  76.3085362
  93.6436885  34.4221915  93.3304929  92.7563664  34.0847837  93.4531328
  94.2135436  33.6904946  93.5673695  75.2966032  30.7546007  86.6547981
  75.9837072  30.4407737  86.0668996  75.1414161  31.6587371  86.3815232
  80.1000754  25.6436203  91.0833004  80.0158943  25.0361873  90.3483414
  79.2783460  26.1345221  91.0842501  87.1738038  39.0823367  90.2966172
  87.1008210  39.8878339  90.8085477  86.7315431  39.2815333  89.4714194
  86.9627818  38.3195137  83.8068994  86.1795340  38.8616817  83.9007218
  87.6620563  38.8369117  84.2063235  90.2724468  24.1289767  86.4503199
  90.7693167  23.3759729  86.1304270  89.5011449  24.1654083  85.8846409
  98.1254225  29.8330132  88.0921491  98.1144102  30.7154848  87.7215424
  97.2571605  29.4801683  87.8976028  89.6336722  38.9810201  92.4524331
  90.3464694  39.6157666  92.3800233  89.1426750  39.0774067  91.6364333
  91.3554249  32.8861454  84.0241623  90.4210527  33.0062916  83.8546327
  91.5330917  31.9833921  83.7601633  86.8559437  26.2707150  86.1774884
  86.4857224  25.7178190  86.8655790  87.3518529  25.6665283  85.6249884
  94.7426800  28.7278773  84.5591657  95.2087252  29.5606765  84.4851960
  95.1934300  28.2623755  85.2636915  84.6848635  36.7304645  93.2729902
  85.3858095  37.3641128  93.4259296  84.2143750  37.0719376  92.5125541
  92.8103031  35.0722594  81.5577809  93.0862875  34.9579189  82.4671683
  91.9407530  34.6740079  81.5189982  92.7143463  21.0959360  88.5982558
  91.8006542  21.3263587  88.7664765  93.1436564  21.1797804  89.4496591
  92.4849921  29.2849252  91.0982452  91.8321371  29.5325160  90.4434905
  92.8630301  28.4713390  90.7644930  89.4457095  39.3208945  85.2010623
  89.6279490  38.5030601  85.6638375  90.2690081  39.5376638  84.7635513
  89.7799261  38.2477130  82.4625671  90.3087027  37.7369585  81.8495833
  90.0427480  37.9319661  83.3271204  88.5337494  30.0269063  97.5848489
  87.8578131  29.9263192  98.2550865  89.3565128  29.8708277  98.0484487
  80.2816353  36.2641000  90.2061005  80.8669790  35.5184688  90.3388909
  80.0841192  36.5744956  91.0897668  83.1355009  39.2992247  85.2223447
  82.4665384  39.7838375  84.7387487  82.9967878  39.5461468  86.1366825
  74.8734008  28.8346600  88.9265448  74.9118108  28.3010191  89.7202566
  74.3674301  28.3081805  88.3076425  87.2760277  41.3335991  91.8206105
  87.8278585  41.4967612  92.5855191  87.6166471  41.9240428  91.1486130
  82.2524770  23.6811140  92.4227990  82.3166097  24.5425971  92.0105388
  82.1891891  23.0685142  91.6900349  81.7277043  25.7534273  96.0701024
  82.3549082  25.3711350  96.6838549  80.8704962  25.5348475  96.4356717
  92.1271151  36.1597248  97.6754760  92.6711055  36.7727206  97.1809715
  91.5457996  36.7176827  98.1921773  78.5042586  27.5610702  82.0019379
  78.7996027  26.6521380  81.9486433  77.6030621  27.5398442  81.6800381
  90.4128664  39.2817966  88.8069788  90.2879804  38.4807706  88.2980733
  91.0707755  39.7764160  88.3183757  82.0336833  25.6366699  87.9846928
  81.3123418  26.2502666  87.8454401  82.8230088  26.1724463  87.9063574
  92.4763573  37.0826986  90.4349338  91.5293908  36.9632337  90.3627664
  92.8246346  36.1949484  90.5175599  84.8363146  22.9721125  94.2587579
  85.3597548  23.2183422  95.0213889  84.6175479  23.8041160  93.8390717
  80.2330427  25.2424800  82.1258704  79.9043133  24.3622179  81.9433810
  80.5869798  25.1872468  83.0135094  89.4810006  36.8779702  86.6353690
  89.3334968  35.9496410  86.8161260  90.3063500  36.8999793  86.1510765
  83.3472250  25.5297770  82.4934182  83.6868323  26.0583691  81.7712790
  83.7944371  25.8678176  83.2692748  93.0844128  37.7008261  87.7218563
  94.0090675  37.4951123  87.5843014  92.9159431  37.4524662  88.6307904
  86.0415691  23.9134820  91.9437250  85.7012512  23.1142633  92.3457930
  85.3354697  24.2136531  91.3714083  86.6932163  20.9984133  90.3964573
  87.5158232  20.5244611  90.2743463  86.9370227  21.7774616  90.8963259
  85.3340397  24.0272391  80.6927475  86.0548760  24.4053644  80.1891192
  84.7105702  24.7461268  80.7962453  89.4771520  24.7317540  81.6285807
  89.6935135  25.6142178  81.3274635  88.9965588  24.3403753  80.8991449
  84.2170742  27.6903253  88.2056552  84.0715322  28.0043556  89.0980833
  83.7395945  28.3088154  87.6527450  86.0767125  24.6805801  88.2537441
  86.0628693  23.7846895  87.9169739  86.7939553  24.6876465  88.8875727
  87.9293255  25.1143142  90.2990569  87.6711033  26.0360212  90.2974899
  87.3978296  24.7173576  90.9891033  92.8739444  38.2193929  83.0780654
  93.0476322  37.6540351  82.3254506  93.3668335  39.0194824  82.8960144
  78.6916404  30.2308598  91.1444213  78.1469872  31.0068406  91.2764487
  79.5695754  30.5779402  90.9863334  85.4804021  23.5620182  83.5225011
  85.6019932  22.6336828  83.7215899  85.1906063  23.5758868  82.6103327
  88.3495211  21.2475092  86.6591731  88.3716908  21.3114425  85.7043711
  88.7663270  20.4079601  86.8532237  98.7278835  30.9830352  84.6970954
  99.1709981  30.2337677  84.2990077  97.8505346  30.9740488  84.3144686
  93.8614617  37.5360693  80.1777552  94.5565521  38.1567386  80.3964867
  94.2037767  36.6856044  80.4529930  79.4782426  29.3578494  94.0374370
  78.7364162  29.5061129  94.6239000  79.1575170  29.6186760  93.1741119
  95.7606040  34.9860399  81.7064883  96.2857364  35.3247671  80.9814203
  95.6728392  34.0507414  81.5228018  87.4226088  38.8994472  93.8354760
  87.7313215  38.6543619  94.7077459  88.2201570  39.1041111  93.3473630
  87.4446700  41.0532382  86.0660136  87.0051691  40.5608761  86.7592993
  88.1954817  40.5105350  85.8252211  79.9239039  37.2443923  86.0684764
  80.7497059  36.9447695  85.6883408  79.5733091  36.4751545  86.5174553
  84.8920573  36.5970391  88.1382438  84.2700582  35.9341096  87.8384666
  85.5625440  36.6231523  87.4556086  78.1247644  35.1630249  87.0273698
  77.2879553  34.7352424  86.8457699  78.0971290  35.3562693  87.9644489
  84.9645100  25.0752179  97.7314944  85.0133256  25.9514302  97.3492714
  85.5067614  24.5329572  97.1586587  95.4499946  35.6193302  97.0116081
  94.6595489  35.6017441  96.4720580  95.2133300  36.1581596  97.7665118
  95.5697821  32.4685769  94.3248810  95.6195826  32.3035776  95.2664332
  95.4611744  31.6013028  93.9346690  84.4534080  35.1474314  81.6140898
  84.6022200  35.8309779  80.9607571  85.2600523  35.1279404  82.1290354
  92.8601583  28.4516697  95.6408116  93.7611446  28.3123161  95.3492114
  92.9349558  28.6171151  96.5806294  87.1944389  25.8283551  94.4861303
  86.3247698  26.1217117  94.2143891  87.4303869  26.4123996  95.2068566
  97.0716018  34.8882710  94.5690831  96.7800826  35.2512691  95.4054292
  96.4588149  34.1749718  94.3904163  98.2711700  32.4535590  87.0893401
  99.1058591  32.8925394  87.2530962  98.4070829  31.9774243  86.2701647
  95.3203206  30.0115325  93.0370889  95.7957327  30.2042971  92.2289740
  94.3968771  30.0674511  92.7914273  82.2086713  31.1739492  82.6201967
  81.9632754  30.2701822  82.8182178  82.3782627  31.1756642  81.6781445
  89.8983422  22.0463168  92.0026723  90.4165366  22.7824195  91.6773212
  89.5438555  22.3527162  92.8373482  81.4782360  26.9067849  80.1188129
  80.7851605  26.9812204  79.4628165  81.2334112  26.1428193  80.6409646
  90.1496017  18.4663451  87.5227620  90.4297770  17.7986640  88.1488046
  90.9346623  18.6592546  87.0102283  87.9529485  37.6422445  79.0852646
  87.3803452  38.2612632  78.6323118  88.5262279  38.1921806  79.6192568
  94.0204875  26.8881085  91.2699195  94.9722298  26.9879182  91.2911419
  93.8508325  26.0959353  91.7797279  92.0419254  23.9736668  91.4558596
  91.4469186  24.2541681  90.7605084  91.7568951  24.4630569  92.2275337
  91.1726745  37.9259595  80.2161228  92.1057418  37.8605157  80.4194104
  91.0849958  38.7615862  79.7575761  93.8014762  37.2425465  77.1765176
  93.7228393  36.9085329  78.0700934  94.6224428  37.7347233  77.1756648
  96.4992953  30.1087205  90.3841494  96.4669273  29.1703205  90.5701178
  97.1093576  30.1871241  89.6507319  88.3376284  28.9783257  76.4268698
  89.2835388  28.8489466  76.4957116  87.9590529  28.2397919  76.9038127
  96.6487441  26.8998248  90.4299778  96.1326490  26.1156705  90.2429706
  97.5327390  26.5716965  90.5946297  94.3098168  20.6439264  86.3895590
  94.1122989  20.3354352  87.2738922  94.9197874  21.3700902  86.5193520
 102.3169503  31.1703211  89.5247531 103.0472891  30.9088499  90.0855234
 101.7076448  30.4331933  89.5649599 100.3984800  29.3111074  90.1221982
  99.6717963  29.1767039  89.5138474  99.9832087  29.6187903  90.9278700
  88.2214976  33.0301004  97.8869355  89.1417986  33.2079603  98.0809402
  88.1864559  32.0857049  97.7349055  86.5219201  26.9033234  76.3623584
  85.6150656  26.6066347  76.4386297  86.7995182  26.6063052  75.4957870
  77.4397141  28.2239597  86.8122630  77.1199925  27.3704905  86.5197004
  76.8930569  28.4388175  87.5680597  81.2177049  30.9402038  90.5292137
  81.4363058  31.8719146  90.5480170  81.6302822  30.5810013  91.3146940
  88.1381266  21.4470124  82.5167825  87.3281995  21.1017209  82.8923071
  88.8265683  21.1377667  83.1055436  90.0671815  20.5248170  84.1392122
  90.6202853  20.9443624  84.7982145  90.3041901  19.5983918  84.1815078
  86.0904914  26.5135244  99.9194885  85.9901641  27.4629601  99.8506977
  85.8726456  26.1853483  99.0470956  85.2917985  23.7620169  76.5035563
  86.1537149  24.0875067  76.7631380  85.4768329  22.9751665  75.9908629
  77.3085401  31.8442509  88.7815752  76.6148873  31.4296462  88.2685706
  78.0558392  31.8863045  88.1849170  93.4450622  22.6348696  83.6470786
  92.8649291  23.2933500  83.2648838  93.1786554  21.8126040  83.2358203
  91.8954188  22.0353753  85.8492106  92.3953967  22.1470288  85.0406425
  92.5389796  21.7314806  86.4892915  85.9536184  29.9432383  98.7359947
  85.4703266  30.7432743  98.9423836  86.0397123  29.9540328  97.7827391
  79.2222144  31.7760763  86.6581766  79.1992832  31.8748450  85.7063650
  79.5322780  32.6225913  86.9798933  81.8809521  33.8336918  90.7728381
  82.8352775  33.8020860  90.7058312  81.6822045  33.3727541  91.5878607
  82.4708904  32.4038034  93.3399179  83.2901793  32.8982112  93.3634016
  82.7445711  31.4870002  93.3116746  92.2275500  24.7948786  82.7027134
  91.3401355  25.0798437  82.4847329  92.6429489  24.6342549  81.8554411
  95.5790036  24.8195307  86.4181473  96.3550426  25.3091759  86.6906090
  94.8538170  25.2453361  86.8753343  98.0162595  25.5322926  87.4755414
  98.6107085  25.2918662  86.7648722  98.0889178  24.8130057  88.1028950
  80.2359750  39.3756537  87.7898579  80.1014218  38.6156938  87.2236577
  79.8191813  40.0997437  87.3227368  91.3718713  34.5593461  76.7975154
  92.0754563  34.7643463  77.4132810  90.6481362  35.1270222  77.0624238
  92.2016524  30.3103322  82.9177424  92.1451725  30.7671873  82.0785057
  92.7544866  29.5494006  82.7400267  96.0121329  26.0993054  83.7427544
  95.7558264  25.6989689  84.5735751  95.3874198  26.8136848  83.6177683
 100.3233667  28.8389127  86.2498835  99.7633225  28.9082316  87.0230397
  99.7177171  28.6630112  85.5298331  83.3928876  40.2725854  88.0017021
  83.2761260  41.2171287  87.8995712  82.5721322  39.9699416  88.3902821
  93.2805411  34.9975990  78.8473614  94.1151015  34.5657188  78.6651089
  93.1189754  34.8258003  79.7750509  92.9351303  31.5008103  80.2129953
  92.8800107  31.3352375  79.2718398  92.3097358  32.2084136  80.3692143
  77.7243818  26.7376167  94.0391376  78.3702681  26.2275121  94.5278601
  77.5160969  27.4744849  94.6134801  90.2497210  33.8057015  99.5383516
  91.1188370  33.9797667  99.1770151  89.7703962  34.6251432  99.4159246
  86.2447428  21.0016212  79.7915272  86.2326098  21.9458052  79.9483543
  87.1370850  20.8186358  79.4974733  84.4183390  40.9254116  91.2172950
  85.3210637  40.9577726  91.5339445  84.1920760  39.9954567  91.2319286
  86.1736992  39.6785103  87.8783028  85.2232623  39.6786964  87.7647401
  86.4769478  38.9317837  87.3619063  90.0599548  17.5958989  84.0461209
  89.2931944  17.0417475  84.1917891  90.4710253  17.6680858  84.9075360
  82.0641309  23.8843785  98.1366390  82.9272770  23.5280589  98.3469714
  81.4906720  23.5457679  98.8241794 101.9089686  45.5145641  88.9428791
 102.5468096  45.3952388  88.2392131 101.7910529  46.4626485  89.0016743
  98.7179392  45.4673069  88.8790316  98.3797904  45.3514134  87.9910850
  99.5869160  45.0664234  88.8591322  94.5766208  47.3208545  84.8687206
  94.0131073  47.2298482  84.1003494  94.4618603  46.5008450  85.3489699
  99.1999175  46.6207921  94.8376521  99.1887816  46.2260719  93.9657025
  99.3619815  45.8873993  95.4310293  92.1230640  48.8159737  87.7071427
  92.9151932  48.4750562  87.2917726  92.3627290  48.9254712  88.6273580
 100.1565766  50.9879513  80.1801671  99.5053746  51.5733594  79.7935685
 100.9510129  51.5185708  80.2396709  94.0821394  48.0768650  80.5788806
  94.8552270  47.5297637  80.4401682  94.4346793  48.9412900  80.7903267
  95.9206436  49.4045033  93.7855705  95.6296302  50.3090663  93.6702371
  96.5563421  49.4461560  94.4999775  96.8462643  46.7821881  90.3757065
  97.4426215  46.5577903  89.6614028  96.9037615  46.0406627  90.9782513
  96.4187671  44.2361316  78.2107256  96.6713192  43.7142838  77.4490719
  95.4812231  44.0727462  78.3133939 101.4630954  43.2397095  86.0181999
 102.2494044  42.8216518  85.6672416 101.7269659  44.1443187  86.1863647
 101.6341032  48.6769945  80.7170656 100.9986865  48.7504572  81.4291560
 101.3038438  49.2663544  80.0389735 106.8639381  43.1772328  86.9214977
 107.5964553  42.6071545  87.1552807 106.1078737  42.7893928  87.3621483
  96.1383960  46.1389422  80.4131631  96.0220218  45.4634326  81.0812715
  96.2486220  45.6521796  79.5963784  98.4815501  45.5999569  84.1178320
  98.1173708  45.0730190  84.8291241  99.3382617  45.2098039  83.9444805
 104.3864802  36.8893902  91.3809586 104.0548127  37.7589313  91.1570801
 103.7910415  36.5730186  92.0603616  98.1220988  40.6289469  79.1139668
  98.2895390  41.4969706  79.4810139  97.9318157  40.7916751  78.1900958
 100.8796321  49.0906448  90.7805499 100.5797044  49.9931487  90.6721306
 100.5347381  48.8238631  91.6326652  94.3308803  45.5420245  86.8142203
  93.4059299  45.4096459  87.0219895  94.5793216  46.3214464  87.3112146
 104.2793465  41.6088988  88.4602936 103.3710342  41.5404397  88.1661697
 104.2281061  42.0860933  89.2884762  98.1010209  43.0847127  80.0986335
  97.9809834  43.5304177  80.9371815  97.4062797  43.4332444  79.5399873
  91.6917614  45.1853518  87.6485992  91.8209995  45.4387997  88.5625404
  91.0115065  45.7781226  87.3290647  95.8617101  55.8550768  83.7476466
  95.7841131  56.8058593  83.8264947  95.2578745  55.5096641  84.4051393
  98.3534331  43.0278634  96.4037833  97.5767665  43.5872554  96.3940698
  98.9924894  43.5135417  96.9252703 106.1455111  39.8105427  90.2380810
 105.5029492  40.1037960  89.5920605 105.6410040  39.6958347  91.0434007
 103.7995275  43.5568600  80.9266669 104.7113131  43.7895987  80.7514367
 103.2904922  44.1405644  80.3641748  96.6080703  45.8364087  95.9655800
  97.3495388  46.3749131  95.6890624  95.9017689  46.4630376  96.1227352
 102.0836043  47.9793228  94.5627962 102.4919399  47.5375638  93.8182594
 101.3613304  47.4045855  94.8162155  98.4367113  42.9165834  91.9361519
  99.2828308  43.3405248  92.0796168  98.3765751  42.2599459  92.6300082
 102.4064857  48.5394418  88.3180251 101.7773720  48.7040132  87.6156319
 102.0190520  48.9536028  89.0891215 106.2854089  49.4748856  85.6724614
 105.6005127  49.8547757  85.1221648 106.3697939  50.0844183  86.4056562
 101.5866558  40.5770203  93.5942692 101.3427490  41.3312263  93.0576968
 101.8626489  40.9555550  94.4289939 103.5405021  47.1208815  92.2719958
 103.7521916  47.7640575  91.5954339 103.4934769  46.2871132  91.8041888
 101.1431250  39.7326636  89.1756530 100.2815729  40.0307889  89.4673268
 101.1693685  39.9497035  88.2437563  97.9592819  48.2768826  85.5830336
  98.4231165  48.5556529  84.7934958  97.6949617  47.3752271  85.4003426
  94.8516900  47.8240308  88.5210099  95.4218257  48.2527576  87.8827584
  95.4425012  47.5422893  89.2194285  96.8961705  44.3991979  82.3919901
  97.5985749  44.8513022  82.8593827  96.5642334  43.7575798  83.0199794
  95.3442067  42.9903735  96.7671110  94.7140727  43.6720016  97.0006507
  95.2378155  42.8786817  95.8224249  90.6387039  42.6575531  87.6937034
  89.8486093  42.9133060  87.2177145  91.1298287  43.4723869  87.7989075
 104.6550849  49.9980771  90.4442315 105.4768293  49.5960958  90.1624997
 104.6513252  49.8949005  91.3958431  92.5901785  43.0220111  84.6520511
  91.7932948  43.1338805  85.1704007  92.3627377  43.3606763  83.7861402
  98.4207452  49.5464814  92.6003026  98.4851885  50.0085221  93.4361198
  97.7118376  48.9162179  92.7285336  88.9224742  42.9106022  90.1252025
  89.1732781  43.7953032  90.3909601  89.4584291  42.7310623  89.3527117
 112.7456842  46.3419519  86.7927287 111.9920550  45.7726917  86.6371291
 112.8804383  46.3082184  87.7397921  98.1355470  51.2132921  82.4682006
  98.0001145  52.0584457  82.8966854  98.6765283  51.4152199  81.7047940
  94.6222810  37.2924501  99.1296361  94.2289755  36.7390700  99.8044006
  95.4388950  37.6035080  99.5202879  91.5884867  48.7308359  83.0409931
  92.1009388  49.5251610  83.1915496  92.2407580  48.0334650  82.9743533
  93.3979752  51.8474116  85.1232684  93.5746380  52.7692080  84.9353668
  94.1936586  51.5332535  85.5527064  97.5390771  38.7082380  96.7216618
  98.2800484  39.3089533  96.6421080  97.7708693  37.9660018  96.1634661
  92.6832109  43.8938748  94.9994848  92.5685624  42.9924005  95.3001947
  91.8276626  44.1402444  94.6479664  99.7623946  51.8356488  96.5982348
  99.3187801  51.0492866  96.2803253 100.4241160  52.0235638  95.9326239
  94.5211068  53.3652289  91.1243027  95.0718493  53.2369353  90.3520021
  93.6822543  53.6647178  90.7737920 101.8605184  52.1159288  94.6263750
 101.8423660  52.9368169  94.1344019 102.7825104  51.9913363  94.8513891
  98.3178239  49.6303417  95.4687258  98.8506575  48.8691705  95.2386566
  97.7892320  49.3377069  96.2111412 101.4847934  34.7363483  90.9980900
 101.1412203  35.6265125  90.9220010 101.8526896  34.5465141  90.1350485
  89.5533784  47.0597014  83.8169502  90.3909006  47.4694022  83.6003209
  89.7312052  46.1196456  83.7869696 101.4498216  44.7272094  79.5053335
 100.9344840  45.4976699  79.7441722 101.1775525  44.0537231  80.1286396
  99.0345327  39.5721795  84.5638573  98.1786924  39.1828646  84.3844212
  99.4472279  39.6513756  83.7038359 100.5644474  37.1068138  88.9630133
 100.0609270  37.0698274  88.1497938 100.8575081  38.0160881  89.0226790
  96.8087360  37.1906868  87.9696315  97.6740357  36.9949677  87.6102204
  96.8764869  36.9617220  88.8965671 106.4232490  47.4804449  81.4406508
 105.6461933  47.1415608  80.9961670 107.1023971  47.4857072  80.7661473
 101.2384519  42.5999186  81.3313116 100.9334655  42.9145336  82.1823259
 102.1914962  42.6780606  81.3740449  99.6830951  48.7589410  82.9806070
  99.1552313  48.0242169  82.6679307  99.1818454  49.5364086  82.7346038
 104.6623797  46.9538430  88.0973116 104.0047472  47.6437692  88.1853245
 105.4664197  47.3434862  88.4407103  94.4149679  39.4209076  85.3412681
  94.9893431  39.1984258  84.6085874  95.0020661  39.4897771  86.0941283
 103.4729256  45.3082803  86.1477058 103.9861138  45.9412795  86.6498768
 104.1230480  44.7083998  85.7820418  94.7419266  41.4513537  79.3608567
  93.9056578  41.7888224  79.6817841  94.6024036  41.3162517  78.4235704
  96.7172347  36.2950325  84.0687751  96.0636759  35.9799342  83.4444366
  96.6752821  35.6726065  84.7947574  97.8283551  46.5769620  75.9841043
  96.9210613  46.3458873  76.1832192  98.3254583  45.7807239  76.1715024
 100.7351630  55.2867127  78.9037729 100.0613329  55.5898824  79.5122687
 101.1217452  56.0896208  78.5543186  99.9510087  42.7832258  88.3935398
  99.0332648  43.0047205  88.2357087 100.3670231  42.8578569  87.5347106
 100.7345135  44.1823674  83.5238079 101.4816954  44.6945071  83.2145201
 101.0036724  43.8607727  84.3842472  99.0071785  46.6782215  80.5065033
  98.0983004  46.3941248  80.6037503  99.0366869  47.0981293  79.6468340
 104.2391052  50.2888804  84.2756201 103.7853379  49.4479714  84.3321391
 103.6085019  50.9250203  84.6130981 103.1823972  41.2180790  85.5056868
 102.4446729  40.7058177  85.8367111 103.4350745  40.7781172  84.6940145
 102.6823992  52.1265301  85.2106019 102.9746966  52.6870358  84.4918384
 103.1922612  52.4193862  85.9659178 103.2835599  33.9957042  86.0998637
 103.5894476  33.1354406  85.8124552 104.0088204  34.5874663  85.8997631
  89.5759955  44.3987729  84.4880235  89.3784355  43.8057090  83.7631302
  89.0206619  44.0939939  85.2056174  97.5556679  44.2910835  86.6074828
  97.6105289  43.3384672  86.5317305  96.7447881  44.4470275  87.0916127
  98.7047873  48.2190959  77.8453112  98.2667303  47.5026817  77.3858749
  99.4458314  48.4467073  77.2838203  95.4949039  42.9087895  84.3665207
  94.6816904  43.2082066  84.7730399  95.9908033  42.5143584  85.0839689
  97.6457617  52.9045652  86.2999472  97.6033796  53.1306498  85.3708004
  98.5620316  52.6709027  86.4485273 101.0923251  43.3729720  93.1980101
 101.4472638  43.6001193  94.0574567 101.7395382  43.7048096  92.5757356
 106.8220988  46.4948156  83.9029430 106.6838886  46.6849752  82.9750619
 106.4657206  47.2567538  84.3597481  94.9863114  40.4806251  89.9826442
  95.6262493  40.3395010  89.2849406  94.1540644  40.1940764  89.6065044
 106.8490367  48.5624683  88.9140702 107.2826874  48.4699972  89.7623756
 107.5621948  48.5382183  88.2760718  95.7623418  49.7808681  86.0961435
  96.5564016  49.2859001  85.8944010  95.0515110  49.2526544  85.7329140
 100.5818262  52.1626777  90.4473802 100.6355284  52.7317713  91.2151518
  99.7133043  52.3328662  90.0827839  92.0706181  43.9251763  82.1721187
  91.1403769  43.8636218  82.3891149  92.1663653  43.4027716  81.3757829
  91.9891730  40.4506576  84.7599429  92.2498547  41.3651909  84.6508589
  92.8108902  39.9831018  84.9096042  93.4616655  41.8644333  91.9298254
  94.1339709  41.6561695  91.2810902  92.6346442  41.6666419  91.4903486
 107.7105917  48.6048383  91.4473587 107.9041807  49.5094194  91.6932862
 107.6106535  48.1455802  92.2812172  99.3642227  38.4906274  93.9463914
  98.7170142  39.1896223  93.8528391 100.1343243  38.9242418  94.3140163
 102.7721025  48.7555126  97.0214468 102.6206532  48.5265678  96.1044551
 102.7625705  49.7125727  97.0345813  99.5406362  46.3287039  92.0060734
 100.4698422  46.4798198  91.8329701  99.1197392  46.4171060  91.1509381
  98.3394694  50.3537703  89.7759272  98.2005779  49.9856488  90.6485210
  97.5509290  50.8685343  89.6043230  98.9342846  55.4546800  81.1184808
  99.1094601  54.9834843  81.9330431  98.2475634  56.0812566  81.3466069
  99.8899909  49.7319306  87.1648110  99.5549741  49.6920076  88.0605759
  99.3903854  49.0664022  86.6918520  93.8644153  45.1386936  92.6900691
  93.7263951  44.4067175  93.2912230  94.7749076  45.0495836  92.4084878
 102.8259100  47.0775340  77.4385169 102.2088271  46.3522168  77.3418222
 102.3575589  47.8384700  77.0952243  96.4926453  44.8506895  92.1784370
  97.2026072  44.2100087  92.1370989  96.4495761  45.1019790  93.1010551
 104.4813232  51.7874249  95.0990950 104.4225778  51.1033469  94.4321533
 104.8832750  52.5293239  94.6471576  95.2055387  41.8372113  93.9980010
  94.6692744  41.3862852  94.6501606  94.6172096  41.9718022  93.2550474
  93.5003931  58.6036162  87.8924668  93.7400529  59.2354687  88.5703687
  92.6573127  58.2524202  88.1790028  94.6157646  41.2960765  76.5606473
  93.7387113  41.1749565  76.1968720  95.0915399  40.5046843  76.3085362
 104.4830639  49.7513832  93.3304929 103.5957418  49.4139754  93.4531328
 105.0529190  49.0196864  93.5673695  86.1359786  46.0837924  86.6547981
  86.8230826  45.7699654  86.0668996  85.9807915  46.9879289  86.3815232
  90.9394509  40.9728121  91.0833004  90.8552697  40.3653790  90.3483414
  90.1177215  41.4637139  91.0842501  98.0131793  54.4115285  90.2966172
  97.9401964  55.2170256  90.8085477  97.5709186  54.6107251  89.4714194
  97.8021572  53.6487055  83.8068994  97.0189094  54.1908735  83.9007218
  98.5014317  54.1661035  84.2063235 101.1118222  39.4581684  86.4503199
 101.6086922  38.7051647  86.1304270 100.3405204  39.4946001  85.8846409
 108.9647980  45.1622050  88.0921491 108.9537856  46.0446765  87.7215424
 108.0965359  44.8093601  87.8976028 100.4730476  54.3102119  92.4524331
 101.1858448  54.9449584  92.3800233  99.9820505  54.4065985  91.6364333
 102.1948003  48.2153372  84.0241623 101.2604282  48.3354834  83.8546327
 102.3724672  47.3125838  83.7601633  97.6953191  41.5999067  86.1774884
  97.3250979  41.0470108  86.8655790  98.1912284  40.9957201  85.6249884
 105.5820554  44.0570691  84.5591657 106.0481007  44.8898682  84.4851960
 106.0328055  43.5915672  85.2636915  95.5242390  52.0596562  93.2729902
  96.2251849  52.6933045  93.4259296  95.0537505  52.4011294  92.5125541
 103.6496786  50.4014512  81.5577809 103.9256629  50.2871107  82.4671683
 102.7801284  50.0031997  81.5189982 103.5537217  36.4251278  88.5982558
 102.6400297  36.6555505  88.7664765 103.9830319  36.5089722  89.4496591
 103.3243676  44.6141170  91.0982452 102.6715126  44.8617077  90.4434905
 103.7024056  43.8005308  90.7644930 100.2850850  54.6500863  85.2010623
 100.4673244  53.8322519  85.6638375 101.1083836  54.8668555  84.7635513
 100.6193015  53.5769048  82.4625671 101.1480781  53.0661503  81.8495833
 100.8821235  53.2611578  83.3271204  99.3731249  45.3560981  97.5848489
  98.6971886  45.2555110  98.2550865 100.1958883  45.2000195  98.0484487
  91.1210108  51.5932917  90.2061005  91.7063545  50.8476605  90.3388909
  90.9234946  51.9036874  91.0897668  93.9748763  54.6284165  85.2223447
  93.3059138  55.1130292  84.7387487  93.8361633  54.8753385  86.1366825
  85.7127763  44.1638518  88.9265448  85.7511862  43.6302108  89.7202566
  85.2068055  43.6373723  88.3076425  98.1154032  56.6627908  91.8206105
  98.6672340  56.8259530  92.5855191  98.4560225  57.2532346  91.1486130
  93.0918525  39.0103058  92.4227990  93.1559851  39.8717889  92.0105388
  93.0285645  38.3977060  91.6900349  92.5670797  41.0826191  96.0701024
  93.1942836  40.7003268  96.6838549  91.7098716  40.8640393  96.4356717
 102.9664906  51.4889166  97.6754760 103.5104810  52.1019124  97.1809715
 102.3851751  52.0468744  98.1921773  89.3436340  42.8902620  82.0019379
  89.6389781  41.9813298  81.9486433  88.4424376  42.8690359  81.6800381
 101.2522419  54.6109884  88.8069788 101.1273558  53.8099624  88.2980733
 101.9101510  55.1056077  88.3183757  92.8730587  40.9658616  87.9846928
  92.1517173  41.5794584  87.8454401  93.6623843  41.5016381  87.9063574
 103.3157327  52.4118904  90.4349338 102.3687663  52.2924255  90.3627664
 103.6640100  51.5241402  90.5175599  95.6756901  38.3013043  94.2587579
  96.1991302  38.5475339  95.0213889  95.4569234  39.1333078  93.8390717
  91.0724182  40.5716717  82.1258704  90.7436888  39.6914096  81.9433810
  91.4263552  40.5164386  83.0135094 100.3203761  52.2071620  86.6353690
 100.1728723  51.2788328  86.8161260 101.1457254  52.2291711  86.1510765
  94.1866005  40.8589687  82.4934182  94.5262077  41.3875608  81.7712790
  94.6338125  41.1970093  83.2692748 103.9237882  53.0300179  87.7218563
 104.8484430  52.8243040  87.5843014 103.7553186  52.7816580  88.6307904
  96.8809446  39.2426738  91.9437250  96.5406266  38.4434551  92.3457930
  96.1748452  39.5428449  91.3714083  97.5325917  36.3276050  90.3964573
  98.3551987  35.8536529  90.2743463  97.7763981  37.1066534  90.8963259
  96.1734152  39.3564309  80.6927475  96.8942514  39.7345562  80.1891192
  95.5499456  40.0753186  80.7962453 100.3165275  40.0609458  81.6285807
 100.5328889  40.9434096  81.3274635  99.8359342  39.6695671  80.8991449
  95.0564496  43.0195171  88.2056552  94.9109077  43.3335474  89.0980833
  94.5789700  43.6380071  87.6527450  96.9160879  40.0097719  88.2537441
  96.9022448  39.1138812  87.9169739  97.6333307  40.0168383  88.8875727
  98.7687010  40.4435059  90.2990569  98.5104788  41.3652130  90.2974899
  98.2372050  40.0465494  90.9891033 103.7133199  53.5485846  83.0780654
 103.8870076  52.9832269  82.3254506 104.2062090  54.3486741  82.8960144
  89.5310158  45.5600515  91.1444213  88.9863626  46.3360323  91.2764487
  90.4089508  45.9071320  90.9863334  96.3197775  38.8912099  83.5225011
  96.4413686  37.9628745  83.7215899  96.0299817  38.9050785  82.6103327
  99.1888965  36.5767010  86.6591731  99.2110662  36.6406343  85.7043711
  99.6057024  35.7371518  86.8532237 109.5672590  46.3122269  84.6970954
 110.0103736  45.5629594  84.2990077 108.6899100  46.3032406  84.3144686
 104.7008371  52.8652611  80.1777552 105.3959276  53.4859303  80.3964867
 105.0431521  52.0147962  80.4529930  90.3176180  44.6870412  94.0374370
  89.5757916  44.8353047  94.6239000  89.9968925  44.9478677  93.1741119
 106.5999794  50.3152316  81.7064883 107.1251118  50.6539589  80.9814203
 106.5122147  49.3799332  81.5228018  98.2619843  54.2286390  93.8354760
  98.5706969  53.9835537  94.7077459  99.0595325  54.4333028  93.3473630
  98.2840455  56.3824300  86.0660136  97.8445445  55.8900678  86.7592993
  99.0348572  55.8397267  85.8252211  90.7632794  52.5735840  86.0684764
  91.5890814  52.2739612  85.6883408  90.4126846  51.8043463  86.5174553
  95.7314327  51.9262309  88.1382438  95.1094336  51.2633014  87.8384666
  96.4019194  51.9523440  87.4556086  88.9641399  50.4922167  87.0273698
  88.1273307  50.0644341  86.8457699  88.9365044  50.6854610  87.9644489
  95.8038855  40.4044097  97.7314944  95.8527010  41.2806219  97.3492714
  96.3461369  39.8621490  97.1586587 106.2893700  50.9485220  97.0116081
 105.4989244  50.9309359  96.4720580 106.0527055  51.4873514  97.7665118
 106.4091575  47.7977686  94.3248810 106.4589580  47.6327694  95.2664332
 106.3005499  46.9304945  93.9346690  95.2927834  50.4766232  81.6140898
  95.4415954  51.1601696  80.9607571  96.0994277  50.4571322  82.1290354
 103.6995338  43.7808614  95.6408116 104.6005200  43.6415079  95.3492114
 103.7743312  43.9463069  96.5806294  98.0338143  41.1575469  94.4861303
  97.1641452  41.4509035  94.2143891  98.2697623  41.7415914  95.2068566
 107.9109772  50.2174628  94.5690831 107.6194580  50.5804608  95.4054292
 107.2981903  49.5041636  94.3904163 109.1105454  47.7827508  87.0893401
 109.9452346  48.2217312  87.2530962 109.2464583  47.3066161  86.2701647
 106.1596960  45.3407242  93.0370889 106.6351082  45.5334889  92.2289740
 105.2362526  45.3966428  92.7914273  93.0480467  46.5031410  82.6201967
  92.8026509  45.5993740  82.8182178  93.2176382  46.5048560  81.6781445
 100.7377177  37.3755086  92.0026723 101.2559121  38.1116113  91.6773212
 100.3832310  37.6819079  92.8373482  92.3176115  42.2359767  80.1188129
  91.6245359  42.3104122  79.4628165  92.0727866  41.4720111  80.6409646
 100.9889771  33.7955368  87.5227620 101.2691525  33.1278558  88.1488046
 101.7740378  33.9884464  87.0102283  98.7923240  52.9714362  79.0852646
  98.2197207  53.5904550  78.6323118  99.3656033  53.5213724  79.6192568
 104.8598629  42.2173002  91.2699195 105.8116052  42.3171100  91.2911419
 104.6902080  41.4251271  91.7797279 102.8813009  39.3028586  91.4558596
 102.2862941  39.5833598  90.7605084 102.5962706  39.7922487  92.2275337
 102.0120499  53.2551513  80.2161228 102.9451172  53.1897074  80.4194104
 101.9243712  54.0907779  79.7575761 104.6408516  52.5717383  77.1765176
 104.5622148  52.2377246  78.0700934 105.4618183  53.0639151  77.1756648
 107.3386707  45.4379122  90.3841494 107.3063027  44.4995123  90.5701178
 107.9487331  45.5163159  89.6507319  99.1770038  44.3075175  76.4268698
 100.1229143  44.1781383  76.4957116  98.7984283  43.5689837  76.9038127
 107.4881196  42.2290166  90.4299778 106.9720244  41.4448622  90.2429706
 108.3721144  41.9008882  90.5946297 105.1491923  35.9731181  86.3895590
 104.9516744  35.6646269  87.2738922 105.7591628  36.6992820  86.5193520
 113.1563257  46.4995129  89.5247531 113.8866646  46.2380417  90.0855234
 112.5470203  45.7623851  89.5649599 111.2378554  44.6402992  90.1221982
 110.5111718  44.5058957  89.5138474 110.8225841  44.9479820  90.9278700
  99.0608731  48.3592921  97.8869355  99.9811740  48.5371520  98.0809402
  99.0258314  47.4148967  97.7349055  97.3612955  42.2325152  76.3623584
  96.4544411  41.9358264  76.4386297  97.6388936  41.9354970  75.4957870
  88.2790896  43.5531515  86.8122630  87.9593680  42.6996823  86.5197004
  87.7324324  43.7680093  87.5680597  92.0570803  46.2693956  90.5292137
  92.2756813  47.2011064  90.5480170  92.4696577  45.9101930  91.3146940
  98.9775021  36.7762041  82.5167825  98.1675749  36.4309126  82.8923071
  99.6659438  36.4669585  83.1055436 100.9065569  35.8540088  84.1392122
 101.4596608  36.2735541  84.7982145 101.1435656  34.9275836  84.1815078
  96.9298668  41.8427162  99.9194885  96.8295395  42.7921519  99.8506977
  96.7120210  41.5145401  99.0470956  96.1311740  39.0912087  76.5035563
  96.9930904  39.4166985  76.7631380  96.3162084  38.3043583  75.9908629
  88.1479156  47.1734426  88.7815752  87.4542627  46.7588379  88.2685706
  88.8952147  47.2154963  88.1849170 104.2844376  37.9640613  83.6470786
 103.7043045  38.6225417  83.2648838 104.0180309  37.1417958  83.2358203
 102.7347943  37.3645671  85.8492106 103.2347721  37.4762205  85.0406425
 103.3783551  37.0606724  86.4892915  96.7929938  45.2724301  98.7359947
  96.3097020  46.0724661  98.9423836  96.8790878  45.2832245  97.7827391
  90.0615898  47.1052680  86.6581766  90.0386586  47.2040367  85.7063650
  90.3716535  47.9517831  86.9798933  92.7203276  49.1628835  90.7728381
  93.6746530  49.1312778  90.7058312  92.5215800  48.7019459  91.5878607
  93.3102658  47.7329951  93.3399179  94.1295547  48.2274030  93.3634016
  93.5839466  46.8161919  93.3116746 103.0669254  40.1240704  82.7027134
 102.1795109  40.4090354  82.4847329 103.4823243  39.9634467  81.8554411
 106.4183790  40.1487225  86.4181473 107.1944181  40.6383677  86.6906090
 105.6931925  40.5745279  86.8753343 108.8556349  40.8614844  87.4755414
 109.4500840  40.6210580  86.7648722 108.9282933  40.1421974  88.1028950
  91.0753505  54.7048455  87.7898579  90.9407973  53.9448856  87.2236577
  90.6585567  55.4289355  87.3227368 102.2112468  49.8885378  76.7975154
 102.9148318  50.0935381  77.4132810 101.4875117  50.4562140  77.0624238
 103.0410278  45.6395240  82.9177424 102.9845479  46.0963791  82.0785057
 103.5938621  44.8785924  82.7400267 106.8515084  41.4284971  83.7427544
 106.5952018  41.0281607  84.5735751 106.2267952  42.1428765  83.6177683
 111.1627422  44.1681045  86.2498835 110.6026980  44.2374234  87.0230397
 110.5570925  43.9922029  85.5298331  94.2322631  55.6017772  88.0017021
  94.1155015  56.5463204  87.8995712  93.4115077  55.2991333  88.3902821
 104.1199165  50.3267907  78.8473614 104.9544769  49.8949106  78.6651089
 103.9583508  50.1549921  79.7750509 103.7745057  46.8300021  80.2129953
 103.7193861  46.6644292  79.2718398 103.1491113  47.5376054  80.3692143
  88.5637572  42.0668085  94.0391376  89.2096436  41.5567039  94.5278601
  88.3554723  42.8036767  94.6134801 101.0890965  49.1348933  99.5383516
 101.9582124  49.3089585  99.1770151 100.6097716  49.9543349  99.4159246
  97.0841183  36.3308130  79.7915272  97.0719853  37.2749970  79.9483543
  97.9764605  36.1478275  79.4974733  95.2577145  56.2546034  91.2172950
  96.1604391  56.2869644  91.5339445  95.0314515  55.3246485  91.2319286
  97.0130747  55.0077020  87.8783028  96.0626378  55.0078882  87.7647401
  97.3163233  54.2609755  87.3619063 100.8993302  32.9250906  84.0461209
 100.1325698  32.3709393  84.1917891 101.3104007  32.9972775  84.9075360
  92.9035063  39.2135702  98.1366390  93.7666525  38.8572507  98.3469714
  92.3300474  38.8749597  98.8241794 112.7483440  60.8437559  88.9428791
 113.3861850  60.7244306  88.2392131 112.6304283  61.7918403  89.0016743
 109.5573147  60.7964987  88.8790316 109.2191658  60.6806051  87.9910850
 110.4262915  60.3956152  88.8591322 105.4159962  62.6500463  84.8687206
 104.8524827  62.5590400  84.1003494 105.3012357  61.8300368  85.3489699
 110.0392930  61.9499838  94.8376521 110.0281570  61.5552637  93.9657025
 110.2013569  61.2165911  95.4310293 102.9624394  64.1451655  87.7071427
 103.7545686  63.8042479  87.2917726 103.2021044  64.2546630  88.6273580
 110.9959521  66.3171431  80.1801671 110.3447501  66.9025511  79.7935685
 111.7903884  66.8477626  80.2396709 104.9215148  63.4060568  80.5788806
 105.6946024  62.8589555  80.4401682 105.2740547  64.2704817  80.7903267
 106.7600191  64.7336950  93.7855705 106.4690057  65.6382581  93.6702371
 107.3957175  64.7753478  94.4999775 107.6856398  62.1113799  90.3757065
 108.2819970  61.8869821  89.6614028 107.7431369  61.3698544  90.9782513
 107.2581426  59.5653234  78.2107256 107.5106947  59.0434755  77.4490719
 106.3205985  59.4019380  78.3133939 112.3024709  58.5689012  86.0181999
 113.0887798  58.1508436  85.6672416 112.5663413  59.4735105  86.1863647
 112.4734786  64.0061863  80.7170656 111.8380619  64.0796489  81.4291560
 112.1432193  64.5955462  80.0389735 117.7033136  58.5064246  86.9214977
 118.4358308  57.9363462  87.1552807 116.9472492  58.1185846  87.3621483
 106.9777715  61.4681340  80.4131631 106.8613973  60.7926243  81.0812715
 107.0879975  60.9813714  79.5963784 109.3209256  60.9291487  84.1178320
 108.9567463  60.4022108  84.8291241 110.1776372  60.5389956  83.9444805
 115.2258556  52.2185820  91.3809586 114.8941881  53.0881231  91.1570801
 114.6304170  51.9022104  92.0603616 108.9614743  55.9581387  79.1139668
 109.1289145  56.8261623  79.4810139 108.7711912  56.1208669  78.1900958
 111.7190076  64.4198366  90.7805499 111.4190799  65.3223405  90.6721306
 111.3741135  64.1530549  91.6326652 105.1702557  60.8712163  86.8142203
 104.2453054  60.7388377  87.0219895 105.4186970  61.6506382  87.3112146
 115.1187220  56.9380906  88.4602936 114.2104097  56.8696314  88.1661697
 115.0674815  57.4152851  89.2884762 108.9403963  58.4139044  80.0986335
 108.8203589  58.8596095  80.9371815 108.2456552  58.7624362  79.5399873
 102.5311368  60.5145436  87.6485992 102.6603749  60.7679915  88.5625404
 101.8508820  61.1073144  87.3290647 106.7010856  71.1842686  83.7476466
 106.6234885  72.1350511  83.8264947 106.0972499  70.8388559  84.4051393
 109.1928085  58.3570552  96.4037833 108.4161419  58.9164472  96.3940698
 109.8318648  58.8427334  96.9252703 116.9848866  55.1397344  90.2380810
 116.3423246  55.4329877  89.5920605 116.4803794  55.0250265  91.0434007
 114.6389030  58.8860518  80.9266669 115.5506886  59.1187904  80.7514367
 114.1298677  59.4697562  80.3641748 107.4474458  61.1656005  95.9655800
 108.1889142  61.7041049  95.6890624 106.7411443  61.7922294  96.1227352
 112.9229797  63.3085145  94.5627962 113.3313153  62.8667556  93.8182594
 112.2007059  62.7337773  94.8162155 109.2760867  58.2457752  91.9361519
 110.1222063  58.6697166  92.0796168 109.2159505  57.5891376  92.6300082
 113.2458612  63.8686336  88.3180251 112.6167474  64.0332050  87.6156319
 112.8584274  64.2827946  89.0891215 117.1247844  64.8040774  85.6724614
 116.4398882  65.1839675  85.1221648 117.2091693  65.4136100  86.4056562
 112.4260313  55.9062120  93.5942692 112.1821245  56.6604181  93.0576968
 112.7020243  56.2847468  94.4289939 114.3798775  62.4500733  92.2719958
 114.5915671  63.0932493  91.5954339 114.3328524  61.6163049  91.8041888
 111.9825004  55.0618553  89.1756530 111.1209483  55.3599807  89.4673268
 112.0087439  55.2788952  88.2437563 108.7986574  63.6060744  85.5830336
 109.2624919  63.8848447  84.7934958 108.5343372  62.7044189  85.4003426
 105.6910655  63.1532226  88.5210099 106.2612012  63.5819494  87.8827584
 106.2818767  62.8714810  89.2194285 107.7355460  59.7283896  82.3919901
 108.4379503  60.1804940  82.8593827 107.4036088  59.0867715  83.0199794
 106.1835821  58.3195653  96.7671110 105.5534482  59.0011934  97.0006507
 106.0771909  58.2078735  95.8224249 101.4780794  57.9867449  87.6937034
 100.6879848  58.2424978  87.2177145 101.9692041  58.8015787  87.7989075
 115.4944603  65.3272688  90.4442315 116.3162047  64.9252876  90.1624997
 115.4907006  65.2240922  91.3958431 103.4295539  58.3512028  84.6520511
 102.6326702  58.4630723  85.1704007 103.2021131  58.6898681  83.7861402
 109.2601207  64.8756732  92.6003026 109.3245639  65.3377139  93.4361198
 108.5512131  64.2454096  92.7285336  99.7618497  58.2397940  90.1252025
 100.0126535  59.1244949  90.3909601 100.2978045  58.0602541  89.3527117
 108.9749224  66.5424839  82.4682006 108.8394899  67.3876375  82.8966854
 109.5159037  66.7444117  81.7047940 105.4616564  52.6216419  99.1296361
 105.0683510  52.0682617  99.8044006 106.2782704  52.9326997  99.5202879
 102.4278622  64.0600277  83.0409931 102.9403142  64.8543527  83.1915496
 103.0801335  63.3626568  82.9743533 104.2373507  67.1766033  85.1232684
 104.4140135  68.0983998  84.9353668 105.0330340  66.8624453  85.5527064
 108.3784525  54.0374298  96.7216618 109.1194238  54.6381451  96.6421080
 108.6102448  53.2951936  96.1634661 103.5225863  59.2230665  94.9994848
 103.4079378  58.3215922  95.3001947 102.6670381  59.4694362  94.6479664
 110.6017701  67.1648406  96.5982348 110.1581555  66.3784784  96.2803253
 111.2634914  67.3527556  95.9326239 105.3604822  68.6944207  91.1243027
 105.9112247  68.5661270  90.3520021 104.5216298  68.9939096  90.7737920
 112.6998939  67.4451205  94.6263750 112.6817414  68.2660087  94.1344019
 113.6218859  67.3205281  94.8513891 109.1571993  64.9595335  95.4687258
 109.6900330  64.1983623  95.2386566 108.6286074  64.6668987  96.2111412
 112.3241688  50.0655401  90.9980900 111.9805957  50.9557043  90.9220010
 112.6920651  49.8757059  90.1350485 100.3927539  62.3888931  83.8169502
 101.2302761  62.7985940  83.6003209 100.5705806  61.4488374  83.7869696
 112.2891971  60.0564012  79.5053335 111.7738594  60.8268617  79.7441722
 112.0169279  59.3829148  80.1286396 109.8739082  54.9013713  84.5638573
 109.0180678  54.5120563  84.3844212 110.2866034  54.9805674  83.7038359
 111.4038228  52.4360056  88.9630133 110.9003024  52.3990191  88.1497938
 111.6968835  53.3452799  89.0226790 107.6481114  52.5198786  87.9696315
 108.5134111  52.3241594  87.6102204 107.7158623  52.2909138  88.8965671
 117.2626245  62.8096367  81.4406508 116.4855688  62.4707526  80.9961670
 117.9417726  62.8148990  80.7661473 112.0778274  57.9291104  81.3313116
 111.7728410  58.2437253  82.1823259 113.0308716  58.0072524  81.3740449
 110.5224706  64.0881327  82.9806070 109.9946067  63.3534087  82.6679307
 110.0212209  64.8656004  82.7346038 115.5017552  62.2830348  88.0973116
 114.8441226  62.9729609  88.1853245 116.3057951  62.6726780  88.4407103
 105.2543433  54.7500994  85.3412681 105.8287185  54.5276175  84.6085874
 105.8414416  54.8189688  86.0941283 114.3123011  60.6374721  86.1477058
 114.8254892  61.2704712  86.6498768 114.9624235  60.0375916  85.7820418
 105.5813021  56.7805455  79.3608567 104.7450333  57.1180141  79.6817841
 105.4417790  56.6454435  78.4235704 107.5566101  51.6242243  84.0687751
 106.9030513  51.3091260  83.4444366 107.5146575  51.0017983  84.7947574
 108.6677306  61.9061538  75.9841043 107.7604368  61.6750791  76.1832192
 109.1648338  61.1099157  76.1715024 111.5745385  70.6159045  78.9037729
 110.9007084  70.9190742  79.5122687 111.9611207  71.4188125  78.5543186
 110.7903841  58.1124176  88.3935398 109.8726403  58.3339123  88.2357087
 111.2063985  58.1870487  87.5347106 111.5738889  59.5115592  83.5238079
 112.3210708  60.0236989  83.2145201 111.8430479  59.1899645  84.3842472
 109.8465539  62.0074133  80.5065033 108.9376759  61.7233165  80.6037503
 109.8760623  62.4273211  79.6468340 115.0784807  65.6180722  84.2756201
 114.6247134  64.7771632  84.3321391 114.4478774  66.2542120  84.6130981
 114.0217726  56.5472708  85.5056868 113.2840483  56.0350094  85.8367111
 114.2744500  56.1073090  84.6940145 113.5217746  67.4557219  85.2106019
 113.8140720  68.0162276  84.4918384 114.0316367  67.7485780  85.9659178
 114.1229354  49.3248960  86.0998637 114.4288231  48.4646324  85.8124552
 114.8481959  49.9166580  85.8997631 100.4153710  59.7279647  84.4880235
 100.2178110  59.1349007  83.7631302  99.8600374  59.4231857  85.2056174
 108.3950433  59.6202753  86.6074828 108.4499043  58.6676590  86.5317305
 107.5841635  59.7762192  87.0916127 109.5441627  63.5482876  77.8453112
 109.1061057  62.8318735  77.3858749 110.2852068  63.7758991  77.2838203
 106.3342793  58.2379813  84.3665207 105.5210659  58.5373983  84.7730399
 106.8301788  57.8435502  85.0839689 108.4851371  68.2337570  86.2999472
 108.4427550  68.4598416  85.3708004 109.4014070  68.0000944  86.4485273
 111.9317005  58.7021637  93.1980101 112.2866393  58.9293111  94.0574567
 112.5789136  59.0340014  92.5757356 117.6614742  61.8240073  83.9029430
 117.5232641  62.0141669  82.9750619 117.3050961  62.5859456  84.3597481
 105.8256868  55.8098168  89.9826442 106.4656247  55.6686928  89.2849406
 104.9934399  55.5232682  89.6065044 117.6884122  63.8916600  88.9140702
 118.1220628  63.7991889  89.7623756 118.4015702  63.8674101  88.2760718
 106.6017172  65.1100599  86.0961435 107.3957771  64.6150919  85.8944010
 105.8908864  64.5818462  85.7329140 111.4212017  67.4918694  90.4473802
 111.4749039  68.0609631  91.2151518 110.5526798  67.6620579  90.0827839
 102.9099936  59.2543681  82.1721187 101.9797524  59.1928136  82.3891149
 103.0057407  58.7319633  81.3757829 102.8285485  55.7798493  84.7599429
 103.0892302  56.6943827  84.6508589 103.6502657  55.3122936  84.9096042
 104.3010410  57.1936251  91.9298254 104.9733463  56.9853613  91.2810902
 103.4740196  56.9958337  91.4903486 118.5499671  63.9340301  91.4473587
 118.7435561  64.8386111  91.6932862 118.4500289  63.4747720  92.2812172
 110.2035982  53.8198192  93.9463914 109.5563897  54.5188141  93.8528391
 110.9736997  54.2534335  94.3140163 113.6114780  64.0847044  97.0214468
 113.4600286  63.8557595  96.1044551 113.6019459  65.0417645  97.0345813
 110.3800116  61.6578956  92.0060734 111.3092176  61.8090116  91.8329701
 109.9591146  61.7462977  91.1509381 109.1788448  65.6829621  89.7759272
 109.0399534  65.3148405  90.6485210 108.3903044  66.1977260  89.6043230
 109.7736600  70.7838717  81.1184808 109.9488356  70.3126761  81.9330431
 109.0869388  71.4104484  81.3466069 110.7293663  65.0611224  87.1648110
 110.3943496  65.0211994  88.0605759 110.2297609  64.3955939  86.6918520
 104.7037907  60.4678854  92.6900691 104.5657705  59.7359092  93.2912230
 105.6142831  60.3787754  92.4084878 113.6652855  62.4067258  77.4385169
 113.0482025  61.6814086  77.3418222 113.1969343  63.1676618  77.0952243
 107.3320208  60.1798813  92.1784370 108.0419826  59.5392005  92.1370989
 107.2889516  60.4311708  93.1010551 115.3206986  67.1166166  95.0990950
 115.2619533  66.4325386  94.4321533 115.7226505  67.8585156  94.6471576
 106.0449142  57.1664031  93.9980010 105.5086499  56.7154769  94.6501606
 105.4565850  57.3009940  93.2550474 104.3397685  73.9328080  87.8924668
 104.5794284  74.5646604  88.5703687 103.4966882  73.5816120  88.1790028
 105.4551401  56.6252682  76.5606473 104.5780867  56.5041483  76.1968720
 105.9309154  55.8338760  76.3085362 115.3224394  65.0805750  93.3304929
 114.4351173  64.7431672  93.4531328 115.8922945  64.3488781  93.5673695
  96.9753541  61.4129842  86.6547981  97.6624581  61.0991572  86.0668996
  96.8201670  62.3171207  86.3815232 101.7788263  56.3020038  91.0833004
 101.6946452  55.6945708  90.3483414 100.9570969  56.7929057  91.0842501
 108.8525547  69.7407203  90.2966172 108.7795719  70.5462174  90.8085477
 108.4102940  69.9399168  89.4714194 108.6415327  68.9778973  83.8068994
 107.8582849  69.5200653  83.9007218 109.3408072  69.4952952  84.2063235
 111.9511977  54.7873602  86.4503199 112.4480676  54.0343564  86.1304270
 111.1798958  54.8237919  85.8846409 119.8041734  60.4913968  88.0921491
 119.7931611  61.3738683  87.7215424 118.9359114  60.1385518  87.8976028
 111.3124231  69.6394037  92.4524331 112.0252203  70.2741501  92.3800233
 110.8214259  69.7357903  91.6364333 113.0341758  63.5445289  84.0241623
 112.0998036  63.6646752  83.8546327 113.2118426  62.6417756  83.7601633
 108.5346946  56.9290985  86.1774884 108.1644733  56.3762025  86.8655790
 109.0306038  56.3249118  85.6249884 116.4214309  59.3862609  84.5591657
 116.8874761  60.2190600  84.4851960 116.8721809  58.9207590  85.2636915
 106.3636144  67.3888480  93.2729902 107.0645604  68.0224963  93.4259296
 105.8931259  67.7303212  92.5125541 114.4890540  65.7306430  81.5577809
 114.7650384  65.6163024  82.4671683 113.6195039  65.3323915  81.5189982
 114.3930972  51.7543195  88.5982558 113.4794051  51.9847422  88.7664765
 114.8224073  51.8381640  89.4496591 114.1637430  59.9433087  91.0982452
 113.5108880  60.1908995  90.4434905 114.5417810  59.1297226  90.7644930
 111.1244604  69.9792781  85.2010623 111.3066999  69.1614437  85.6638375
 111.9477590  70.1960473  84.7635513 111.4586770  68.9060966  82.4625671
 111.9874536  68.3953420  81.8495833 111.7214989  68.5903496  83.3271204
 110.2125003  60.6852899  97.5848489 109.5365640  60.5847028  98.2550865
 111.0352637  60.5292112  98.0484487 101.9603862  66.9224835  90.2061005
 102.5457299  66.1768523  90.3388909 101.7628701  67.2328792  91.0897668
 104.8142517  69.9576082  85.2223447 104.1452893  70.4422210  84.7387487
 104.6755387  70.2045303  86.1366825  96.5521517  59.4930435  88.9265448
  96.5905617  58.9594026  89.7202566  96.0461810  58.9665641  88.3076425
 108.9547786  71.9919826  91.8206105 109.5066094  72.1551447  92.5855191
 109.2953980  72.5824264  91.1486130 103.9312279  54.3394976  92.4227990
 103.9953606  55.2009807  92.0105388 103.8679400  53.7268977  91.6900349
 103.4064552  56.4118108  96.0701024 104.0336591  56.0295186  96.6838549
 102.5492471  56.1932310  96.4356717 113.8058660  66.8181083  97.6754760
 114.3498564  67.4311042  97.1809715 113.2245505  67.3760662  98.1921773
 100.1830095  58.2194537  82.0019379 100.4783536  57.3105216  81.9486433
  99.2818130  58.1982277  81.6800381 112.0916173  69.9401801  88.8069788
 111.9667313  69.1391541  88.2980733 112.7495264  70.4347995  88.3183757
 103.7124342  56.2950534  87.9846928 102.9910927  56.9086502  87.8454401
 104.5017597  56.8308299  87.9063574 114.1551082  67.7410822  90.4349338
 113.2081417  67.6216173  90.3627664 114.5033855  66.8533320  90.5175599
 106.5150655  53.6304960  94.2587579 107.0385057  53.8767257  95.0213889
 106.2962988  54.4624995  93.8390717 101.9117936  55.9008635  82.1258704
 101.5830642  55.0206014  81.9433810 102.2657307  55.8456304  83.0135094
 111.1597515  67.5363538  86.6353690 111.0122477  66.6080245  86.8161260
 111.9851009  67.5583629  86.1510765 105.0259759  56.1881605  82.4934182
 105.3655832  56.7167526  81.7712790 105.4731880  56.5262011  83.2692748
 114.7631637  68.3592097  87.7218563 115.6878184  68.1534958  87.5843014
 114.5946940  68.1108498  88.6307904 107.7203200  54.5718656  91.9437250
 107.3800021  53.7726469  92.3457930 107.0142206  54.8720366  91.3714083
 108.3719672  51.6567968  90.3964573 109.1945741  51.1828446  90.2743463
 108.6157736  52.4358452  90.8963259 107.0127906  54.6856226  80.6927475
 107.7336269  55.0637479  80.1891192 106.3893211  55.4045103  80.7962453
 111.1559029  55.3901375  81.6285807 111.3722644  56.2726013  81.3274635
 110.6753096  54.9987589  80.8991449 105.8958251  58.3487089  88.2056552
 105.7502831  58.6627392  89.0980833 105.4183454  58.9671989  87.6527450
 107.7554634  55.3389637  88.2537441 107.7416202  54.4430730  87.9169739
 108.4727062  55.3460300  88.8875727 109.6080764  55.7726977  90.2990569
 109.3498542  56.6944048  90.2974899 109.0765805  55.3757411  90.9891033
 114.5526953  68.8777764  83.0780654 114.7263831  68.3124186  82.3254506
 115.0455844  69.6778659  82.8960144 100.3703913  60.8892433  91.1444213
  99.8257381  61.6652241  91.2764487 101.2483263  61.2363238  90.9863334
 107.1591530  54.2204017  83.5225011 107.2807441  53.2920663  83.7215899
 106.8693572  54.2342703  82.6103327 110.0282720  51.9058927  86.6591731
 110.0504417  51.9698260  85.7043711 110.4450779  51.0663436  86.8532237
 120.4066344  61.6414187  84.6970954 120.8497490  60.8921512  84.2990077
 119.5292855  61.6324323  84.3144686 115.5402126  68.1944528  80.1777552
 116.2353030  68.8151221  80.3964867 115.8825276  67.3439880  80.4529930
 101.1569935  60.0162329  94.0374370 100.4151671  60.1644965  94.6239000
 100.8362679  60.2770595  93.1741119 117.4393549  65.6444234  81.7064883
 117.9644873  65.9831507  80.9814203 117.3515901  64.7091249  81.5228018
 109.1013597  69.5578308  93.8354760 109.4100724  69.3127454  94.7077459
 109.8989079  69.7624946  93.3473630 109.1234209  71.7116217  86.0660136
 108.6839200  71.2192596  86.7592993 109.8742326  71.1689185  85.8252211
 101.6026548  67.9027758  86.0684764 102.4284568  67.6031530  85.6883408
 101.2520600  67.1335380  86.5174553 106.5708082  67.2554226  88.1382438
 105.9488091  66.5924931  87.8384666 107.2412948  67.2815358  87.4556086
  99.8035153  65.8214085  87.0273698  98.9667062  65.3936259  86.8457699
  99.7758799  66.0146528  87.9644489 106.6432609  55.7336014  97.7314944
 106.6920765  56.6098137  97.3492714 107.1855123  55.1913407  97.1586587
 117.1287455  66.2777138  97.0116081 116.3382998  66.2601276  96.4720580
 116.8920809  66.8165431  97.7665118 117.2485330  63.1269604  94.3248810
 117.2983335  62.9619611  95.2664332 117.1399253  62.2596863  93.9346690
 106.1321589  65.8058150  81.6140898 106.2809709  66.4893614  80.9607571
 106.9388032  65.7863240  82.1290354 114.5389092  59.1100532  95.6408116
 115.4398955  58.9706997  95.3492114 114.6137067  59.2754987  96.5806294
 108.8731898  56.4867387  94.4861303 108.0035207  56.7800953  94.2143891
 109.1091378  57.0707832  95.2068566 118.7503527  65.5466545  94.5690831
 118.4588335  65.9096526  95.4054292 118.1375658  64.8333554  94.3904163
 119.9499209  63.1119425  87.0893401 120.7846100  63.5509229  87.2530962
 120.0858338  62.6358078  86.2701647 116.9990715  60.6699160  93.0370889
 117.4744836  60.8626806  92.2289740 116.0756280  60.7258346  92.7914273
 103.8874221  61.8323327  82.6201967 103.6420263  60.9285657  82.8182178
 104.0570136  61.8340478  81.6781445 111.5770931  52.7047004  92.0026723
 112.0952875  53.4408031  91.6773212 111.2226064  53.0110997  92.8373482
 103.1569869  57.5651685  80.1188129 102.4639114  57.6396040  79.4628165
 102.9121621  56.8012028  80.6409646 111.8283526  49.1247286  87.5227620
 112.1085279  48.4570475  88.1488046 112.6134132  49.3176382  87.0102283
 109.6316994  68.3006280  79.0852646 109.0590961  68.9196467  78.6323118
 110.2049788  68.8505642  79.6192568 115.6992384  57.5464920  91.2699195
 116.6509807  57.6463018  91.2911419 115.5295834  56.7543189  91.7797279
 113.7206763  54.6320503  91.4558596 113.1256695  54.9125516  90.7605084
 113.4356460  55.1214404  92.2275337 112.8514254  68.5843430  80.2161228
 113.7844927  68.5188992  80.4194104 112.7637467  69.4199697  79.7575761
 115.4802270  67.9009301  77.1765176 115.4015902  67.5669164  78.0700934
 116.3011937  68.3931068  77.1756648 118.1780462  60.7671040  90.3841494
 118.1456782  59.8287041  90.5701178 118.7881085  60.8455077  89.6507319
 110.0163793  59.6367093  76.4268698 110.9622897  59.5073301  76.4957116
 109.6378037  58.8981755  76.9038127 118.3274950  57.5582083  90.4299778
 117.8113999  56.7740540  90.2429706 119.2114899  57.2300800  90.5946297
 115.9885677  51.3023099  86.3895590 115.7910498  50.9938187  87.2738922
 116.5985383  52.0284738  86.5193520 109.9002485  63.6884839  97.8869355
 110.8205495  63.8663438  98.0809402 109.8652068  62.7440884  97.7349055
 108.2006710  57.5617069  76.3623584 107.2938165  57.2650182  76.4386297
 108.4782691  57.2646887  75.4957870  99.1184650  58.8823433  86.8122630
  98.7987434  58.0288741  86.5197004  98.5718078  59.0972011  87.5680597
 102.8964558  61.5985874  90.5292137 103.1150567  62.5302981  90.5480170
 103.3090331  61.2393848  91.3146940 109.8168775  52.1053959  82.5167825
 109.0069504  51.7601044  82.8923071 110.5053192  51.7961503  83.1055436
 111.7459324  51.1832006  84.1392122 112.2990362  51.6027459  84.7982145
 111.9829410  50.2567754  84.1815078 107.7692423  57.1719079  99.9194885
 107.6689150  58.1213436  99.8506977 107.5513965  56.8437318  99.0470956
 106.9705494  54.4204004  76.5035563 107.8324658  54.7458903  76.7631380
 107.1555838  53.6335500  75.9908629  98.9872910  62.5026344  88.7815752
  98.2936381  62.0880297  88.2685706  99.7345901  62.5446881  88.1849170
 115.1238131  53.2932531  83.6470786 114.5436800  53.9517335  83.2648838
 114.8574063  52.4709875  83.2358203 113.5741697  52.6937589  85.8492106
 114.0741476  52.8054123  85.0406425 114.2177305  52.3898641  86.4892915
 107.6323693  60.6016218  98.7359947 107.1490775  61.4016578  98.9423836
 107.7184632  60.6124163  97.7827391 100.9009653  62.4344598  86.6581766
 100.8780341  62.5332285  85.7063650 101.2110289  63.2809749  86.9798933
 103.5597030  64.4920753  90.7728381 104.5140284  64.4604695  90.7058312
 103.3609554  64.0311377  91.5878607 104.1496413  63.0621869  93.3399179
 104.9689302  63.5565948  93.3634016 104.4233220  62.1453837  93.3116746
 113.9063009  55.4532621  82.7027134 113.0188864  55.7382272  82.4847329
 114.3216998  55.2926385  81.8554411 117.2577545  55.4779142  86.4181473
 118.0337935  55.9675595  86.6906090 116.5325679  55.9037196  86.8753343
 119.6950104  56.1906761  87.4755414 120.2894594  55.9502497  86.7648722
 119.7676687  55.4713892  88.1028950 101.9147259  70.0340372  87.7898579
 101.7801727  69.2740773  87.2236577 101.4979322  70.7581272  87.3227368
 113.0506222  65.2177296  76.7975154 113.7542072  65.4227298  77.4132810
 112.3268871  65.7854058  77.0624238 113.8804033  60.9687157  82.9177424
 113.8239234  61.4255709  82.0785057 114.4332375  60.2077842  82.7400267
 117.6908838  56.7576889  83.7427544 117.4345773  56.3573525  84.5735751
 117.0661706  57.4720683  83.6177683 105.0716385  70.9309689  88.0017021
 104.9548769  71.8755122  87.8995712 104.2508831  70.6283251  88.3902821
 114.9592920  65.6559825  78.8473614 115.7938524  65.2241024  78.6651089
 114.7977263  65.4841839  79.7750509 114.6138812  62.1591938  80.2129953
 114.5587616  61.9936210  79.2718398 113.9884867  62.8667971  80.3692143
  99.4031327  57.3960003  94.0391376 100.0490190  56.8858957  94.5278601
  99.1948478  58.1328684  94.6134801 111.9284719  64.4640850  99.5383516
 112.7975879  64.6381503  99.1770151 111.4491471  65.2835267  99.4159246
 107.9234937  51.6600047  79.7915272 107.9113607  52.6041887  79.9483543
 108.8158359  51.4770193  79.4974733 106.0970899  71.5837951  91.2172950
 106.9998146  71.6161562  91.5339445 105.8708269  70.6538402  91.2319286
 107.8524501  70.3368938  87.8783028 106.9020132  70.3370799  87.7647401
 108.1556987  69.5901672  87.3619063 111.7387057  48.2542824  84.0461209
 110.9719453  47.7001311  84.1917891 112.1497762  48.3264693  84.9075360
 103.7428818  54.5427620  98.1366390 104.6060279  54.1864425  98.3469714
 103.1694228  54.2041515  98.8241794 120.3966901  76.1256904  88.8790316
 120.0585413  76.0097969  87.9910850 121.2656669  75.7248069  88.8591322
 116.2553717  77.9792381  84.8687206 115.6918582  77.8882318  84.1003494
 116.1406112  77.1592285  85.3489699 120.8786684  77.2791756  94.8376521
 120.8675325  76.8844554  93.9657025 121.0407324  76.5457829  95.4310293
 113.8018149  79.4743572  87.7071427 114.5939441  79.1334397  87.2917726
 114.0414799  79.5838547  88.6273580 115.7608903  78.7352486  80.5788806
 116.5339779  78.1881473  80.4401682 116.1134301  79.5996735  80.7903267
 117.5993945  80.0628868  93.7855705 117.3083811  80.9674499  93.6702371
 118.2350930  80.1045396  94.4999775 118.5250152  77.4405716  90.3757065
 119.1213724  77.2161739  89.6614028 118.5825124  76.6990462  90.9782513
 118.0975180  74.8945152  78.2107256 118.3500701  74.3726673  77.4490719
 117.1599740  74.7311297  78.3133939 117.8171469  76.7973258  80.4131631
 117.7007727  76.1218161  81.0812715 117.9273729  76.3105632  79.5963784
 120.1603010  76.2583405  84.1178320 119.7961217  75.7314026  84.8291241
 121.0170126  75.8681874  83.9444805 119.8008497  71.2873304  79.1139668
 119.9682899  72.1553541  79.4810139 119.6105666  71.4500586  78.1900958
 116.0096312  76.2004080  86.8142203 115.0846808  76.0680294  87.0219895
 116.2580725  76.9798299  87.3112146 119.7797718  73.7430962  80.0986335
 119.6597343  74.1888013  80.9371815 119.0850306  74.0916280  79.5399873
 113.3705123  75.8437354  87.6485992 113.4997504  76.0971833  88.5625404
 112.6902574  76.4365062  87.3290647 117.5404610  86.5134604  83.7476466
 117.4628640  87.4642429  83.8264947 116.9366254  86.1680476  84.4051393
 120.0321840  73.6862469  96.4037833 119.2555174  74.2456389  96.3940698
 120.6712403  74.1719252  96.9252703 118.2868212  76.4947923  95.9655800
 119.0282897  77.0332967  95.6890624 117.5805198  77.1214211  96.1227352
 120.1154622  73.5749670  91.9361519 120.9615817  73.9989083  92.0796168
 120.0553259  72.9183294  92.6300082 119.6380328  78.9352662  85.5830336
 120.1018674  79.2140365  84.7934958 119.3737126  78.0336106  85.4003426
 116.5304409  78.4824143  88.5210099 117.1005766  78.9111412  87.8827584
 117.1212521  78.2006728  89.2194285 118.5749214  75.0575814  82.3919901
 119.2773258  75.5096858  82.8593827 118.2429843  74.4159633  83.0199794
 117.0229576  73.6487571  96.7671110 116.3928236  74.3303852  97.0006507
 116.9165664  73.5370652  95.8224249 112.3174548  73.3159367  87.6937034
 111.5273602  73.5716895  87.2177145 112.8085796  74.1307705  87.7989075
 114.2689294  73.6803946  84.6520511 113.4720457  73.7922640  85.1704007
 114.0414886  74.0190598  83.7861402 120.0994961  80.2048649  92.6003026
 120.1639394  80.6669056  93.4361198 119.3905885  79.5746014  92.7285336
 110.6012251  73.5689857  90.1252025 110.8520290  74.4536867  90.3909601
 111.1371800  73.3894459  89.3527117 119.8142979  81.8716757  82.4682006
 119.6788654  82.7168292  82.8966854 120.3552791  82.0736034  81.7047940
 116.3010319  67.9508337  99.1296361 115.9077264  67.3974535  99.8044006
 117.1176459  68.2618915  99.5202879 113.2672376  79.3892195  83.0409931
 113.7796897  80.1835445  83.1915496 113.9195089  78.6918485  82.9743533
 115.0767261  82.5057951  85.1232684 115.2533889  83.4275916  84.9353668
 115.8724095  82.1916370  85.5527064 119.2178280  69.3666216  96.7216618
 119.9587993  69.9673369  96.6421080 119.4496202  68.6243853  96.1634661
 114.3619618  74.5522583  94.9994848 114.2473133  73.6507840  95.3001947
 113.5064135  74.7986280  94.6479664 116.1998577  84.0236125  91.1243027
 116.7506002  83.8953188  90.3520021 115.3610052  84.3231014  90.7737920
 119.9965748  80.2887253  95.4687258 120.5294084  79.5275541  95.2386566
 119.4679829  79.9960904  96.2111412 111.2321293  77.7180849  83.8169502
 112.0696515  78.1277857  83.6003209 111.4099561  76.7780291  83.7869696
 120.7132836  70.2305630  84.5638573 119.8574433  69.8412481  84.3844212
 121.1259788  70.3097591  83.7038359 118.4874869  67.8490703  87.9696315
 119.3527866  67.6533512  87.6102204 118.5552378  67.6201055  88.8965671
 121.3618460  79.4173245  82.9806070 120.8339822  78.6826005  82.6679307
 120.8605963  80.1947921  82.7346038 116.0937188  70.0792911  85.3412681
 116.6680940  69.8568093  84.6085874 116.6808170  70.1481606  86.0941283
 116.4206775  72.1097372  79.3608567 115.5844087  72.4472059  79.6817841
 116.2811545  71.9746352  78.4235704 118.3959856  66.9534160  84.0687751
 117.7424268  66.6383177  83.4444366 118.3540330  66.3309901  84.7947574
 119.5071060  77.2353455  75.9841043 118.5998122  77.0042709  76.1832192
 120.0042092  76.4391075  76.1715024 120.6859294  77.3366050  80.5065033
 119.7770513  77.0525083  80.6037503 120.7154378  77.7565129  79.6468340
 111.2547464  75.0571564  84.4880235 111.0571864  74.4640925  83.7631302
 110.6994128  74.7523775  85.2056174 119.2344188  74.9494671  86.6074828
 119.2892798  73.9968507  86.5317305 118.4235390  75.1054110  87.0916127
 120.3835382  78.8774794  77.8453112 119.9454812  78.1610653  77.3858749
 121.1245823  79.1050909  77.2838203 117.1736548  73.5671731  84.3665207
 116.3604413  73.8665901  84.7730399 117.6695542  73.1727419  85.0839689
 119.3245126  83.5629488  86.2999472 119.2821305  83.7890334  85.3708004
 120.2407825  83.3292862  86.4485273 116.6650623  71.1390086  89.9826442
 117.3050002  70.9978845  89.2849406 115.8328153  70.8524599  89.6065044
 117.4410927  80.4392517  86.0961435 118.2351525  79.9442837  85.8944010
 116.7302619  79.9110380  85.7329140 113.7493690  74.5835598  82.1721187
 112.8191278  74.5220054  82.3891149 113.8451162  74.0611551  81.3757829
 113.6679239  71.1090411  84.7599429 113.9286056  72.0235744  84.6508589
 114.4896411  70.6414854  84.9096042 115.1404164  72.5228168  91.9298254
 115.8127218  72.3145530  91.2810902 114.3133951  72.3250254  91.4903486
 120.0182203  81.0121539  89.7759272 119.8793288  80.6440323  90.6485210
 119.2296799  81.5269178  89.6043230 120.6130354  86.1130635  81.1184808
 120.7882110  85.6418678  81.9330431 119.9263143  86.7396401  81.3466069
 121.5687418  80.3903141  87.1648110 121.2337250  80.3503911  88.0605759
 121.0691363  79.7247857  86.6918520 115.5431662  75.7970771  92.6900691
 115.4051460  75.0651010  93.2912230 116.4536585  75.7079671  92.4084878
 118.1713962  75.5090731  92.1784370 118.8813581  74.8683923  92.1370989
 118.1283270  75.7603625  93.1010551 116.8842896  72.4955948  93.9980010
 116.3480253  72.0446687  94.6501606 116.2959605  72.6301857  93.2550474
 115.1791440  89.2619998  87.8924668 115.4188038  89.8938522  88.5703687
 114.3360636  88.9108038  88.1790028 116.2945155  71.9544600  76.5606473
 115.4174622  71.8333401  76.1968720 116.7702908  71.1630678  76.3085362
 107.8147295  76.7421760  86.6547981 108.5018335  76.4283490  86.0668996
 107.6595424  77.6463124  86.3815232 112.6182018  71.6311956  91.0833004
 112.5340206  71.0237626  90.3483414 111.7964724  72.1220974  91.0842501
 119.6919302  85.0699120  90.2966172 119.6189473  85.8754092  90.8085477
 119.2496695  85.2691086  89.4714194 119.4809081  84.3070890  83.8068994
 118.6976603  84.8492570  83.9007218 120.1801826  84.8244870  84.2063235
 119.3740700  72.2582903  86.1774884 119.0038488  71.7053943  86.8655790
 119.8699793  71.6541036  85.6249884 117.2029899  82.7180398  93.2729902
 117.9039358  83.3516881  93.4259296 116.7325014  83.0595129  92.5125541
 112.7997617  82.2516753  90.2061005 113.3851054  81.5060441  90.3388909
 112.6022455  82.5620709  91.0897668 115.6536272  85.2868000  85.2223447
 114.9846647  85.7714128  84.7387487 115.5149142  85.5337221  86.1366825
 107.3915271  74.8222353  88.9265448 107.4299371  74.2885944  89.7202566
 106.8855564  74.2957558  88.3076425 119.7941541  87.3211744  91.8206105
 120.3459849  87.4843365  92.5855191 120.1347734  87.9116181  91.1486130
 114.7706034  69.6686893  92.4227990 114.8347360  70.5301724  92.0105388
 114.7073154  69.0560895  91.6900349 114.2458306  71.7410026  96.0701024
 114.8730345  71.3587103  96.6838549 113.3886225  71.5224228  96.4356717
 111.0223849  73.5486455  82.0019379 111.3177290  72.6397134  81.9486433
 110.1211885  73.5274195  81.6800381 114.5518096  71.6242452  87.9846928
 113.8304682  72.2378419  87.8454401 115.3411352  72.1600216  87.9063574
 117.3544410  68.9596878  94.2587579 117.8778811  69.2059175  95.0213889
 117.1356743  69.7916913  93.8390717 112.7511691  71.2300553  82.1258704
 112.4224397  70.3497932  81.9433810 113.1051061  71.1748221  83.0135094
 115.8653514  71.5173523  82.4934182 116.2049586  72.0459444  81.7712790
 116.3125634  71.8553929  83.2692748 118.5596955  69.9010573  91.9437250
 118.2193775  69.1018386  92.3457930 117.8535961  70.2012284  91.3714083
 119.2113426  66.9859886  90.3964573 120.0339496  66.5120364  90.2743463
 119.4551490  67.7650369  90.8963259 117.8521661  70.0148144  80.6927475
 118.5730023  70.3929397  80.1891192 117.2286965  70.7337021  80.7962453
 116.7352005  73.6779006  88.2056552 116.5896586  73.9919309  89.0980833
 116.2577209  74.2963907  87.6527450 118.5948388  70.6681554  88.2537441
 118.5809957  69.7722648  87.9169739 119.3120816  70.6752218  88.8875727
 120.4474519  71.1018895  90.2990569 120.1892297  72.0235965  90.2974899
 119.9159559  70.7049329  90.9891033 111.2097667  76.2184351  91.1444213
 110.6651135  76.9944159  91.2764487 112.0877017  76.5655155  90.9863334
 117.9985284  69.5495935  83.5225011 118.1201195  68.6212581  83.7215899
 117.7087326  69.5634621  82.6103327 120.8676474  67.2350845  86.6591731
 120.8898171  67.2990178  85.7043711 121.2844533  66.3955354  86.8532237
 111.9963689  75.3454247  94.0374370 111.2545425  75.4936882  94.6239000
 111.6756434  75.6062513  93.1741119 119.9407352  84.8870225  93.8354760
 120.2494478  84.6419372  94.7077459 120.7382834  85.0916864  93.3473630
 119.9627964  87.0408135  86.0660136 119.5232954  86.5484514  86.7592993
 120.7136081  86.4981103  85.8252211 112.4420303  83.2319676  86.0684764
 113.2678323  82.9323448  85.6883408 112.0914355  82.4627298  86.5174553
 117.4101836  82.5846144  88.1382438 116.7881845  81.9216849  87.8384666
 118.0806703  82.6107276  87.4556086 110.6428908  81.1506002  87.0273698
 109.8060816  80.7228177  86.8457699 110.6152553  81.3438446  87.9644489
 117.4826364  71.0627932  97.7314944 117.5314519  71.9390055  97.3492714
 118.0248878  70.5205325  97.1586587 116.9715343  81.1350067  81.6140898
 117.1203463  81.8185532  80.9607571 117.7781786  81.1155157  82.1290354
 119.7125652  71.8159304  94.4861303 118.8428961  72.1092870  94.2143891
 119.9485132  72.3999749  95.2068566 114.7267976  77.1615245  82.6201967
 114.4814018  76.2577575  82.8182178 114.8963891  77.1632395  81.6781445
 113.9963624  72.8943603  80.1188129 113.3032868  72.9687957  79.4628165
 113.7515375  72.1303946  80.6409646 120.4710749  83.6298198  79.0852646
 119.8984716  84.2488385  78.6323118 121.0443542  84.1797559  79.6192568
 119.0400464  72.8908987  76.3623584 118.1331920  72.5942100  76.4386297
 119.3176445  72.5938805  75.4957870 109.9578405  74.2115350  86.8122630
 109.6381189  73.3580658  86.5197004 109.4111833  74.4263928  87.5680597
 113.7358312  76.9277791  90.5292137 113.9544322  77.8594899  90.5480170
 114.1484086  76.5685766  91.3146940 120.6562530  67.4345877  82.5167825
 119.8463258  67.0892962  82.8923071 121.3446947  67.1253420  83.1055436
 118.6086177  72.5010997  99.9194885 118.5082904  73.4505354  99.8506977
 118.3907719  72.1729236  99.0470956 117.8099249  69.7495922  76.5035563
 118.6718413  70.0750820  76.7631380 117.9949593  68.9627418  75.9908629
 109.8266665  77.8318262  88.7815752 109.1330136  77.4172215  88.2685706
 110.5739656  77.8738798  88.1849170 118.4717447  75.9308136  98.7359947
 117.9884529  76.7308496  98.9423836 118.5578387  75.9416081  97.7827391
 111.7403407  77.7636516  86.6581766 111.7174095  77.8624203  85.7063650
 112.0504044  78.6101666  86.9798933 114.3990785  79.8212671  90.7728381
 115.3534039  79.7896613  90.7058312 114.2003309  79.3603294  91.5878607
 114.9890167  78.3913787  93.3399179 115.8083056  78.8857865  93.3634016
 115.2626975  77.4745755  93.3116746 112.7541014  85.3632290  87.7898579
 112.6195482  84.6032691  87.2236577 112.3373076  86.0873190  87.3227368
 115.9110140  86.2601607  88.0017021 115.7942524  87.2047040  87.8995712
 115.0902586  85.9575169  88.3902821 110.2425081  72.7251921  94.0391376
 110.8883945  72.2150874  94.5278601 110.0342232  73.4620602  94.6134801
 118.7628692  66.9891965  79.7915272 118.7507362  67.9333805  79.9483543
 119.6552114  66.8062111  79.4974733 116.9364654  86.9129869  91.2172950
 117.8391900  86.9453479  91.5339445 116.7102024  85.9830320  91.2319286
 118.6918256  85.6660856  87.8783028 117.7413887  85.6662717  87.7647401
 118.9950742  84.9193590  87.3619063 114.5822572  69.8719538  98.1366390
 115.4454034  69.5156342  98.3469714 114.0087983  69.5333432  98.8241794
 118.6541050  92.0713677  86.6547981 119.3412090  91.7575407  86.0668996
 118.4989179  92.9755042  86.3815232 118.2309026  90.1514271  88.9265448
 118.2693125  89.6177861  89.7202566 117.7249319  89.6249476  88.3076425
 121.4822662  96.4797920  87.0273698 120.6454571  96.0520094  86.8457699
 121.4546308  96.6730363  87.9644489 120.7972159  89.5407268  86.8122630
 120.4774943  88.6872576  86.5197004 120.2505587  89.7555846  87.5680597
 120.6660419  93.1610179  88.7815752 119.9723890  92.7464132  88.2685706
 121.4133410  93.2030716  88.1849170  74.1829593   2.2029056  70.4721773
  74.1053623   3.1536881  70.5510254  73.5791237   1.8574928  71.1296699
  71.8216423   4.9514450  74.6169975  72.0613021   5.5832974  75.2948994
  70.9785620   4.6002490  74.9035334  72.2961255   0.9762452  71.9468754
  71.6271631   1.4608580  71.4632794  72.1574125   1.2231672  72.8612132
  76.4366524   3.0106196  78.5451412  76.9884832   3.1737817  79.3100497
  76.7772717   3.6010633  77.8731437  69.3965997   1.0526742  74.5143885
  69.2620465   0.2927143  73.9481883  68.9798059   1.7767642  74.0472674
  72.5535123   1.9496059  74.7262328  72.4367507   2.8941491  74.6241018
  71.7327569   1.6469621  75.1148127  73.5789637   2.6024321  77.9418256
  74.4816884   2.6347931  78.2584751  73.3527007   1.6724772  77.9564592
  87.8785639   7.1443274  75.6035622  87.5404150   7.0284339  74.7156157
  88.7475407   6.7434439  75.5836628  83.7372455   8.9978750  71.5932513
  83.1737320   8.9068687  70.8248801  83.6224850   8.1778655  72.0735006
  88.3605422   8.2978126  81.5621828  88.3494063   7.9030924  80.6902331
  88.5226061   7.5644198  82.1555599  81.2836886  10.4929942  74.4316734
  82.0758178  10.1520767  74.0163033  81.5233537  10.6024917  75.3518887
  89.3172013  12.6649718  66.9046978  88.6659993  13.2503798  66.5180992
  90.1116376  13.1955913  66.9642015  83.2427640   9.7538855  67.3034112
  84.0158516   9.2067842  67.1646988  83.5953039  10.6183105  67.5148574
  85.0812683  11.0815237  80.5101012  84.7902549  11.9860868  80.3947678
  85.7169667  11.1231765  81.2245081  86.0068890   8.4592086  77.1002371
  86.6032462   8.2348108  76.3859334  86.0643861   7.7176831  77.7027819
  90.7947278  10.3540150  67.4415962  90.1593111  10.4274776  68.1536867
  90.4644685  10.9433749  66.7635042  85.2990207   7.8159627  67.1376937
  85.1826465   7.1404531  67.8058022  85.4092467   7.3292001  66.3209090
  87.6421748   7.2769774  70.8423626  87.2779955   6.7500395  71.5536548
  88.4988864   6.8868243  70.6690112  90.0402568  10.7676653  77.5050805
  89.7403291  11.6701692  77.3966613  89.6953628  10.5008836  78.3571958
  83.4915050   7.2190450  73.5387510  82.5665546   7.0866664  73.7465202
  83.7399463   7.9984669  74.0357452  80.8523861   6.8623723  74.3731299
  80.9816242   7.1158202  75.2870711  80.1721312   7.4551431  74.0535954
  85.0223348  17.5320973  70.4721773  84.9447378  18.4828798  70.5510254
  84.4184991  17.1866846  71.1296699  85.7686950   7.5134292  82.6901107
  86.5101634   8.0519336  82.4135931  85.0623935   8.1400581  82.8472659
  91.2442290   9.6563433  81.2873268  91.6525646   9.2145843  80.5427901
  90.5219551   9.0816060  81.5407461  91.5671104  10.2164623  75.0425557
  90.9379967  10.3810337  74.3401625  91.1796766  10.6306233  75.8136521
  95.4460336  11.1519061  72.3969921  94.7611374  11.5317962  71.8466954
  95.5304185  11.7614388  73.1301869  92.7011268   8.7979020  78.9965265
  92.9128163   9.4410780  78.3199646  92.6541016   7.9641337  78.5287195
  87.1199066   9.9539031  72.3075642  87.5837412  10.2326734  71.5180265
  86.8555864   9.0522476  72.1248733  84.0123147   9.5010513  75.2455406
  84.5824504   9.9297781  74.6072890  84.6031259   9.2193098  75.9439591
  79.7993286   4.3345736  74.4182341  79.0092340   4.5903265  73.9422452
  80.2904533   5.1494074  74.5234382  93.8157096  11.6750975  77.1687622
  94.6374539  11.2731163  76.8870304  93.8119499  11.5719210  78.1203738
  81.7508031   4.6990316  71.3765818  80.9539195   4.8109010  71.8949314
  81.5233624   5.0376968  70.5106708  87.5813699  11.2235019  79.3248332
  87.6458132  11.6855426  80.1606504  86.8724623  10.5932384  79.4530642
  78.0830989   4.5876227  76.8497332  78.3339028   5.4723237  77.1154908
  78.6190537   4.4080828  76.0772424  87.2961717  12.8903126  69.1927313
  87.1607392  13.7354662  69.6212161  87.8371529  13.0922404  68.4293247
  80.7491114  10.4078564  69.7655238  81.2615635  11.2021815  69.9160803
  81.4013827   9.7104855  69.6988839  82.5585999  13.5244321  71.8477991
  82.7352627  14.4462285  71.6598975  83.3542832  13.2102740  72.2772371
  81.8438355   5.5708952  81.7240154  81.7291871   4.6694210  82.0247253
  80.9882873   5.8172649  81.3724971  88.9230193  13.5126693  83.3227655
  88.4794047  12.7263071  83.0048559  89.5847407  13.7005843  82.6571546
  83.6817314  15.0422494  77.8488333  84.2324739  14.9139558  77.0765327
  82.8428790  15.3417383  77.4983226  91.0211431  13.7929493  81.3509056
  91.0029907  14.6138374  80.8589325  91.9431351  13.6683568  81.5759197
  87.4784485  11.3073622  82.1932565  88.0112822  10.5461910  81.9631872
  86.9498566  11.0147274  82.9356719  78.7140031   8.7367219  70.5414808
  79.5515253   9.1464227  70.3248516  78.8918299   7.7966661  70.5115002
  88.8437198  10.4359615  69.7051377  88.3158560   9.7012374  69.3924614
  88.3424701  11.2134291  69.4591345  93.8230044   8.6308635  74.8218423
  93.1653719   9.3207897  74.9098551  94.6270443   9.0205067  75.1652409
  86.9889798   8.2539825  62.7086350  86.0816860   8.0229078  62.9077499
  87.4860830   7.4577444  62.8960331  89.8957877  16.9637332  65.6283036
  89.2219576  17.2669029  66.2367994  90.2823699  17.7666412  65.2788493
  88.1678032   8.3552420  67.2310340  87.2589251   8.0711453  67.3282809
  88.1973115   8.7751498  66.3713646  93.3997299  11.9659009  71.0001507
  92.9459626  11.1249919  71.0566698  92.7691266  12.6020408  71.3376287
  91.8430238  13.8035506  71.9351325  92.1353213  14.3640563  71.2163691
  92.3528859  14.0964067  72.6904484  78.7366202   6.0757934  71.2125542
  78.5390602   5.4827295  70.4876608  78.1812866   5.7710144  71.9301481
  87.8654119   9.8961163  64.5698418  87.4273549   9.1797022  64.1104056
  88.6064560  10.1237278  64.0083510  86.8063864  14.5815857  73.0244779
  86.7640042  14.8076703  72.0953311  87.7226562  14.3479232  73.1730580
  96.0096614  10.2394888  75.6386008  96.4433121  10.1470177  76.4869062
  96.7228195  10.2152388  75.0006024  84.9229664  11.4578886  72.8206741
  85.7170263  10.9629206  72.6189316  84.2121357  10.9296749  72.4574447
  89.7424509  13.8396982  77.1719109  89.7961531  14.4087918  77.9396825
  88.8739290  14.0098867  76.8073146  81.2312428   5.6021968  68.8966494
  80.3010016   5.5406423  69.1136456  81.3269900   5.0797921  68.1003135
  96.8712163  10.2818588  78.1718894  97.0648054  11.1864399  78.4178169
  96.7712782   9.8226007  79.0057479  91.9327272  10.4325331  83.7459774
  91.7812779  10.2035883  82.8289858  91.9231952  11.3895932  83.7591119
  88.7012609   8.0057244  78.7306041  89.6304669   8.1568403  78.5575008
  88.2803639   8.0941264  77.8754687  87.5000940  12.0307908  76.5004578
  87.3612026  11.6626692  77.3730516  86.7115537  12.5455548  76.3288536
  88.0949092  17.1317005  67.8430115  88.2700848  16.6605048  68.6575738
  87.4081880  17.7582771  68.0711376  89.0506155  11.4089511  73.8893416
  88.7155988  11.3690281  74.7851066  88.5510101  10.7434227  73.4163826
  83.0250399   6.8157141  79.4145997  82.8870197   6.0837380  80.0157536
  83.9355323   6.7266041  79.1330185  91.9865347   8.7545545  64.1630476
  91.3694518   8.0292373  64.0663528  91.5181836   9.5154905  63.8197550
  85.6532700   6.5277100  78.9029677  86.3632319   5.8870292  78.8616295
  85.6102008   6.7789995  79.8255858  93.6419479  13.4644453  81.8236256
  93.5832025  12.7803674  81.1566839  94.0438997  14.2063443  81.3716882
  82.6610178  20.2806367  74.6169975  82.9006776  20.9124891  75.2948994
  81.8179374  19.9294407  74.9035334  93.6436886  11.4284037  80.0550236
  92.7563665  11.0909959  80.1776635  94.2135437  10.6967069  80.2919001
  75.2966033   7.7608129  73.3793287  75.9837073   7.4469859  72.7914303
  75.1414162   8.6649494  73.1060539  87.1738039  16.0885490  77.0211479
  87.1008211  16.8940461  77.5330784  86.7315433  16.2877456  76.1959500
  86.9627819  15.3257260  70.5314301  86.1795341  15.8678940  70.6252525
  87.6620564  15.8431239  70.9308542  89.6336723  15.9872324  79.1769638
  90.3464695  16.6219789  79.1045539  89.1426752  16.0836190  78.3609640
  91.3554250   9.8923576  70.7486929  90.4210529  10.0125039  70.5791634
  91.5330918   8.9896043  70.4846939  84.6848636  13.7366767  79.9975209
  85.3858096  14.3703250  80.1504603  84.2143751  14.0781499  79.2370848
  92.8103032  12.0784717  68.2823116  93.0862876  11.9641312  69.1916990
  91.9407531  11.6802202  68.2435289  89.4457096  16.3271068  71.9255929
  89.6279491  15.5092724  72.3883682  90.2690082  16.5438760  71.4880819
  89.7799262  15.2539253  69.1870978  90.3087028  14.7431708  68.5741140
  90.0427481  14.9381783  70.0516511  88.5337495   7.0331186  84.3093796
  87.8578132   6.9325315  84.9796171  89.3565129   6.8770400  84.7729793
  80.2816355  13.2703122  76.9306311  80.8669791  12.5246810  77.0634215
  80.0841193  13.5807079  77.8142975  83.1355010  16.3054370  71.9468754
  82.4665385  16.7900497  71.4632794  82.9967879  16.5523590  72.8612132
  74.8734009   5.8408723  75.6510754  74.9118109   5.3072313  76.4447872
  74.3674302   5.3143928  75.0321732  87.2760278  18.3398113  78.5451412
  87.8278586  18.5029735  79.3100497  87.6166472  18.9302551  77.8731437
  92.1271153  13.1659371  84.4000066  92.6711057  13.7789329  83.9055021
  91.5457998  13.7238949  84.9167079  78.5042587   4.5672825  68.7264686
  78.7996028   3.6583503  68.6731739  77.6030623   4.5460564  68.4045688
  90.4128666  16.2880089  75.5315094  90.2879805  15.4869829  75.0226040
  91.0707757  16.7826282  75.0429064  92.4763574  14.0889109  77.1594644
  91.5293910  13.9694460  77.0872971  92.8246347  13.2011607  77.2420906
  89.4810007  13.8841825  73.3598996  89.3334970  12.9558532  73.5406566
  90.3063501  13.9061916  72.8756072  93.0844129  14.7070384  74.4463869
  94.0090677  14.5013245  74.3088320  92.9159433  14.4586785  75.3553211
  92.8739445  15.2256051  69.8025961  93.0476323  14.6602474  69.0499813
  93.3668337  16.0256946  69.6205451  78.6916405   7.2370720  77.8689519
  78.1469873   8.0130528  78.0009794  79.5695755   7.5841525  77.7108641
  93.8614618  14.5422816  66.9022859  94.5565522  15.1629508  67.1210174
  94.2037768  13.6918167  67.1775237  79.4782427   6.3640617  80.7619676
  78.7364163   6.5123252  81.3484307  79.1575171   6.6248882  79.8986426
  95.7606041  11.9922521  68.4310190  96.2857365  12.3309794  67.7059510
  95.6728394  11.0569536  68.2473324  87.4226090  15.9056595  80.5600066
  87.7313216  15.6605742  81.4322766  88.2201572  16.1103233  80.0718937
  87.4446702  18.0594504  72.7905443  87.0051692  17.5670883  73.4838300
  88.1954819  17.5167472  72.5497518  79.9239041  14.2506045  72.7930071
  80.7497061  13.9509817  72.4128714  79.5733093  13.4813668  73.2419860
  84.8920574  13.6032514  74.8627745  84.2700583  12.9403219  74.5629972
  85.5625441  13.6293645  74.1801392  78.1247646  12.1692372  73.7519005
  77.2879554  11.7414546  73.5703006  78.0971291  12.3624815  74.6889796
  95.4499947  12.6255425  83.7361388  94.6595491  12.6079564  83.1965887
  95.2133302  13.1643718  84.4910424  84.4534081  12.1536437  68.3386205
  84.6022201  12.8371901  67.6852878  85.2600524  12.1341527  68.8535661
  97.0716019  11.8944833  81.2936138  96.7800827  12.2574813  82.1299599
  96.4588150  11.1811841  81.1149470  82.2086714   8.1801614  69.3447274
  81.9632756   7.2763944  69.5427484  82.3782628   8.1818765  68.4026752
  87.9529486  14.6484567  65.8097953  87.3803453  15.2674754  65.3568424
  88.5262280  15.1983929  66.3437874  91.1726746  14.9321717  66.9406535
  92.1057419  14.8667279  67.1439410  91.0849959  15.7677984  66.4821067
  93.8014763  14.2487588  63.9010482  93.7228394  13.9147451  64.7946240
  94.6224430  14.7409356  63.9001955  88.2214977  10.0363126  84.6114662
  89.1417987  10.2141725  84.8054709  88.1864560   9.0919172  84.4594361
  77.4397142   5.2301720  73.5367937  77.1199927   4.3767028  73.2442311
  76.8930571   5.4450298  74.2925904  81.2177050   7.9464161  77.2537443
  81.4363060   8.8781269  77.2725477  81.6302824   7.5872135  78.0392247
  77.3085402   8.8504631  75.5061058  76.6148874   8.4358584  74.9931013
  78.0558393   8.8925168  74.9094477  85.9536185   6.9494505  85.4605254
  85.4703267   7.7494866  85.6669143  86.0397124   6.9602450  84.5072698
  79.2222145   8.7822885  73.3827073  79.1992833   8.8810572  72.4308956
  79.5322781   9.6288036  73.7044239  81.8809523  10.8399040  77.4973688
  82.8352776  10.8082982  77.4303619  81.6822046  10.3789664  78.3123913
  82.4708905   9.4100156  80.0644485  83.2901794   9.9044235  80.0879322
  82.7445713   8.4932124  80.0362053  80.2359752  16.3818660  74.5143885
  80.1014219  15.6219061  73.9481883  79.8191814  17.1059560  74.0472674
  91.3718715  11.5655583  63.5220461  92.0754565  11.7705586  64.1378116
  90.6481363  12.1332345  63.7869544  83.3928877  17.2787977  74.7262328
  83.2761262  18.2233409  74.6241018  82.5721324  16.9761538  75.1148127
  93.2805412  12.0038112  65.5718921  94.1151016  11.5719311  65.3896396
  93.1189755  11.8320126  66.4995815  92.9351304   8.5070226  66.9375260
  92.8800108   8.3414497  65.9963704  92.3097359   9.2146259  67.0937450
  77.7243819   3.7438290  80.7636682  78.3702683   3.2337244  81.2523907
  77.5160970   4.4806972  81.3380107  90.2497211  10.8119138  86.2628823
  91.1188371  10.9859790  85.9015458  89.7703963  11.6313554  86.1404552
  84.4183392  17.9316239  77.9418256  85.3210638  17.9639849  78.2584751
  84.1920762  17.0016690  77.9564592  86.1736994  16.6847225  74.6028335
  85.2232625  16.6849087  74.4892707  86.4769480  15.9379960  74.0864370
 101.9089687  22.5207764  75.6674097 102.5468097  22.4014511  74.9637438
 101.7910530  23.4688607  75.7262050  98.7179393  22.4735192  75.6035622
  98.3797905  22.3576256  74.7156157  99.5869162  22.0726357  75.5836628
  94.5766209  24.3270668  71.5932513  94.0131074  24.2360605  70.8248801
  94.4618604  23.5070572  72.0735006  99.1999176  23.6270043  81.5621828
  99.1887817  23.2322842  80.6902331  99.3619816  22.8936116  82.1555599
  92.1230641  25.8221860  74.4316734  92.9151933  25.4812684  74.0163033
  92.3627291  25.9316835  75.3518887 100.1565768  27.9941636  66.9046978
  99.5053747  28.5795716  66.5180992 100.9510131  28.5247831  66.9642015
  94.0821395  25.0830773  67.3034112  94.8552271  24.5359760  67.1646988
  94.4346794  25.9475022  67.5148574  95.9206437  26.4107155  80.5101012
  95.6296303  27.3152786  80.3947678  96.5563422  26.4523683  81.2245081
  96.8462644  23.7884004  77.1002371  97.4426217  23.5640026  76.3859334
  96.9037616  23.0468749  77.7027819  96.4187673  21.2423439  64.9352562
  96.6713193  20.7204960  64.1736025  95.4812232  21.0789584  65.0379246
 101.4630956  20.2459217  72.7427306 102.2494045  19.8278641  72.3917723
 101.7269660  21.1505310  72.9108954 101.6341033  25.6832068  67.4415962
 100.9986866  25.7566694  68.1536867 101.3038439  26.2725666  66.7635042
 106.8639383  20.1834451  73.6460284 107.5964555  19.6133667  73.8798114
 106.1078738  19.7956051  74.0866790  96.1383961  23.1451545  67.1376937
  96.0220220  22.4696448  67.8058022  96.2486221  22.6583919  66.3209090
  98.4815502  22.6061692  70.8423626  98.1173710  22.0792313  71.5536548
  99.3382618  22.2160161  70.6690112 104.3864803  13.8956025  78.1054893
 104.0548128  14.7651436  77.8816108 103.7910416  13.5792309  78.7848923
  98.1220989  17.6351592  65.8384975  98.2895392  18.5031828  66.2055446
  97.9318158  17.7978873  64.9146264 100.8796323  26.0968571  77.5050805
 100.5797046  26.9993609  77.3966613 100.5347382  25.8300754  78.3571958
  94.3308804  22.5482367  73.5387510  93.4059300  22.4158582  73.7465202
  94.5793217  23.3276587  74.0357452 104.2793466  18.6151111  75.1848243
 103.3710344  18.5466519  74.8907004 104.2281062  19.0923056  76.0130068
  98.1010210  20.0909249  66.8231642  97.9809835  20.5366300  67.6617122
  97.4062799  20.4394567  66.2645180  91.6917615  22.1915641  74.3731299
  91.8209996  22.4450120  75.2870711  91.0115066  22.7843349  74.0535954
  95.8617102  32.8612891  70.4721773  95.7841132  33.8120716  70.5510254
  95.2578746  32.5158763  71.1296699  98.3534332  20.0340756  83.1283140
  97.5767666  20.5934677  83.1186005  98.9924895  20.5197539  83.6498010
 106.1455113  16.8167549  76.9626117 105.5029493  17.1100082  76.3165911
 105.6410041  16.7020470  77.7679313 103.7995276  20.5630722  67.6511976
 104.7113133  20.7958109  67.4759673 103.2904923  21.1467767  67.0887054
  96.6080704  22.8426210  82.6901107  97.3495389  23.3811254  82.4135931
  95.9017690  23.4692499  82.8472659 102.0836044  24.9855350  81.2873268
 102.4919400  24.5437761  80.5427901 101.3613306  24.4107978  81.5407461
  98.4367114  19.9227957  78.6606825  99.2828309  20.3467371  78.8041474
  98.3765752  19.2661581  79.3545389 102.4064859  25.5456541  75.0425557
 101.7773721  25.7102255  74.3401625 102.0190521  25.9598150  75.8136521
 106.2854091  26.4810979  72.3969921 105.6005129  26.8609880  71.8466954
 106.3697940  27.0906305  73.1301869 101.5866559  17.5832325  80.3187999
 101.3427491  18.3374386  79.7822275 101.8626490  17.9617673  81.1535246
 103.5405022  24.1270938  78.9965265 103.7521917  24.7702698  78.3199646
 103.4934770  23.2933254  78.5287195 101.1431251  16.7388758  75.9001837
 100.2815730  17.0370012  76.1918574 101.1693686  16.9559157  74.9682869
  97.9592821  25.2830949  72.3075642  98.4231166  25.5618652  71.5180265
  97.6949619  24.3814394  72.1248733  94.8516902  24.8302431  75.2455406
  95.4218259  25.2589699  74.6072890  95.4425013  24.5485015  75.9439591
  96.8961707  21.4054101  69.1165208  97.5985750  21.8575145  69.5839134
  96.5642335  20.7637920  69.7445101  95.3442068  19.9965858  83.4916417
  94.7140729  20.6782139  83.7251814  95.2378156  19.8848940  82.5469555
  90.6387041  19.6637654  74.4182341  89.8486095  19.9195183  73.9422452
  91.1298288  20.4785992  74.5234382 104.6550850  27.0042893  77.1687622
 105.4768294  26.6023080  76.8870304 104.6513253  26.9011127  78.1203738
  92.5901786  20.0282233  71.3765818  91.7932949  20.1400927  71.8949314
  92.3627378  20.3668885  70.5106708  98.4207454  26.5526936  79.3248332
  98.4851886  27.0147344  80.1606504  97.7118377  25.9224301  79.4530642
  88.9224744  19.9168144  76.8497332  89.1732782  20.8015154  77.1154908
  89.4584292  19.7372746  76.0772424 112.7456843  23.3481642  73.5172593
 111.9920552  22.7789040  73.3616598 112.8804384  23.3144306  74.4643228
  98.1355471  28.2195044  69.1927313  98.0001146  29.0646580  69.6212161
  98.6765284  28.4214322  68.4293247  94.6222811  14.2986624  85.8541668
  94.2289756  13.7452822  86.5289312  95.4388951  14.6097202  86.2448186
  91.5884869  25.7370482  69.7655238  92.1009389  26.5313732  69.9160803
  92.2407581  25.0396772  69.6988839  93.3979753  28.8536238  71.8477991
  93.5746382  29.7754203  71.6598975  94.1936587  28.5394657  72.2772371
  97.5390772  15.7144503  83.4461925  98.2800485  16.3151656  83.3666387
  97.7708695  14.9722141  82.8879967  92.6832110  20.9000870  81.7240154
  92.5685625  19.9986127  82.0247253  91.8276628  21.1464567  81.3724971
  99.7623948  28.8418610  83.3227655  99.3187802  28.0554989  83.0048559
 100.4241161  29.0297761  82.6571546  94.5211069  30.3714412  77.8488333
  95.0718494  30.2431475  77.0765327  93.6822545  30.6709301  77.4983226
 101.8605186  29.1221410  81.3509056 101.8423661  29.9430291  80.8589325
 102.7825106  28.9975486  81.5759197  98.3178240  26.6365540  82.1932565
  98.8506577  25.8753828  81.9631872  97.7892321  26.3439192  82.9356719
 101.4847935  11.7425606  77.7226206 101.1412204  12.6327248  77.6465317
 101.8526897  11.5527263  76.8595791  89.5533785  24.0659136  70.5414808
  90.3909007  24.4756145  70.3248516  89.7312053  23.1258578  70.5115002
 101.4498218  21.7334217  66.2298641 100.9344841  22.5038822  66.4687029
 101.1775526  21.0599353  66.8531703  99.0345329  16.5783918  71.2883880
  98.1786925  16.1890768  71.1089518  99.4472280  16.6575879  70.4283665
 100.5644475  14.1130261  75.6875439 100.0609271  14.0760396  74.8743245
 100.8575082  15.0223004  75.7472096  96.8087361  14.1968991  74.6941621
  97.6740358  14.0011799  74.3347511  96.8764870  13.9679342  75.6210978
 106.4232492  24.4866572  68.1651815 105.6461934  24.1477731  67.7206977
 107.1023973  24.4919195  67.4906780 101.2384521  19.6061309  68.0558423
 100.9334656  19.9207458  68.9068566 102.1914963  19.6842729  68.0985756
  99.6830953  25.7651532  69.7051377  99.1552314  25.0304292  69.3924614
  99.1818455  26.5426209  69.4591345 104.6623799  23.9600553  74.8218423
 104.0047473  24.6499814  74.9098551 105.4664198  24.3496985  75.1652409
  94.4149680  16.4271199  72.0657988  94.9893432  16.2046380  71.3331181
  95.0020663  16.4959893  72.8186589 103.4729257  22.3144926  72.8722365
 103.9861139  22.9474917  73.3744074 104.1230481  21.7146121  72.5065725
  94.7419267  18.4575660  66.0853873  93.9056580  18.7950346  66.4063148
  94.6024037  18.3224639  65.1481010  96.7172348  13.3012448  70.7933057
  96.0636760  12.9861465  70.1689672  96.6752822  12.6788188  71.5192880
  97.8283553  23.5831743  62.7086350  96.9210614  23.3520996  62.9077499
  98.3254585  22.7869362  62.8960331 100.7351632  32.2929250  65.6283036
 100.0613330  32.5960947  66.2367994 101.1217454  33.0958330  65.2788493
  99.9510088  19.7894381  75.1180705  99.0332650  20.0109328  74.9602393
 100.3670232  19.8640692  74.2592412 100.7345136  21.1885797  70.2483385
 101.4816955  21.7007194  69.9390507 101.0036726  20.8669849  71.1087779
  99.0071786  23.6844337  67.2310340  98.0983005  23.4003370  67.3282809
  99.0366870  24.1043416  66.3713646 104.2391054  27.2950927  71.0001507
 103.7853381  26.4541837  71.0566698 103.6085020  27.9312325  71.3376287
 103.1823973  18.2242913  72.2302175 102.4446730  17.7120299  72.5612417
 103.4350747  17.7843295  71.4185452 102.6823993  29.1327424  71.9351325
 102.9746967  29.6932481  71.2163691 103.1922613  29.4255985  72.6904484
  89.5759957  21.4049852  71.2125542  89.3784356  20.8119212  70.4876608
  89.0206621  21.1002062  71.9301481  97.5556680  21.2972958  73.3320135
  97.6105290  20.3446794  73.2562612  96.7447882  21.4532397  73.8161433
  98.7047874  25.2253081  64.5698418  98.2667304  24.5088940  64.1104056
  99.4458315  25.4529196  64.0083510  95.4949040  19.9150018  71.0910514
  94.6816906  20.2144188  71.4975706  95.9908034  19.5205707  71.8084996
  97.6457618  29.9107775  73.0244779  97.6033797  30.1368621  72.0953311
  98.5620317  29.6771149  73.1730580 101.0923252  20.3791842  79.9225408
 101.4472640  20.6063315  80.7819874 101.7395383  20.7110219  79.3002663
 106.8220989  23.5010278  70.6274737 106.6838887  23.6911874  69.6995926
 106.4657208  24.2629661  71.0842788  94.9863115  17.4868373  76.7071749
  95.6262494  17.3457132  76.0094712  94.1540645  17.2002887  76.3310351
 106.8490368  25.5686805  75.6386008 107.2826875  25.4762094  76.4869062
 107.5621949  25.5444306  75.0006024  95.7623419  26.7870804  72.8206741
  96.5564017  26.2921124  72.6189316  95.0515111  26.2588667  72.4574447
 100.5818263  29.1688899  77.1719109 100.6355286  29.7379836  77.9396825
  99.7133045  29.3390784  76.8073146  92.0706182  20.9313886  68.8966494
  91.1403770  20.8698341  69.1136456  92.1663654  20.4089838  68.1003135
  91.9891731  17.4568698  71.4844736  92.2498549  18.3714032  71.3753896
  92.8108904  16.9893141  71.6341348  93.4616657  18.8706456  78.6543560
  94.1339710  18.6623818  78.0056209  92.6346443  18.6728542  78.2148792
 107.7105918  25.6110506  78.1718894 107.9041808  26.5156316  78.4178169
 107.6106536  25.1517925  79.0057479  99.3642229  15.4968396  80.6709221
  98.7170144  16.1958346  80.5773697 100.1343244  15.9304540  81.0385469
 102.7721027  25.7617249  83.7459774 102.6206533  25.5327800  82.8289858
 102.7625706  26.7187850  83.7591119  99.5406363  23.3349161  78.7306041
 100.4698423  23.4860321  78.5575008  99.1197393  23.4233182  77.8754687
  98.3394695  27.3599826  76.5004578  98.2005780  26.9918610  77.3730516
  97.5509291  27.8747465  76.3288536  98.9342847  32.4608922  67.8430115
  99.1094602  31.9896965  68.6575738  98.2475635  33.0874688  68.0711376
  99.8899910  26.7381428  73.8893416  99.5549743  26.6982198  74.7851066
  99.3903856  26.0726144  73.4163826  93.8644154  22.1449058  79.4145997
  93.7263952  21.4129297  80.0157536  94.7749077  22.0557959  79.1330185
 102.8259102  24.0837463  64.1630476 102.2088272  23.3584291  64.0663528
 102.3575590  24.8446823  63.8197550  96.4926455  21.8569018  78.9029677
  97.2026073  21.2162210  78.8616295  96.4495763  22.1081913  79.8255858
 104.4813233  28.7936371  81.8236256 104.4225779  28.1095591  81.1566839
 104.8832752  29.5355361  81.3716882  95.2055389  18.8434236  80.7225316
  94.6692746  18.3924974  81.3746913  94.6172097  18.9780145  79.9795781
  93.5003932  35.6098285  74.6169975  93.7400530  36.2416809  75.2948994
  92.6573129  35.2586325  74.9035334  94.6157648  18.3022887  63.2851780
  93.7387114  18.1811688  62.9214027  95.0915401  17.5108965  63.0330669
 104.4830641  26.7575955  80.0550236 103.5957419  26.4201877  80.1776635
 105.0529192  26.0258986  80.2919001  86.1359788  23.0900047  73.3793287
  86.8230827  22.7761777  72.7914303  85.9807916  23.9941411  73.1060539
  90.9394510  17.9790243  77.8078311  90.8552699  17.3715913  77.0728721
  90.1177216  18.4699262  77.8087807  98.0131794  31.4177407  77.0211479
  97.9401965  32.2232379  77.5330784  97.5709187  31.6169373  76.1959500
  97.8021574  30.6549177  70.5314301  97.0189095  31.1970858  70.6252525
  98.5014319  31.1723157  70.9308542 101.1118224  16.4643807  73.1748506
 101.6086923  15.7113769  72.8549576 100.3405205  16.5008124  72.6091715
 108.9647981  22.1684172  74.8166797 108.9537857  23.0508888  74.4460731
 108.0965360  21.8155723  74.6221335 100.4730477  31.3164241  79.1769638
 101.1858450  31.9511706  79.1045539  99.9820506  31.4128107  78.3609640
 102.1948004  25.2215494  70.7486929 101.2604283  25.3416957  70.5791634
 102.3724673  24.3187961  70.4846939  97.6953192  18.6061190  72.9020191
  97.3250980  18.0532230  73.5901096  98.1912285  18.0019323  72.3495191
 105.5820556  21.0632813  71.2836964 106.0481008  21.8960805  71.2097266
 106.0328056  20.5977795  71.9882222  95.5242391  29.0658685  79.9975209
  96.2251850  29.6995168  80.1504603  95.0537506  29.4073416  79.2370848
 103.6496787  27.4076635  68.2823116 103.9256631  27.2933229  69.1916990
 102.7801286  27.0094120  68.2435289 103.5537218  13.4313400  75.3227865
 102.6400298  13.6617627  75.4910072 103.9830320  13.5151844  76.1741897
 103.3243677  21.6203292  77.8227759 102.6715127  21.8679200  77.1680212
 103.7024057  20.8067431  77.4890236 100.2850851  31.6562986  71.9255929
 100.4673245  30.8384641  72.3883682 101.1083837  31.8730678  71.4880819
 100.6193016  30.5831171  69.1870978 101.1480783  30.0723625  68.5741140
 100.8821236  30.2673701  70.0516511  99.3731250  22.3623103  84.3093796
  98.6971887  22.2617233  84.9796171 100.1958884  22.2062317  84.7729793
  91.1210109  28.5995040  76.9306311  91.7063546  27.8538728  77.0634215
  90.9234947  28.9098997  77.8142975  93.9748764  31.6346287  71.9468754
  93.3059140  32.1192415  71.4632794  93.8361634  31.8815508  72.8612132
  85.7127764  21.1700640  75.6510754  85.7511863  20.6364231  76.4447872
  85.2068057  20.6435846  75.0321732  98.1154033  33.6690031  78.5451412
  98.6672341  33.8321652  79.3100497  98.4560226  34.2594469  77.8731437
  93.0918526  16.0165181  79.1473297  93.1559853  16.8780012  78.7350694
  93.0285646  15.4039182  78.4145655  92.5670799  18.0888313  82.7946331
  93.1942837  17.7065391  83.4083855  91.7098717  17.8702515  83.1602023
 102.9664907  28.4951288  84.4000066 103.5104811  29.1081247  83.9055021
 102.3851752  29.0530867  84.9167079  89.3436341  19.8964742  68.7264686
  89.6389782  18.9875421  68.6731739  88.4424377  19.8752482  68.4045688
 101.2522420  31.6172006  75.5315094 101.1273560  30.8161746  75.0226040
 101.9101511  32.1118200  75.0429064  92.8730588  17.9720739  74.7092234
  92.1517174  18.5856707  74.5699708  93.6623844  18.5078504  74.6308880
 103.3157329  29.4181027  77.1594644 102.3687664  29.2986378  77.0872971
 103.6640102  28.5303525  77.2420906  95.6756902  15.3075165  80.9832886
  96.1991304  15.5537462  81.7459195  95.4569235  16.1395200  80.5636023
  91.0724183  17.5778840  68.8504011  90.7436889  16.6976219  68.6679117
  91.4263554  17.5226509  69.7380400 100.3203762  29.2133743  73.3598996
 100.1728724  28.2850450  73.5406566 101.1457255  29.2353833  72.8756072
  94.1866006  17.8651810  69.2179489  94.5262079  18.3937731  68.4958097
  94.6338127  18.2032216  69.9938055 103.9237884  30.0362301  74.4463869
 104.8484431  29.8305163  74.3088320 103.7553187  29.7878703  75.3553211
  96.8809447  16.2488861  78.6682557  96.5406267  15.4496674  79.0703237
  96.1748453  16.5490571  78.0959390  97.5325919  13.3338173  77.1209880
  98.3551988  12.8598651  76.9988770  97.7763982  14.1128657  77.6208566
  96.1734153  16.3626431  67.4172781  96.8942516  16.7407684  66.9136498
  95.5499457  17.0815308  67.5207759 100.3165276  17.0671580  68.3531114
 100.5328891  17.9496218  68.0519942  99.8359343  16.6757794  67.6236756
  95.0564498  20.0257294  74.9301858  94.9109078  20.3397597  75.8226140
  94.5789701  20.6442194  74.3772757  96.9160880  17.0159842  74.9782748
  96.9022449  16.1200935  74.6415046  97.6333308  17.0230505  75.6121034
  98.7687011  17.4497182  77.0235875  98.5104789  18.3714252  77.0220206
  98.2372051  17.0527616  77.7136339 103.7133200  30.5547969  69.8025961
 103.8870077  29.9894391  69.0499813 104.2062091  31.3548864  69.6205451
  89.5310160  22.5662638  77.8689519  88.9863628  23.3422446  78.0009794
  90.4089510  22.9133442  77.7108641  96.3197776  15.8974222  70.2470318
  96.4413688  14.9690868  70.4461205  96.0299819  15.9112908  69.3348633
  99.1888967  13.5829132  73.3837038  99.2110664  13.6468465  72.4289017
  99.6057026  12.7433641  73.5777544 109.5672591  23.3184392  71.4216260
 110.0103737  22.5691717  71.0235384 108.6899101  23.3094528  71.0389992
 104.7008372  29.8714733  66.9022859 105.3959277  30.4921426  67.1210174
 105.0431522  29.0210085  67.1775237  90.3176182  21.6932534  80.7619676
  89.5757918  21.8415170  81.3484307  89.9968926  21.9540800  79.8986426
 106.5999795  27.3214439  68.4310190 107.1251120  27.6601712  67.7059510
 106.5122148  26.3861454  68.2473324  98.2619844  31.2348512  80.5600066
  98.5706971  30.9897659  81.4322766  99.0595326  31.4395151  80.0718937
  98.2840456  33.3886422  72.7905443  97.8445447  32.8962801  73.4838300
  99.0348573  32.8459390  72.5497518  90.7632795  29.5797963  72.7930071
  91.5890815  29.2801735  72.4128714  90.4126847  28.8105585  73.2419860
  95.7314328  28.9324431  74.8627745  95.1094338  28.2695136  74.5629972
  96.4019195  28.9585563  74.1801392  88.9641400  27.4984289  73.7519005
  88.1273309  27.0706464  73.5703006  88.9365046  27.6916733  74.6889796
  95.8038856  17.4106219  84.4560251  95.8527011  18.2868342  84.0738020
  96.3461370  16.8683612  83.8831894 106.2893702  27.9547342  83.7361388
 105.4989245  27.9371481  83.1965887 106.0527056  28.4935636  84.4910424
 106.4091577  24.8039809  81.0494116 106.4589582  24.6389816  81.9909639
 106.3005500  23.9367068  80.6591997  95.2927835  27.4828355  68.3386205
  95.4415956  28.1663819  67.6852878  96.0994279  27.4633445  68.8535661
 103.6995339  20.7870737  82.3653423 104.6005202  20.6477202  82.0737421
 103.7743313  20.9525192  83.3051600  98.0338144  18.1637592  81.2106609
  97.1641454  18.4571158  80.9389198  98.2697625  18.7478037  81.9313873
 107.9109773  27.2236750  81.2936138 107.6194582  27.5866731  82.1299599
 107.2981905  26.5103759  81.1149470 109.1105456  24.7889630  73.8138708
 109.9452347  25.2279434  73.9776268 109.2464585  24.3128283  72.9946954
 106.1596962  22.3469365  79.7616196 106.6351083  22.5397011  78.9535047
 105.2362527  22.4028551  79.5159579  93.0480468  23.5093532  69.3447274
  92.8026510  22.6055862  69.5427484  93.2176383  23.5110683  68.4026752
 100.7377178  14.3817209  78.7272030 101.2559122  15.1178235  78.4018518
 100.3832311  14.6881202  79.5618789  92.3176116  19.2421890  66.8433435
  91.6245361  19.3166245  66.1873471  92.0727868  18.4782233  67.3654952
  98.7923241  29.9776485  65.8097953  98.2197208  30.5966672  65.3568424
  99.3656034  30.5275847  66.3437874 104.8598631  19.2235125  77.9944501
 105.8116054  19.3233223  78.0156725 104.6902081  18.4313394  78.5042586
 102.8813010  16.3090708  78.1803902 102.2862942  16.5895721  77.4850391
 102.5962707  16.7984609  78.9520643 102.0120501  30.2613635  66.9406535
 102.9451174  30.1959197  67.1439410 101.9243713  31.0969902  66.4821067
 104.6408517  29.5779505  63.9010482 104.5622149  29.2439369  64.7946240
 105.4618184  30.0701273  63.9001955 107.3386708  22.4441245  77.1086801
 107.3063029  21.5057245  77.2946485 107.9487332  22.5225281  76.3752626
  99.1770039  21.3137298  63.1514005 100.1229144  21.1843506  63.2202423
  98.7984284  20.5751960  63.6283433 107.4881197  19.2352288  77.1545084
 106.9720246  18.4510745  76.9675013 108.3721145  18.9071005  77.3191604
 105.1491924  12.9793304  73.1140897 104.9516745  12.6708392  73.9984229
 105.7591629  13.7054943  73.2438827 113.1563258  23.5057252  76.2492838
 113.8866647  23.2442540  76.8100541 112.5470204  22.7685974  76.2894906
 111.2378555  21.6465114  76.8467289 110.5111719  21.5121079  76.2383781
 110.8225842  21.9541943  77.6524007  99.0608732  25.3655044  84.6114662
  99.9811741  25.5433643  84.8054709  99.0258315  24.4211089  84.4594361
  97.3612956  19.2387274  63.0868890  96.4544412  18.9420387  63.1631604
  97.6388937  18.9417092  62.2203176  88.2790897  20.5593638  73.5367937
  87.9593681  19.7058946  73.2442311  87.7324325  20.7742216  74.2925904
  92.0570804  23.2756079  77.2537443  92.2756814  24.2073186  77.2725477
  92.4696578  22.9164053  78.0392247  98.9775022  13.7824164  69.2413132
  98.1675750  13.4371249  69.6168378  99.6659439  13.4731708  69.8300743
 100.9065570  12.8602211  70.8637428 101.4596609  13.2797664  71.5227451
 101.1435657  11.9337959  70.9060384  96.9298670  18.8489284  86.6440192
  96.8295397  19.7983641  86.5752283  96.7120212  18.5207523  85.7716262
  96.1311741  16.0974209  63.2280869  96.9930905  16.4229108  63.4876687
  96.3162085  15.3105705  62.7153935  88.1479157  24.1796549  75.5061058
  87.4542628  23.7650502  74.9931013  88.8952148  24.2217086  74.9094477
 104.2844378  14.9702736  70.3716092 103.7043047  15.6287540  69.9894145
 104.0180310  14.1480080  69.9603510 102.7347944  14.3707794  72.5737413
 103.2347722  14.4824328  71.7651732 103.3783552  14.0668846  73.2138221
  96.7929940  22.2786423  85.4605254  96.3097021  23.0786783  85.6669143
  96.8790879  22.2894368  84.5072698  90.0615899  24.1114803  73.3827073
  90.0386587  24.2102490  72.4308956  90.3716536  24.9579954  73.7044239
  92.7203277  26.1690958  77.4973688  93.6746531  26.1374900  77.4303619
  92.5215801  25.7081582  78.3123913  93.3102659  24.7392074  80.0644485
  94.1295548  25.2336153  80.0879322  93.5839467  23.8224042  80.0362053
 103.0669256  17.1302826  69.4272441 102.1795111  17.4152477  69.2092635
 103.4823245  16.9696590  68.5799718 106.4183792  17.1549347  73.1426780
 107.1944182  17.6445800  73.4151397 105.6931926  17.5807401  73.5998649
 108.8556350  17.8676966  74.2000721 109.4500841  17.6272702  73.4894029
 108.9282934  17.1484097  74.8274257  91.0753506  31.7110577  74.5143885
  90.9407974  30.9510978  73.9481883  90.6585568  32.4351477  74.0472674
 102.2112469  26.8947501  63.5220461 102.9148319  27.0997503  64.1378116
 101.4875118  27.4624263  63.7869544 103.0410279  22.6457362  69.6422731
 102.9845481  23.1025914  68.8030363 103.5938622  21.8848047  69.4645574
 106.8515085  18.4347094  70.4672850 106.5952019  18.0343730  71.2981058
 106.2267953  19.1490888  70.3422990 111.1627423  21.1743167  72.9744142
 110.6026981  21.2436357  73.7475704 110.5570926  20.9984152  72.2543638
  94.2322632  32.6079894  74.7262328  94.1155016  33.5525327  74.6241018
  93.4115078  32.3053456  75.1148127 104.1199166  27.3330030  65.5718921
 104.9544770  26.9011229  65.3896396 103.9583509  27.1612044  66.4995815
 103.7745059  23.8362143  66.9375260 103.7193862  23.6706415  65.9963704
 103.1491114  24.5438176  67.0937450  88.5637574  19.0730208  80.7636682
  89.2096437  18.5629162  81.2523907  88.3554725  19.8098889  81.3380107
 101.0890966  26.1411055  86.2628823 101.9582125  26.3151708  85.9015458
 100.6097717  26.9605472  86.1404552  97.0841184  13.3370252  66.5160578
  97.0719854  14.2812092  66.6728849  97.9764606  13.1540398  66.2220040
  95.2577146  33.2608156  77.9418256  96.1604393  33.2931767  78.2584751
  95.0314516  32.3308607  77.9564592  97.0130748  32.0139143  74.6028335
  96.0626379  32.0141004  74.4892707  97.3163234  31.2671877  74.0864370
  92.9035065  16.2197825  84.8611696  93.7666526  15.8634630  85.0715021
  92.3300475  15.8811720  85.5487101 112.7483442  37.8499681  75.6674097
 113.3861851  37.7306429  74.9637438 112.6304284  38.7980525  75.7262050
 109.5573148  37.8027109  75.6035622 109.2191659  37.6868174  74.7156157
 110.4262916  37.4018274  75.5836628 105.4159964  39.6562586  71.5932513
 104.8524829  39.5652523  70.8248801 105.3012359  38.8362490  72.0735006
 110.0392931  38.9561961  81.5621828 110.0281572  38.5614759  80.6902331
 110.2013570  38.2228034  82.1555599 102.9624395  41.1513777  74.4316734
 103.7545687  40.8104602  74.0163033 103.2021046  41.2608752  75.3518887
 110.9959522  43.3233553  66.9046978 110.3447502  43.9087634  66.5180992
 111.7903885  43.8539748  66.9642015 104.9215149  40.4122691  67.3034112
 105.6946025  39.8651678  67.1646988 105.2740548  41.2766940  67.5148574
 106.7600192  41.7399073  80.5101012 106.4690058  42.6444704  80.3947678
 107.3957176  41.7815600  81.2245081 107.6856399  39.1175921  77.1002371
 108.2819971  38.8931944  76.3859334 107.7431370  38.3760667  77.7027819
 107.2581427  36.5715357  64.9352562 107.5106948  36.0496878  64.1736025
 106.3205986  36.4081502  65.0379246 112.3024710  35.5751135  72.7427306
 113.0887799  35.1570558  72.3917723 112.5663414  36.4797227  72.9108954
 112.4734787  41.0123985  67.4415962 111.8380620  41.0858612  68.1536867
 112.1432194  41.6017584  66.7635042 117.7033137  35.5126368  73.6460284
 118.4358309  34.9425585  73.8798114 116.9472493  35.1247969  74.0866790
 106.9777716  38.4743463  67.1376937 106.8613974  37.7988366  67.8058022
 107.0879976  37.9875837  66.3209090 109.3209257  37.9353610  70.8423626
 108.9567464  37.4084231  71.5536548 110.1776373  37.5452079  70.6690112
 115.2258557  29.2247942  78.1054893 114.8941882  30.0943353  77.8816108
 114.6304171  28.9084226  78.7848923 108.9614744  32.9643509  65.8384975
 109.1289146  33.8323746  66.2055446 108.7711913  33.1270791  64.9146264
 111.7190077  41.4260488  77.5050805 111.4190800  42.3285527  77.3966613
 111.3741137  41.1592672  78.3571958 105.1702559  37.8774285  73.5387510
 104.2453055  37.7450499  73.7465202 105.4186972  38.6568504  74.0357452
 115.1187221  33.9443029  75.1848243 114.2104098  33.8758437  74.8907004
 115.0674817  34.4214973  76.0130068 108.9403965  35.4201167  66.8231642
 108.8203590  35.8658218  67.6617122 108.2456553  35.7686485  66.2645180
 102.5311370  37.5207559  74.3731299 102.6603751  37.7742038  75.2870711
 101.8508821  38.1135267  74.0535954 106.7010857  48.1904809  70.4721773
 106.6234887  49.1412634  70.5510254 106.0972500  47.8450681  71.1296699
 109.1928087  35.3632674  83.1283140 108.4161421  35.9226594  83.1186005
 109.8318650  35.8489457  83.6498010 116.9848867  32.1459467  76.9626117
 116.3423247  32.4392000  76.3165911 116.4803796  32.0312387  77.7679313
 114.6389031  35.8922640  67.6511976 115.5506887  36.1250027  67.4759673
 114.1298678  36.4759684  67.0887054 107.4474459  38.1718127  82.6901107
 108.1889143  38.7103171  82.4135931 106.7411444  38.7984416  82.8472659
 112.9229799  40.3147268  81.2873268 113.3313155  39.8729678  80.5427901
 112.2007060  39.7399895  81.5407461 109.2760869  35.2519875  78.6606825
 110.1222064  35.6759288  78.8041474 109.2159506  34.5953499  79.3545389
 113.2458613  40.8748459  75.0425557 112.6167476  41.0394173  74.3401625
 112.8584275  41.2890068  75.8136521 117.1247845  41.8102896  72.3969921
 116.4398883  42.1901798  71.8466954 117.2091694  42.4198223  73.1301869
 112.4260314  32.9124243  80.3187999 112.1821246  33.6666304  79.7822275
 112.7020244  33.2909591  81.1535246 114.3798777  39.4562855  78.9965265
 114.5915672  40.0994615  78.3199646 114.3328525  38.6225172  78.5287195
 111.9825006  32.0680676  75.9001837 111.1209485  32.3661930  76.1918574
 112.0087440  32.2851075  74.9682869 108.7986575  40.6122867  72.3075642
 109.2624921  40.8910570  71.5180265 108.5343373  39.7106311  72.1248733
 105.6910656  40.1594348  75.2455406 106.2612013  40.5881617  74.6072890
 106.2818768  39.8776933  75.9439591 107.7355461  36.7346019  69.1165208
 108.4379504  37.1867063  69.5839134 107.4036090  36.0929838  69.7445101
 106.1835823  35.3257776  83.4916417 105.5534483  36.0074056  83.7251814
 106.0771911  35.2140857  82.5469555 101.4780795  34.9929572  74.4182341
 100.6879849  35.2487100  73.9422452 101.9692042  35.8077910  74.5234382
 115.4944605  42.3334811  77.1687622 116.3162048  41.9314998  76.8870304
 115.4907008  42.2303045  78.1203738 103.4295540  35.3574151  71.3765818
 102.6326704  35.4692845  71.8949314 103.2021133  35.6960803  70.5106708
 109.2601208  41.8818854  79.3248332 109.3245641  42.3439261  80.1606504
 108.5512132  41.2516219  79.4530642  99.7618498  35.2460062  76.8497332
 100.0126536  36.1307072  77.1154908 100.2978046  35.0664664  76.0772424
 108.9749226  43.5486962  69.1927313 108.8394901  44.3938497  69.6212161
 109.5159038  43.7506239  68.4293247 105.4616565  29.6278541  85.8541668
 105.0683511  29.0744740  86.5289312 106.2782706  29.9389120  86.2448186
 102.4278623  41.0662400  69.7655238 102.9403144  41.8605650  69.9160803
 103.0801336  40.3688690  69.6988839 104.2373508  44.1828156  71.8477991
 104.4140136  45.1046121  71.6598975 105.0330341  43.8686575  72.2772371
 108.3784526  31.0436421  83.4461925 109.1194240  31.6443574  83.3666387
 108.6102449  30.3014058  82.8879967 103.5225864  36.2292788  81.7240154
 103.4079380  35.3278045  82.0247253 102.6670382  36.4756485  81.3724971
 110.6017702  44.1710528  83.3227655 110.1581556  43.3846907  83.0048559
 111.2634916  44.3589679  82.6571546 105.3604823  45.7006330  77.8488333
 105.9112248  45.5723393  77.0765327 104.5216299  46.0001219  77.4983226
 112.6998940  44.4513328  81.3509056 112.6817416  45.2722209  80.8589325
 113.6218860  44.3267403  81.5759197 109.1571994  41.9657458  82.1932565
 109.6900331  41.2045746  81.9631872 108.6286075  41.6731109  82.9356719
 112.3241689  27.0717524  77.7226206 111.9805959  27.9619165  77.6465317
 112.6920652  26.8819181  76.8595791 100.3927540  39.3951054  70.5414808
 101.2302762  39.8048062  70.3248516 100.5705808  38.4550496  70.5115002
 112.2891972  37.0626135  66.2298641 111.7738595  37.8330739  66.4687029
 112.0169280  36.3891271  66.8531703 109.8739083  31.9075835  71.2883880
 109.0180679  31.5182686  71.1089518 110.2866035  31.9867796  70.4283665
 111.4038230  29.4422179  75.6875439 110.9003025  29.4052314  74.8743245
 111.6968837  30.3514921  75.7472096 107.6481116  29.5260908  74.6941621
 108.5134112  29.3303717  74.3347511 107.7158624  29.2971260  75.6210978
 117.2626246  39.8158489  68.1651815 116.4855689  39.4769649  67.7206977
 117.9417727  39.8211112  67.4906780 112.0778275  34.9353227  68.0558423
 111.7728411  35.2499376  68.9068566 113.0308717  35.0134647  68.0985756
 110.5224707  41.0943450  69.7051377 109.9946069  40.3596210  69.3924614
 110.0212210  41.8718126  69.4591345 115.5017553  39.2892471  74.8218423
 114.8441228  39.9791732  74.9098551 116.3057952  39.6788902  75.1652409
 105.2543435  31.7563116  72.0657988 105.8287187  31.5338298  71.3331181
 105.8414417  31.8251811  72.8186589 114.3123012  37.6436843  72.8722365
 114.8254894  38.2766835  73.3744074 114.9624236  37.0438039  72.5065725
 105.5813022  33.7867577  66.0853873 104.7450334  34.1242264  66.4063148
 105.4417791  33.6516557  65.1481010 107.5566102  28.6304365  70.7933057
 106.9030515  28.3153382  70.1689672 107.5146577  28.0080106  71.5192880
 108.6677307  38.9123660  62.7086350 107.7604369  38.6812914  62.9077499
 109.1648339  38.1161280  62.8960331 111.5745386  47.6221167  65.6283036
 110.9007085  47.9252864  66.2367994 111.9611208  48.4250248  65.2788493
 110.7903843  35.1186299  75.1180705 109.8726404  35.3401246  74.9602393
 111.2063986  35.1932609  74.2592412 111.5738890  36.5177714  70.2483385
 112.3210709  37.0299112  69.9390507 111.8430480  36.1961767  71.1087779
 109.8465541  39.0136255  67.2310340 108.9376760  38.7295288  67.3282809
 109.8760624  39.4335334  66.3713646 115.0784808  42.6242845  71.0001507
 114.6247135  41.7833755  71.0566698 114.4478775  43.2604243  71.3376287
 114.0217728  33.5534831  72.2302175 113.2840484  33.0412217  72.5612417
 114.2744501  33.1135212  71.4185452 113.5217747  44.4619341  71.9351325
 113.8140722  45.0224398  71.2163691 114.0316368  44.7547902  72.6904484
 114.1229355  26.3311083  72.8243944 114.4288232  25.4708446  72.5369859
 114.8481960  26.9228703  72.6242938 100.4153711  36.7341769  71.2125542
 100.2178111  36.1411130  70.4876608  99.8600375  36.4293979  71.9301481
 108.3950435  36.6264876  73.3320135 108.4499044  35.6738712  73.2562612
 107.5841637  36.7824315  73.8161433 109.5441628  40.5544999  64.5698418
 109.1061058  39.8380858  64.1104056 110.2852069  40.7821114  64.0083510
 106.3342795  35.2441936  71.0910514 105.5210660  35.5436106  71.4975706
 106.8301789  34.8497624  71.8084996 108.4851373  45.2399692  73.0244779
 108.4427551  45.4660539  72.0953311 109.4014071  45.0063067  73.1730580
 111.9317006  35.7083760  79.9225408 112.2866394  35.9355233  80.7819874
 112.5789138  36.0402137  79.3002663 117.6614743  38.8302196  70.6274737
 117.5232642  39.0203792  69.6995926 117.3050962  39.5921579  71.0842788
 105.8256869  32.8160291  76.7071749 106.4656249  32.6749050  76.0094712
 104.9934400  32.5294804  76.3310351 117.6884123  40.8978723  75.6386008
 118.1220630  40.8054012  76.4869062 118.4015704  40.8736223  75.0006024
 106.6017173  42.1162721  72.8206741 107.3957772  41.6213042  72.6189316
 105.8908866  41.5880585  72.4574447 111.4212018  44.4980817  77.1719109
 111.4749040  45.0671753  77.9396825 110.5526799  44.6682702  76.8073146
 102.9099937  36.2605803  68.8966494 101.9797525  36.1990259  69.1136456
 103.0057409  35.7381756  68.1003135 102.8285486  32.7860616  71.4844736
 103.0892303  33.7005949  71.3753896 103.6502658  32.3185059  71.6341348
 104.3010411  34.1998373  78.6543560 104.9733465  33.9915735  78.0056209
 103.4740198  34.0020459  78.2148792 118.5499672  40.9402424  78.1718894
 118.7435563  41.8448234  78.4178169 118.4500291  40.4809843  79.0057479
 110.2035983  30.8260314  80.6709221 109.5563898  31.5250264  80.5773697
 110.9736999  31.2596458  81.0385469 113.6114781  41.0909166  83.7459774
 113.4600288  40.8619718  82.8289858 113.6019461  42.0479768  83.7591119
 110.3800118  38.6641079  78.7306041 111.3092178  38.8152239  78.5575008
 109.9591148  38.7525100  77.8754687 109.1788449  42.6891743  76.5004578
 109.0399535  42.3210528  77.3730516 108.3903046  43.2039383  76.3288536
 109.7736601  47.7900840  67.8430115 109.9488357  47.3188883  68.6575738
 109.0869389  48.4166606  68.0711376 110.7293664  42.0673346  73.8893416
 110.3943497  42.0274116  74.7851066 110.2297610  41.4018062  73.4163826
 104.7037908  37.4740976  79.4145997 104.5657706  36.7421215  80.0157536
 105.6142832  37.3849876  79.1330185 113.6652856  39.4129380  64.1630476
 113.0482027  38.6876209  64.0663528 113.1969345  40.1738741  63.8197550
 107.3320209  37.1860935  78.9029677 108.0419828  36.5454128  78.8616295
 107.2889517  37.4373830  79.8255858 115.3206988  44.1228289  81.8236256
 115.2619534  43.4387509  81.1566839 115.7226506  44.8647279  81.3716882
 106.0449143  34.1726153  80.7225316 105.5086500  33.7216892  81.3746913
 105.4565851  34.3072062  79.9795781 104.3397687  50.9390203  74.6169975
 104.5794285  51.5708727  75.2948994 103.4966883  50.5878243  74.9035334
 105.4551402  33.6314805  63.2851780 104.5780868  33.5103606  62.9214027
 105.9309155  32.8400883  63.0330669 115.3224395  42.0867873  80.0550236
 114.4351174  41.7493795  80.1776635 115.8922946  41.3550904  80.2919001
  96.9753542  38.4191965  73.3793287  97.6624582  38.1053695  72.7914303
  96.8201671  39.3233329  73.1060539 101.7788264  33.3082161  77.8078311
 101.6946453  32.7007831  77.0728721 100.9570971  33.7991179  77.8087807
 108.8525548  46.7469325  77.0211479 108.7795720  47.5524297  77.5330784
 108.4102942  46.9461291  76.1959500 108.6415328  45.9841095  70.5314301
 107.8582850  46.5262775  70.6252525 109.3408073  46.5015075  70.9308542
 111.9511978  31.7935725  73.1748506 112.4480678  31.0405687  72.8549576
 111.1798960  31.8300041  72.6091715 119.8041736  37.4976090  74.8166797
 119.7931612  38.3800806  74.4460731 118.9359115  37.1447641  74.6221335
 111.3124232  46.6456159  79.1769638 112.0252204  47.2803624  79.1045539
 110.8214261  46.7420025  78.3609640 113.0341759  40.5507412  70.7486929
 112.0998038  40.6708874  70.5791634 113.2118427  39.6479879  70.4846939
 108.5346947  33.9353108  72.9020191 108.1644734  33.3824148  73.5901096
 109.0306039  33.3311241  72.3495191 116.4214310  36.3924731  71.2836964
 116.8874762  37.2252723  71.2097266 116.8721811  35.9269713  71.9882222
 106.3636145  44.3950603  79.9975209 107.0645605  45.0287086  80.1504603
 105.8931260  44.7365334  79.2370848 114.4890541  42.7368552  68.2823116
 114.7650385  42.6225147  69.1916990 113.6195040  42.3386037  68.2435289
 114.3930973  28.7605318  75.3227865 113.4794053  28.9909545  75.4910072
 114.8224074  28.8443762  76.1741897 114.1637431  36.9495210  77.8227759
 113.5108882  37.1971118  77.1680212 114.5417811  36.1359348  77.4890236
 111.1244605  46.9854903  71.9255929 111.3067000  46.1676559  72.3883682
 111.9477591  47.2022595  71.4880819 111.4586771  45.9123088  69.1870978
 111.9874537  45.4015543  68.5741140 111.7214990  45.5965619  70.0516511
 110.2125004  37.6915021  84.3093796 109.5365641  37.5909150  84.9796171
 111.0352638  37.5354235  84.7729793 101.9603864  43.9286958  76.9306311
 102.5457300  43.1830646  77.0634215 101.7628702  44.2390914  77.8142975
 104.8142519  46.9638205  71.9468754 104.1452894  47.4484333  71.4632794
 104.6755388  47.2107425  72.8612132  96.5521518  36.4992558  75.6510754
  96.5905618  35.9656149  76.4447872  96.0461811  35.9727763  75.0321732
 108.9547787  48.9981949  78.5451412 109.5066095  49.1613570  79.3100497
 109.2953981  49.5886386  77.8731437 103.9312281  31.3457098  79.1473297
 103.9953607  32.2071929  78.7350694 103.8679401  30.7331100  78.4145655
 103.4064553  33.4180231  82.7946331 104.0336592  33.0357308  83.4083855
 102.5492472  33.1994433  83.1602023 113.8058662  43.8243206  84.4000066
 114.3498566  44.4373164  83.9055021 113.2245507  44.3822784  84.9167079
 100.1830096  35.2256660  68.7264686 100.4783537  34.3167338  68.6731739
  99.2818132  35.2044399  68.4045688 112.0916175  46.9463924  75.5315094
 111.9667314  46.1453664  75.0226040 112.7495266  47.4410117  75.0429064
 103.7124343  33.3012657  74.7092234 102.9910929  33.9148624  74.5699708
 104.5017599  33.8370421  74.6308880 114.1551083  44.7472944  77.1594644
 113.2081419  44.6278295  77.0872971 114.5033856  43.8595442  77.2420906
 106.5150656  30.6367083  80.9832886 107.0385058  30.8829380  81.7459195
 106.2962990  31.4687118  80.5636023 101.9117937  32.9070758  68.8504011
 101.5830644  32.0268137  68.6679117 102.2657308  32.8518426  69.7380400
 111.1597516  44.5425660  73.3598996 111.0122479  43.6142368  73.5406566
 111.9851010  44.5645751  72.8756072 105.0259761  33.1943727  69.2179489
 105.3655833  33.7229649  68.4958097 105.4731881  33.5324134  69.9938055
 114.7631638  45.3654219  74.4463869 115.6878186  45.1597080  74.3088320
 114.5946942  45.1170620  75.3553211 107.7203201  31.5780778  78.6682557
 107.3800022  30.7788591  79.0703237 107.0142208  31.8782489  78.0959390
 108.3719673  28.6630091  77.1209880 109.1945743  28.1890569  76.9988770
 108.6157737  29.4420574  77.6208566 107.0127908  31.6918349  67.4172781
 107.7336270  32.0699602  66.9136498 106.3893212  32.4107226  67.5207759
 111.1559031  32.3963498  68.3531114 111.3722645  33.2788136  68.0519942
 110.6753098  32.0049711  67.6236756 105.8958252  35.3549211  74.9301858
 105.7502833  35.6689514  75.8226140 105.4183456  35.9734112  74.3772757
 107.7554635  32.3451759  74.9782748 107.7416204  31.4492853  74.6415046
 108.4727063  32.3522423  75.6121034 109.6080766  32.7789099  77.0235875
 109.3498543  33.7006170  77.0220206 109.0765806  32.3819534  77.7136339
 114.5526954  45.8839887  69.8025961 114.7263832  45.3186309  69.0499813
 115.0455846  46.6840781  69.6205451 100.3703914  37.8954556  77.8689519
  99.8257382  38.6714364  78.0009794 101.2483264  38.2425360  77.7108641
 107.1591531  31.2266140  70.2470318 107.2807442  30.2982786  70.4461205
 106.8693573  31.2404825  69.3348633 110.0282721  28.9121050  73.3837038
 110.0504418  28.9760383  72.4289017 110.4450780  28.0725559  73.5777544
 120.4066346  38.6476310  71.4216260 120.8497492  37.8983635  71.0235384
 119.5292856  38.6386446  71.0389992 115.5402127  45.2006651  66.9022859
 116.2353031  45.8213344  67.1210174 115.8825277  44.3502002  67.1775237
 101.1569936  37.0224452  80.7619676 100.4151672  37.1707087  81.3484307
 100.8362680  37.2832718  79.8986426 117.4393550  42.6506357  68.4310190
 117.9644874  42.9893629  67.7059510 117.3515903  41.7153372  68.2473324
 109.1013599  46.5640430  80.5600066 109.4100725  46.3189577  81.4322766
 109.8989081  46.7687069  80.0718937 109.1234211  48.7178340  72.7905443
 108.6839201  48.2254718  73.4838300 109.8742328  48.1751307  72.5497518
 101.6026550  44.9089881  72.7930071 102.4284570  44.6093653  72.4128714
 101.2520602  44.1397503  73.2419860 106.5708083  44.2616349  74.8627745
 105.9488092  43.5987054  74.5629972 107.2412950  44.2877481  74.1801392
  99.8035155  42.8276207  73.7519005  98.9667063  42.3998381  73.5703006
  99.7758800  43.0208650  74.6889796 106.6432610  32.7398137  84.4560251
 106.6920766  33.6160260  84.0738020 107.1855125  32.1975530  83.8831894
 117.1287456  43.2839260  83.7361388 116.3383000  43.2663399  83.1965887
 116.8920811  43.8227554  84.4910424 117.2485331  40.1331727  81.0494116
 117.2983336  39.9681734  81.9909639 117.1399254  39.2658986  80.6591997
 106.1321590  42.8120272  68.3386205 106.2809710  43.4955737  67.6852878
 106.9388033  42.7925362  68.8535661 114.5389093  36.1162655  82.3653423
 115.4398956  35.9769119  82.0737421 114.6137068  36.2817109  83.3051600
 108.8731899  33.4929509  81.2106609 108.0035208  33.7863075  80.9389198
 109.1091379  34.0769954  81.9313873 118.7503528  42.5528668  81.2936138
 118.4588336  42.9158649  82.1299599 118.1375659  41.8395676  81.1149470
 119.9499210  40.1181548  73.8138708 120.7846102  40.5571352  73.9776268
 120.0858339  39.6420201  72.9946954 116.9990716  37.6761283  79.7616196
 117.4744838  37.8688929  78.9535047 116.0756282  37.7320468  79.5159579
 103.8874223  38.8385450  69.3447274 103.6420265  37.9347780  69.5427484
 104.0570137  38.8402600  68.4026752 111.5770933  29.7109126  78.7272030
 112.0952876  30.4470153  78.4018518 111.2226065  30.0173120  79.5618789
 103.1569870  34.5713807  66.8433435 102.4639115  34.6458162  66.1873471
 102.9121622  33.8074151  67.3654952 111.8283527  26.1309409  74.2472926
 112.1085281  25.4632598  74.8733353 112.6134134  26.3238504  73.7347590
 115.6992385  34.5527043  77.9944501 116.6509808  34.6525140  78.0156725
 115.5295836  33.7605311  78.5042586 113.7206765  31.6382626  78.1803902
 113.1256697  31.9187639  77.4850391 113.4356461  32.1276527  78.9520643
 112.8514255  45.5905553  66.9406535 113.7844928  45.5251114  67.1439410
 112.7637468  46.4261820  66.4821067 115.4802272  44.9071423  63.9010482
 115.4015903  44.5731287  64.7946240 116.3011939  45.3993191  63.9001955
 118.1780463  37.7733162  77.1086801 118.1456783  36.8349163  77.2946485
 118.7881087  37.8517199  76.3752626 110.0163794  36.6429215  63.1514005
 110.9622899  36.5135424  63.2202423 109.6378039  35.9043877  63.6283433
 118.3274951  34.5644206  77.1545084 117.8114000  33.7802663  76.9675013
 119.2114900  34.2362922  77.3191604 115.9885678  28.3085221  73.1140897
 115.7910499  28.0000310  73.9984229 116.5985384  29.0346860  73.2438827
 109.9002486  40.6946962  84.6114662 110.8205496  40.8725561  84.8054709
 109.8652069  39.7503007  84.4594361 108.2006711  34.5679192  63.0868890
 107.2938166  34.2712305  63.1631604 108.4782692  34.2709010  62.2203176
  99.1184651  35.8885555  73.5367937  98.7987436  35.0350863  73.2442311
  98.5718080  36.1034133  74.2925904 102.8964559  38.6047996  77.2537443
 103.1150569  39.5365104  77.2725477 103.3090333  38.2455971  78.0392247
 109.8168777  29.1116082  69.2413132 109.0069505  28.7663166  69.6168378
 110.5053194  28.8023625  69.8300743 111.7459325  28.1894128  70.8637428
 112.2990364  28.6089582  71.5227451 111.9829411  27.2629876  70.9060384
 107.7692424  34.1781202  86.6440192 107.6689151  35.1275559  86.5752283
 107.5513966  33.8499441  85.7716262 106.9705496  31.4266127  63.2280869
 107.8324660  31.7521025  63.4876687 107.1555840  30.6397623  62.7153935
  98.9872911  39.5088467  75.5061058  98.2936383  39.0942419  74.9931013
  99.7345902  39.5509003  74.9094477 115.1238132  30.2994653  70.3716092
 114.5436801  30.9579458  69.9894145 114.8574065  29.4771998  69.9603510
 113.5741698  29.6999711  72.5737413 114.0741477  29.8116246  71.7651732
 114.2177306  29.3960764  73.2138221 107.6323694  37.6078341  85.4605254
 107.1490776  38.4078701  85.6669143 107.7184633  37.6186286  84.5072698
 100.9009654  39.4406720  73.3827073 100.8780342  39.5394408  72.4308956
 101.2110290  40.2871871  73.7044239 103.5597032  41.4982876  77.4973688
 104.5140285  41.4666818  77.4303619 103.3609555  41.0373499  78.3123913
 104.1496414  40.0683992  80.0644485 104.9689303  40.5628070  80.0879322
 104.4233222  39.1515960  80.0362053 113.9063010  32.4594744  69.4272441
 113.0188865  32.7444394  69.2092635 114.3216999  32.2988507  68.5799718
 117.2577546  32.4841265  73.1426780 118.0337936  32.9737717  73.4151397
 116.5325680  32.9099319  73.5998649 119.6950105  33.1968884  74.2000721
 120.2894596  32.9564620  73.4894029 119.7676689  32.4776015  74.8274257
 101.9147261  47.0402495  74.5143885 101.7801728  46.2802896  73.9481883
 101.4979323  47.7643395  74.0472674 113.0506224  42.2239419  63.5220461
 113.7542074  42.4289421  64.1378116 112.3268872  42.7916180  63.7869544
 113.8804034  37.9749280  69.6422731 113.8239235  38.4317831  68.8030363
 114.4332376  37.2139964  69.4645574 117.6908840  33.7639012  70.4672850
 117.4345774  33.3635647  71.2981058 117.0661708  34.4782806  70.3422990
 105.0716386  47.9371812  74.7262328 104.9548771  48.8817245  74.6241018
 104.2508833  47.6345374  75.1148127 114.9592921  42.6621948  65.5718921
 115.7938525  42.2303146  65.3896396 114.7977264  42.4903961  66.4995815
 114.6138813  39.1654061  66.9375260 114.5587617  38.9998332  65.9963704
 113.9884868  39.8730094  67.0937450  99.4031328  34.4022125  80.7636682
 100.0490192  33.8921079  81.2523907  99.1948479  35.1390807  81.3380107
 111.9284720  41.4702973  86.2628823 112.7975880  41.6443625  85.9015458
 111.4491472  42.2897390  86.1404552 107.9234939  28.6662170  66.5160578
 107.9113608  29.6104010  66.6728849 108.8158360  28.4832315  66.2220040
 106.0970901  48.5900074  77.9418256 106.9998147  48.6223684  78.2584751
 105.8708271  47.6600525  77.9564592 107.8524503  47.3431060  74.6028335
 106.9020134  47.3432922  74.4892707 108.1556989  46.5963795  74.0864370
 111.7387058  25.2604947  70.7706515 110.9719454  24.7063433  70.9163198
 112.1497763  25.3326815  71.6320667 103.7428819  31.5489742  84.8611696
 104.6060281  31.1926547  85.0715021 103.1694230  31.2103637  85.5487101
 120.3966902  53.1319027  75.6035622 120.0585414  53.0160092  74.7156157
 121.2656670  52.7310192  75.5836628 116.2553718  54.9854503  71.5932513
 115.6918583  54.8944440  70.8248801 116.1406113  54.1654408  72.0735006
 120.8786685  54.2853879  81.5621828 120.8675326  53.8906677  80.6902331
 121.0407325  53.5519951  82.1555599 113.8018150  56.4805695  74.4316734
 114.5939442  56.1396520  74.0163033 114.0414800  56.5900670  75.3518887
 115.7608904  55.7414608  67.3034112 116.5339780  55.1943595  67.1646988
 116.1134303  56.6058858  67.5148574 117.5993946  57.0690990  80.5101012
 117.3083812  57.9736621  80.3947678 118.2350931  57.1107518  81.2245081
 118.5250153  54.4467839  77.1002371 119.1213726  54.2223861  76.3859334
 118.5825125  53.7052584  77.7027819 118.0975182  51.9007274  64.9352562
 118.3500702  51.3788796  64.1736025 117.1599741  51.7373420  65.0379246
 117.8171470  53.8035380  67.1376937 117.7007729  53.1280284  67.8058022
 117.9273730  53.3167754  66.3209090 120.1603011  53.2645527  70.8423626
 119.7961219  52.7376148  71.5536548 121.0170127  52.8743996  70.6690112
 119.8008498  48.2935427  65.8384975 119.9682901  49.1615664  66.2055446
 119.6105667  48.4562709  64.9146264 116.0096313  53.2066203  73.5387510
 115.0846809  53.0742417  73.7465202 116.2580726  53.9860422  74.0357452
 119.7797719  50.7493085  66.8231642 119.6597344  51.1950135  67.6617122
 119.0850308  51.0978402  66.2645180 113.3705124  52.8499476  74.3731299
 113.4997505  53.1033955  75.2870711 112.6902575  53.4427184  74.0535954
 117.5404611  63.5196726  70.4721773 117.4628641  64.4704551  70.5510254
 116.9366255  63.1742599  71.1296699 120.0321841  50.6924592  83.1283140
 119.2555175  51.2518512  83.1186005 120.6712404  51.1781375  83.6498010
 118.2868213  53.5010045  82.6901107 119.0282898  54.0395089  82.4135931
 117.5805199  54.1276334  82.8472659 120.1154623  50.5811792  78.6606825
 120.9615818  51.0051206  78.8041474 120.0553261  49.9245417  79.3545389
 119.6380330  55.9414784  72.3075642 120.1018675  56.2202487  71.5180265
 119.3737128  55.0398229  72.1248733 116.5304411  55.4886266  75.2455406
 117.1005768  55.9173534  74.6072890 117.1212522  55.2068851  75.9439591
 118.5749216  52.0637937  69.1165208 119.2773259  52.5158980  69.5839134
 118.2429844  51.4221756  69.7445101 117.0229577  50.6549693  83.4916417
 116.3928238  51.3365974  83.7251814 116.9165665  50.5432775  82.5469555
 112.3174550  50.3221489  74.4182341 111.5273604  50.5779018  73.9422452
 112.8085797  51.1369827  74.5234382 114.2689295  50.6866069  71.3765818
 113.4720458  50.7984763  71.8949314 114.0414887  51.0252721  70.5106708
 120.0994963  57.2110772  79.3248332 120.1639395  57.6731179  80.1606504
 119.3905886  56.5808137  79.4530642 110.6012253  50.5751980  76.8497332
 110.8520291  51.4598990  77.1154908 111.1371801  50.3956581  76.0772424
 119.8142980  58.8778879  69.1927313 119.6788655  59.7230415  69.6212161
 120.3552793  59.0798157  68.4293247 116.3010320  44.9570459  85.8541668
 115.9077265  44.4036658  86.5289312 117.1176460  45.2681038  86.2448186
 113.2672378  56.3954317  69.7655238 113.7796898  57.1897568  69.9160803
 113.9195090  55.6980608  69.6988839 115.0767262  59.5120074  71.8477991
 115.2533891  60.4338038  71.6598975 115.8724096  59.1978493  72.2772371
 119.2178281  46.3728338  83.4461925 119.9587994  46.9735491  83.3666387
 119.4496204  45.6305976  82.8879967 114.3619619  51.5584706  81.7240154
 114.2473134  50.6569963  82.0247253 113.5064137  51.8048402  81.3724971
 116.1998578  61.0298247  77.8488333 116.7506003  60.9015311  77.0765327
 115.3610054  61.3293136  77.4983226 119.9965749  57.2949375  82.1932565
 120.5294086  56.5337663  81.9631872 119.4679830  57.0023027  82.9356719
 111.2321294  54.7242972  70.5414808 112.0696516  55.1339980  70.3248516
 111.4099562  53.7842414  70.5115002 120.7132838  47.2367753  71.2883880
 119.8574434  46.8474603  71.1089518 121.1259789  47.3159714  70.4283665
 118.4874870  44.8552826  74.6941621 119.3527867  44.6595635  74.3347511
 118.5552379  44.6263178  75.6210978 121.3618462  56.4235368  69.7051377
 120.8339823  55.6888127  69.3924614 120.8605964  57.2010044  69.4591345
 116.0937189  47.0855034  72.0657988 116.6680941  46.8630215  71.3331181
 116.6808172  47.1543728  72.8186589 116.4206776  49.1159495  66.0853873
 115.5844089  49.4534182  66.4063148 116.2811546  48.9808475  65.1481010
 118.3959857  43.9596283  70.7933057 117.7424269  43.6445300  70.1689672
 118.3540331  43.3372023  71.5192880 119.5071062  54.2415578  62.7086350
 118.5998123  54.0104831  62.9077499 120.0042094  53.4453197  62.8960331
 120.6859295  54.3428173  67.2310340 119.7770514  54.0587206  67.3282809
 120.7154379  54.7627251  66.3713646 111.2547466  52.0633687  71.2125542
 111.0571865  51.4703048  70.4876608 110.6994130  51.7585897  71.9301481
 119.2344189  51.9556793  73.3320135 119.2892799  51.0030630  73.2562612
 118.4235391  52.1116233  73.8161433 120.3835383  55.8836917  64.5698418
 119.9454813  55.1672775  64.1104056 121.1245824  56.1113031  64.0083510
 117.1736549  50.5733853  71.0910514 116.3604415  50.8728024  71.4975706
 117.6695543  50.1789542  71.8084996 119.3245127  60.5691610  73.0244779
 119.2821306  60.7952456  72.0953311 120.2407826  60.3354985  73.1730580
 116.6650624  48.1452209  76.7071749 117.3050003  48.0040968  76.0094712
 115.8328154  47.8586722  76.3310351 117.4410928  57.4454639  72.8206741
 118.2351526  56.9504959  72.6189316 116.7302620  56.9172502  72.4574447
 113.7493691  51.5897721  68.8966494 112.8191279  51.5282176  69.1136456
 113.8451163  51.0673674  68.1003135 113.6679240  48.1152534  71.4844736
 113.9286058  49.0297867  71.3753896 114.4896413  47.6476976  71.6341348
 115.1404166  49.5290291  78.6543560 115.8127219  49.3207653  78.0056209
 114.3133952  49.3312377  78.2148792 120.0182204  58.0183661  76.5004578
 119.8793289  57.6502446  77.3730516 119.2296800  58.5331301  76.3288536
 120.6130356  63.1192758  67.8430115 120.7882111  62.6480801  68.6575738
 119.9263144  63.7458524  68.0711376 121.5687419  57.3965264  73.8893416
 121.2337252  57.3566034  74.7851066 121.0691365  56.7309980  73.4163826
 115.5431663  52.8032894  79.4145997 115.4051461  52.0713133  80.0157536
 116.4536586  52.7141794  79.1330185 118.1713964  52.5152853  78.9029677
 118.8813582  51.8746045  78.8616295 118.1283272  52.7665748  79.8255858
 116.8842898  49.5018071  80.7225316 116.3480255  49.0508810  81.3746913
 116.2959606  49.6363980  79.9795781 115.1791441  66.2682120  74.6169975
 115.4188039  66.9000645  75.2948994 114.3360638  65.9170160  74.9035334
 116.2945156  48.9606722  63.2851780 115.4174623  48.8395523  62.9214027
 116.7702910  48.1692801  63.0330669 107.8147297  53.7483882  73.3793287
 108.5018336  53.4345612  72.7914303 107.6595425  54.6525247  73.1060539
 112.6182019  48.6374079  77.8078311 112.5340208  48.0299748  77.0728721
 111.7964725  49.1283097  77.8087807 119.6919303  62.0761243  77.0211479
 119.6189474  62.8816214  77.5330784 119.2496696  62.2753209  76.1959500
 119.4809083  61.3133013  70.5314301 118.6976604  61.8554693  70.6252525
 120.1801828  61.8306992  70.9308542 119.3740701  49.2645025  72.9020191
 119.0038489  48.7116066  73.5901096 119.8699794  48.6603159  72.3495191
 117.2029900  59.7242520  79.9975209 117.9039359  60.3579003  80.1504603
 116.7325015  60.0657252  79.2370848 112.7997618  59.2578875  76.9306311
 113.3851055  58.5122563  77.0634215 112.6022456  59.5682832  77.8142975
 115.6536273  62.2930123  71.9468754 114.9846649  62.7776250  71.4632794
 115.5149143  62.5399343  72.8612132 107.3915273  51.8284476  75.6510754
 107.4299372  51.2948066  76.4447872 106.8855566  51.3019681  75.0321732
 119.7941542  64.3273866  78.5451412 120.3459850  64.4905488  79.3100497
 120.1347735  64.9178304  77.8731437 114.7706035  46.6749016  79.1473297
 114.8347362  47.5363847  78.7350694 114.7073155  46.0623018  78.4145655
 114.2458308  48.7472149  82.7946331 114.8730346  48.3649226  83.4083855
 113.3886226  48.5286351  83.1602023 111.0223850  50.5548578  68.7264686
 111.3177291  49.6459256  68.6731739 110.1211886  50.5336317  68.4045688
 114.5518097  48.6304574  74.7092234 113.8304683  49.2440542  74.5699708
 115.3411353  49.1662339  74.6308880 117.3544411  45.9659001  80.9832886
 117.8778813  46.2121297  81.7459195 117.1356744  46.7979036  80.5636023
 112.7511692  48.2362675  68.8504011 112.4224398  47.3560054  68.6679117
 113.1051063  48.1810344  69.7380400 115.8653515  48.5235645  69.2179489
 116.2049588  49.0521566  68.4958097 116.3125636  48.8616051  69.9938055
 118.5596956  46.9072696  78.6682557 118.2193776  46.1080509  79.0703237
 117.8535962  47.2074407  78.0959390 119.2113428  43.9922008  77.1209880
 120.0339497  43.5182486  76.9988770 119.4551491  44.7712492  77.6208566
 117.8521662  47.0210267  67.4172781 118.5730025  47.3991520  66.9136498
 117.2286966  47.7399144  67.5207759 116.7352006  50.6841129  74.9301858
 116.5896587  50.9981432  75.8226140 116.2577210  51.3026029  74.3772757
 118.5948389  47.6743677  74.9782748 118.5809958  46.7784770  74.6415046
 119.3120817  47.6814341  75.6121034 120.4474520  48.1081017  77.0235875
 120.1892298  49.0298088  77.0220206 119.9159560  47.7111452  77.7136339
 111.2097669  53.2246473  77.8689519 110.6651137  54.0006281  78.0009794
 112.0877019  53.5717278  77.7108641 117.9985285  46.5558057  70.2470318
 118.1201196  45.6274703  70.4461205 117.7087328  46.5696743  69.3348633
 120.8676476  44.2412968  73.3837038 120.8898173  44.3052301  72.4289017
 121.2844535  43.4017476  73.5777544 111.9963691  52.3516370  80.7619676
 111.2545427  52.4999005  81.3484307 111.6756435  52.6124635  79.8986426
 119.9407353  61.8932348  80.5600066 120.2494480  61.6481495  81.4322766
 120.7382835  62.0978986  80.0718937 119.9627965  64.0470257  72.7905443
 119.5232955  63.5546636  73.4838300 120.7136082  63.5043225  72.5497518
 112.4420304  60.2381798  72.7930071 113.2678324  59.9385570  72.4128714
 112.0914356  59.4689421  73.2419860 117.4101837  59.5908267  74.8627745
 116.7881847  58.9278972  74.5629972 118.0806704  59.6169398  74.1801392
 110.6428909  58.1568125  73.7519005 109.8060818  57.7290299  73.5703006
 110.6152555  58.3500568  74.6889796 117.4826365  48.0690055  84.4560251
 117.5314520  48.9452177  84.0738020 118.0248879  47.5267448  83.8831894
 116.9715344  58.1412190  68.3386205 117.1203465  58.8247654  67.6852878
 117.7781788  58.1217280  68.8535661 119.7125653  48.8221427  81.2106609
 118.8428963  49.1154993  80.9389198 119.9485134  49.4061872  81.9313873
 114.7267977  54.1677368  69.3447274 114.4814019  53.2639698  69.5427484
 114.8963892  54.1694518  68.4026752 113.9963625  49.9005725  66.8433435
 113.3032870  49.9750080  66.1873471 113.7515377  49.1366069  67.3654952
 120.4710750  60.6360320  65.8097953 119.8984717  61.2550507  65.3568424
 121.0443543  61.1859682  66.3437874 119.0400465  49.8971109  63.0868890
 118.1331921  49.6004222  63.1631604 119.3176446  49.6000928  62.2203176
 109.9578406  51.2177473  73.5367937 109.6381190  50.3642781  73.2442311
 109.4111834  51.4326051  74.2925904 113.7358313  53.9339914  77.2537443
 113.9544323  54.8657022  77.2725477 114.1484087  53.5747888  78.0392247
 120.6562531  44.4407999  69.2413132 119.8463259  44.0955084  69.6168378
 121.3446948  44.1315543  69.8300743 118.6086179  49.5073120  86.6440192
 118.5082906  50.4567477  86.5752283 118.3907721  49.1791359  85.7716262
 117.8099250  46.7558045  63.2280869 118.6718414  47.0812943  63.4876687
 117.9949594  45.9689541  62.7153935 109.8266666  54.8380384  75.5061058
 109.1330137  54.4234337  74.9931013 110.5739657  54.8800921  74.9094477
 118.4717449  52.9370258  85.4605254 117.9884530  53.7370619  85.6669143
 118.5578388  52.9478203  84.5072698 111.7403408  54.7698638  73.3827073
 111.7174096  54.8686325  72.4308956 112.0504045  55.6163789  73.7044239
 114.3990786  56.8274793  77.4973688 115.3534040  56.7958736  77.4303619
 114.2003310  56.3665417  78.3123913 114.9890168  55.3975909  80.0644485
 115.8083057  55.8919988  80.0879322 115.2626976  54.4807877  80.0362053
 112.7541015  62.3694413  74.5143885 112.6195483  61.6094814  73.9481883
 112.3373077  63.0935313  74.0472674 115.9110141  63.2663730  74.7262328
 115.7942525  64.2109162  74.6241018 115.0902587  62.9637291  75.1148127
 110.2425083  49.7314043  80.7636682 110.8883946  49.2212997  81.2523907
 110.0342234  50.4682725  81.3380107 118.7628693  43.9954088  66.5160578
 118.7507363  44.9395928  66.6728849 119.6552115  43.8124233  66.2220040
 116.9364655  63.9191992  77.9418256 117.8391902  63.9515602  78.2584751
 116.7102025  62.9892443  77.9564592 118.6918257  62.6722978  74.6028335
 117.7413888  62.6724840  74.4892707 118.9950743  61.9255713  74.0864370
 114.5822574  46.8781660  84.8611696 115.4454035  46.5218465  85.0715021
 114.0087984  46.5395555  85.5487101 118.6541051  69.0775800  73.3793287
 119.3412091  68.7637530  72.7914303 118.4989180  69.9817165  73.1060539
 118.2309027  67.1576393  75.6510754 118.2693127  66.6239984  76.4447872
 117.7249320  66.6311599  75.0321732 121.4822664  73.4860042  73.7519005
 120.6454572  73.0582217  73.5703006 121.4546309  73.6792486  74.6889796
 120.7972160  66.5469391  73.5367937 120.4774945  65.6934699  73.2442311
 120.2505588  66.7617969  74.2925904 120.6660420  70.1672302  75.5061058
 119.9723892  69.7526255  74.9931013 121.4133411  70.2092839  74.9094477
  95.8617104   9.8675014  57.1967080  95.7841133  10.8182839  57.2755560
  95.2578747   9.5220886  57.8542006  93.5003933  12.6160408  61.3415282
  93.7400532  13.2478932  62.0194300  92.6573130  12.2648448  61.6280641
  93.9748766   8.6408410  58.6714060  93.3059141   9.1254538  58.1878100
  93.8361635   8.8877630  59.5857439  98.1154034  10.6752153  65.2696719
  98.6672342  10.8383775  66.0345804  98.4560228  11.2656591  64.5976743
  91.0753507   8.7172700  61.2389192  90.9407975   7.9573101  60.6727190
  90.6585570   9.4413600  60.7717981  94.2322633   9.6142017  61.4507635
  94.1155017  10.5587449  61.3486325  93.4115079   9.3115578  61.8393434
  95.2577147  10.2670279  64.6663563  96.1604394  10.2993889  64.9830058
  95.0314517   9.3370730  64.6809899 109.5573149  14.8089232  62.3280929
 109.2191661  14.6930297  61.4401464 110.4262917  14.4080397  62.3081935
 105.4159965  16.6624708  58.3177820 104.8524830  16.5714645  57.5494108
 105.3012360  15.8424613  58.7980312 110.0392932  15.9624084  68.2867134
 110.0281573  15.5676882  67.4147638 110.2013572  15.2290156  68.8800906
 102.9624397  18.1575900  61.1562040 103.7545689  17.8166725  60.7408340
 103.2021047  18.2670875  62.0764194 110.9959523  20.3295676  53.6292285
 110.3447503  20.9149756  53.2426298 111.7903886  20.8601871  53.6887322
 104.9215151  17.4184813  54.0279419 105.6946027  16.8713800  53.8892295
 105.2740550  18.2829062  54.2393880 106.7600193  18.7461195  67.2346318
 106.4690059  19.6506826  67.1192985 107.3957178  18.7877723  67.9490388
 107.6856400  16.1238044  63.8247678 108.2819972  15.8994066  63.1104641
 107.7431372  15.3822789  64.4273126 112.4734789  18.0186108  54.1661269
 111.8380622  18.0920734  54.8782174 112.1432195  18.6079707  53.4880348
 106.9777717  15.4805585  53.8622244 106.8613975  14.8050489  54.5303328
 107.0879977  14.9937959  53.0454397 109.3209258  14.9415732  57.5668933
 108.9567465  14.4146353  58.2781855 110.1776374  14.5514201  57.3935419
 111.7190078  18.4322611  64.2296112 111.4190801  19.3347650  64.1211919
 111.3741138  18.1654794  65.0817265 105.1702560  14.8836408  60.2632816
 104.2453056  14.7512622  60.4710508 105.4186973  15.6630627  60.7602759
 102.5311371  14.5269681  61.0976605 102.6603752  14.7804160  62.0116017
 101.8508822  15.1197389  60.7781261 106.7010858  25.1966931  57.1967080
 106.6234888  26.1474756  57.2755560 106.0972502  24.8512804  57.8542006
 107.4474460  15.1780250  69.4146414 108.1889145  15.7165294  69.1381237
 106.7411446  15.8046539  69.5717965 112.9229800  17.3209391  68.0118575
 113.3313156  16.8791801  67.2673207 112.2007061  16.7462018  68.2652768
 113.2458614  17.8810581  61.7670864 112.6167477  18.0456295  61.0646932
 112.8584277  18.2952191  62.5381828 117.1247846  18.8165019  59.1215228
 116.4398885  19.1963920  58.5712261 117.2091696  19.4260346  59.8547175
 114.3798778  16.4624978  65.7210571 114.5915673  17.1056738  65.0444952
 114.3328526  15.6287295  65.2532501 108.7986576  17.6184989  59.0320949
 109.2624922  17.8972692  58.2425572 108.5343374  16.7168434  58.8494040
 105.6910657  17.1656471  61.9700712 106.2612014  17.5943739  61.3318197
 106.2818769  16.8839055  62.6684898 101.4780796  11.9991694  61.1427648
 100.6879850  12.2549223  60.6667758 101.9692044  12.8140032  61.2479688
 115.4944606  19.3396933  63.8932929 116.3162050  18.9377121  63.6115610
 115.4907009  19.2365168  64.8449044 103.4295542  12.3636274  58.1011124
 102.6326705  12.4754968  58.6194620 103.2021134  12.7022926  57.2352015
 109.2601209  18.8880977  66.0493639 109.3245642  19.3501384  66.8851811
 108.5512133  18.2578342  66.1775949  99.7618499  12.2522185  63.5742639
 100.0126538  13.1369195  63.8400215 100.2978048  12.0726786  62.8017730
 108.9749227  20.5549084  55.9172619 108.8394902  21.4000620  56.3457467
 109.5159040  20.7568362  55.1538553 102.4278624  18.0724522  56.4900545
 102.9403145  18.8667773  56.6406109 103.0801337  17.3750813  56.4234146
 104.2373509  21.1890279  58.5723298 104.4140137  22.1108243  58.3844282
 105.0330343  20.8748698  59.0017677 103.5225866  13.2354910  68.4485461
 103.4079381  12.3340168  68.7492560 102.6670383  13.4818607  68.0970277
 110.6017703  21.1772651  70.0472962 110.1581558  20.3909029  69.7293866
 111.2634917  21.3651801  69.3816852 105.3604825  22.7068452  64.5733640
 105.9112250  22.5785516  63.8010634 104.5216300  23.0063341  64.2228533
 112.6998941  21.4575451  68.0754363 112.6817417  22.2784332  67.5834632
 113.6218862  21.3329526  68.3004504 109.1571996  18.9719580  68.9177871
 109.6900332  18.2107868  68.6877179 108.6286077  18.6793232  69.6602026
 100.3927541  16.4013177  57.2660115 101.2302763  16.8110185  57.0493823
 100.5705809  15.4612619  57.2360309 110.5224708  18.1005573  56.4296683
 109.9946070  17.3658332  56.1169921 110.0212211  18.8780249  56.1836651
 115.5017554  16.2954593  61.5463729 114.8441229  16.9853855  61.6343858
 116.3057954  16.6851025  61.8897716 108.6677308  15.9185783  49.4331656
 107.7604370  15.6875036  49.6322805 109.1648340  15.1223402  49.6205638
 111.5745387  24.6283290  52.3528342 110.9007086  24.9314987  52.9613300
 111.9611209  25.4312370  52.0033799 109.8465542  16.0198378  53.9555646
 108.9376761  15.7357411  54.0528116 109.8760626  16.4397456  53.0958953
 115.0784809  19.6304967  57.7246814 114.6247136  18.7895877  57.7812004
 114.4478776  20.2666366  58.0621594 113.5217749  21.4681464  58.6596632
 113.8140723  22.0286521  57.9408998 114.0316369  21.7610025  59.4149791
 100.4153712  13.7403892  57.9370848 100.2178112  13.1473253  57.2121915
  99.8600376  13.4356102  58.6546787 109.5441630  17.5607121  51.2943725
 109.1061060  16.8442980  50.8349362 110.2852071  17.7883236  50.7328816
 108.4851374  22.2461815  59.7490085 108.4427553  22.4722661  58.8198617
 109.4014073  22.0125190  59.8975886 117.6884124  17.9040845  62.3631315
 118.1220631  17.8116135  63.2114369 118.4015705  17.8798346  61.7251331
 106.6017175  19.1224844  59.5452048 107.3957773  18.6275164  59.3434623
 105.8908867  18.5942707  59.1819753 111.4212019  21.5042940  63.8964416
 111.4749041  22.0733876  64.6642131 110.5526800  21.6744825  63.5318453
 102.9099938  13.2667926  55.6211801 101.9797526  13.2052381  55.8381763
 103.0057410  12.7443879  54.8248442 118.5499674  17.9464546  64.8964200
 118.7435564  18.8510357  65.1423475 118.4500292  17.4871965  65.7302785
 113.6114782  18.0971289  70.4705081 113.4600289  17.8681841  69.5535165
 113.6019462  19.0541890  70.4836426 110.3800119  15.6703202  65.4551347
 111.3092179  15.8214361  65.2820315 109.9591149  15.7587222  64.5999994
 109.1788451  19.6953866  63.2249885 109.0399536  19.3272650  64.0975823
 108.3903047  20.2101505  63.0533843 109.7736603  24.7962962  54.5675422
 109.9488358  24.3251006  55.3821044 109.0869391  25.4228729  54.7956682
 110.7293666  19.0735469  60.6138723 110.3943498  19.0336239  61.5096373
 110.2297611  18.4080185  60.1409133 104.7037910  14.4803099  66.1391304
 104.5657708  13.7483338  66.7402843 105.6142833  14.3911999  65.8575492
 113.6652857  16.4191503  50.8875782 113.0482028  15.6938331  50.7908835
 113.1969346  17.1800863  50.5442857 107.3320210  14.1923058  65.6274984
 108.0419829  13.5516250  65.5861602 107.2889518  14.4435953  66.5501164
 115.3206989  21.1290411  68.5481563 115.2619535  20.4449632  67.8812146
 115.7226507  21.8709401  68.0962189 104.3397688  27.9452325  61.3415282
 104.5794286  28.5770849  62.0194300 103.4966884  27.5940365  61.6280641
 115.3224396  19.0929995  66.7795542 114.4351175  18.7555917  66.9021941
 115.8922947  18.3613027  67.0164308  96.9753543  15.4254087  60.1038594
  97.6624583  15.1115817  59.5159609  96.8201672  16.3295452  59.8305845
 108.8525550  23.7531448  63.7456786 108.7795721  24.5586419  64.2576090
 108.4102943  23.9523414  62.9204807 108.6415329  22.9903218  57.2559607
 107.8582851  23.5324898  57.3497832 109.3408074  23.5077197  57.6553848
 111.3124233  23.6518282  65.9014944 112.0252205  24.2865747  65.8290846
 110.8214262  23.7482148  65.0854946 113.0341760  17.5569534  57.4732236
 112.0998039  17.6770997  57.3036940 113.2118429  16.6542001  57.2092246
 106.3636147  21.4012725  66.7220515 107.0645606  22.0349208  66.8749909
 105.8931262  21.7427457  65.9616154 114.4890543  19.7430675  55.0068422
 114.7650386  19.6287270  55.9162296 113.6195041  19.3448160  54.9680595
 111.1244607  23.9917026  58.6501236 111.3067001  23.1738682  59.1128988
 111.9477593  24.2084718  58.2126126 111.4586772  22.9185211  55.9116284
 111.9874538  22.4077666  55.2986446 111.7214992  22.6027741  56.7761817
 110.2125006  14.6977144  71.0339103 109.5365643  14.5971273  71.7041478
 111.0352640  14.5416357  71.4975100 101.9603865  20.9349080  63.6551618
 102.5457302  20.1892768  63.7879522 101.7628703  21.2453037  64.5388282
 104.8142520  23.9700328  58.6714060 104.1452895  24.4546455  58.1878100
 104.6755390  24.2169548  59.5857439  96.5521520  13.5054680  62.3756061
  96.5905619  12.9718271  63.1693179  96.0461812  12.9789886  61.7567038
 113.8058663  20.8305329  71.1245373 114.3498567  21.4435287  70.6300328
 113.2245508  21.3884907  71.6412386 100.1830097  12.2318783  55.4509992
 100.4783538  11.3229461  55.3977046  99.2818133  12.2106522  55.1290995
 112.0916176  23.9526047  62.2560401 111.9667315  23.1515787  61.7471346
 112.7495267  24.4472240  61.7674371 114.1551084  21.7535067  63.8839951
 113.2081420  21.6340418  63.8118278 114.5033857  20.8657565  63.9666212
 111.1597518  21.5487783  60.0844303 111.0122480  20.6204490  60.2651873
 111.9851011  21.5707874  59.6001378 114.7631639  22.3716342  61.1709176
 115.6878187  22.1659203  61.0333627 114.5946943  22.1232743  62.0798517
 114.5526956  22.8902009  56.5271267 114.7263833  22.3248432  55.7745120
 115.0455847  23.6902904  56.3450757 100.3703915  14.9016678  64.5934826
  99.8257383  15.6776486  64.7255100 101.2483265  15.2487483  64.4353948
 115.5402128  22.2068774  53.6268166 116.2353033  22.8275466  53.8455480
 115.8825278  21.3564125  53.9020543 101.1569937  14.0286575  67.4864983
 100.4151673  14.1769210  68.0729613 100.8362682  14.2894840  66.6231732
 117.4393551  19.6568479  55.1555496 117.9644875  19.9955752  54.4304816
 117.3515904  18.7215494  54.9718631 109.1013600  23.5702553  67.2845373
 109.4100726  23.3251700  68.1568073 109.8989082  23.7749191  66.7964243
 109.1234212  25.7240462  59.5150750 108.6839202  25.2316841  60.2083606
 109.8742329  25.1813430  59.2742825 101.6026551  21.9152003  59.5175378
 102.4284571  21.6155775  59.1374021 101.2520603  21.1459626  59.9665166
 106.5708084  21.2678471  61.5873051 105.9488093  20.6049176  61.2875279
 107.2412951  21.2939603  60.9046699  99.8035156  19.8338330  60.4764311
  98.9667064  19.4060504  60.2948312  99.7758801  20.0270773  61.4135102
 117.1287457  20.2901383  70.4606694 116.3383001  20.2725522  69.9211194
 116.8920812  20.8289676  71.2155731 106.1321591  19.8182395  55.0631512
 106.2809711  20.5017859  54.4098184 106.9388034  19.7987485  55.5780967
 118.7503529  19.5590791  68.0181444 118.4588337  19.9220771  68.8544905
 118.1375660  18.8457799  67.8394776 103.8874224  15.8447572  56.0692581
 103.6420266  14.9409902  56.2672791 104.0570139  15.8464723  55.1272059
 109.6316997  22.3130525  52.5343259 109.0590964  22.9320712  52.0813731
 110.2049790  22.8629887  53.0683181 112.8514256  22.5967675  53.6651841
 113.7844929  22.5313237  53.8684717 112.7637469  23.4323942  53.2066374
 115.4802273  21.9133546  50.6255789 115.4015905  21.5793409  51.5191547
 116.3011940  22.4055314  50.6247261 109.9002488  17.7009084  71.3359969
 110.8205497  17.8787683  71.5300015 109.8652071  16.7565130  71.1839668
  99.1184653  12.8947678  60.2613243  98.7987437  12.0412986  59.9687617
  98.5718081  13.1096256  61.0171211 102.8964560  15.6110119  63.9782750
 103.1150570  16.5427227  63.9970784 103.3090334  15.2518093  64.7637554
  98.9872913  16.5150589  62.2306365  98.2936384  16.1004542  61.7176319
  99.7345904  16.5571126  61.6339784 107.6323696  14.6140463  72.1850560
 107.1490777  15.4140824  72.3914449 107.7184635  14.6248408  71.2318004
 100.9009655  16.4468843  60.1072380 100.8780343  16.5456530  59.1554263
 101.2110292  17.2933994  60.4289546 103.5597033  18.5044998  64.2218994
 104.5140287  18.4728940  64.1548926 103.3609557  18.0435622  65.0369220
 104.1496415  17.0746114  66.7889792 104.9689304  17.5690193  66.8124629
 104.4233223  16.1578082  66.7607359 101.9147262  24.0464618  61.2389192
 101.7801730  23.2865018  60.6727190 101.4979324  24.7705517  60.7717981
 113.0506225  19.2301541  50.2465767 113.7542075  19.4351544  50.8623423
 112.3268874  19.7978303  50.5114851 105.0716388  24.9433935  61.4507635
 104.9548772  25.8879367  61.3486325 104.2508834  24.6407496  61.8393434
 114.9592922  19.6684070  52.2964227 115.7938526  19.2365269  52.1141702
 114.7977265  19.4966084  53.2241122 114.6138814  16.1716184  53.6620567
 114.5587618  16.0060455  52.7209011 113.9884870  16.8792217  53.8182756
  99.4031329  11.4084248  67.4881989 100.0490193  10.8983202  67.9769214
  99.1948480  12.1452930  68.0625414 111.9284722  18.4765096  72.9874129
 112.7975881  18.6505748  72.6260764 111.4491473  19.2959512  72.8649859
 106.0970902  25.5962197  64.6663563 106.9998148  25.6285807  64.9830058
 105.8708272  24.6662647  64.6809899 107.8524504  24.3493183  61.3273642
 106.9020135  24.3495045  61.2138014 108.1556990  23.6025918  60.8109676
 120.3966904  30.1381150  62.3280929 120.0585415  30.0222214  61.4401464
 121.2656672  29.7372315  62.3081935 116.2553719  31.9916626  58.3177820
 115.6918584  31.9006563  57.5494108 116.1406114  31.1716530  58.7980312
 120.8786687  31.2916001  68.2867134 120.8675327  30.8968800  67.4147638
 121.0407326  30.5582074  68.8800906 113.8018151  33.4867818  61.1562040
 114.5939443  33.1458642  60.7408340 114.0414801  33.5962793  62.0764194
 115.7608905  32.7476731  54.0279419 116.5339781  32.2005718  53.8892295
 116.1134304  33.6120980  54.2393880 117.5993948  34.0753113  67.2346318
 117.3083814  34.9798744  67.1192985 118.2350932  34.1169641  67.9490388
 118.5250155  31.4529962  63.8247678 119.1213727  31.2285984  63.1104641
 118.5825126  30.7114707  64.4273126 118.0975183  28.9069397  51.6597869
 118.3500704  28.3850918  50.8981332 117.1599742  28.7435542  51.7624553
 117.8171472  30.8097503  53.8622244 117.7007730  30.1342406  54.5303328
 117.9273732  30.3229877  53.0454397 120.1603013  30.2707650  57.5668933
 119.7961220  29.7438271  58.2781855 121.0170129  29.8806119  57.3935419
 119.8008500  25.2997550  52.5630282 119.9682902  26.1677786  52.9300753
 119.6105669  25.4624831  51.6391571 116.0096314  30.2128325  60.2632816
 115.0846811  30.0804540  60.4710508 116.2580727  30.9922545  60.7602759
 119.7797720  27.7555207  53.5476948 119.6597346  28.2012258  54.3862429
 119.0850309  28.1040525  52.9890487 113.3705125  29.8561599  61.0976605
 113.4997506  30.1096078  62.0116017 112.6902577  30.4489307  60.7781261
 117.5404613  40.5258849  57.1967080 117.4628642  41.4766674  57.2755560
 116.9366256  40.1804721  57.8542006 120.0321842  27.6986714  69.8528447
 119.2555176  28.2580635  69.8431311 120.6712405  28.1843497  70.3743317
 118.2868215  30.5072168  69.4146414 119.0282899  31.0457212  69.1381237
 117.5805200  31.1338456  69.5717965 120.1154624  27.5873915  65.3852132
 120.9615820  28.0113329  65.5286781 120.0553262  26.9307539  66.0790695
 119.6380331  32.9476907  59.0320949 120.1018676  33.2264610  58.2425572
 119.3737129  32.0460351  58.8494040 116.5304412  32.4948388  61.9700712
 117.1005769  32.9235657  61.3318197 117.1212524  32.2130973  62.6684898
 118.5749217  29.0700059  55.8410514 119.2773260  29.5221103  56.3084441
 118.2429845  28.4283878  56.4690407 117.0229578  27.6611816  70.2161724
 116.3928239  28.3428097  70.4497120 116.9165666  27.5494898  69.2714862
 112.3174551  27.3283612  61.1427648 111.5273605  27.5841140  60.6667758
 112.8085798  28.1431950  61.2479688 114.2689296  27.6928191  58.1011124
 113.4720459  27.8046885  58.6194620 114.0414888  28.0314843  57.2352015
 120.0994964  34.2172894  66.0493639 120.1639396  34.6793302  66.8851811
 119.3905888  33.5870259  66.1775949 119.8142981  35.8841002  55.9172619
 119.6788656  36.7292538  56.3457467 120.3552794  36.0860280  55.1538553
 116.3010321  21.9632582  72.5786975 115.9077267  21.4098780  73.2534619
 117.1176461  22.2743160  72.9693492 113.2672379  33.4016440  56.4900545
 113.7796899  34.1959690  56.6406109 113.9195092  32.7042730  56.4234146
 115.0767264  36.5182196  58.5723298 115.2533892  37.4400161  58.3844282
 115.8724097  36.2040615  59.0017677 119.2178282  23.3790461  70.1707231
 119.9587995  23.9797614  70.0911694 119.4496205  22.6368099  69.6125274
 114.3619620  28.5646828  68.4485461 114.2473135  27.6632085  68.7492560
 113.5064138  28.8110525  68.0970277 116.1998579  38.0360370  64.5733640
 116.7506004  37.9077433  63.8010634 115.3610055  38.3355259  64.2228533
 119.9965750  34.3011498  68.9177871 120.5294087  33.5399786  68.6877179
 119.4679831  34.0085150  69.6602026 111.2321296  31.7305094  57.2660115
 112.0696518  32.1402103  57.0493823 111.4099563  30.7904536  57.2360309
 120.7132839  24.2429876  58.0129186 119.8574435  23.8536726  57.8334825
 121.1259791  24.3221836  57.1528972 118.4874871  21.8614949  61.4186928
 119.3527868  21.6657757  61.0592817 118.5552380  21.6325300  62.3456285
 121.3618463  33.4297490  56.4296683 120.8339824  32.6950250  56.1169921
 120.8605966  34.2072167  56.1836651 116.0937190  24.0917157  58.7903295
 116.6680942  23.8692338  58.0576488 116.6808173  24.1605851  59.5431896
 116.4206778  26.1221618  52.8099180 115.5844090  26.4596304  53.1308455
 116.2811547  25.9870597  51.8726317 118.3959858  20.9658405  57.5178364
 117.7424270  20.6507423  56.8934979 118.3540332  20.3434146  58.2438187
 119.5071063  31.2477701  49.4331656 118.5998125  31.0166954  49.6322805
 120.0042095  30.4515320  49.6205638 120.6859296  31.3490295  53.9555646
 119.7770516  31.0649328  54.0528116 120.7154380  31.7689374  53.0958953
 111.2547467  29.0695810  57.9370848 111.0571867  28.4765170  57.2121915
 110.6994131  28.7648020  58.6546787 119.2344190  28.9618916  60.0565442
 119.2892800  28.0092752  59.9807918 118.4235392  29.1178355  60.5406740
 120.3835384  32.8899039  51.2943725 119.9454814  32.1734898  50.8349362
 121.1245825  33.1175154  50.7328816 117.1736550  27.5795976  57.8155820
 116.3604416  27.8790146  58.2221013 117.6695545  27.1851665  58.5330303
 119.3245128  37.5753733  59.7490085 119.2821307  37.8014579  58.8198617
 120.2407827  37.3417107  59.8975886 116.6650625  25.1514331  63.4317055
 117.3050004  25.0103090  62.7340019 115.8328156  24.8648845  63.0555657
 117.4410929  34.4516762  59.5452048 118.2351528  33.9567082  59.3434623
 116.7302621  33.9234625  59.1819753 113.7493693  28.5959843  55.6211801
 112.8191281  28.5344299  55.8381763 113.8451164  28.0735796  54.8248442
 113.6679242  25.1214656  58.2090042 113.9286059  26.0359990  58.0999203
 114.4896414  24.6539099  58.3586655 115.1404167  26.5352413  65.3788867
 115.8127220  26.3269776  64.7301516 114.3133953  26.3374499  64.9394099
 120.0182205  35.0245784  63.2249885 119.8793291  34.6564568  64.0975823
 119.2296801  35.5393423  63.0533843 120.6130357  40.1254880  54.5675422
 120.7882113  39.6542923  55.3821044 119.9263145  40.7520646  54.7956682
 121.5687420  34.4027386  60.6138723 121.2337253  34.3628156  61.5096373
 121.0691366  33.7372102  60.1409133 115.5431664  29.8095016  66.1391304
 115.4051462  29.0775255  66.7402843 116.4536588  29.7203917  65.8575492
 118.1713965  29.5214976  65.6274984 118.8813583  28.8808168  65.5861602
 118.1283273  29.7727871  66.5501164 116.8842899  26.5080194  67.4470623
 116.3480256  26.0570932  68.0992219 116.2959607  26.6426102  66.7041087
 115.1791442  43.2744243  61.3415282 115.4188041  43.9062767  62.0194300
 114.3360639  42.9232283  61.6280641 116.2945158  25.9668845  50.0097087
 115.4174624  25.8457646  49.6459333 116.7702911  25.1754923  49.7575975
 107.8147298  30.7546005  60.1038594 108.5018338  30.4407735  59.5159609
 107.6595427  31.6587369  59.8305845 112.6182020  25.6436201  64.5323618
 112.5340209  25.0361871  63.7974027 111.7964726  26.1345220  64.5333114
 119.6919304  39.0823365  63.7456786 119.6189476  39.8878337  64.2576090
 119.2496697  39.2815331  62.9204807 119.4809084  38.3195135  57.2559607
 118.6976606  38.8616816  57.3497832 120.1801829  38.8369115  57.6553848
 119.3740703  26.2707148  59.6265497 119.0038490  25.7178188  60.3146403
 119.8699795  25.6665281  59.0740497 117.2029901  36.7304643  66.7220515
 117.9039361  37.3641126  66.8749909 116.7325016  37.0719374  65.9616154
 112.7997619  36.2640998  63.6551618 113.3851056  35.5184686  63.7879522
 112.6022458  36.5744955  64.5388282 107.3915274  28.8346598  62.3756061
 107.4299374  28.3010189  63.1693179 106.8855567  28.3081804  61.7567038
 119.7941543  41.3335989  65.2696719 120.3459851  41.4967610  66.0345804
 120.1347737  41.9240427  64.5976743 114.7706036  23.6811139  65.8718603
 114.8347363  24.5425970  65.4596001 114.7073157  23.0685140  65.1390962
 114.2458309  25.7534271  69.5191638 114.8730348  25.3711349  70.1329162
 113.3886228  25.5348473  69.8847330 111.0223852  27.5610700  55.4509992
 111.3177293  26.6521379  55.3977046 110.1211887  27.5398440  55.1290995
 114.5518099  25.6366697  61.4337541 113.8304684  26.2502665  61.2945014
 115.3411354  26.1724462  61.3554187 117.3544412  22.9721123  67.7078193
 117.8778814  23.2183420  68.4704502 117.1356745  23.8041158  67.2881330
 112.7511693  25.2424798  55.5749318 112.4224399  24.3622177  55.3924423
 113.1051064  25.1872467  56.4625707 115.8653516  25.5297768  55.9424795
 116.2049589  26.0583689  55.2203404 116.3125637  25.8678174  56.7183362
 118.5596957  23.9134818  65.3927863 118.2193778  23.1142632  65.7948543
 117.8535963  24.2136529  64.8204696 119.2113429  20.9984131  63.8455186
 120.0339498  20.5244609  63.7234077 119.4551493  21.7774615  64.3453873
 117.8521663  24.0272389  54.1418088 118.5730026  24.4053642  53.6381805
 117.2286968  24.7461266  54.2453066 116.7352008  27.6903252  61.6547165
 116.5896588  28.0043555  62.5471446 116.2577211  28.3088152  61.1018064
 118.5948391  24.6805800  61.7028054 118.5809959  23.7846893  61.3660352
 119.3120819  24.6876463  62.3366341 120.4474521  25.1143140  63.7481182
 120.1892299  26.0360210  63.7465512 119.9159562  24.7173574  64.4381646
 111.2097670  30.2308596  64.5934826 110.6651138  31.0068404  64.7255100
 112.0877020  30.5779400  64.4353948 117.9985287  23.5620180  56.9715625
 118.1201198  22.6336826  57.1706512 117.7087329  23.5758866  56.0593940
 120.8676477  21.2475090  60.1082344 120.8898174  21.3114423  59.1534324
 121.2844536  20.4079599  60.3022851 111.9963692  29.3578492  67.4864983
 111.2545428  29.5061128  68.0729613 111.6756436  29.6186758  66.6231732
 119.9407354  38.8994470  67.2845373 120.2494481  38.6543617  68.1568073
 120.7382836  39.1041109  66.7964243 119.9627966  41.0532380  59.5150750
 119.5232957  40.5608759  60.2083606 120.7136083  40.5105348  59.2742825
 112.4420305  37.2443921  59.5175378 113.2678325  36.9447693  59.1374021
 112.0914357  36.4751543  59.9665166 117.4101839  36.5970389  61.5873051
 116.7881848  35.9341094  61.2875279 118.0806706  36.6231521  60.9046699
 110.6428910  35.1630247  60.4764311 109.8060819  34.7352422  60.2948312
 110.6152556  35.3562691  61.4135102 117.4826366  25.0752177  71.1805557
 117.5314522  25.9514300  70.7983327 118.0248880  24.5329570  70.6077200
 116.9715346  35.1474312  55.0631512 117.1203466  35.8309777  54.4098184
 117.7781789  35.1279403  55.5780967 119.7125655  25.8283550  67.9351916
 118.8428964  26.1217116  67.6634504 119.9485135  26.4123995  68.6559179
 114.7267978  31.1739490  56.0692581 114.4814020  30.2701820  56.2672791
 114.8963893  31.1756641  55.1272059 113.9963626  26.9067848  53.5678742
 113.3032871  26.9812203  52.9118778 113.7515378  26.1428191  54.0900259
 120.4710751  37.6422443  52.5343259 119.8984718  38.2612630  52.0813731
 121.0443545  38.1921805  53.0683181 119.0400467  26.9033232  49.8114197
 118.1331922  26.6066345  49.8876910 119.3176448  26.6063050  48.9448483
 109.9578407  28.2239595  60.2613243 109.6381191  27.3704904  59.9687617
 109.4111835  28.4388174  61.0171211 113.7358315  30.9402036  63.9782750
 113.9544324  31.8719144  63.9970784 114.1484088  30.5810011  64.7637554
 120.6562532  21.4470122  55.9658438 119.8463261  21.1017207  56.3413684
 121.3446949  21.1377666  56.5546050 118.6086180  26.5135242  73.3685499
 118.5082907  27.4629599  73.2997590 118.3907722  26.1853481  72.4961569
 117.8099251  23.7620167  49.9526176 118.6718415  24.0875066  50.2121993
 117.9949595  22.9751663  49.4399242 109.8266667  31.8442507  62.2306365
 109.1330139  31.4296460  61.7176319 110.5739658  31.8863043  61.6339784
 118.4717450  29.9432381  72.1850560 117.9884532  30.7432741  72.3914449
 118.5578389  29.9540326  71.2318004 111.7403410  31.7760761  60.1072380
 111.7174098  31.8748448  59.1554263 112.0504046  32.6225912  60.4289546
 114.3990787  33.8336916  64.2218994 115.3534041  33.8020858  64.1548926
 114.2003311  33.3727540  65.0369220 114.9890170  32.4038032  66.7889792
 115.8083059  32.8982111  66.8124629 115.2626977  31.4870000  66.7607359
 112.7541016  39.3756535  61.2389192 112.6195484  38.6156936  60.6727190
 112.3373079  40.0997435  60.7717981 115.9110142  40.2725852  61.4507635
 115.7942526  41.2171285  61.3486325 115.0902588  39.9699414  61.8393434
 110.2425084  26.7376166  67.4881989 110.8883947  26.2275120  67.9769214
 110.0342235  27.4744847  68.0625414 118.7628694  21.0016210  53.2405885
 118.7507364  21.9458050  53.3974156 119.6552116  20.8186356  52.9465346
 116.9364656  40.9254114  64.6663563 117.8391903  40.9577724  64.9830058
 116.7102026  39.9954565  64.6809899 118.6918258  39.6785101  61.3273642
 117.7413889  39.6786962  61.2138014 118.9950744  38.9317835  60.8109676
 114.5822575  23.8843783  71.5857003 115.4454036  23.5280588  71.7960328
 114.0087985  23.5457678  72.2732407 118.6541052  46.0837922  60.1038594
 119.3412092  45.7699652  59.5159609 118.4989181  46.9879287  59.8305845
 118.2309028  44.1638516  62.3756061 118.2693128  43.6302107  63.1693179
 117.7249321  43.6373721  61.7567038 121.4822665  50.4922165  60.4764311
 120.6454573  50.0644339  60.2948312 121.4546310  50.6854608  61.4135102
 120.7972162  43.5531513  60.2613243 120.4774946  42.6996821  59.9687617
 120.2505590  43.7680091  61.0171211 120.6660422  47.1734425  62.2306365
 119.9723893  46.7588377  61.7176319 121.4133413  47.2154961  61.6339784
 117.5404614  17.5320972  43.9212386 117.4628644  18.4828797  44.0000867
 116.9366257  17.1866844  44.5787313 115.1791444  20.2806366  48.0660588
 115.4188042  20.9124890  48.7439607 114.3360640  19.9294406  48.3525948
 115.6536276  16.3054368  45.3959367 114.9846651  16.7900496  44.9123407
 115.5149145  16.5523588  46.3102745 119.7941544  18.3398111  51.9942025
 120.3459852  18.5029733  52.7591110 120.1347738  18.9302549  51.3222050
 112.7541018  16.3818658  47.9634499 112.6195485  15.6219059  47.3972497
 112.3373080  17.1059558  47.4963288 115.9110143  17.2787975  48.1752941
 115.7942528  18.2233407  48.0731632 115.0902590  16.9761536  48.5638741
 116.9364658  17.9316237  51.3908870 117.8391904  17.9639847  51.7075365
 116.7102028  17.0016688  51.4055206 118.6541054  23.0900045  46.8283901
 119.3412093  22.7761775  46.2404916 118.4989182  23.9941410  46.5551152
 118.2309030  21.1700638  49.1001368 118.2693129  20.6364229  49.8938486
 117.7249323  20.6435844  48.4812345 121.4822666  27.4984288  47.2009618
 120.6454575  27.0706462  47.0193619 121.4546312  27.6916731  48.1380409
 120.7972163  20.5593636  46.9858550 120.4774947  19.7058944  46.6932924
 120.2505591  20.7742214  47.7416517 120.6660423  24.1796547  48.9551671
 119.9723894  23.7650500  48.4421626 121.4133414  24.2217084  48.3585090
  24.8595345  62.9513089 118.7301806  24.1857044  63.2544785 119.3386764
  25.2461167  63.7542169 118.3807263  28.8252086  60.5298572 120.0041629
  29.5202991  61.1505265 120.2228944  29.1675236  59.6793923 120.2794007
  22.9166954  60.6360324 118.9116723  22.3440921  61.2550511 118.4587195
  23.4899748  61.1859686 119.4456645  26.1364214  60.9197474 120.0425305
  27.0694887  60.8543036 120.2458181  26.0487427  61.7553741 119.5839838
  28.7652231  60.2363344 117.0029253  28.6865862  59.9023208 117.8965011
  29.5861898  60.7285112 117.0020725  26.3356183  57.5531340 116.6239231
  27.0392033  57.7581342 117.2396887  25.6118831  58.1208102 116.8888315
  28.2442880  57.9913869 118.6737691  29.0788484  57.5595067 118.4915166
  28.0827223  57.8195883 119.6014586  36.8727155  68.5083520 128.7692868
  37.5105565  68.3890267 128.0656208  36.7547998  69.4564364 128.8280820
  29.5403677  70.3146425 124.6951283  28.9768542  70.2236362 123.9267571
  29.4256072  69.4946329 125.1753776  35.1203236  73.9817392 120.0065748
  34.4691216  74.5671473 119.6199762  35.9147599  74.5123587 120.0660786
  29.0458863  71.0706529 120.4052883  29.8189739  70.5235517 120.2665759
  29.3984262  71.9350779 120.6167344  31.3825141  67.2299196 118.0371333
  31.6350661  66.7080717 117.2754796  30.4449700  67.0665341 118.1398016
  36.4268424  66.2334974 125.8446076  37.2131513  65.8154397 125.4936493
  36.6907128  67.1381066 126.0127724  36.5978501  71.6707824 120.5434733
  35.9624334  71.7442451 121.2555637  36.2675907  72.2601423 119.8653812
  41.8276851  66.1710207 126.7479054  42.5602023  65.6009424 126.9816884
  41.0716206  65.7831808 127.1885560  31.1021429  69.1327302 120.2395708
  30.9857688  68.4572205 120.9076792  31.2123689  68.6459675 119.4227861
  33.4452970  68.5937449 123.9442397  33.0811178  68.0668070 124.6555318
  34.3020086  68.2035918 123.7708882  33.0858457  63.6227348 118.9403745
  33.2532860  64.4907585 119.3074216  32.8955626  63.7854630 118.0165035
  33.0647678  66.0785006 119.9250412  32.9447303  66.5242057 120.7635892
  32.3700267  66.4270324 119.3663950  30.8254570  78.8488648 123.5740543
  30.7478600  79.7996473 123.6529024  30.2216214  78.5034520 124.2315470
  38.7632744  66.5506479 120.7530746  39.6750601  66.7833866 120.5778444
  38.2542391  67.1343523 120.1905825  37.3702327  71.5332297 128.1444328
  36.7411189  71.6978012 127.4420396  36.9827989  71.9473907 128.9155292
  41.2491559  72.4686735 125.4988691  40.5642597  72.8485637 124.9485725
  41.3335408  73.0782062 126.2320639  32.9230289  71.2706706 125.4094413
  33.3868634  71.5494409 124.6199035  32.6587087  70.3690150 125.2267503
  31.8599175  67.3929858 122.2183978  32.5623218  67.8450902 122.6857904
  31.5279803  66.7513677 122.8463871  39.6188318  72.9918650 130.2706392
  40.4405762  72.5898837 129.9889074  39.6150721  72.8886884 131.2222508
  47.7094311  69.3357398 126.6191364  46.9558020  68.7664796 126.4635368
  47.8441852  69.3020063 127.5661998  33.0992939  74.2070801 122.2946083
  32.9638614  75.0522336 122.7230931  33.6402752  74.4090078 121.5312017
  26.5522337  71.7246239 122.8674008  27.0646857  72.5189489 123.0179573
  27.2045050  71.0272529 122.8007610  28.3617221  74.8411995 124.9496761
  28.5383850  75.7629960 124.7617745  29.1574055  74.5270414 125.3791141
  24.5171253  70.0534893 123.6433579  25.3546475  70.4631901 123.4267286
  24.6949521  69.1134335 123.6133773  36.4135686  67.7209974 119.3317412
  35.8982309  68.4914578 119.5705799  36.1412994  67.0475110 119.9550473
  33.9982797  62.5659674 124.3902650  33.1424393  62.1766525 124.2108289
  34.4109748  62.6451635 123.5302436  41.3869960  70.4742328 121.2670585
  40.6099402  70.1353488 120.8225747  42.0661441  70.4794951 120.5925550
  36.2021989  65.5937066 121.1577193  35.8972124  65.9083215 122.0087336
  37.1552431  65.6718486 121.2004526  34.6468421  71.7527289 122.8070147
  34.1189782  71.0180049 122.4943384  34.1455923  72.5301965 122.5610115
  39.6261267  69.9476309 127.9237193  38.9684941  70.6375571 128.0117322
  40.4301666  70.3372741 128.2671180  38.4366725  68.3020682 125.9741135
  38.9498607  68.9350674 126.4762845  39.0867949  67.7021878 125.6084495
  29.7056735  64.4451416 119.1872644  28.8694048  64.7826103 119.5081918
  29.5661505  64.3100396 118.2499781  32.7921021  69.5707499 115.8105120
  31.8848083  69.3396753 116.0096269  33.2892053  68.7745118 115.9979101
  35.6989100  78.2805006 118.7301806  35.0250798  78.5836703 119.3386764
  36.0854922  79.0834087 118.3807263  35.6982604  67.1761553 123.3502156
  36.4454423  67.6882951 123.0409278  35.9674194  66.8545606 124.2106549
  33.9709254  69.6720094 120.3329110  33.0620473  69.3879127 120.4301580
  34.0004338  70.0919173 119.4732417  39.2028522  73.2826684 124.1020278
  38.7490849  72.4417593 124.1585468  38.5722488  73.9188082 124.4395058
  38.1461441  64.2118670 125.3320945  37.4084198  63.6996056 125.6631188
  38.3988215  63.7719051 124.5204222  37.6461461  75.1203180 125.0370096
  37.9384435  75.6808237 124.3182461  38.1560081  75.4131741 125.7923255
  32.5194148  67.2848715 126.4338905  32.5742758  66.3322551 126.3581382
  31.7085350  67.4408154 126.9180204  33.6685342  71.2128838 117.6717189
  33.2304772  70.4964697 117.2122826  34.4095783  71.4404953 117.1102280
  30.4586508  65.9025774 124.1929284  29.6454374  66.2019945 124.5994476
  30.9545502  65.5081463 124.9103766  32.6095086  75.8983531 126.1263549
  32.5671265  76.1244378 125.1972081  33.5257785  75.6646906 126.2749350
  41.7858457  69.4886035 123.7293507  41.6476355  69.6787631 122.8014696
  41.4294676  70.2505418 124.1861558  41.8127836  71.5562562 128.7404779
  42.2464343  71.4637851 129.5887833  42.5259417  71.5320062 128.1024795
  30.7260887  72.7746560 125.9225512  31.5201485  72.2796881 125.7208087
  30.0152579  72.2464423 125.5593217  27.0343650  66.9189642 121.9985264
  26.1041238  66.8574098 122.2155226  27.1301122  66.3965595 121.2021906
  42.6743386  71.5986262 131.2737664  42.8679276  72.5032073 131.5196939
  42.5744004  71.1393682 132.1076249  33.8980315  78.4484679 120.9448885
  34.0732070  77.9772722 121.7594508  33.2113103  79.0750445 121.1730146
  34.8537378  72.7257185 126.9912187  34.5187211  72.6857955 127.8869836
  34.3541324  72.0601901 126.5182597  37.7896570  70.0713219 117.2649246
  37.1725740  69.3460048 117.1682299  37.3213058  70.8322580 116.9216320
  29.5795116  64.2898644 116.3870550  28.7024582  64.1687444 116.0232797
  30.0552869  63.4984722 116.1349439  32.7659042  76.6424934 123.6333071
  31.9826563  77.1846614 123.7271295  33.4651787  77.1598914 124.0327312
  43.9285449  68.1559929 127.9185568  43.9175325  69.0384644 127.5479501
  43.0602829  67.8031480 127.7240105  37.1585472  71.2091251 123.8505700
  36.2241751  71.3292713 123.6810404  37.3362141  70.3063718 123.5865710
  40.5458024  67.0508570 124.3855734  41.0118476  67.8836562 124.3116037
  40.9965524  66.5853552 125.0900992  38.6134255  73.3952391 121.3841886
  38.8894099  73.2808986 122.2935760  37.7438754  72.9969876 121.3454059
  35.2488319  77.6438742 125.0274700  35.4310713  76.8260398 125.4902452
  36.0721305  77.8606434 124.5899590  35.5830484  76.5706927 122.2889748
  36.1118251  76.0599382 121.6759910  35.8458704  76.2549457 123.1535281
  24.3073809  65.8840499 121.8283456  24.6027250  64.9751177 121.7750510
  23.4061845  65.8628238 121.5064458  36.2159888  77.6047763 128.6333865
  36.0911028  76.8037503 128.1244810  36.8738979  78.0993956 128.1447834
  38.2794797  75.4056783 130.2613415  37.3325132  75.2862134 130.1891741
  38.6277570  74.5179281 130.3439676  35.2841230  75.2009499 126.4617767
  35.1366192  74.2726207 126.6425337  36.1094723  75.2229590 125.9774842
  29.1503474  63.8527566 122.3198259  29.4899547  64.3813488 121.5976867
  29.5975595  64.1907973 123.0956825  38.8875352  76.0238058 127.5482640
  39.8121899  75.8180919 127.4107091  38.7190655  75.7754459 128.4571981
  31.1371621  62.3502188 120.5191552  31.8579984  62.7283441 120.0155269
  30.5136925  63.0691065 120.6226530  35.2802744  63.0547337 121.4549884
  35.4966359  63.9371975 121.1538712  34.7996811  62.6633550 120.7255526
  38.6770668  76.5423725 122.9044731  38.8507545  75.9770148 122.1518583
  39.1699559  77.3424620 122.7224221  44.5310059  69.3060148 124.5235031
  44.9741205  68.5567474 124.1254154  43.6536569  69.2970285 124.1408763
  39.6645840  75.8590490 120.0041629  40.3596745  76.4797183 120.2228944
  40.0068991  75.0085841 120.2794007  41.5637264  73.3090195 121.5328960
  42.0888588  73.6477468 120.8078280  41.4759616  72.3737211 121.3492095
  30.2565303  73.4704111 121.4404975  30.4053424  74.1539576 120.7871648
  31.0631747  73.4509201 121.9554431  44.0742924  70.7765387 126.9157478
  44.9089815  71.2155191 127.0795039  44.2102053  70.3004040 126.0965724
  28.0117936  69.4969289 122.4466044  27.7663978  68.5931619 122.6446255
  28.1813851  69.4986439 121.5045522  27.2813584  65.2297646 119.9452206
  26.5882829  65.3042001 119.2892242  27.0365336  64.4657990 120.4673723
  33.7560709  75.9652242 118.9116723  33.1834676  76.5842429 118.4587195
  34.3293503  76.5151603 119.4456645  36.9757969  76.2489392 120.0425305
  37.9088642  76.1834953 120.2458181  36.8881181  77.0845659 119.5839838
  39.6045985  75.5655262 117.0029253  39.5259617  75.2315126 117.8965011
  40.4255652  76.0577030 117.0020725  42.3024176  68.4317001 130.2105571
  42.2700497  67.4933002 130.3965255  42.9124800  68.5101038 129.4771396
  34.1407507  67.3013054 116.2532775  35.0866612  67.1719262 116.3221193
  33.7621752  66.5627716 116.7302204  48.1200726  69.4933008 129.3511608
  48.8504115  69.2318296 129.9119311  47.5107672  68.7561730 129.3913676
  46.2016023  67.6340871 129.9486059  45.4749187  67.4996836 129.3402551
  45.7863310  67.9417699 130.7542777  32.3250424  65.2263031 116.1887661
  31.4181880  64.9296143 116.2650374  32.6026405  64.9292849 115.3221947
  33.9412490  59.7699920 122.3431902  33.1313219  59.4247005 122.7187148
  34.6296907  59.4607464 122.9319513  31.0949209  62.0849966 116.3299640
  31.9568373  62.4104864 116.5895457  31.2799553  61.2981462 115.8172706
  39.2481846  60.9578492 123.4734863  38.6680515  61.6163296 123.0912915
  38.9817778  60.1355837 123.0622280  38.0306724  63.1178583 122.5291211
  37.1432579  63.4028233 122.3111406  38.4460713  62.9572346 121.6818488
  41.3821260  63.1425104 126.2445550  42.1581650  63.6321556 126.5170167
  40.6569394  63.5683158 126.7017420  43.8193818  63.8552723 127.3019491
  44.4138309  63.6148459 126.5912799  43.8920402  63.1359854 127.9293027
  37.1749937  72.8823257 116.6239231  37.8785787  73.0873260 117.2396887
  36.4512586  73.4500019 116.8888315  38.0047747  68.6333119 122.7441501
  37.9482949  69.0901670 121.9049134  38.5576090  67.8723803 122.5664344
  41.8152553  64.4222851 123.5691621  41.5589487  64.0219486 124.3999828
  41.1905421  65.1366645 123.4441760  46.1264891  67.1618924 126.0762912
  45.5664449  67.2312113 126.8494474  45.5208394  66.9859908 125.3562408
  39.0836634  73.3205787 118.6737691  39.9182238  72.8886985 118.4915166
  38.9220977  73.1487800 119.6014586  38.7382527  69.8237900 120.0394030
  38.6831330  69.6582171 119.0982475  38.1128582  70.5313933 120.1956220
  32.0478652  59.3246009 119.6179349  32.0357322  60.2687849 119.7747620
  32.9402074  59.1416154 119.3238810  40.3797432  85.6438342 124.6951283
  39.8162297  85.5528279 123.9267571  40.2649827  84.8238247 125.1753776
  45.9596990  89.3109310 120.0065748  45.3084970  89.8963390 119.6199762
  46.7541353  89.8415505 120.0660786  39.8852617  86.3998447 120.4052883
  40.6583493  85.8527434 120.2665759  40.2378016  87.2642696 120.6167344
  42.2218895  82.5591113 118.0371333  42.4744416  82.0372635 117.2754796
  41.2843454  82.3957259 118.1398016  47.2662178  81.5626892 125.8446076
  48.0525267  81.1446315 125.4936493  47.5300882  82.4672984 126.0127724
  47.4372255  86.9999742 120.5434733  46.8018088  87.0734368 121.2555637
  47.1069662  87.5893341 119.8653812  41.9415184  84.4619219 120.2395708
  41.8251442  83.7864123 120.9076792  42.0517444  83.9751593 119.4227861
  44.2846725  83.9229366 123.9442397  43.9204932  83.3959987 124.6555318
  45.1413841  83.5327835 123.7708882  43.9252212  78.9519266 118.9403745
  44.0926614  79.8199502 119.3074216  43.7349381  79.1146548 118.0165035
  40.1340027  83.8650042 126.6406280  39.2090523  83.7326256 126.8483972
  40.3824440  84.6444261 127.1376223  43.9041433  81.4076924 119.9250412
  43.7841058  81.8533974 120.7635892  43.2094021  81.7562241 119.3663950
  49.6026499  81.8798397 120.7530746  50.5144355  82.1125783 120.5778444
  49.0936146  82.4635441 120.1905825  46.9462474  78.0556433 129.0020607
  46.0846953  78.3537686 129.2937345  46.9724908  78.2726832 128.0701640
  43.7624043  86.5998623 125.4094413  44.2262389  86.8786326 124.6199035
  43.4980841  85.6982068 125.2267503  42.6992929  82.7221776 122.2183978
  43.4016972  83.1742819 122.6857904  42.3673558  82.0805594 122.8463871
  36.4418263  80.9805328 127.5201112  35.6517317  81.2362857 127.0441222
  36.9329510  81.7953666 127.6253152  38.3933008  81.3449908 124.4784588
  37.5964172  81.4568602 124.9968084  38.1658601  81.6836560 123.6125479
  43.9386694  89.5362718 122.2946083  43.8032369  90.3814254 122.7230931
  44.4796506  89.7381996 121.5312017  37.3916091  87.0538156 122.8674008
  37.9040612  87.8481407 123.0179573  38.0438804  86.3564447 122.8007610
  39.2010976  90.1703913 124.9496761  39.3777604  91.0921877 124.7617745
  39.9967809  89.8562332 125.3791141  47.2879157  73.0593280 130.8244977
  46.9443427  73.9494922 130.7484087  47.6558120  72.8694938 129.9614562
  35.3565008  85.3826811 123.6433579  36.1940230  85.7923819 123.4267286
  35.5343276  84.4426253 123.6133773  47.2529440  83.0501891 119.3317412
  46.7376064  83.8206496 119.5705799  46.9806749  82.3767027 119.9550473
  44.8376551  77.8951592 124.3902650  43.9818147  77.5058442 124.2108289
  45.2503503  77.9743553 123.5302436  46.3675698  75.4297935 128.7894210
  45.8640493  75.3928070 127.9762015  46.6606305  76.3390678 128.8490867
  42.6118584  75.5136665 127.7960392  43.4771580  75.3179474 127.4366281
  42.6796093  75.2847017 128.7229748  52.2263714  85.8034246 121.2670585
  51.4493157  85.4645405 120.8225747  52.9055195  85.8086869 120.5925550
  47.0415743  80.9228983 121.1577193  46.7365879  81.2375132 122.0087336
  47.9946185  81.0010403 121.2004526  45.4862175  87.0819207 122.8070147
  44.9583537  86.3471966 122.4943384  44.9849678  87.8593883 122.5610115
  40.2180903  77.7438873 125.1676758  40.7924655  77.5214054 124.4349951
  40.8051885  77.8127567 125.9205360  40.5450490  79.7743334 119.1872644
  39.7087802  80.1118020 119.5081918  40.4055259  79.6392314 118.2499781
  42.5203570  74.6180122 123.8951828  41.8667983  74.3029139 123.2708443
  42.4784045  73.9955862 124.6211651  43.6314775  84.8999417 115.8105120
  42.7241837  84.6688670 116.0096269  44.1285807  84.1037036 115.9979101
  46.5382854  93.6096924 118.7301806  45.8644553  93.9128621 119.3386764
  46.9248676  94.4126004 118.3807263  45.7541311  81.1062055 128.2199475
  44.8363872  81.3277002 128.0621164  46.1701454  81.1808366 127.3611183
  46.5376359  82.5053471 123.3502156  47.2848177  83.0174868 123.0409278
  46.8067948  82.1837524 124.2106549  44.8103009  85.0012012 120.3329110
  43.9014228  84.7171045 120.4301580  44.8398093  85.4211090 119.4732417
  48.9855196  79.5410587 125.3320945  48.2477952  79.0287973 125.6631188
  49.2381969  79.1010969 124.5204222  49.0866823  72.3186839 125.9262714
  49.3925700  71.4584203 125.6388629  49.8119428  72.9104459 125.7261708
  35.3791179  82.7217526 124.3144312  35.1815579  82.1286887 123.5895379
  34.8237843  82.4169736 125.0320251  43.3587903  82.6140632 126.4338905
  43.4136513  81.6614469 126.3581382  42.5479105  82.7700071 126.9180204
  44.5079097  86.5420755 117.6717189  44.0698526  85.8256614 117.2122826
  45.2489537  86.7696870 117.1102280  41.2980263  81.2317692 124.1929284
  40.4848128  81.5311863 124.5994476  41.7939257  80.8373381 124.9103766
  52.6252211  84.8177952 123.7293507  52.4870110  85.0079548 122.8014696
  52.2688430  85.5797335 124.1861558  40.7894337  78.8036048 129.8090519
  41.4293717  78.6624807 129.1113483  39.9571868  78.5170561 129.4329121
  41.5654641  88.1038478 125.9225512  42.3595240  87.6088798 125.7208087
  40.8546334  87.5756341 125.5593217  37.8737405  82.2481560 121.9985264
  36.9434993  82.1866015 122.2155226  37.9694877  81.7257513 121.2021906
  37.7922954  78.7736373 124.5863506  38.0529771  79.6881706 124.4772666
  38.6140126  78.3060815 124.7360119  44.7374069  93.7776596 120.9448885
  44.9125825  93.3064640 121.7594508  44.0506857  94.4042363 121.1730146
  48.6290324  85.4005137 117.2649246  48.0119495  84.6751965 117.1682299
  48.1606813  86.1614497 116.9216320  40.4188870  79.6190561 116.3870550
  39.5418336  79.4979362 116.0232797  40.8946623  78.8276640 116.1349439
  46.9149446  77.7811481 126.2767276  47.4118146  77.0281444 125.9568347
  46.1436428  77.8175798 125.7110486  47.9979227  86.5383168 123.8505700
  47.0635506  86.6584631 123.6810404  48.1755895  85.6355635 123.5865710
  43.4984415  79.9228864 126.0038961  43.1282202  79.3699905 126.6919867
  43.9943507  79.3186998 125.4513961  51.3851778  82.3800488 124.3855734
  51.8512230  83.2128479 124.3116037  51.8359279  81.9145469 125.0900992
  49.4528009  88.7244309 121.3841886  49.7287853  88.6100904 122.2935760
  48.5832508  88.3261794 121.3454059  49.3568441  74.7481075 128.4246635
  48.4431521  74.9785302 128.5928842  49.7861542  74.8319519 129.2760668
  46.4224239  91.8998845 122.2889748  46.9512005  91.3891300 121.6759910
  46.6852458  91.5841375 123.1535281  38.8949749  77.3332855 132.2492067
  38.9591075  78.1947686 131.8369465  38.8316869  76.7206857 131.5164426
  35.1467564  81.2132417 121.8283456  35.4421005  80.3043095 121.7750510
  34.2455600  81.1920156 121.5064458  38.6761811  79.2888413 127.8111005
  37.9548397  79.9024381 127.6718478  39.4655067  79.8246178 127.7327651
  36.8755405  78.8946514 121.9522781  36.5468112  78.0143893 121.7697887
  37.2294776  78.8394183 122.8399171  39.9897229  79.1819484 122.3198259
  40.3293301  79.7105405 121.5976867  40.4369349  79.5199890 123.0956825
  42.6840669  77.5656535 131.7701327  42.3437490  76.7664348 132.1722007
  41.9779676  77.8658246 131.1978160  43.3357141  74.6505847 130.2228650
  44.1583211  74.1766325 130.1007540  43.5795205  75.4296331 130.7227336
  41.9765376  77.6794106 120.5191552  42.6973738  78.0575358 120.0155269
  41.3530680  78.3982982 120.6226530  46.1196499  78.3839255 121.4549884
  46.3360113  79.2663893 121.1538712  45.6390566  77.9925468 120.7255526
  40.8595720  81.3424968 128.0320629  40.7140301  81.6565271 128.9244910
  40.3820924  81.9609868 127.4791527  42.7192103  78.3327516 128.0801518
  42.7053672  77.4368609 127.7433816  43.4364531  78.3398180 128.7139804
  44.5718234  78.7664856 130.1254646  44.3136011  79.6881927 130.1238976
  44.0403274  78.3695291 130.8155110  42.1228999  77.2141896 123.3489088
  42.2444910  76.2858542 123.5479976  41.8331041  77.2280582 122.4367404
  44.9920189  74.8996807 126.4855808  45.0141886  74.9636140 125.5307788
  45.4088248  74.0601315 126.6796314  50.5039595  91.1882408 120.0041629
  51.1990499  91.8089100 120.2228944  50.8462745  90.3377759 120.2794007
  52.4031018  88.6382113 121.5328960  52.9282342  88.9769386 120.8078280
  52.3153371  87.7029128 121.3492095  41.0959058  88.7996029 121.4404975
  41.2447178  89.4831493 120.7871648  41.9025501  88.7801119 121.9554431
  38.8511691  84.8261206 122.4466044  38.6057733  83.9223536 122.6446255
  39.0207605  84.8278357 121.5045522  38.1207338  80.5589564 119.9452206
  37.4276583  80.6333919 119.2892242  37.8759090  79.7949908 120.4673723
  46.7920995  72.1185165 127.3491697  47.0722749  71.4508354 127.9752123
  47.5771602  72.3114261 126.8366360  44.5954463  91.2944159 118.9116723
  44.0228430  91.9134346 118.4587195  45.1687257  91.8443521 119.4456645
  47.8151723  91.5781309 120.0425305  48.7482396  91.5126871 120.2458181
  47.7274936  92.4137576 119.5839838  50.4439740  90.8947180 117.0029253
  50.3653371  90.5607043 117.8965011  51.2649407  91.3868948 117.0020725
  44.9801262  82.6304972 116.2532775  45.9260367  82.5011180 116.3221193
  44.6015507  81.8919634 116.7302204  50.9523146  74.2960978 126.2159667
  50.7547967  73.9876066 127.1002999  51.5622852  75.0222617 126.3457597
  43.1644179  80.5554948 116.1887661  42.2575634  80.2588061 116.2650374
  43.4420160  80.2584766 115.3221947  44.7806245  75.0991838 122.3431902
  43.9706973  74.7538923 122.7187148  45.4690662  74.7899382 122.9319513
  46.7096793  74.1769885 123.9656199  47.2627832  74.5965338 124.6246222
  46.9466879  73.2505633 124.0079155  41.9342964  77.4141884 116.3299640
  42.7962128  77.7396782 116.5895457  42.1193308  76.6273380 115.8172706
  50.0875600  76.2870410 123.4734863  49.5074269  76.9455214 123.0912915
  49.8211533  75.4647755 123.0622280  48.5379166  75.6875468 125.6756183
  49.0378945  75.7992002 124.8670502  49.1814774  75.3836521 126.3156992
  48.8700478  78.4470500 122.5291211  47.9826333  78.7320151 122.3111406
  49.2854467  78.2864264 121.6818488  52.2215014  78.4717021 126.2445550
  52.9975404  78.9613474 126.5170167  51.4963148  78.8975076 126.7017420
  48.0143692  88.2115175 116.6239231  48.7179542  88.4165178 117.2396887
  47.2906340  88.7791937 116.8888315  48.8441502  83.9625036 122.7441501
  48.7876703  84.4193588 121.9049134  49.3969844  83.2015721 122.5664344
  52.6546308  79.7514768 123.5691621  52.3983242  79.3511404 124.3999828
  52.0299176  80.4658562 123.4441760  49.9230389  88.6497704 118.6737691
  50.7575993  88.2178903 118.4915166  49.7614732  88.4779718 119.6014586
  49.5776281  85.1529818 120.0394030  49.5225085  84.9874089 119.0982475
  48.9522336  85.8605851 120.1956220  42.8872407  74.6537927 119.6179349
  42.8751076  75.5979767 119.7747620  43.7795828  74.4708072 119.3238810
  46.7024526  71.2480703 123.8725286  45.9356922  70.6939190 124.0181968
  47.1135231  71.3202572 124.7339437  51.3844244  95.1035252 119.1872644
  50.5481557  95.4409938 119.5081918  51.2449014  94.9684231 118.2499781
  51.2582625  94.9482479 116.3870550  50.3812091  94.8271280 116.0232797
  51.7340378  94.1568557 116.1349439  48.9601093  95.8881482 119.9452206
  48.2670338  95.9625837 119.2892242  48.7152845  95.1241825 120.4673723
  54.0037933  95.8846866 116.1887661  53.0969389  95.5879979 116.2650374
  54.2813914  95.5876684 115.3221947  52.7736718  92.7433801 116.3299640
  53.6355882  93.0688700 116.5895457  52.9587062  91.9565297 115.8172706
  53.7266161  89.9829844 119.6179349  53.7144831  90.9271684 119.7747620
  54.6189583  89.7999990 119.3238810  24.8595346  39.9575211 105.4547113
  24.1857045  40.2606908 106.0632071  25.2461168  40.7604292 105.1052570
  28.8252087  37.5360695 106.7286936  29.5202992  38.1567387 106.9474251
  29.1675237  36.6856046 107.0039314  22.9166956  37.6422446 105.6362030
  22.3440923  38.2612634 105.1832501  23.4899749  38.1921808 106.1701951
  26.1364215  37.9259597 106.7670612  27.0694889  37.8605158 106.9703487
  26.0487428  38.7615863 106.3085144  28.7652232  37.2425467 103.7274559
  28.6865864  36.9085331 104.6210317  29.5861899  37.7347235 103.7266032
  26.3356184  34.5593462 103.3484538  27.0392034  34.7643465 103.9642193
  25.6118833  35.1270224 103.6133621  28.2442881  34.9975992 105.3982998
  29.0788485  34.5657190 105.2160473  28.0827224  34.8258005 106.3259892
  36.8727156  45.5145643 115.4938174  37.5105566  45.3952390 114.7901515
  36.7547999  46.4626487 115.5526127  29.5403678  47.3208547 111.4196590
  28.9768543  47.2298484 110.6512878  29.4256073  46.5008452 111.8999083
  35.1203237  50.9879515 106.7311055  34.4691217  51.5733595 106.3445069
  35.9147600  51.5185710 106.7906093  29.0458864  48.0768652 107.1298189
  29.8189740  47.5297639 106.9911065  29.3984263  48.9412901 107.3412651
  31.3825142  44.2361318 104.7616639  31.6350663  43.7142839 104.0000102
  30.4449701  44.0727464 104.8643323  36.4268425  43.2397097 112.5691383
  37.2131514  42.8216520 112.2181800  36.6907129  44.1443189 112.7373031
  36.5978502  48.6769947 107.2680039  35.9624335  48.7504573 107.9800944
  36.2675909  49.2663546 106.5899119  41.8276852  43.1772330 113.4724361
  42.5602024  42.6071547 113.7062191  41.0716208  42.7893930 113.9130867
  31.1021431  46.1389424 106.9641014  30.9857689  45.4634328 107.6322099
  31.2123691  45.6521798 106.1473167  33.4452972  45.5999571 110.6687703
  33.0811179  45.0730192 111.3800625  34.3020088  45.2098040 110.4954189
  33.0858459  40.6289471 105.6649052  33.2532861  41.4969707 106.0319523
  32.8955628  40.7916753 104.7410341  33.0647680  43.0847128 106.6495719
  32.9447305  43.5304179 107.4881199  32.3700268  43.4332446 106.0909257
  30.8254572  55.8550770 110.2985850  30.7478601  56.8058595 110.3774331
  30.2216215  55.5096643 110.9560776  38.7632746  43.5568602 107.4776053
  39.6750602  43.7895988 107.3023750  38.2542393  44.1405646 106.9151131
  37.3702328  48.5394420 114.8689634  36.7411190  48.7040134 114.1665702
  36.9827990  48.9536030 115.6400598  41.2491560  49.4748858 112.2233998
  40.5642598  49.8547759 111.6731031  41.3335409  50.0844185 112.9565946
  32.9230290  48.2768828 112.1339719  33.3868635  48.5556531 111.3444342
  32.6587088  47.3752273 111.9512810  31.8599176  44.3991981 108.9429285
  32.5623219  44.8513024 109.4103211  31.5279804  43.7575799 109.5709178
  39.6188319  49.9980772 116.9951699  40.4405763  49.5960960 116.7134381
  39.6150722  49.8949007 117.9467815  47.7094312  46.3419521 113.3436670
  46.9558021  45.7726919 113.1880675  47.8441854  46.3082185 114.2907305
  33.0992941  51.2132923 109.0191390  32.9638615  52.0584459 109.4476238
  33.6402753  51.4152201 108.2557324  26.5522338  48.7308361 109.5919315
  27.0646859  49.5251611 109.7424880  27.2045051  48.0334652 109.5252916
  28.3617223  51.8474117 111.6742068  28.5383851  52.7692082 111.4863052
  29.1574056  51.5332537 112.1036448  29.4848538  53.3652291 117.6752410
  30.0355963  53.2369355 116.9029404  28.6460014  53.6647180 117.3247303
  24.5171255  47.0597015 110.3678885  25.3546477  47.4694024 110.1512593
  24.6949522  46.1196458 110.3379079  36.4135687  44.7272096 106.0562718
  35.8982310  45.4976701 106.2951106  36.1412995  44.0537232 106.6795780
  33.9982798  39.5721797 111.1147957  33.1424394  39.1828647 110.9353595
  34.4109750  39.6513758 110.2547742  41.3869961  47.4804451 107.9915892
  40.6099404  47.1415610 107.5471054  42.0661442  47.4857074 107.3170857
  36.2021990  42.5999188 107.8822500  35.8972126  42.9145337 108.7332643
  37.1552432  42.6780608 107.9249833  34.6468422  48.7589412 109.5315454
  34.1189783  48.0242171 109.2188691  34.1455925  49.5364088 109.2855422
  39.6261268  46.9538432 114.6482500  38.9684942  47.6437693 114.7362628
  40.4301667  47.3434864 114.9916486  38.4366727  45.3082805 112.6986442
  38.9498608  45.9412797 113.2008151  39.0867951  44.7084000 112.3329802
  29.7056737  41.4513539 105.9117950  28.8694049  41.7888225 106.2327225
  29.5661506  41.3162519 104.9745087  32.7921022  46.5769622 102.5350427
  31.8848084  46.3458875 102.7341576  33.2892054  45.7807241 102.7224408
  35.6989101  55.2867129 105.4547113  35.0250800  55.5898826 106.0632071
  36.0854923  56.0896209 105.1052570  35.6982605  44.1823676 110.0747462
  36.4454424  44.6945073 109.7654584  35.9674195  43.8607729 110.9351856
  33.9709255  46.6782217 107.0574417  33.0620475  46.3941249 107.1546886
  34.0004339  47.0981295 106.1977724  39.2028523  50.2888806 110.8265584
  38.7490850  49.4479716 110.8830775  38.5722490  50.9250205 111.1640364
  38.1461442  41.2180792 112.0566252  37.4084199  40.7058178 112.3876494
  38.3988216  40.7781174 111.2449529  37.6461462  52.1265303 111.7615402
  37.9384437  52.6870360 111.0427768  38.1560083  52.4193864 112.5168561
  32.5194150  44.2910837 113.1584212  32.5742759  43.3384674 113.0826689
  31.7085352  44.4470276 113.6425510  33.6685343  48.2190960 104.3962495
  33.2304773  47.5026819 103.9368133  34.4095784  48.4467075 103.8347587
  30.4586509  42.9087897 110.9174591  29.6454375  43.2082068 111.3239783
  30.9545504  42.5143586 111.6349073  32.6095087  52.9045654 112.8508856
  32.5671266  53.1306500 111.9217388  33.5257786  52.6709029 112.9994657
  41.7858458  46.4948157 110.4538814  41.6476357  46.6849753 109.5260003
  41.4294677  47.2567540 110.9106865  41.8127838  48.5624684 115.4650085
  42.2464344  48.4699973 116.3133139  42.5259418  48.5382185 114.8270101
  30.7260888  49.7808683 112.6470818  31.5201487  49.2859003 112.4453393
  30.0152580  49.2526546 112.2838524  35.5455733  52.1626778 116.9983186
  35.5992755  52.7317715 117.7660902  34.6770514  52.3328664 116.6337223
  27.0343652  43.9251765 108.7230571  26.1041240  43.8636220 108.9400533
  27.1301124  43.4027717 107.9267212  42.6743387  48.6048385 117.9982971
  42.8679277  49.5094196 118.2442246  42.5744005  48.1455804 118.8321556
  33.3032164  50.3537705 116.3268655  33.1643250  49.9856489 117.1994593
  32.5146760  50.8685344 116.1552613  33.8980316  55.4546801 107.6694192
  34.0732072  54.9834845 108.4839815  33.2113104  56.0812568 107.8975453
  34.8537379  49.7319308 113.7157493  34.5187212  49.6920078 114.6115143
  34.3541325  49.0664024 113.2427903  37.7896571  47.0775342 103.9894553
  37.1725742  46.3522170 103.8927605  37.3213059  47.8384702 103.6461627
  28.4641401  58.6036164 114.4434052  28.7038000  59.2354688 115.1213071
  27.6210598  58.2524204 114.7299411  29.5795117  41.2960766 103.1115857
  28.7024583  41.1749567 102.7478104  30.0552870  40.5046845 102.8594746
  32.9769263  54.4115287 116.8475556  32.9039435  55.2170258 117.3594861
  32.5346656  54.6107252 116.0223577  32.7659043  53.6487057 110.3578378
  31.9826565  54.1908737 110.4516602  33.4651788  54.1661036 110.7572619
  43.9285450  45.1622052 114.6430874  43.9175327  46.0446767 114.2724808
  43.0602830  44.8093602 114.4485412  35.4367947  54.3102121 119.0033715
  36.1495919  54.9449585 118.9309616  34.9457975  54.4065987 118.1873717
  37.1585474  48.2153373 110.5751006  36.2241752  48.3354836 110.4055711
  37.3362142  47.3125840 110.3111016  40.5458025  44.0570693 111.1101041
  41.0118477  44.8898684 111.0361343  40.9965525  43.5915674 111.8146299
  38.6134256  50.4014514 108.1087193  38.8894100  50.2871108 109.0181067
  37.7438755  50.0031999 108.0699366  35.2488320  54.6500865 111.7520006
  35.4310715  53.8322521 112.2147759  36.0721306  54.8668557 111.3144896
  35.5830486  53.5769050 109.0135055  36.1118252  53.0661504 108.4005217
  35.8458705  53.2611580 109.8780588  28.9386234  54.6284167 111.7732831
  28.2696609  55.1130294 111.2896871  28.7999103  54.8753387 112.6876209
  33.0791502  56.6627910 118.3715489  33.6309810  56.8259532 119.1364574
  33.4197696  57.2532348 117.6995514  24.3073811  42.8902622 108.5528763
  24.6027252  41.9813300 108.4995816  23.4061846  42.8690361 108.2309765
  36.2159889  54.6109886 115.3579171  36.0911029  53.8099625 114.8490117
  36.8738981  55.1056079 114.8693141  38.2794798  52.4118906 116.9858721
  37.3325133  52.2924257 116.9137048  38.6277571  51.5241404 117.0684983
  35.2841231  52.2071622 113.1863073  35.1366194  51.2788329 113.3670643
  36.1094725  52.2291713 112.7020149  29.1503475  40.8589689 109.0443566
  29.4899548  41.3875610 108.3222174  29.5975596  41.1970095 109.8202132
  38.8875353  53.0300181 114.2727946  39.8121900  52.8243042 114.1352397
  38.7190656  52.7816582 115.1817288  31.1371623  39.3564311 107.2436858
  31.8579985  39.7345563 106.7400575  30.5136927  40.0753187 107.3471836
  35.2802745  40.0609460 108.1795191  35.4966360  40.9434097 107.8784019
  34.7996813  39.6695673 107.4500833  38.6770669  53.5485848 109.6290038
  38.8507547  52.9832271 108.8763890  39.1699560  54.3486743 109.4469528
  44.5310060  46.3122271 111.2480337  44.9741206  45.5629596 110.8499461
  43.6536571  46.3032407 110.8654069  39.6645842  52.8652612 106.7286936
  40.3596746  53.4859305 106.9474251  40.0068992  52.0147964 107.0039314
  41.5637265  50.3152318 108.2574267  42.0888589  50.6539591 107.5323587
  41.4759617  49.3799333 108.0737401  33.2477926  56.3824301 112.6169520
  32.8082916  55.8900680 113.3102377  33.9986042  55.8397269 112.3761595
  25.7270264  52.5735842 112.6194148  26.5528284  52.2739614 112.2392791
  25.3764316  51.8043465 113.0683937  30.6951798  51.9262310 114.6891822
  30.0731807  51.2633015 114.3894049  31.3656665  51.9523442 114.0065469
  30.2565305  50.4766234 108.1650282  30.4053425  51.1601698 107.5116955
  31.0631748  50.4571324 108.6799738  44.0742925  47.7827509 113.6402785
  44.9089816  48.2217313 113.8040345  44.2102054  47.3066163 112.8211031
  28.0117938  46.5031411 109.1711351  27.7663979  45.5993741 109.3691561
  28.1813852  46.5048562 108.2290829  27.2813585  42.2359769 106.6697512
  26.5882830  42.3104124 106.0137548  27.0365337  41.4720113 107.1919029
  33.7560710  52.9714364 105.6362030  33.1834677  53.5904551 105.1832501
  34.3293504  53.5213726 106.1701951  36.9757970  53.2551514 106.7670612
  37.9088643  53.1897076 106.9703487  36.8881183  54.0907781 106.3085144
  42.3024178  45.4379124 116.9350878  42.2700498  44.4995125 117.1210562
  42.9124801  45.5163161 116.2016703  34.1407509  44.3075177 102.9778082
  35.0866613  44.1781385 103.0466500  33.7621754  43.5689839 103.4547510
  48.1200728  46.4995131 116.0756915  48.8504116  46.2380419 116.6364618
  47.5107673  45.7623853 116.1158983  46.2016025  44.6402993 116.6731366
  45.4749188  44.5058958 116.0647858  45.7863312  44.9479822 117.4788084
  32.3250426  42.2325153 102.9132967  31.4181881  41.9358266 102.9895681
  32.6026407  41.9354971 102.0467253  33.9412491  36.7762043 109.0677209
  33.1313220  36.4309128 109.4432455  34.6296908  36.4669587 109.6564820
  31.0949210  39.0912089 103.0544946  31.9568374  39.4166987 103.3140764
  31.2799555  38.3043584 102.5418012  39.2481847  37.9640615 110.1980169
  38.6680516  38.6225419 109.8158222  38.9817780  37.1417960 109.7867587
  38.0306725  40.1240705 109.2536518  37.1432580  40.4090356 109.0356712
  38.4460714  39.9634469 108.4063795  41.3821261  40.1487226 112.9690857
  42.1581651  40.6383679 113.2415474  40.6569395  40.5745281 113.4262726
  43.8193820  40.8614846 114.0264798  44.4138310  40.6210582 113.3158106
  43.8920403  40.1421976 114.6538334  26.0390975  54.7048457 114.3407962
  25.9045443  53.9448857 113.7745960  25.6223038  55.4289356 113.8736751
  37.1749938  49.8885380 103.3484538  37.8785788  50.0935383 103.9642193
  36.4512587  50.4562142 103.6133621  38.0047749  45.6395241 109.4686808
  37.9482950  46.0963793 108.6294440  38.5576091  44.8785926 109.2909651
  41.8152555  41.4284973 110.2936927  41.5589489  41.0281609 111.1245135
  41.1905423  42.1428767 110.1687067  46.1264892  44.1681046 112.8008219
  45.5664450  44.2374236 113.5739781  45.5208396  43.9922031 112.0807715
  29.1960101  55.6017774 114.5526405  29.0792485  56.5463206 114.4505095
  28.3752547  55.2991335 114.9412204  39.0836636  50.3267909 105.3982998
  39.9182240  49.8949108 105.2160473  38.9220979  50.1549923 106.3259892
  38.7382528  46.8300023 106.7639337  38.6831332  46.6644294 105.8227781
  38.1128583  47.5376055 106.9201527  32.0478653  36.3308132 106.3424655
  32.0357323  37.2749971 106.4992926  32.9402075  36.1478277 106.0484117
  30.2214615  56.2546035 117.7682333  31.1241862  56.2869646 118.0848828
  29.9951985  55.3246486 117.7828669  31.9768217  55.0077022 114.4292412
  31.0263848  55.0078884 114.3156784  32.2800703  54.2609757 113.9128447
  47.7120911  60.8437560 115.4938174  48.3499321  60.7244308 114.7901515
  47.5941754  61.7918404 115.5526127  44.5210617  60.7964988 115.4299699
  44.1829129  60.6806053 114.5420234  45.3900385  60.3956154 115.4100705
  45.0030400  61.9499840 121.3885905  44.9919041  61.5552638 120.5166408
  45.1651040  61.2165913 121.9819676  37.9261865  64.1451656 114.2580811
  38.7183157  63.8042481 113.8427110  38.1658515  64.2546632 115.1782964
  41.7237661  64.7336952 120.3365089  41.4327527  65.6382583 120.2211755
  42.3594646  64.7753480 121.0509158  42.6493868  62.1113801 116.9266448
  43.2457440  61.8869823 116.2123411  42.7068840  61.3698546 117.5291896
  47.2662179  58.5689014 112.5691383  48.0525269  58.1508437 112.2181800
  47.5300884  59.4735106 112.7373031  52.6670606  58.5064247 113.4724361
  53.3995778  57.9363464 113.7062191  51.9109962  58.1185848 113.9130867
  44.2846726  60.9291489 110.6687703  43.9204933  60.4022110 111.3800625
  45.1413842  60.5389958 110.4954189  50.1896027  52.2185822 117.9318970
  49.8579352  53.0881232 117.7080185  49.5941640  51.9022106 118.6113000
  46.6827546  64.4198368 117.3314882  46.3828269  65.3223406 117.2230690
  46.3378606  64.1530551 118.1836035  40.1340028  60.8712164 113.3651587
  39.2090524  60.7388378 113.5729279  40.3824441  61.6506384 113.8621529
  50.0824690  56.9380908 115.0112320  49.1741567  56.8696316 114.7171081
  50.0312286  57.4152853 115.8394145  37.4948839  60.5145438 114.1995376
  37.6241220  60.7679917 115.1134788  36.8146290  61.1073146 113.8800031
  44.1565556  58.3570553 122.9547217  43.3798890  58.9164473 122.9450082
  44.7956119  58.8427336 123.4762087  51.9486337  55.1397346 116.7890194
  51.3060717  55.4329879 116.1429988  51.4441265  55.0250266 117.5943390
  49.6026500  58.8860519 107.4776053  50.5144356  59.1187906 107.3023750
  49.0936147  59.4697563 106.9151131  42.4111928  61.1656007 122.5165184
  43.1526613  61.7041051 122.2400008  41.7048914  61.7922295 122.6736736
  47.8867268  63.3085147 121.1137345  48.2950624  62.8667558 120.3691978
  47.1644529  62.7337775 121.3671538  44.2398338  58.2457754 118.4870902
  45.0859533  58.6697167 118.6305551  44.1796976  57.5891378 119.1809466
  52.0885314  64.8040776 112.2233998  51.4036353  65.1839677 111.6731031
  52.1729164  65.4136102 112.9565946  47.3897783  55.9062122 120.1452076
  47.1458715  56.6604183 119.6086352  47.6657714  56.2847470 120.9799323
  49.3436246  62.4500735 118.8229342  49.5553141  63.0932494 118.1463723
  49.2965994  61.6163051 118.3551272  46.9462475  55.0618555 115.7265914
  46.0846954  55.3599809 116.0182651  46.9724910  55.2788954 114.7946946
  40.6548125  63.1532227 115.0719483  41.2249482  63.5819496 114.4336967
  41.2456237  62.8714812 115.7703668  42.6992930  59.7283898 108.9429285
  43.4016974  60.1804942 109.4103211  42.3673559  59.0867717 109.5709178
  41.1473292  58.3195655 123.3180494  40.5171953  59.0011936 123.5515891
  41.0409380  58.2078736 122.3733632  36.4418264  57.9867451 114.2446418
  35.6517318  58.2424979 113.7686529  36.9329512  58.8015789 114.3498459
  50.4582074  65.3272690 116.9951699  51.2799518  64.9252877 116.7134381
  50.4544477  65.2240924 117.9467815  38.3933010  58.3512030 111.2029895
  37.5964173  58.4630724 111.7213391  38.1658602  58.6898682 110.3370785
  44.2238677  64.8756733 119.1512409  44.2883110  65.3377141 119.9870581
  43.5149601  64.2454098 119.2794719  34.7255967  58.2397941 116.6761409
  34.9764006  59.1244951 116.9418985  35.2615516  58.0602543 115.9036501
  58.5488067  61.6711439 113.3436670  57.7951775  61.1018837 113.1880675
  58.6835608  61.6374103 114.2907305  37.3916092  64.0600279 109.5919315
  37.9040613  64.8543529 109.7424880  38.0438805  63.3626569 109.5252916
  43.3421996  54.0374300 123.2726002  44.0831709  54.6381453 123.1930464
  43.5739918  53.2951938 122.7144044  38.4863334  59.2230667 121.5504231
  38.3716849  58.3215924 121.8511330  37.6307851  59.4694364 121.1989048
  45.5655171  67.1648407 123.1491732  45.1219026  66.3784786 122.8312636
  46.2272385  67.3527558 122.4835623  40.3242293  68.6944209 117.6752410
  40.8749718  68.5661272 116.9029404  39.4853768  68.9939098 117.3247303
  47.6636409  67.4451207 121.1773133  47.6454885  68.2660088 120.6853402
  48.5856330  67.3205282 121.4023274  44.1209464  64.9595337 122.0196642
  44.6537800  64.1983625 121.7895949  43.5923545  64.6668989 122.7620796
  47.2879159  50.0655403 117.5490283  46.9443428  50.9557044 117.4729394
  47.6558121  49.8757060 116.6859868  35.3565009  62.3888933 110.3678885
  36.1940231  62.7985942 110.1512593  35.5343277  61.4488375 110.3379079
  44.8376552  54.9013715 111.1147957  43.9818149  54.5120565 110.9353595
  45.2503504  54.9805675 110.2547742  46.3675699  52.4360058 115.5139517
  45.8640495  52.3990193 114.7007322  46.6606306  53.3452801 115.5736173
  42.6118585  52.5198788 114.5205698  43.4771582  52.3241596 114.1611588
  42.6796094  52.2909139 115.4475055  52.2263715  62.8096368 107.9915892
  51.4493158  62.4707528 107.5471054  52.9055196  62.8148992 107.3170857
  47.0415744  57.9291106 107.8822500  46.7365880  58.2437255 108.7332643
  47.9946187  58.0072526 107.9249833  50.4655022  62.2830350 114.6482500
  49.8078697  62.9729611 114.7362628  51.2695422  62.6726782 114.9916486
  40.2180904  54.7500995 111.8922065  40.7924656  54.5276177 111.1595258
  40.8051886  54.8189690 112.6450666  49.2760481  60.6374722 112.6986442
  49.7892363  61.2704714 113.2008151  49.9261705  60.0375918 112.3329802
  42.5203572  51.6242244 110.6197134  41.8667984  51.3091262 109.9953749
  42.4784046  51.0017985 111.3456957  45.7541312  58.1124178 114.9444782
  44.8363873  58.3339125 114.7866470  46.1701456  58.1870488 114.0856489
  46.5376360  59.5115594 110.0747462  47.2848179  60.0236991 109.7654584
  46.8067949  59.1899646 110.9351856  48.9855197  56.5472710 112.0566252
  48.2477954  56.0350096 112.3876494  49.2381970  56.1073091 111.2449529
  49.0866824  49.3248962 112.6508021  49.3925701  48.4646325 112.3633936
  49.8119429  49.9166582 112.4507015  35.3791180  59.7279648 111.0389619
  35.1815580  59.1349009 110.3140685  34.8237844  59.4231859 111.7565558
  43.3587904  59.6202755 113.1584212  43.4136514  58.6676591 113.0826689
  42.5479106  59.7762194 113.6425510  41.2980264  58.2379815 110.9174591
  40.4848129  58.5373985 111.3239783  41.7939258  57.8435503 111.6349073
  46.8954476  58.7021639 119.7489485  47.2503863  58.9293112 120.6083951
  47.5426607  59.0340016 119.1266740  52.6252213  61.8240075 110.4538814
  52.4870111  62.0141671 109.5260003  52.2688431  62.5859458 110.9106865
  40.7894339  55.8098170 116.5335826  41.4293718  55.6686929 115.8358789
  39.9571869  55.5232684 116.1574428  52.6521592  63.8916602 115.4650085
  53.0858099  63.7991891 116.3133139  53.3653173  63.8674103 114.8270101
  46.3849487  67.4918696 116.9983186  46.4386509  68.0609632 117.7660902
  45.5164268  67.6620581 116.6337223  37.8737406  59.2543682 108.7230571
  36.9434994  59.1928138 108.9400533  37.9694878  58.7319635 107.9267212
  37.7922955  55.7798495 111.3108813  38.0529772  56.6943828 111.2017973
  38.6140127  55.3122938 111.4605425  39.2647880  57.1936252 118.4807637
  39.9370934  56.9853615 117.8320286  38.4377667  56.9958338 118.0412869
  53.5137142  63.9340303 117.9982971  53.7073032  64.8386113 118.2442246
  53.4137760  63.4747722 118.8321556  45.1673452  53.8198193 120.4973298
  44.5201367  54.5188143 120.4037774  45.9374468  54.2534337 120.8649546
  48.5752250  64.0847045 123.5723851  48.4237757  63.8557597 122.6553935
  48.5656930  65.0417647 123.5855196  45.3437587  61.6578958 118.5570118
  46.2729647  61.8090118 118.3839085  44.9228617  61.7462979 117.7018764
  39.6675378  60.4678855 119.2410074  39.5295176  59.7359094 119.8421613
  40.5780301  60.3787755 118.9594262  42.2957678  60.1798815 118.7293754
  43.0057297  59.5392007 118.6880372  42.2526987  60.4311710 119.6519935
  50.2844457  67.1166168 121.6500333  50.2257003  66.4325388 120.9830916
  50.6863975  67.8585158 121.1980959  41.0086612  57.1664033 120.5489393
  40.4723969  56.7154771 121.2010990  40.4203321  57.3009941 119.8059858
  39.3035156  73.9328082 114.4434052  39.5431754  74.5646606 115.1213071
  38.4604352  73.5816122 114.7299411  50.2861864  65.0805752 119.8814313
  49.3988643  64.7431674 120.0040712  50.8560415  64.3488783 120.1183078
  31.9391011  61.4129844 113.2057364  32.6262051  61.0991574 112.6178380
  31.7839140  62.3171208 112.9324616  36.7425734  56.3020040 117.6342388
  36.6583922  55.6945710 116.8992798  35.9208440  56.7929059 117.6351884
  43.8163018  69.7407204 116.8475556  43.7433189  70.5462176 117.3594861
  43.3740411  69.9399170 116.0223577  46.9149447  54.7873604 113.0012583
  47.4118147  54.0343566 112.6813653  46.1436429  54.8237920 112.4355792
  54.7679205  60.4913969 114.6430874  54.7569081  61.3738685 114.2724808
  53.8996584  60.1385520 114.4485412  46.2761701  69.6394038 119.0033715
  46.9889673  70.2741503 118.9309616  45.7851730  69.7357904 118.1873717
  43.4984416  56.9290987 112.7284268  43.1282204  56.3762027 113.4165173
  43.9943509  56.3249120 112.1759268  51.3851779  59.3862610 111.1101041
  51.8512232  60.2190602 111.0361343  51.8359280  58.9207592 111.8146299
  41.3273615  67.3888482 119.8239286  42.0283074  68.0224965 119.9768680
  40.8568730  67.7303213 119.0634925  49.3568442  51.7543197 115.1491942
  48.4431522  51.9847424 115.3174149  49.7861544  51.8381641 116.0005974
  49.1274901  59.9433089 117.6491836  48.4746351  60.1908997 116.9944289
  49.5055281  59.1297227 117.3154313  45.1762474  60.6852900 124.1357873
  44.5003111  60.5847030 124.8060248  45.9990108  60.5292114 124.5993870
  36.9241333  66.9224837 116.7570388  37.5094770  66.1768525 116.8898292
  36.7266171  67.2328794 117.6407052  31.5158988  59.4930437 115.4774831
  31.5543087  58.9594028 116.2711949  31.0099280  58.9665643 114.8585809
  43.9185257  71.9919828 118.3715489  44.4703565  72.1551449 119.1364574
  44.2591450  72.5824266 117.6995514  38.8949750  54.3394978 118.9737374
  38.9591076  55.2009808 118.5614771  38.8316870  53.7268979 118.2409732
  48.7696131  66.8181085 124.2264143  49.3136035  67.4311044 123.7319098
  48.1882976  67.3760664 124.7431156  35.1467565  58.2194539 108.5528763
  35.4421006  57.3105218 108.4995816  34.2455601  58.1982279 108.2309765
  47.0553644  69.9401803 115.3579171  46.9304783  69.1391543 114.8490117
  47.7132735  70.4347997 114.8693141  38.6761812  56.2950536 114.5356311
  37.9548398  56.9086503 114.3963785  39.4655068  56.8308301 114.4572957
  49.1188552  67.7410823 116.9858721  48.1718888  67.6216175 116.9137048
  49.4671325  66.8533321 117.0684983  41.4788126  53.6304962 120.8096963
  42.0022527  53.8767259 121.5723272  41.2600459  54.4624997 120.3900100
  36.8755407  55.9008637 108.6768088  36.5468113  55.0206016 108.4943194
  37.2294777  55.8456306 109.5644477  39.9897230  56.1881607 109.0443566
  40.3293302  56.7167528 108.3222174  40.4369350  56.5262013 109.8202132
  49.7269107  68.3592098 114.2727946  50.6515655  68.1534960 114.1352397
  49.5584411  68.1108499 115.1817288  42.6840671  54.5718657 118.4946634
  42.3437491  53.7726470 118.8967314  41.9779677  54.8720368 117.9223467
  43.3357143  51.6567970 116.9473957  44.1583212  51.1828448 116.8252847
  43.5795206  52.4358454 117.4472643  41.9765377  54.6856228 107.2436858
  42.6973740  55.0637481 106.7400575  41.3530681  55.4045105 107.3471836
  46.1196500  55.3901377 108.1795191  46.3360114  56.2726015 107.8784019
  45.6390567  54.9987591 107.4500833  40.8595721  58.3487090 114.7565935
  40.7140302  58.6627394 115.6490217  40.3820925  58.9671991 114.2036834
  42.7192104  55.3389638 114.8046825  42.7053673  54.4430732 114.4679123
  43.4364532  55.3460302 115.4385111  44.5718235  55.7726979 116.8499952
  44.3136013  56.6944049 116.8484283  44.0403275  55.3757413 117.5400416
  35.3341383  60.8892435 117.6953596  34.7894852  61.6652243 117.8273871
  36.2120733  61.2363239 117.5372718  42.1229000  54.2204019 110.0734395
  42.2444911  53.2920665 110.2725282  41.8331042  54.2342705 109.1612710
  44.9920190  51.9058929 113.2101115  45.0141887  51.9698262 112.2553094
  45.4088249  51.0663438 113.4041621  55.3703815  61.6414189 111.2480337
  55.8134961  60.8921514 110.8499461  54.4930325  61.6324325 110.8654069
  36.1207405  60.0162331 120.5883753  35.3789141  60.1644966 121.1748384
  35.8000150  60.2770597 119.7250503  52.4031019  65.6444236 108.2574267
  52.9282343  65.9831508 107.5323587  52.3153372  64.7091251 108.0737401
  44.0651068  69.5578309 120.3864143  44.3738194  69.3127456 121.2586843
  44.8626550  69.7624948 119.8983014  34.7672624  65.8214086 113.5783082
  33.9304532  65.3936261 113.3967083  34.7396269  66.0146530 114.5153873
  52.0924925  66.2777139 123.5625465  51.3020469  66.2601278 123.0229964
  51.8558280  66.8165433 124.3174501  52.2122800  63.1269606 120.8758193
  52.2620805  62.9619613 121.8173716  52.1036724  62.2596865 120.4856074
  49.5026563  59.1100534 122.1917500  50.4036426  58.9706999 121.9001498
  49.5774537  59.2754989 123.1315677  43.8369368  56.4867388 121.0370686
  42.9672677  56.7800955 120.7653275  44.0728848  57.0707833 121.7577950
  53.7140997  65.5466547 121.1200215  53.4225805  65.9096528 121.9563676
  53.1013128  64.8333556 120.9413547  54.9136680  63.1119427 113.6402785
  55.7483571  63.5509231 113.8040345  55.0495808  62.6358080 112.8211031
  51.9628185  60.6699162 119.5880273  52.4382307  60.8626808 118.7799124
  51.0393751  60.7258348 119.3423656  46.5408402  52.7047005 118.5536107
  47.0590346  53.4408032 118.2282595  46.1863535  53.0110999 119.3882866
  38.1207340  57.5651687 106.6697512  37.4276585  57.6396042 106.0137548
  37.8759091  56.8012030 107.1919029  46.7920996  49.1247288 114.0737003
  47.0722750  48.4570477 114.6997430  47.5771603  49.3176384 113.5611667
  50.6629854  57.5464922 117.8208578  51.6147277  57.6463020 117.8420802
  50.4933305  56.7543190 118.3306663  48.6844234  54.6320505 118.0067979
  48.0894166  54.9125518 117.3114468  48.3993931  55.1214406 118.7784720
  50.4439741  67.9009302 103.7274559  50.3653373  67.5669166 104.6210317
  51.2649408  68.3931070 103.7266032  53.1417932  60.7671042 116.9350878
  53.1094252  59.8287042 117.1210562  53.7518556  60.8455078 116.2016703
  53.2912421  57.5582085 116.9809161  52.7751469  56.7740542 116.7939090
  54.1752369  57.2300802 117.1455681  50.9523148  51.3023101 112.9404974
  50.7547969  50.9938189 113.8248306  51.5622853  52.0284740 113.0702904
  58.9594482  61.8287048 116.0756915  59.6897871  61.5672337 116.6364618
  58.3501428  61.0915770 116.1158983  57.0409779  59.9694911 116.6731366
  56.3142943  59.8350876 116.0647858  56.6257066  60.2771740 117.4788084
  44.8639956  63.6884841 124.4378739  45.7842965  63.8663440 124.6318786
  44.8289539  62.7440886 124.2858438  34.0822121  58.8823434 113.3632014
  33.7624905  58.0288743 113.0706388  33.5355549  59.0972013 114.1189981
  37.8602028  61.5985875 117.0801520  38.0788038  62.5302983 117.0989554
  38.2727802  61.2393850 117.8656324  44.7806246  52.1053961 109.0677209
  43.9706974  51.7601046 109.4432455  45.4690663  51.7961504 109.6564820
  46.7096794  51.1832008 110.6901505  47.2627833  51.6027461 111.3491528
  46.9466881  50.2567756 110.7324461  33.9510381  62.5026346 115.3325135
  33.2573852  62.0880299 114.8195090  34.6983372  62.5446882 114.7358554
  50.0875601  53.2932533 110.1980169  49.5074270  53.9517337 109.8158222
  49.8211534  52.4709877 109.7867587  48.5379168  52.6937590 112.4001490
  49.0378946  52.8054125 111.5915809  49.1814776  52.3898643 113.0402298
  42.5961164  60.6016220 125.2869331  42.1128245  61.4016580 125.4933220
  42.6822103  60.6124165 124.3336775  35.8647123  62.4344600 113.2091150
  35.8417811  62.5332287 112.2573033  36.1747760  63.2809750 113.5308316
  38.5234501  64.4920755 117.3237765  39.4777755  64.4604697 117.2567696
  38.3247025  64.0311378 118.1387990  39.1133883  63.0621871 119.8908562
  39.9326772  63.5565949 119.9143399  39.3870691  62.1453839 119.8626130
  48.8700479  55.4532623 109.2536518  47.9826334  55.7382274 109.0356712
  49.2854468  55.2926386 108.4063795  52.2215015  55.4779144 112.9690857
  52.9975406  55.9675596 113.2415474  51.4963150  55.9037198 113.4262726
  54.6587574  56.1906763 114.0264798  55.2532065  55.9502499 113.3158106
  54.7314158  55.4713894 114.6538334  36.8784730  70.0340374 114.3407962
  36.7439198  69.2740775 113.7745960  36.4616792  70.7581274 113.8736751
  48.8441503  60.9687159 109.4686808  48.7876704  61.4255710 108.6294440
  49.3969846  60.2077844 109.2909651  52.6546309  56.7576891 110.2936927
  52.3983243  56.3573527 111.1245135  52.0299177  57.4720685 110.1687067
  56.9658647  59.4972964 112.8008219  56.4058205  59.5666153 113.5739781
  56.3602150  59.3213949 112.0807715  49.9230390  65.6559827 105.3982998
  50.7575994  65.2241025 105.2160473  49.7614733  65.4841841 106.3259892
  34.3668797  57.3960005 120.5900759  35.0127661  56.8858959 121.0787984
  34.1585949  58.1328686 121.1644185  46.8922190  64.4640852 126.0892900
  47.7613349  64.6381504 125.7279535  46.4128941  65.2835269 125.9668629
  42.8872408  51.6600049 106.3424655  42.8751078  52.6041889 106.4992926
  43.7795830  51.4770195 106.0484117  41.0608370  71.5837953 117.7682333
  41.9635617  71.6161563 118.0848828  40.8345740  70.6538404 117.7828669
  46.7024527  48.2542826 110.5970592  45.9356923  47.7001313 110.7427275
  47.1135232  48.3264695 111.4584744  58.5514665  76.1729478 115.4938174
  59.1893075  76.0536225 114.7901515  58.4335508  77.1210322 115.5526127
  55.3604372  76.1256906 115.4299699  55.0222883  76.0097971 114.5420234
  56.2294140  75.7248071 115.4100705  51.2191187  77.9792383 111.4196590
  50.6556052  77.8882319 110.6512878  51.1043582  77.1592287 111.8999083
  55.8424155  77.2791758 121.3885905  55.8312795  76.8844556 120.5166408
  56.0044794  76.5457830 121.9819676  48.7655619  79.4743574 114.2580811
  49.5576911  79.1334399 113.8427110  49.0052269  79.5838549 115.1782964
  56.7990746  81.6463350 106.7311055  56.1478726  82.2317431 106.3445069
  57.5935109  82.1769545 106.7906093  50.7246373  78.7352487 107.1298189
  51.4977249  78.1881474 106.9911065  51.0771772  79.5996737 107.3412651
  52.5631416  80.0628870 120.3365089  52.2721282  80.9674501 120.2211755
  53.1988400  80.1045397 121.0509158  53.4887623  77.4405718 116.9266448
  54.0851195  77.2161741 116.2123411  53.5462594  76.6990464 117.5291896
  53.0612651  74.8945154 104.7616639  53.3138172  74.3726675 104.0000102
  52.1237210  74.7311299 104.8643323  58.1055934  73.8980932 112.5691383
  58.8919023  73.4800355 112.2181800  58.3694638  74.8027024 112.7373031
  58.2766011  79.3353782 107.2680039  57.6411844  79.4088409 107.9800944
  57.9463418  79.9247381 106.5899119  63.5064361  73.8356165 113.4724361
  64.2389533  73.2655382 113.7062191  62.7503717  73.4477766 113.9130867
  52.7808940  76.7973259 106.9641014  52.6645198  76.1218163 107.6322099
  52.8911200  76.3105633 106.1473167  55.1240481  76.2583407 110.6687703
  54.7598688  75.7314028 111.3800625  55.9807597  75.8681876 110.4954189
  61.0289781  67.5477739 117.9318970  60.6973106  68.4173150 117.7080185
  60.4335395  67.2314023 118.6113000  54.7645968  71.2873306 105.6649052
  54.9320370  72.1553543 106.0319523  54.5743137  71.4500588 104.7410341
  57.5221301  79.7490285 117.3314882  57.2222024  80.6515324 117.2230690
  57.1772360  79.4822468 118.1836035  50.9733782  76.2004082 113.3651587
  50.0484279  76.0680296 113.5729279  51.2218195  76.9798301 113.8621529
  60.9218445  72.2672825 115.0112320  60.0135322  72.1988234 114.7171081
  60.8706040  72.7444770 115.8394145  54.7435189  73.7430964 106.6495719
  54.6234814  74.1888015 107.4881199  54.0487777  74.0916281 106.0909257
  48.3342593  75.8437356 114.1995376  48.4634974  76.0971835 115.1134788
  47.6540045  76.4365064 113.8800031  52.5042081  86.5134606 110.2985850
  52.4266110  87.4642431 110.3774331  51.9003724  86.1680478 110.9560776
  54.9959310  73.6862471 122.9547217  54.2192644  74.2456391 122.9450082
  55.6349873  74.1719254 123.4762087  62.7880091  70.4689264 116.7890194
  62.1454471  70.7621797 116.1429988  62.2835020  70.3542184 117.5943390
  60.4420255  74.2152437 107.4776053  61.3538111  74.4479824 107.3023750
  59.9329902  74.7989481 106.9151131  53.2505683  76.4947924 122.5165184
  53.9920367  77.0332968 122.2400008  52.5442668  77.1214213 122.6736736
  58.7261022  78.6377065 121.1137345  59.1344378  78.1959475 120.3691978
  58.0038284  78.0629692 121.3671538  55.0792092  73.5749672 118.4870902
  55.9253288  73.9989085 118.6305551  55.0190730  72.9183296 119.1809466
  59.0489837  79.1978255 114.8689634  58.4198699  79.3623970 114.1665702
  58.6615499  79.6119865 115.6400598  62.9279069  80.1332693 112.2233998
  62.2430107  80.5131595 111.6731031  63.0122918  80.7428020 112.9565946
  58.2291538  71.2354040 120.1452076  57.9852470  71.9896100 119.6086352
  58.5051468  71.6139388 120.9799323  60.1830000  77.7792652 118.8229342
  60.3946896  78.4224412 118.1463723  60.1359749  76.9454969 118.3551272
  57.7856229  70.3910473 115.7265914  56.9240708  70.6891726 116.0182651
  57.8118664  70.6080872 114.7946946  54.6017799  78.9352663 112.1339719
  55.0656144  79.2140366 111.3444342  54.3374597  78.0336108 111.9512810
  51.4941880  78.4824145 115.0719483  52.0643237  78.9111413 114.4336967
  52.0849992  78.2006730 115.7703668  53.5386685  75.0575816 108.9429285
  54.2410728  75.5096860 109.4103211  53.2067313  74.4159635 109.5709178
  51.9867046  73.6487572 123.3180494  51.3565707  74.3303853 123.5515891
  51.8803134  73.5370654 122.3733632  61.2975828  80.6564608 116.9951699
  62.1193272  80.2544795 116.7134381  61.2938231  80.5532842 117.9467815
  55.0632432  80.2048651 119.1512409  55.1276864  80.6669058 119.9870581
  54.3543356  79.5746016 119.2794719  45.5649722  73.5689859 116.6761409
  45.8157760  74.4536869 116.9418985  46.1009270  73.3894461 115.9036501
  69.3881821  77.0003356 113.3436670  68.6345530  76.4310754 113.1880675
  69.5229363  76.9666021 114.2907305  54.7780450  81.8716758 109.0191390
  54.6426124  82.7168294 109.4476238  55.3190262  82.0736036 108.2557324
  51.2647789  67.9508338 125.6805745  50.8714735  67.3974537 126.3553389
  52.0813929  68.2618917 126.0712263  48.2309847  79.3892197 109.5919315
  48.7434367  80.1835447 109.7424880  48.8832560  78.6918487 109.5252916
  50.0404732  82.5057953 111.6742068  50.2171360  83.4275918 111.4863052
  50.8361565  82.1916372 112.1036448  54.1815750  69.3666217 123.2726002
  54.9225464  69.9673371 123.1930464  54.4133673  68.6243855 122.7144044
  49.3257088  74.5522585 121.5504231  49.2110603  73.6507842 121.8511330
  48.4701606  74.7986281 121.1989048  56.4048926  82.4940325 123.1491732
  55.9612780  81.7076704 122.8312636  57.0666139  82.6819476 122.4835623
  51.1636047  84.0236127 117.6752410  51.7143472  83.8953190 116.9029404
  50.3247523  84.3231016 117.3247303  58.5030164  82.7743125 121.1773133
  58.4848639  83.5952006 120.6853402  59.4250084  82.6497200 121.4023274
  54.9603218  80.2887254 122.0196642  55.4931555  79.5275543 121.7895949
  54.4317299  79.9960906 122.7620796  58.1272913  65.3947320 117.5490283
  57.7837182  66.2848962 117.4729394  58.4951876  65.2048978 116.6859868
  58.0923196  75.3855931 106.0562718  57.5769819  76.1560536 106.2951106
  57.8200504  74.7121068 106.6795780  55.6770307  70.2305632 111.1147957
  54.8211903  69.8412483 110.9353595  56.0897259  70.3097593 110.2547742
  57.2069453  67.7651976 115.5139517  56.7034249  67.7282111 114.7007322
  57.5000060  68.6744718 115.5736173  53.4512339  67.8490705 114.5205698
  54.3165336  67.6533514 114.1611588  53.5189848  67.6201057 115.4475055
  63.0657470  78.1388286 107.9915892  62.2886913  77.7999446 107.5471054
  63.7448951  78.1440909 107.3170857  57.8809499  73.2583024 107.8822500
  57.5759635  73.5729173 108.7332643  58.8339941  73.3364443 107.9249833
  56.3255931  79.4173247 109.5315454  55.7977292  78.6826006 109.2188691
  55.8243434  80.1947923 109.2855422  61.3048777  77.6122267 114.6482500
  60.6472451  78.3021529 114.7362628  62.1089176  78.0018699 114.9916486
  51.0574658  70.0792913 111.8922065  51.6318410  69.8568095 111.1595258
  51.6445641  70.1481608 112.6450666  60.1154236  75.9666640 112.6986442
  60.6286117  76.5996632 113.2008151  60.7655460  75.3667836 112.3329802
  51.3844246  72.1097374 105.9117950  50.5481558  72.4472061 106.2327225
  51.2449015  71.9746354 104.9745087  53.3597326  66.9534162 110.6197134
  52.7061738  66.6383179 109.9953749  53.3177800  66.3309903 111.3456957
  54.4708531  77.2353457 102.5350427  53.5635593  77.0042711 102.7341576
  54.9679563  76.4391076 102.7224408  57.3776610  85.9450964 105.4547113
  56.7038309  86.2482661 106.0632071  57.7642432  86.7480045 105.1052570
  56.5935067  73.4416096 114.9444782  55.6757628  73.6631043 114.7866470
  57.0095210  73.5162406 114.0856489  57.3770114  74.8407511 110.0747462
  58.1241933  75.3528909 109.7654584  57.6461704  74.5191564 110.9351856
  55.6496764  77.3366052 107.0574417  54.7407984  77.0525085 107.1546886
  55.6791848  77.7565131 106.1977724  60.8816032  80.9472642 110.8265584
  60.4278359  80.1063551 110.8830775  60.2509999  81.5834040 111.1640364
  59.8248951  71.8764628 112.0566252  59.0871708  71.3642014 112.3876494
  60.0775725  71.4365009 111.2449529  59.3248971  82.7849138 111.7615402
  59.6171945  83.3454195 111.0427768  59.8347592  83.0777699 112.5168561
  59.9260579  64.6540880 112.6508021  60.2319456  63.7938243 112.3633936
  60.6513184  65.2458500 112.4507015  54.1981658  74.9494673 113.1584212
  54.2530268  73.9968509 113.0826689  53.3872861  75.1054112 113.6425510
  55.3472852  78.8774796 104.3962495  54.9092282  78.1610655 103.9368133
  56.0883293  79.1050911 103.8347587  52.1374018  73.5671732 110.9174591
  51.3241884  73.8665903 111.3239783  52.6333013  73.1727421 111.6349073
  54.2882596  83.5629489 112.8508856  54.2458775  83.7890336 111.9217388
  55.2045295  83.3292864 112.9994657  57.7348230  74.0313557 119.7489485
  58.0897618  74.2585030 120.6083951  58.3820361  74.3631934 119.1266740
  63.4645967  77.1531993 110.4538814  63.3263866  77.3433589 109.5260003
  63.1082186  77.9151376 110.9106865  51.6288093  71.1390088 116.5335826
  52.2687472  70.9978847 115.8358789  50.7965624  70.8524601 116.1574428
  63.4915347  79.2208520 115.4650085  63.9251853  79.1283809 116.3133139
  64.2046927  79.1966020 114.8270101  52.4048397  80.4392518 112.6470818
  53.1988996  79.9442838 112.4453393  51.6940089  79.9110381 112.2838524
  57.2243242  82.8210614 116.9983186  57.2780264  83.3901550 117.7660902
  56.3558023  82.9912499 116.6337223  50.1041635  72.5228170 118.4807637
  50.7764688  72.3145532 117.8320286  49.2771421  72.3250256 118.0412869
  64.3530896  79.2632220 117.9982971  64.5466786  80.1678031 118.2442246
  64.2531514  78.8039639 118.8321556  56.0067207  69.1490111 120.4973298
  55.3595122  69.8480061 120.4037774  56.7768222  69.5826255 120.8649546
  59.4146005  79.4138963 123.5723851  59.2631511  79.1849515 122.6553935
  59.4050684  80.3709565 123.5855196  56.1831341  76.9870876 118.5570118
  57.1123401  77.1382035 118.3839085  55.7622371  77.0754897 117.7018764
  54.9819673  81.0121540 116.3268655  54.8430759  80.6440325 117.1994593
  54.1934269  81.5269180 116.1552613  55.5767825  86.1130637 107.6694192
  55.7519581  85.6418680 108.4839815  54.8900613  86.7396403 107.8975453
  56.5324888  80.3903143 113.7157493  56.1974721  80.3503913 114.6115143
  56.0328834  79.7247859 113.2427903  50.5069132  75.7970773 119.2410074
  50.3688930  75.0651012 119.8421613  51.4174056  75.7079673 118.9594262
  59.4684080  77.7359177 103.9894553  58.8513251  77.0106005 103.8927605
  59.0000568  78.4968538 103.6461627  53.1351433  75.5090732 118.7293754
  53.8451051  74.8683925 118.6880372  53.0920741  75.7603627 119.6519935
  61.1238212  82.4458086 121.6500333  61.0650758  81.7617306 120.9830916
  61.5257730  83.1877076 121.1980959  51.8480367  72.4955950 120.5489393
  51.3117724  72.0446689 121.2010990  51.2597075  72.6301859 119.8059858
  50.1428910  89.2620000 114.4434052  50.3825509  89.8938524 115.1213071
  49.2998107  88.9108040 114.7299411  51.2582626  71.9544602 103.1115857
  50.3812092  71.8333402 102.7478104  51.7340379  71.1630680 102.8594746
  61.1255619  80.4097670 119.8814313  60.2382398  80.0723591 120.0040712
  61.6954170  79.6780701 120.1183078  42.7784766  76.7421761 113.2057364
  43.4655806  76.4283491 112.6178380  42.6232895  77.6463126 112.9324616
  47.5819488  71.6311958 117.6342388  47.4977677  71.0237627 116.8992798
  46.7602194  72.1220976 117.6351884  54.6556772  85.0699122 116.8475556
  54.5826944  85.8754093 117.3594861  54.2134165  85.2691088 116.0223577
  54.4446552  84.3070892 110.3578378  53.6614074  84.8492572 110.4516602
  55.1439297  84.8244872 110.7572619  57.7543202  70.1165521 113.0012583
  58.2511901  69.3635484 112.6813653  56.9830183  70.1529838 112.4355792
  65.6072959  75.8205887 114.6430874  65.5962836  76.7030602 114.2724808
  64.7390339  75.4677438 114.4485412  57.1155456  84.9685956 119.0033715
  57.8283428  85.6033421 118.9309616  56.6245484  85.0649822 118.1873717
  58.8372983  78.8737209 110.5751006  57.9029261  78.9938671 110.4055711
  59.0149651  77.9709675 110.3111016  54.3378171  72.2582904 112.7284268
  53.9675958  71.7053945 113.4165173  54.8337263  71.6541038 112.1759268
  62.2245534  74.7154528 111.1101041  62.6905986  75.5482520 111.0361343
  62.6753034  74.2499510 111.8146299  52.1667369  82.7180399 119.8239286
  52.8676829  83.3516882 119.9768680  51.6962484  83.0595131 119.0634925
  60.2921765  81.0598349 108.1087193  60.5681609  80.9454944 109.0181067
  59.4226264  80.6615834 108.0699366  60.1962197  67.0835115 115.1491942
  59.2825277  67.3139342 115.3174149  60.6255298  67.1673559 116.0005974
  59.9668655  75.2725007 117.6491836  59.3140105  75.5200914 116.9944289
  60.3449035  74.4589145 117.3154313  56.9275829  85.3084700 111.7520006
  57.1098224  84.4906356 112.2147759  57.7508815  85.5252392 111.3144896
  57.2617995  84.2352885 109.0135055  57.7905761  83.7245340 108.4005217
  57.5246214  83.9195415 109.8780588  56.0156228  76.0144818 124.1357873
  55.3396865  75.9138947 124.8060248  56.8383862  75.8584032 124.5993870
  47.7635087  82.2516755 116.7570388  48.3488524  81.5060442 116.8898292
  47.5659926  82.5620711 117.6407052  50.6173743  85.2868002 111.7732831
  49.9484118  85.7714130 111.2896871  50.4786612  85.5337222 112.6876209
  42.3552742  74.8222355 115.4774831  42.3936842  74.2885945 116.2711949
  41.8493035  74.2957560 114.8585809  54.7579011  87.3211745 118.3715489
  55.3097319  87.4843367 119.1364574  55.0985205  87.9116183 117.6995514
  49.7343504  69.6686895 118.9737374  49.7984831  70.5301726 118.5614771
  49.6710625  69.0560897 118.2409732  49.2095777  71.7410028 122.6210408
  49.8367816  71.3587105 123.2347932  48.3523696  71.5224230 122.9866100
  57.8947398  85.2693721 115.3579171  57.7698538  84.4683461 114.8490117
  58.5526490  85.7639914 114.8693141  49.5155567  71.6242453 114.5356311
  48.7942152  72.2378421 114.3963785  50.3048822  72.1600218 114.4572957
  59.9582307  83.0702741 116.9858721  59.0112642  82.9508092 116.9137048
  60.3065080  82.1825239 117.0684983  52.3181880  68.9596880 120.8096963
  52.8416282  69.2059176 121.5723272  52.0994213  69.7916915 120.3900100
  56.9628740  82.8655457 113.1863073  56.8153703  81.9372165 113.3670643
  57.7882234  82.8875548 112.7020149  60.5662862  83.6884016 114.2727946
  61.4909409  83.4826877 114.1352397  60.3978165  83.4400417 115.1817288
  53.5234425  69.9010575 118.4946634  53.1831246  69.1018388 118.8967314
  52.8173431  70.2012286 117.9223467  54.1750897  66.9859887 116.9473957
  54.9976966  66.5120366 116.8252847  54.4188961  67.7650371 117.4472643
  52.8159132  70.0148146 107.2436858  53.5367494  70.3929399 106.7400575
  52.1924436  70.7337023 107.3471836  56.9590254  70.7193295 108.1795191
  57.1753869  71.6017933 107.8784019  56.4784322  70.3279508 107.4500833
  51.6989476  73.6779008 114.7565935  51.5534056  73.9919311 115.6490217
  51.2214679  74.2963908 114.2036834  53.5585859  70.6681556 114.8046825
  53.5447427  69.7722649 114.4679123  54.2758287  70.6752220 115.4385111
  55.4111989  71.1018896 116.8499952  55.1529767  72.0235967 116.8484283
  54.8797030  70.7049331 117.5400416  60.3558178  84.2069683 109.6290038
  60.5295056  83.6416106 108.8763890  60.8487069  85.0070578 109.4469528
  46.1735138  76.2184353 117.6953596  45.6288606  76.9944160 117.8273871
  47.0514488  76.5655157 117.5372718  52.9622755  69.5495936 110.0734395
  53.0838666  68.6212583 110.2725282  52.6724797  69.5634622 109.1612710
  55.8313945  67.2350847 113.2101115  55.8535642  67.2990180 112.2553094
  56.2482004  66.3955355 113.4041621  66.2097569  76.9706106 111.2480337
  66.6528715  76.2213432 110.8499461  65.3324080  76.9616243 110.8654069
  61.3433351  83.5236448 106.7286936  62.0384255  84.1443141 106.9474251
  61.6856501  82.6731799 107.0039314  46.9601160  75.3454249 120.5883753
  46.2182896  75.4936884 121.1748384  46.6393904  75.6062514 119.7250503
  63.2424774  80.9736153 108.2574267  63.7676098  81.3123426 107.5323587
  63.1547126  80.0383169 108.0737401  54.9044822  84.8870227 120.3864143
  55.2131949  84.6419374 121.2586843  55.7020304  85.0916865 119.8983014
  54.9265434  87.0408137 112.6169520  54.4870425  86.5484515 113.3102377
  55.6773551  86.4981104 112.3761595  47.4057773  83.2319678 112.6194148
  48.2315793  82.9323449 112.2392791  47.0551825  82.4627300 113.0683937
  52.3739307  82.5846146 114.6891822  51.7519316  81.9216851 114.3894049
  53.0444174  82.6107278 114.0065469  45.6066379  81.1506004 113.5783082
  44.7698287  80.7228178 113.3967083  45.5790024  81.3438447 114.5153873
  52.4463834  71.0627934 124.2824328  52.4951990  71.9390057 123.9002097
  52.9886348  70.5205327 123.7095971  63.0516555  78.4561523 120.8758193
  63.1014560  78.2911531 121.8173716  62.9430478  77.5888782 120.4856074
  51.9352814  81.1350069 108.1650282  52.0840934  81.8185533 107.5116955
  52.7419257  81.1155159 108.6799738  60.3420317  74.4392451 122.1917500
  61.2430180  74.2998916 121.9001498  60.4168292  74.6046906 123.1315677
  54.6763123  71.8159306 121.0370686  53.8066432  72.1092872 120.7653275
  54.9122603  72.3999751 121.7577950  64.5534752  80.8758465 121.1200215
  64.2619560  81.2388445 121.9563676  63.9406883  80.1625473 120.9413547
  65.7530434  78.4411345 113.6402785  66.5877325  78.8801149 113.8040345
  65.8889563  77.9649998 112.8211031  62.8021940  75.9991080 119.5880273
  63.2776062  76.1918726 118.7799124  61.8787505  76.0550265 119.3423656
  49.6905447  77.1615247 109.1711351  49.4451488  76.2577577 109.3691561
  49.8601361  77.1632397 108.2290829  57.3802156  68.0338923 118.5536107
  57.8984100  68.7699950 118.2282595  57.0257289  68.3402916 119.3882866
  57.6314751  64.4539206 114.0737003  57.9116504  63.7862395 114.6997430
  58.4165357  64.6468301 113.5611667  55.4348219  83.6298200 105.6362030
  54.8622186  84.2488387 105.1832501  56.0081013  84.1797561 106.1701951
  61.5023609  72.8756840 117.8208578  62.4541032  72.9754937 117.8420802
  61.3327059  72.0835108 118.3306663  59.5237988  69.9612423 118.0067979
  58.9287921  70.2417436 117.3114468  59.2387685  70.4506324 118.7784720
  58.6545479  83.9135350 106.7670612  59.5876152  83.8480911 106.9703487
  58.5668692  84.7491617 106.3085144  61.2833496  83.2301220 103.7274559
  61.2047127  82.8961084 104.6210317  62.1043162  83.7222988 103.7266032
  63.9811687  76.0962959 116.9350878  63.9488007  75.1578960 117.1210562
  64.5912310  76.1746996 116.2016703  55.8195018  74.9659012 102.9778082
  56.7654122  74.8365220 103.0466500  55.4409263  74.2273674 103.4547510
  64.1306175  72.8874003 116.9809161  63.6145224  72.1032459 116.7939090
  65.0146124  72.5592719 117.1455681  61.7916902  66.6315018 112.9404974
  61.5941723  66.3230106 113.8248306  62.4016608  67.3576657 113.0702904
  69.7988237  77.1578966 116.0756915  70.5291625  76.8964254 116.6364618
  69.1895182  76.4207688 116.1158983  67.8803534  75.2986829 116.6731366
  67.1536697  75.1642794 116.0647858  67.4650821  75.6063657 117.4788084
  55.7033710  79.0176758 124.4378739  56.6236720  79.1955357 124.6318786
  55.6683293  78.0732804 124.2858438  54.0037935  72.8908989 102.9132967
  53.0969390  72.5942101 102.9895681  54.2813916  72.5938807 102.0467253
  48.6995783  76.9277793 117.0801520  48.9181792  77.8594901 117.0989554
  49.1121556  76.5685767 117.8656324  55.6200000  67.4345878 109.0677209
  54.8100729  67.0892963 109.4432455  56.3084417  67.1253422 109.6564820
  57.5490549  66.5123925 110.6901505  58.1021587  66.9319379 111.3491528
  57.7860635  65.5859673 110.7324461  53.5723648  72.5010999 126.4704269
  53.4720375  73.4505356 126.4016360  53.3545190  72.1729238 125.5980339
  52.7736719  69.7495924 103.0544946  53.6355883  70.0750822 103.3140764
  52.9587064  68.9627420 102.5418012  44.7904135  77.8318264 115.3325135
  44.0967607  77.4172216 114.8195090  45.5377126  77.8738800 114.7358554
  60.9269356  68.6224450 110.1980169  60.3468025  69.2809254 109.8158222
  60.6605289  67.8001795 109.7867587  59.3772922  68.0229508 112.4001490
  59.8772701  68.1346043 111.5915809  60.0208530  67.7190561 113.0402298
  53.4354918  75.9308138 125.2869331  52.9522000  76.7308498 125.4933220
  53.5215857  75.9416083 124.3336775  46.7040878  77.7636517 113.2091150
  46.6811566  77.8624205 112.2573033  47.0141514  78.6101668 113.5308316
  49.3628256  79.8212672 117.3237765  50.3171509  79.7896615 117.2567696
  49.1640779  79.3603296 118.1387990  49.9527638  78.3913788 119.8908562
  50.7720527  78.8857867 119.9143399  50.2264445  77.4745757 119.8626130
  59.7094234  70.7824541 109.2536518  58.8220089  71.0674191 109.0356712
  60.1248223  70.6218304 108.4063795  63.0608770  70.8071062 112.9690857
  63.8369160  71.2967514 113.2415474  62.3356904  71.2329116 113.4262726
  65.4981329  71.5198681 114.0264798  66.0925819  71.2794417 113.3158106
  65.5707912  70.8005811 114.6538334  47.7178484  85.3632292 114.3407962
  47.5832952  84.6032693 113.7745960  47.3010547  86.0873192 113.8736751
  58.8537447  80.5469215 103.3484538  59.5573297  80.7519218 103.9642193
  58.1300096  81.1145977 103.6133621  59.6835258  76.2979077 109.4686808
  59.6270459  76.7547628 108.6294440  60.2363600  75.5369761 109.2909651
  63.4940064  72.0868809 110.2936927  63.2376998  71.6865444 111.1245135
  62.8692932  72.8012602 110.1687067  67.8052401  74.8264882 112.8008219
  67.2451959  74.8958071 113.5739781  67.1995905  74.6505866 112.0807715
  50.8747610  86.2601609 114.5526405  50.7579994  87.2047041 114.4505095
  50.0540056  85.9575170 114.9412204  60.7624145  80.9851745 105.3982998
  61.5969749  80.5532943 105.2160473  60.6008488  80.8133758 106.3259892
  60.4170037  77.4883858 106.7639337  60.3618841  77.3228129 105.8227781
  59.7916092  78.1959891 106.9201527  45.2062552  72.7251922 120.5900759
  45.8521415  72.2150876 121.0787984  44.9979703  73.4620604 121.1644185
  53.7266162  66.9891967 106.3424655  53.7144832  67.9333807 106.4992926
  54.6189584  66.8062112 106.0484117  51.9002124  86.9129871 117.7682333
  52.8029371  86.9453481 118.0848828  51.6739494  85.9830322 117.7828669
  53.6555726  85.6660857 114.4292412  52.7051357  85.6662719 114.3156784
  53.9588212  84.9193592 113.9128447  57.5418282  63.5834744 110.5970592
  56.7750678  63.0293230 110.7427275  57.9528987  63.6556612 111.4584744
  49.5460043  69.8719539 124.6875773  50.4091504  69.5156344 124.8979098
  48.9725454  69.5333434 125.3751178  62.0584942  93.3084300 111.4196590
  61.4949807  93.2174237 110.6512878  61.9437337  92.4884205 111.8999083
  59.6049374  94.8035492 114.2580811  60.3970666  94.4626316 113.8427110
  59.8446024  94.9130467 115.1782964  67.6384501  96.9755268 106.7311055
  66.9872480  97.5609348 106.3445069  68.4328863  97.5061463 106.7906093
  61.5640128  94.0644405 107.1298189  62.3371004  93.5173392 106.9911065
  61.9165527  94.9288654 107.3412651  63.9006405  90.2237071 104.7616639
  64.1531926  89.7018592 104.0000102  62.9630965  90.0603217 104.8643323
  68.9449688  89.2272850 112.5691383  69.7312778  88.8092273 112.2181800
  69.2088393  90.1318942 112.7373031  69.1159766  94.6645700 107.2680039
  68.4805599  94.7380326 107.9800944  68.7857172  95.2539299 106.5899119
  63.6202694  92.1265177 106.9641014  63.5038952  91.4510081 107.6322099
  63.7304954  91.6397551 106.1473167  65.9634235  91.5875324 110.6687703
  65.5992442  91.0605945 111.3800625  66.8201351  91.1973793 110.4954189
  65.6039722  86.6165224 105.6649052  65.7714124  87.4845460 106.0319523
  65.4136891  86.7792506 104.7410341  61.8127537  91.5296000 113.3651587
  60.8878033  91.3972214 113.5729279  62.0611950  92.3090219 113.8621529
  65.5828943  89.0722881 106.6495719  65.4628568  89.5179932 107.4881199
  64.8881531  89.4208199 106.0909257  59.1736348  91.1729273 114.1995376
  59.3028729  91.4263752 115.1134788  58.4933799  91.7656981 113.8800031
  71.2814009  89.5444355 107.4776053  72.1931865  89.7771741 107.3023750
  70.7723656  90.1281399 106.9151131  68.6249984  85.7202391 115.7265914
  67.7634463  86.0183644 116.0182651  68.6512419  85.9372790 114.7946946
  65.4411553  94.2644581 112.1339719  65.9049899  94.5432284 111.3444342
  65.1768351  93.3628026 111.9512810  64.3780439  90.3867734 108.9429285
  65.0804483  90.8388777 109.4103211  64.0461068  89.7451552 109.5709178
  58.1205773  88.6451286 114.2446418  57.3304827  88.9008815 113.7686529
  58.6117021  89.4599624 114.3498459  60.0720519  89.0095865 111.2029895
  59.2751682  89.1214560 111.7213391  59.8446111  89.3482518 110.3370785
  56.4043476  88.8981777 116.6761409  56.6551515  89.7828787 116.9418985
  56.9403025  88.7186378 115.9036501  65.6174204  97.2008676 109.0191390
  65.4819879  98.0460212 109.4476238  66.1584017  97.4027954 108.2557324
  59.0703601  94.7184114 109.5919315  59.5828122  95.5127364 109.7424880
  59.7226314  94.0210405 109.5252916  60.8798486  97.8349870 111.6742068
  61.0565114  98.7567835 111.4863052  61.6755320  97.5208290 112.1036448
  68.9666668  80.7239238 117.5490283  68.6230937  81.6140880 117.4729394
  69.3345630  80.5340896 116.6859868  57.0352518  93.0472769 110.3678885
  57.8727740  93.4569777 110.1512593  57.2130786  92.1072211 110.3379079
  68.9316950  90.7147849 106.0562718  68.4163574  91.4852454 106.2951106
  68.6594259  90.0412985 106.6795780  66.5164061  85.5597550 111.1147957
  65.6605658  85.1704400 110.9353595  66.9291013  85.6389511 110.2547742
  68.0463208  83.0943893 115.5139517  67.5428004  83.0574028 114.7007322
  68.3393815  84.0036636 115.5736173  64.2906094  83.1782623 114.5205698
  65.1559091  82.9825432 114.1611588  64.3583603  82.9492975 115.4475055
  73.9051224  93.4680204 107.9915892  73.1280667  93.1291363 107.5471054
  74.5842705  93.4732827 107.3170857  68.7203253  88.5874941 107.8822500
  68.4153389  88.9021090 108.7332643  69.6733696  88.6656361 107.9249833
  67.1649685  94.7465165 109.5315454  66.6371047  94.0117924 109.2188691
  66.6637188  95.5239841 109.2855422  61.8968413  85.4084831 111.8922065
  62.4712165  85.1860012 111.1595258  62.4839395  85.4773525 112.6450666
  62.2238000  87.4389292 105.9117950  61.3875312  87.7763978 106.2327225
  62.0842770  87.3038272 104.9745087  64.1991081  82.2826080 110.6197134
  63.5455493  81.9675097 109.9953749  64.1571555  81.6601820 111.3456957
  65.3102285  92.5645375 102.5350427  64.4029347  92.3334628 102.7341576
  65.8073317  91.7682994 102.7224408  68.2170364 101.2742882 105.4547113
  67.5432063 101.5774579 106.0632071  68.6036186 102.0771962 105.1052570
  67.4328821  88.7708013 114.9444782  66.5151382  88.9922960 114.7866470
  67.8488965  88.8454324 114.0856489  68.2163869  90.1699429 110.0747462
  68.9635688  90.6820826 109.7654584  68.4855458  89.8483482 110.9351856
  66.4890519  92.6657970 107.0574417  65.5801738  92.3817003 107.1546886
  66.5185603  93.0857048 106.1977724  70.6642706  87.2056545 112.0566252
  69.9265463  86.6933931 112.3876494  70.9169479  86.7656927 111.2449529
  70.7654333  79.9832797 112.6508021  71.0713210  79.1230161 112.3633936
  71.4906938  80.5750417 112.4507015  57.0578689  90.3863484 111.0389619
  56.8603089  89.7932845 110.3140685  56.5025353  90.0815694 111.7565558
  65.0375413  90.2786590 113.1584212  65.0924023  89.3260427 113.0826689
  64.2266615  90.4346029 113.6425510  66.1866607  94.2066713 104.3962495
  65.7486037  93.4902572 103.9368133  66.9277048  94.4342828 103.8347587
  62.9767773  88.8963650 110.9174591  62.1635638  89.1957821 111.3239783
  63.4726767  88.5019339 111.6349073  74.3039722  92.4823910 110.4538814
  74.1657620  92.6725506 109.5260003  73.9475940  93.2443293 110.9106865
  62.4681848  86.4682006 116.5335826  63.1081227  86.3270765 115.8358789
  61.6359378  86.1816519 116.1574428  63.2442152  95.7684436 112.6470818
  64.0382750  95.2734756 112.4453393  62.5333844  95.2402299 112.2838524
  59.5524915  89.9127518 108.7230571  58.6222503  89.8511973 108.9400533
  59.6482387  89.3903470 107.9267212  59.4710464  86.4382331 111.3108813
  59.7317281  87.3527664 111.2017973  60.2927636  85.9706773 111.4605425
  60.9435389  87.8520088 118.4807637  61.6158443  87.6437450 117.8320286
  60.1165176  87.6542174 118.0412869  66.4161580 101.4422554 107.6694192
  66.5913335 100.9710598 108.4839815  65.7294368 102.0688321 107.8975453
  70.3077834  93.0651095 103.9894553  69.6907005  92.3397923 103.8927605
  69.8394323  93.8260455 103.6461627  62.0976380  87.2836519 103.1115857
  61.2205847  87.1625320 102.7478104  62.5734133  86.4922598 102.8594746
  53.6178520  92.0713679 113.2057364  54.3049560  91.7575409 112.6178380
  53.4626649  92.9755044 112.9324616  58.4213243  86.9603876 117.6342388
  58.3371431  86.3529545 116.8992798  57.5995949  87.4512894 117.6351884
  68.5936956  85.4457439 113.0012583  69.0905656  84.6927401 112.6813653
  67.8223938  85.4821756 112.4355792  69.6766737  94.2029126 110.5751006
  68.7423016  94.3230589 110.4055711  69.8543406  93.3001593 110.3111016
  65.1771925  87.5874822 112.7284268  64.8069713  87.0345863 113.4165173
  65.6731018  86.9832956 112.1759268  73.0639288  90.0446446 111.1101041
  73.5299741  90.8774437 111.0361343  73.5146789  89.5791427 111.8146299
  71.1315520  96.3890267 108.1087193  71.4075363  96.2746862 109.0181067
  70.2620018  95.9907752 108.0699366  71.0355951  82.4127033 115.1491942
  70.1219031  82.6431259 115.3174149  71.4649053  82.4965477 116.0005974
  68.1011749  99.5644803 109.0135055  68.6299516  99.0537257 108.4005217
  68.3639969  99.2487333 109.8780588  53.1946497  90.1514272 115.4774831
  53.2330596  89.6177863 116.2711949  52.6886789  89.6249478 114.8585809
  60.5737259  84.9978813 118.9737374  60.6378585  85.8593644 118.5614771
  60.5104379  84.3852815 118.2409732  56.8255074  88.8778375 108.5528763
  57.1208515  87.9689053 108.4995816  55.9243110  88.8566114 108.2309765
  60.3549321  86.9534371 114.5356311  59.6335907  87.5670339 114.3963785
  61.1442577  87.4892136 114.4572957  58.5542916  86.5592472 108.6768088
  58.2255622  85.6789851 108.4943194  58.9082286  86.5040141 109.5644477
  61.6684739  86.8465442 109.0443566  62.0080811  87.3751363 108.3222174
  62.1156859  87.1845848 109.8202132  64.3628180  85.2302493 118.4946634
  64.0225000  84.4310306 118.8967314  63.6567186  85.5304204 117.9223467
  65.0144651  82.3151805 116.9473957  65.8370721  81.8412283 116.8252847
  65.2582715  83.0942289 117.4472643  63.6552886  85.3440064 107.2436858
  64.3761248  85.7221316 106.7400575  63.0318190  86.0628940 107.3471836
  67.7984009  86.0485213 108.1795191  68.0147623  86.9309850 107.8784019
  67.3178076  85.6571426 107.4500833  62.5383230  89.0070926 114.7565935
  62.3927811  89.3211229 115.6490217  62.0608434  89.6255826 114.2036834
  64.3979613  85.9973474 114.8046825  64.3841182  85.1014567 114.4679123
  65.1152041  86.0044138 115.4385111  66.2505744  86.4310814 116.8499952
  65.9923522  87.3527885 116.8484283  65.7190784  86.0341249 117.5400416
  57.0128892  91.5476270 117.6953596  56.4682360  92.3236078 117.8273871
  57.8908242  91.8947075 117.5372718  63.8016509  84.8787854 110.0734395
  63.9232420  83.9504500 110.2725282  63.5118551  84.8926540 109.1612710
  66.6707699  82.5642765 113.2101115  66.6929396  82.6282098 112.2553094
  67.0875758  81.7247273 113.4041621  72.1827105  98.8528366 106.7286936
  72.8778010  99.4735058 106.9474251  72.5250255  98.0023717 107.0039314
  74.0818528  96.3028071 108.2574267  74.6069852  96.6415344 107.5323587
  73.9940881  95.3675086 108.0737401  58.2451528  98.5611595 112.6194148
  59.0709548  98.2615367 112.2392791  57.8945580  97.7919218 113.0683937
  56.4460133  96.4797922 113.5783082  55.6092041  96.0520096 113.3967083
  56.4183778  96.6730365 114.5153873  62.7746568  96.4641987 108.1650282
  62.9234688  97.1477451 107.5116955  63.5813011  96.4447077 108.6799738
  60.5299201  92.4907164 109.1711351  60.2845243  91.5869494 109.3691561
  60.6995116  92.4924315 108.2290829  59.7994849  88.2235522 106.6697512
  59.1064093  88.2979877 106.0137548  59.5546600  87.4595866 107.1919029
  68.4708505  79.7831123 114.0737003  68.7510259  79.1154312 114.6997430
  69.2559112  79.9760219 113.5611667  66.2741974  98.9590117 105.6362030
  65.7015941  99.5780304 105.1832501  66.8474767  99.5089479 106.1701951
  69.4939233  99.2427267 106.7670612  70.4269906  99.1772829 106.9703487
  69.4062446 100.0783534 106.3085144  72.1227250  98.5593138 103.7274559
  72.0440882  98.2253001 104.6210317  72.9436917  99.0514906 103.7266032
  66.6588772  90.2950930 102.9778082  67.6047877  90.1657138 103.0466500
  66.2803017  89.5565592 103.4547510  72.6310657  81.9606936 112.9404974
  72.4335478  81.6522024 113.8248306  73.2410362  82.6868575 113.0702904
  64.8431689  88.2200906 102.9132967  63.9363145  87.9234019 102.9895681
  65.1207670  87.9230724 102.0467253  55.7609630  89.5407270 113.3632014
  55.4412414  88.6872578 113.0706388  55.2143058  89.7555848 114.1189981
  66.4593755  82.7637796 109.0677209  65.6494483  82.4184881 109.4432455
  67.1478172  82.4545340 109.6564820  68.3884303  81.8415843 110.6901505
  68.9415342  82.2611296 111.3491528  68.6254390  80.9151591 110.7324461
  63.6130474  85.0787842 103.0544946  64.4749638  85.4042740 103.3140764
  63.7980818  84.2919337 102.5418012  55.6297890  93.1610181 115.3325135
  54.9361361  92.7464134 114.8195090  56.3770881  93.2030718 114.7358554
  71.7663110  83.9516368 110.1980169  71.1861779  84.6101172 109.8158222
  71.4999043  83.1293713 109.7867587  70.2166677  83.3521426 112.4001490
  70.7166455  83.4637960 111.5915809  70.8602285  83.0482479 113.0402298
  57.5434632  93.0928435 113.2091150  57.5205320  93.1916122 112.2573033
  57.8535269  93.9393586 113.5308316  70.5487988  86.1116458 109.2536518
  69.6613843  86.3966109 109.0356712  70.9641977  85.9510222 108.4063795
  73.9002524  86.1362979 112.9690857  74.6762915  86.6259432 113.2415474
  73.1750659  86.5621034 113.4262726  69.6931202  95.8761133 103.3484538
  70.3967052  96.0811136 103.9642193  68.9693851  96.4437895 103.6133621
  70.5229012  91.6270994 109.4686808  70.4664213  92.0839546 108.6294440
  71.0757355  90.8661679 109.2909651  74.3333818  87.4160726 110.2936927
  74.0770752  87.0157362 111.1245135  73.7086686  88.1304520 110.1687067
  71.6017899  96.3143662 105.3982998  72.4363503  95.8824861 105.2160473
  71.4402242  96.1425676 106.3259892  71.2563791  92.8175776 106.7639337
  71.2012595  92.6520047 105.8227781  70.6309847  93.5251808 106.9201527
  56.0456306  88.0543840 120.5900759  56.6915170  87.5442794 121.0787984
  55.8373457  88.7912522 121.1644185  64.5659917  82.3183885 106.3424655
  64.5538587  83.2625725 106.4992926  65.4583339  82.1354030 106.0484117
  68.3812036  78.9126661 110.5970592  67.6144432  78.3585148 110.7427275
  68.7922741  78.9848530 111.4584744  73.0631755 102.7681210 105.9117950
  72.2269067 103.1055896 106.2327225  72.9236524 102.6330189 104.9745087
  72.9370135 102.6128437 103.1115857  72.0599601 102.4917238 102.7478104
  73.4127888 101.8214515 102.8594746  70.6388603 103.5527440 106.6697512
  69.9457848 103.6271795 106.0137548  70.3940355 102.7887783 107.1919029
  75.6825444 103.5492824 102.9132967  74.7756899 103.2525937 102.9895681
  75.9601425 103.2522642 102.0467253  74.4524228 100.4079759 103.0544946
  75.3143392 100.7334658 103.3140764  74.6374572  99.6211255 102.5418012
  75.4053671  97.6475802 106.3424655  75.3932341  98.5917642 106.4992926
  76.2977093  97.4645948 106.0484117  24.8595348  16.9637334  92.1792419
  24.1857046  17.2669031  92.7877377  25.2461170  17.7666414  91.8297876
  28.8252088  14.5422817  93.4532243  29.5202993  15.1629510  93.6719557
  29.1675239  13.6918169  93.7284620  22.9166957  14.6484569  92.3607336
  22.3440924  15.2674756  91.9077808  23.4899751  15.1983931  92.8947258
  26.1364217  14.9321719  93.4915918  27.0694890  14.8667281  93.6948794
  26.0487429  15.7677986  93.0330451  28.7652233  14.2487590  90.4519866
  28.6865865  13.9147453  91.3455624  29.5861900  14.7409357  90.4511338
  26.3356185  11.5655585  90.0729844  27.0392035  11.7705587  90.6887500
  25.6118834  12.1332347  90.3378928  28.2442883  12.0038114  92.1228304
  29.0788486  11.5719313  91.9405779  28.0827225  11.8320128  93.0505199
  36.8727158  22.5207765 102.2183481  37.5105568  22.4014513 101.5146821
  36.7548000  23.4688609 102.2771433  29.5403680  24.3270670  98.1441897
  28.9768545  24.2360607  97.3758185  29.4256075  23.5070574  98.6244389
  35.1203238  27.9941637  93.4556362  34.4691218  28.5795718  93.0690375
  35.9147601  28.5247832  93.5151399  29.0458865  25.0830775  93.8543496
  29.8189741  24.5359762  93.7156372  29.3984264  25.9475024  94.0657957
  31.3825143  21.2423441  91.4861946  31.6350664  20.7204962  90.7245409
  30.4449702  21.0789586  91.5888630  36.4268426  20.2459219  99.2936689
  37.2131515  19.8278642  98.9427106  36.6907130  21.1505311  99.4618338
  36.5978503  25.6832069  93.9925346  35.9624336  25.7566696  94.7046251
  36.2675910  26.2725668  93.3144425  41.8276853  20.1834452 100.1969668
  42.5602025  19.6133669 100.4307497  41.0716209  19.7956053 100.6376173
  31.1021432  23.1451547  93.6886321  30.9857690  22.4696450  94.3567405
  31.2123692  22.6583921  92.8718474  33.4452973  22.6061694  97.3933010
  33.0811180  22.0792315  98.1045932  34.3020089  22.2160163  97.2199496
  33.0858460  17.6351594  92.3894359  33.2532862  18.5031830  92.7564830
  32.8955629  17.7978875  91.4655648  33.0647681  20.0909251  93.3741025
  32.9447306  20.5366302  94.2126506  32.3700269  20.4394569  92.8154564
  30.8254573  32.8612893  97.0231157  30.7478603  33.8120718  97.1019637
  30.2216216  32.5158765  97.6806083  38.7632747  20.5630724  94.2021360
  39.6750603  20.7958111  94.0269057  38.2542394  21.1467768  93.6396438
  37.3702329  25.5456543 101.5934941  36.7411192  25.7102257 100.8911009
  36.9827991  25.9598152 102.3645905  41.2491561  26.4810981  98.9479305
  40.5642599  26.8609882  98.3976338  41.3335410  27.0906307  99.6811252
  32.9230291  25.2830951  98.8585026  33.3868637  25.5618654  98.0689649
  32.6587089  24.3814395  98.6758117  31.8599177  21.4054103  95.6674591
  32.5623221  21.8575147  96.1348518  31.5279806  20.7637922  96.2954484
  39.6188321  27.0042895 103.7197006  40.4405764  26.6023082 103.4379687
  39.6150724  26.9011129 104.6713121  47.7094314  23.3481643 100.0681977
  46.9558022  22.7789042  99.9125982  47.8441855  23.3144308 101.0152612
  33.0992942  28.2195046  95.7436696  32.9638617  29.0646581  96.1721544
  33.6402754  28.4214323  94.9802630  26.5522339  25.7370484  96.3164622
  27.0646860  26.5313734  96.4670186  27.2045052  25.0396774  96.2498223
  28.3617224  28.8536240  98.3987375  28.5383852  29.7754205  98.2108359
  29.1574057  28.5394659  98.8281754  29.4848539  30.3714414 104.3997717
  30.0355964  30.2431477 103.6274711  28.6460015  30.6709303 104.0492610
  24.5171256  24.0659138  97.0924192  25.3546478  24.4756146  96.8757900
  24.6949524  23.1258580  97.0624386  36.4135688  21.7334219  92.7808025
  35.8982312  22.5038823  93.0196412  36.1412997  21.0599355  93.4041086
  33.9982799  16.5783919  97.8393263  33.1424395  16.1890770  97.6598902
  34.4109751  16.6575880  96.9793049  41.3869962  24.4866573  94.7161198
  40.6099405  24.1477733  94.2716361  42.0661443  24.4919197  94.0416164
  36.2021991  19.6061311  94.6067806  35.8972127  19.9207460  95.4577949
  37.1552433  19.6842731  94.6495139  34.6468423  25.7651534  96.2560760
  34.1189785  25.0304294  95.9433998  34.1455926  26.5426210  96.0100728
  39.6261269  23.9600555 101.3727806  38.9684944  24.6499816 101.4607935
  40.4301668  24.3496987 101.7161793  38.4366728  22.3144927  99.4231748
  38.9498610  22.9474919  99.9253458  39.0867952  21.7146123  99.0575108
  29.7056738  18.4575661  92.6363257  28.8694050  18.7950348  92.9572532
  29.5661507  18.3224641  91.6990394  32.7921023  23.5831744  89.2595733
  31.8848085  23.3520998  89.4586882  33.2892055  22.7869364  89.4469715
  35.6989102  32.2929252  92.1792419  35.0250801  32.5960948  92.7877377
  36.0854924  33.0958332  91.8297876  35.6982607  21.1885799  96.7992769
  36.4454426  21.7007196  96.4899891  35.9674196  20.8669851  97.6597163
  33.9709257  23.6844339  93.7819723  33.0620476  23.4003372  93.8792193
  34.0004341  24.1043418  92.9223030  39.2028524  27.2950929  97.5510891
  38.7490851  26.4541839  97.6076081  38.5722491  27.9312327  97.8885671
  38.1461444  18.2242915  98.7811558  37.4084201  17.7120301  99.1121801
  38.3988217  17.7843296  97.9694835  37.6461463  29.1327425  98.4860709
  37.9384438  29.6932483  97.7673075  38.1560084  29.4255986  99.2413868
  32.5194151  21.2972960  99.8829519  32.5742761  20.3446796  99.8071995
  31.7085353  21.4532399 100.3670817  33.6685345  25.2253083  91.1207802
  33.2304774  24.5088942  90.6613439  34.4095785  25.4529198  90.5592893
  30.4586511  19.9150020  97.6419898  29.6454376  20.2144190  98.0485090
  30.9545505  19.5205708  98.3594380  32.6095089  29.9107777  99.5754162
  32.5671267  30.1368623  98.6462694  33.5257787  29.6771151  99.7239963
  41.7858459  23.5010280  97.1784120  41.6476358  23.6911876  96.2505310
  41.4294678  24.2629663  97.6352172  41.8127839  25.5686807 102.1895392
  42.2464346  25.4762096 103.0378446  42.5259420  25.5444307 101.5515408
  30.7260889  26.7870806  99.3716125  31.5201488  26.2921126  99.1698700
  30.0152582  26.2588669  99.0083830  35.5455734  29.1688901 103.7228493
  35.5992756  29.7379837 104.4906208  34.6770515  29.3390786 103.3582530
  27.0343653  20.9313887  95.4475878  26.1041241  20.8698343  95.6645840
  27.1301125  20.4089840  94.6512519  42.6743388  25.6110508 104.7228277
  42.8679279  26.5156318 104.9687552  42.5744007  25.1517927 105.5566862
  33.3032165  27.3599828 103.0513962  33.1643251  26.9918612 103.9239900
  32.5146762  27.8747467 102.8797920  33.8980317  32.4608924  94.3939499
  34.0732073  31.9896967  95.2085121  33.2113105  33.0874690  94.6220759
  34.8537380  26.7381430 100.4402800  34.5187213  26.6982200 101.3360450
  34.3541326  26.0726146  99.9673210  37.7896572  24.0837465  90.7139859
  37.1725743  23.3584293  90.6172912  37.3213061  24.8446825  90.3706934
  28.4641403  35.6098287 101.1679359  28.7038001  36.2416811 101.8458377
  27.6210599  35.2586327 101.4544718  29.5795118  18.3022889  89.8361164
  28.7024584  18.1811690  89.4723410  30.0552871  17.5108967  89.5840052
  32.9769264  31.4177409 103.5720863  32.9039436  32.2232381 104.0840167
  32.5346658  31.6169375 102.7468884  32.7659044  30.6549179  97.0823684
  31.9826566  31.1970859  97.1761909  33.4651789  31.1723159  97.4817925
  43.9285452  22.1684174 101.3676181  43.9175328  23.0508890 100.9970114
  43.0602831  21.8155725 101.1730718  35.4367948  31.3164243 105.7279021
  36.1495920  31.9511708 105.6554923  34.9457977  31.4128109 104.9119023
  37.1585475  25.2215496  97.2996313  36.2241754  25.3416958  97.1301017
  37.3362143  24.3187963  97.0356323  40.5458026  21.0632815  97.8346347
  41.0118478  21.8960807  97.7606650  40.9965527  20.5977797  98.5391606
  38.6134257  27.4076636  94.8332499  38.8894101  27.2933231  95.7426373
  37.7438756  27.0094121  94.7944672  35.2488321  31.6562987  98.4765313
  35.4310716  30.8384643  98.9393065  36.0721307  31.8730680  98.0390203
  35.5830487  30.5831172  95.7380361  36.1118253  30.0723627  95.1250523
  35.8458706  30.2673703  96.6025894  28.9386235  31.6346289  98.4978137
  28.2696610  32.1192417  98.0142177  28.7999105  31.8815510  99.4121516
  33.0791503  33.6690033 105.0960796  33.6309811  33.8321654 105.8609881
  33.4197697  34.2594470 104.4240820  24.3073812  19.8964744  95.2774069
  24.6027253  18.9875423  95.2241123  23.4061848  19.8752484  94.9555072
  36.2159891  31.6172008 102.0824478  36.0911030  30.8161748 101.5735423
  36.8738982  32.1118202 101.5938448  38.2794799  29.4181028 103.7104028
  37.3325135  29.2986379 103.6382355  38.6277572  28.5303526 103.7930289
  35.2841232  29.2133744  99.9108380  35.1366195  28.2850452 100.0915950
  36.1094726  29.2353835  99.4265455  29.1503477  17.8651812  95.7688872
  29.4899549  18.3937733  95.0467481  29.5975597  18.2032218  96.5447439
  38.8875354  30.0362303 100.9973253  39.8121902  29.8305165 100.8597704
  38.7190658  29.7878704 101.9062594  31.1371624  16.3626433  93.9682165
  31.8579986  16.7407686  93.4645882  30.5136928  17.0815310  94.0717143
  35.2802747  17.0671582  94.9040497  35.4966361  17.9496220  94.6029325
  34.7996814  16.6757796  94.1746139  38.6770670  30.5547971  96.3535344
  38.8507548  29.9894393  95.6009197  39.1699562  31.3548866  96.1714834
  44.5310062  23.3184394  97.9725644  44.9741208  22.5691719  97.5744767
  43.6536572  23.3094530  97.5899376  39.6645843  29.8714735  93.4532243
  40.3596748  30.4921428  93.6719557  40.0068993  29.0210086  93.7284620
  41.5637266  27.3214441  94.9819573  42.0888590  27.6601713  94.2568893
  41.4759619  26.3861456  94.7982708  33.2477927  33.3886424  99.3414827
  32.8082917  32.8962803 100.0347683  33.9986044  32.8459392  99.1006902
  25.7270266  29.5797965  99.3439455  26.5528286  29.2801737  98.9638098
  25.3764318  28.8105587  99.7929243  30.6951799  28.9324433 101.4137128
  30.0731808  28.2695138 101.1139356  31.3656666  28.9585565 100.7310776
  30.2565306  27.4828356  94.8895589  30.4053426  28.1663821  94.2362261
  31.0631749  27.4633446  95.4045044  44.0742926  24.7889632 100.3648092
  44.9089818  25.2279436 100.5285652  44.2102055  24.3128285  99.5456337
  28.0117939  23.5093534  95.8956658  27.7663981  22.6055864  96.0936868
  28.1813853  23.5110684  94.9536136  27.2813586  19.2421892  93.3942819
  26.5882831  19.3166247  92.7382855  27.0365338  18.4782235  93.9164336
  33.7560711  29.9776487  92.3607336  33.1834678  30.5966674  91.9077808
  34.3293505  30.5275848  92.8947258  36.9757971  30.2613637  93.4915918
  37.9088644  30.1959199  93.6948794  36.8881184  31.0969904  93.0330451
  39.6045988  29.5779507  90.4519866  39.5259619  29.2439371  91.3455624
  40.4255655  30.0701275  90.4511338  42.3024179  22.4441247 103.6596185
  42.2700499  21.5057247 103.8455868  42.9124803  22.5225283 102.9262009
  34.1407510  21.3137300  89.7023389  35.0866615  21.1843508  89.7711807
  33.7621755  20.5751961  90.1792817  48.1200729  23.5057253 102.8002221
  48.8504117  23.2442542 103.3609925  47.5107674  22.7685975 102.8404289
  46.2016026  21.6465116 103.3976673  45.4749190  21.5121081 102.7893164
  45.7863313  21.9541945 104.2033391  32.3250427  19.2387276  89.6378274
  31.4181882  18.9420389  89.7140987  32.6026408  18.9417094  88.7712560
  33.9412493  13.7824166  95.7922515  33.1313221  13.4371251  96.1677761
  34.6296910  13.4731709  96.3810127  31.0949212  16.0974211  89.7790253
  31.9568376  16.4229109  90.0386070  31.2799556  15.3105707  89.2663319
  39.2481848  14.9702738  96.9225476  38.6680517  15.6287542  96.5403528
  38.9817781  14.1480082  96.5112894  38.0306726  17.1302828  95.9781824
  37.1432581  17.4152479  95.7602019  38.4460715  16.9696591  95.1309101
  41.3821262  17.1549349  99.6936164  42.1581652  17.6445801  99.9660780
  40.6569396  17.5807403 100.1508033  43.8193821  17.8676968 100.7510104
  44.4138312  17.6272704 100.0403412  43.8920405  17.1484099 101.3783640
  26.0390977  31.7110579 101.0653269  25.9045445  30.9510980 100.4991267
  25.6223039  32.4351479 100.5982058  37.1749940  26.8947503  90.0729844
  37.8785790  27.0997505  90.6887500  36.4512588  27.4624265  90.3378928
  38.0047750  22.6457364  96.1932114  37.9482951  23.1025915  95.3539747
  38.5576092  21.8848049  96.0154957  41.8152556  18.4347096  97.0182234
  41.5589490  18.0343731  97.8490442  41.1905424  19.1490890  96.8932373
  46.1264894  21.1743169  99.5253525  45.5664452  21.2436358 100.2985087
  45.5208397  20.9984154  98.8053022  29.1960102  32.6079896 101.2771712
  29.0792487  33.5525329 101.1750402  28.3752549  32.3053458 101.6657511
  39.0836637  27.3330032  92.1228304  39.9182241  26.9011230  91.9405779
  38.9220980  27.1612046  93.0505199  38.7382529  23.8362145  93.4884644
  38.6831333  23.6706417  92.5473088  38.1128584  24.5438178  93.6446833
  32.0478655  13.3370254  93.0669962  32.0357324  14.2812094  93.2238233
  32.9402077  13.1540400  92.7729423  30.2214617  33.2608158 104.4927640
  31.1241863  33.2931768 104.8094135  29.9951987  32.3308609 104.5073976
  31.9768219  32.0139145 101.1537719  31.0263850  32.0141006 101.0402091
  32.2800705  31.2671879 100.6373753  47.7120912  37.8499683 102.2183481
  48.3499322  37.7306430 101.5146821  47.5941755  38.7980527 102.2771433
  44.5210618  37.8027111 102.1545006  44.1829130  37.6868176 101.2665541
  45.3900387  37.4018276 102.1346012  40.3797434  39.6562587  98.1441897
  39.8162299  39.5652524  97.3758185  40.2649829  38.8362492  98.6244389
  45.0030401  38.9561963 108.1131211  44.9919042  38.5614761 107.2411715
  45.1651041  38.2228035 108.7064983  37.9261866  41.1513779 100.9826117
  38.7183158  40.8104604 100.5672417  38.1658516  41.2608754 101.9028271
  45.9596993  43.3233555  93.4556362  45.3084973  43.9087636  93.0690375
  46.7541356  43.8539750  93.5151399  39.8852620  40.4122692  93.8543496
  40.6583496  39.8651679  93.7156372  40.2378019  41.2766942  94.0657957
  41.7237662  41.7399075 107.0610395  41.4327528  42.6444705 106.9457062
  42.3594647  41.7815602 107.7754465  42.6493869  39.1175923 103.6511755
  43.2457442  38.8931946 102.9368718  42.7068841  38.3760669 104.2537203
  42.2218898  36.5715358  91.4861946  42.4744418  36.0496880  90.7245409
  41.2843457  36.4081504  91.5888630  47.2662181  35.5751137  99.2936689
  48.0525270  35.1570560  98.9427106  47.5300885  36.4797229  99.4618338
  47.4372258  41.0123987  93.9925346  46.8018091  41.0858614  94.7046251
  47.1069664  41.6017586  93.3144425  52.6670608  35.5126370 100.1969668
  53.3995780  34.9425587 100.4307497  51.9109963  35.1247970 100.6376173
  41.9415186  38.4743464  93.6886321  41.8251445  37.7988368  94.3567405
  42.0517446  37.9875838  92.8718474  44.2846727  37.9353612  97.3933010
  43.9204935  37.4084232  98.1045932  45.1413843  37.5452081  97.2199496
  50.1896028  29.2247944 104.6564276  49.8579353  30.0943355 104.4325491
  49.5941641  28.9084228 105.3358307  43.9252214  32.9643511  92.3894359
  44.0926617  33.8323748  92.7564830  43.7349383  33.1270793  91.4655648
  46.6827548  41.4260490 104.0560189  46.3828271  42.3285529 103.9475996
  46.3378607  41.1592673 104.9081342  40.1340029  37.8774287 100.0896893
  39.2090526  37.7450501 100.2974585  40.3824442  38.6568506 100.5866836
  50.0824691  33.9443030 101.7357626  49.1741569  33.8758439 101.4416387
  50.0312287  34.4214975 102.5639452  43.9041435  35.4201169  93.3741025
  43.7841060  35.8658219  94.2126506  43.2094024  35.7686486  92.8154564
  37.4948840  37.5207560 100.9240683  37.6241221  37.7742039 101.8380094
  36.8146291  38.1135268 100.6045338  44.1565557  35.3632676 109.6792524
  43.3798891  35.9226596 109.6695388  44.7956120  35.8489459 110.2007394
  51.9486338  32.1459469 103.5135500  51.3060718  32.4392002 102.8675295
  51.4441266  32.0312389 104.3188697  49.6026501  35.8922642  94.2021360
  50.5144358  36.1250029  94.0269057  49.0936149  36.4759686  93.6396438
  42.4111929  38.1718129 109.2410491  43.1526614  38.7103173 108.9645314
  41.7048915  38.7984418 109.3982042  47.8867269  40.3147270 107.8382652
  48.2950625  39.8729680 107.0937284  47.1644531  39.7399897 108.0916845
  44.2398339  35.2519876 105.2116209  45.0859534  35.6759290 105.3550858
  44.1796977  34.5953501 105.9054772  48.2096084  40.8748460 101.5934941
  47.5804946  41.0394174 100.8911009  47.8221746  41.2890070 102.3645905
  52.0885316  41.8102898  98.9479305  51.4036354  42.1901800  98.3976338
  52.1729165  42.4198225  99.6811252  47.3897784  32.9124245 106.8697383
  47.1458716  33.6666305 106.3331658  47.6657715  33.2909592 107.7044630
  49.3436247  39.4562857 105.5474648  49.5553142  40.0994617 104.8709029
  49.2965995  38.6225174 105.0796578  46.9462476  32.0680678 102.4511220
  46.0846955  32.3661931 102.7427958  46.9724911  32.2851077 101.5192253
  43.7624046  40.6122868  98.8585026  44.2262391  40.8910571  98.0689649
  43.4980844  39.7106313  98.6758117  40.6548127  40.1594350 101.7964789
  41.2249484  40.5881618 101.1582274  41.2456239  39.8776935 102.4948975
  42.6992932  36.7346021  95.6674591  43.4016975  37.1867064  96.1348518
  42.3673560  36.0929840  96.2954484  41.1473293  35.3257777 110.0425801
  40.5171954  36.0074058 110.2761197  41.0409381  35.2140859 109.0978939
  36.4418266  34.9929573 100.9691725  35.6517320  35.2487102 100.4931835
  36.9329513  35.8077911 101.0743765  50.4582075  42.3334813 103.7197006
  51.2799519  41.9315000 103.4379687  50.4544478  42.2303047 104.6713121
  38.3933011  35.3574153  97.9275201  37.5964174  35.4692847  98.4458697
  38.1658603  35.6960805  97.0616092  44.2238679  41.8818856 105.8757716
  44.2883111  42.3439263 106.7115888  43.5149603  41.2516221 106.0040026
  34.7255969  35.2460064 103.4006716  34.9764007  36.1307074 103.6664292
  35.2615517  35.0664665 102.6281807  58.5488068  38.6773561 100.0681977
  57.7951777  38.1080959  99.9125982  58.6835609  38.6436226 101.0152612
  43.9386696  43.5486963  95.7436696  43.8032371  44.3938499  96.1721544
  44.4796509  43.7506241  94.9802630  37.3916094  41.0662401  96.3164622
  37.9040614  41.8605652  96.4670186  38.0438807  40.3688692  96.2498223
  39.2010978  44.1828158  98.3987375  39.3777607  45.1046122  98.2108359
  39.9967812  43.8686577  98.8281754  43.3421997  31.0436422 109.9971308
  44.0831710  31.6443575 109.9175771  43.5739920  30.3014060 109.4389351
  38.4863335  36.2292790 108.2749538  38.3716850  35.3278047 108.5756637
  37.6307853  36.4756486 107.9234354  45.5655173  44.1710530 109.8737039
  45.1219027  43.3846908 109.5557943  46.2272386  44.3589680 109.2080929
  40.3242294  45.7006332 104.3997717  40.8749719  45.5723395 103.6274711
  39.4853770  46.0001221 104.0492610  47.6636411  44.4513330 107.9018440
  47.6454886  45.2722211 107.4098709  48.5856331  44.3267405 108.1268581
  44.1209465  41.9657459 108.7441948  44.6537802  41.2045748 108.5141256
  43.5923546  41.6731111 109.4866103  47.2879160  27.0717525 104.2735590
  46.9443429  27.9619167 104.1974700  47.6558122  26.8819183 103.4105175
  35.3565010  39.3951056  97.0924192  36.1940232  39.8048064  96.8757900
  35.5343278  38.4550498  97.0624386  47.2529443  37.0626136  92.7808025
  46.7376066  37.8330741  93.0196412  46.9806751  36.3891273  93.4041086
  44.8376554  31.9075837  97.8393263  43.9818150  31.5182688  97.6598902
  45.2503505  31.9867798  96.9793049  46.3675700  29.4422180 102.2384823
  45.8640496  29.4052316 101.4252628  46.6606307  30.3514923 102.2981480
  42.6118586  29.5260910 101.2451005  43.4771583  29.3303719 100.8856894
  42.6796095  29.2971262 102.1720362  52.2263717  39.8158491  94.7161198
  51.4493159  39.4769651  94.2716361  52.9055198  39.8211114  94.0416164
  47.0415746  34.9353228  94.6067806  46.7365881  35.2499378  95.4577949
  47.9946188  35.0134648  94.6495139  45.4862178  41.0943452  96.2560760
  44.9583539  40.3596211  95.9433998  44.9849680  41.8718128  96.0100728
  50.4655024  39.2892472 101.3727806  49.8078698  39.9791734 101.4607935
  51.2695423  39.6788904 101.7161793  40.2180905  31.7563118  98.6167372
  40.7924657  31.5338300  97.8840565  40.8051888  31.8251813  99.3695973
  49.2760482  37.6436845  99.4231748  49.7892364  38.2766837  99.9253458
  49.9261706  37.0438040  99.0575108  40.5450492  33.7867579  92.6363257
  39.7087805  34.1242266  92.9572532  40.4055262  33.6516559  91.6990394
  42.5203573  28.6304367  97.3442441  41.8667985  28.3153384  96.7199056
  42.4784047  28.0080107  98.0702264  43.6314778  38.9123662  89.2595733
  42.7241840  38.6812916  89.4586882  44.1285810  38.1161281  89.4469715
  45.7541313  35.1186301 101.6690089  44.8363875  35.3401248 101.5111777
  46.1701457  35.1932611 100.8101796  46.5376361  36.5177716  96.7992769
  47.2848180  37.0299113  96.4899891  46.8067951  36.1961769  97.6597163
  44.8103011  39.0136257  93.7819723  43.9014230  38.7295290  93.8792193
  44.8398095  39.4335336  92.9223030  50.0422279  42.6242846  97.5510891
  49.5884606  41.7833756  97.6076081  49.4116245  43.2604245  97.8885671
  48.9855198  33.5534832  98.7811558  48.2477955  33.0412219  99.1121801
  49.2381972  33.1135214  97.9694835  48.4855218  44.4619343  98.4860709
  48.7778192  45.0224400  97.7673075  48.9953838  44.7547904  99.2413868
  49.0866826  26.3311084  99.3753328  49.3925702  25.4708448  99.0879243
  49.8119430  26.9228705  99.1752321  35.3791182  36.7341771  97.7634925
  35.1815581  36.1411132  97.0385992  34.8237846  36.4293981  98.4810864
  43.3587905  36.6264878  99.8829519  43.4136515  35.6738714  99.8071995
  42.5479107  36.7824317 100.3670817  44.5079099  40.5545001  91.1207802
  44.0698529  39.8380860  90.6613439  45.2489540  40.7821115  90.5592893
  41.2980265  35.2441937  97.6419898  40.4848131  35.5436108  98.0485090
  41.7939259  34.8497626  98.3594380  43.4488843  45.2399694  99.5754162
  43.4065022  45.4660541  98.6462694  44.3651542  45.0063069  99.7239963
  46.8954477  35.7083762 106.4734791  47.2503865  35.9355235 107.3329257
  47.5426608  36.0402139 105.8512047  52.6252214  38.8302198  97.1784120
  52.4870112  39.0203794  96.2505310  52.2688433  39.5921580  97.6352172
  40.7894340  32.8160293 103.2581132  41.4293719  32.6749052 102.5604096
  39.9571870  32.5294806 102.8819734  52.6521593  40.8978725 102.1895392
  53.0858100  40.8054014 103.0378446  53.3653174  40.8736225 101.5515408
  41.5654644  42.1162723  99.3716125  42.3595242  41.6213043  99.1698700
  40.8546336  41.5880586  99.0083830  46.3849488  44.4980819 103.7228493
  46.4386511  45.0671755 104.4906208  45.5164270  44.6682704 103.3582530
  37.8737407  36.2605805  95.4475878  36.9434995  36.1990260  95.6645840
  37.9694879  35.7381758  94.6512519  37.7922956  32.7860618  98.0354119
  38.0529774  33.7005951  97.9263280  38.6140129  32.3185060  98.1850732
  39.2647882  34.1998375 105.2052944  39.9370935  33.9915737 104.5565593
  38.4377668  34.0020461 104.7658176  53.5137143  40.9402425 104.7228277
  53.7073033  41.8448236 104.9687552  53.4137761  40.4809844 105.5566862
  45.1673454  30.8260316 107.2218605  44.5201369  31.5250266 107.1283081
  45.9374469  31.2596460 107.5894853  48.5752252  41.0909168 110.2969158
  48.4237758  40.8619720 109.3799242  48.5656931  42.0479769 110.3100503
  45.3437588  38.6641081 105.2815424  46.2729648  38.8152240 105.1084392
  44.9228618  38.7525102 104.4264071  44.1425920  42.6891745 103.0513962
  44.0037006  42.3210530 103.9239900  43.3540516  43.2039385 102.8797920
  45.6931135  42.0673348 100.4402800  45.3580968  42.0274118 101.3360450
  45.1935081  41.4018064  99.9673210  39.6675379  37.4740978 105.9655381
  39.5295177  36.7421217 106.5666920  40.5780302  37.3849878 105.6839569
  48.6290327  39.4129382  90.7139859  48.0119497  38.6876210  90.6172912
  48.1606815  40.1738743  90.3706934  42.2957680  37.1860937 105.4539061
  43.0057298  36.5454129 105.4125679  42.2526988  37.4373832 106.3765241
  50.2844458  44.1228291 108.3745640  50.2257004  43.4387511 107.7076223
  50.6863977  44.8647281 107.9226266  41.0086614  34.1726155 107.2734700
  40.4723971  33.7216894 107.9256296  40.4203322  34.3072064 106.5305164
  39.3035157  50.9390204 101.1679359  39.5431755  51.5708729 101.8458377
  38.4604354  50.5878244 101.4544718  40.4188873  33.6314807  89.8361164
  39.5418339  33.5103607  89.4723410  40.8946626  32.8400885  89.5840052
  50.2861866  42.0867875 106.6059619  49.3988644  41.7493796 106.7286018
  50.8560417  41.3550906 106.8428385  31.9391013  38.4191966  99.9302671
  32.6262053  38.1053696  99.3423686  31.7839141  39.3233331  99.6569922
  36.7425735  33.3082163 104.3587695  36.6583924  32.7007832 103.6238105
  35.9208441  33.7991181 104.3597191  43.8163019  46.7469327 103.5720863
  43.7433190  47.5524298 104.0840167  43.3740412  46.9461293 102.7468884
  46.9149449  31.7935726  99.7257890  47.4118148  31.0405689  99.4058960
  46.1436430  31.8300043  99.1601099  54.7679206  37.4976092 101.3676181
  54.7569082  38.3800807 100.9970114  53.8996586  37.1447643 101.1730718
  46.2761702  46.6456161 105.7279021  46.9889675  47.2803626 105.6554923
  45.7851731  46.7420027 104.9119023  47.9979229  40.5507414  97.2996313
  47.0635508  40.6708876  97.1301017  48.1755898  39.6479880  97.0356323
  43.4984417  33.9353109  99.4529574  43.1282205  33.3824150 100.1410480
  43.9943510  33.3311243  98.9004574  51.3851781  36.3924733  97.8346347
  51.8512233  37.2252724  97.7606650  51.8359281  35.9269714  98.5391606
  41.3273616  44.3950604 106.5484592  42.0283076  45.0287087 106.7013986
  40.8568731  44.7365336 105.7880231  49.4528012  42.7368554  94.8332499
  49.7287856  42.6225149  95.7426373  48.5832511  42.3386039  94.7944672
  49.3568443  28.7605320 101.8737248  48.4431523  28.9909547 102.0419455
  49.7861545  28.8443764 102.7251281  49.1274902  36.9495212 104.3737143
  48.4746352  37.1971119 103.7189595  49.5055282  36.1359350 104.0399620
  46.0882076  46.9854905  98.4765313  46.2704470  46.1676561  98.9393065
  46.9115062  47.2022597  98.0390203  46.4224241  45.9123090  95.7380361
  46.9512008  45.4015545  95.1250523  46.6852461  45.5965620  96.6025894
  45.1762475  37.6915023 110.8603180  44.5003112  37.5909152 111.5305555
  45.9990109  37.5354237 111.3239177  36.9241334  43.9286959 103.4815695
  37.5094771  43.1830647 103.6143599  36.7266173  44.2390916 104.3652359
  39.7779989  46.9638207  98.4978137  39.1090365  47.4484334  98.0142177
  39.6392859  47.2107427  99.4121516  31.5158989  36.4992560 102.2020138
  31.5543088  35.9656150 102.9957256  31.0099282  35.9727765 101.5831115
  43.9185258  48.9981950 105.0960796  44.4703566  49.1613572 105.8609881
  44.2591451  49.5886388 104.4240820  38.8949751  31.3457100 105.6982680
  38.9591078  32.2071931 105.2860078  38.8316871  30.7331102 104.9655039
  48.7696132  43.8243208 110.9509450  49.3136036  44.4373166 110.4564405
  48.1882977  44.3822786 111.4676463  35.1467566  35.2256662  95.2774069
  35.4421007  34.3167340  95.2241123  34.2455602  35.2044401  94.9555072
  47.0553645  46.9463926 102.0824478  46.9304785  46.1453666 101.5735423
  47.7132736  47.4410119 101.5938448  38.6761813  33.3012658 101.2601618
  37.9548399  33.9148626 101.1209091  39.4655069  33.8370423 101.1818264
  49.1188554  44.7472946 103.7104028  48.1718889  44.6278297 103.6382355
  49.4671327  43.8595444 103.7930289  41.4788127  30.6367085 107.5342270
  42.0022529  30.8829381 108.2968579  41.2600460  31.4687120 107.1145407
  36.8755408  32.9070759  95.4013395  36.5468114  32.0268138  95.2188500
  37.2294779  32.8518428  96.2889784  46.1234987  44.5425662  99.9108380
  45.9759949  43.6142370 100.0915950  46.9488480  44.5645753  99.4265455
  39.9897231  33.1943729  95.7688872  40.3293304  33.7229651  95.0467481
  40.4369352  33.5324135  96.5447439  49.7269109  45.3654221 100.9973253
  50.6515656  45.1597082 100.8597704  49.5584412  45.1170622 101.9062594
  42.6840672  31.5780780 105.2191940  42.3437492  30.7788593 105.6212620
  41.9779678  31.8782491 104.6468773  43.3357144  28.6630092 103.6719263
  44.1583213  28.1890571 103.5498154  43.5795207  29.4420576 104.1717950
  41.9765378  31.6918351  93.9682165  42.6973741  32.0699604  93.4645882
  41.3530682  32.4107228  94.0717143  46.1196501  32.3963500  94.9040497
  46.3360116  33.2788138  94.6029325  45.6390568  32.0049713  94.1746139
  40.8595723  35.3549213 101.4811242  40.7140303  35.6689516 102.3735523
  40.3820926  35.9734113 100.9282141  42.7192105  32.3451761 101.5292131
  42.7053674  31.4492854 101.1924429  43.4364534  32.3522425 102.1630418
  44.5718236  32.7789101 103.5745259  44.3136014  33.7006172 103.5729589
  44.0403277  32.3819536 104.2645723  49.5164425  45.8839888  96.3535344
  49.6901302  45.3186311  95.6009197  50.0093316  46.6840783  96.1714834
  35.3341385  37.8954557 104.4198903  34.7894853  38.6714365 104.5519177
  36.2120735  38.2425362 104.2618025  42.1229001  31.2266141  96.7979702
  42.2444913  30.2982787  96.9970589  41.8331044  31.2404827  95.8858017
  44.9920192  28.9121052  99.9346421  45.0141889  28.9760385  98.9798401
  45.4088251  28.0725560 100.1286928  55.3703816  38.6476311  97.9725644
  55.8134962  37.8983636  97.5744767  54.4930326  38.6386448  97.5899376
  50.5039597  45.2006653  93.4532243  51.1990502  45.8213345  93.6719557
  50.8462748  44.3502004  93.7284620  36.1207407  37.0224454 107.3129060
  35.3789143  37.1707089 107.8993690  35.8000151  37.2832719 106.4495809
  52.4031021  42.6506358  94.9819573  52.9282345  42.9893631  94.2568893
  52.3153373  41.7153374  94.7982708  44.0651069  46.5640432 107.1109450
  44.3738196  46.3189579 107.9832150  44.8626551  46.7687070 106.6228320
  44.0871681  48.7178342  99.3414827  43.6476672  48.2254720 100.0347683
  44.8379798  48.1751309  99.1006902  36.5664020  44.9089882  99.3439455
  37.3922040  44.6093654  98.9638098  36.2158072  44.1397505  99.7929243
  41.5345553  44.2616351 101.4137128  40.9125563  43.5987056 101.1139356
  42.2050420  44.2877483 100.7310776  34.7672625  42.8276209 100.3028388
  33.9304534  42.3998383 100.1212389  34.7396271  43.0208652 101.2399179
  52.0924927  43.2839262 110.2870771  51.3020470  43.2663401 109.7475271
  51.8558281  43.8227556 111.0419808  52.2122802  40.1331728 107.6003500
  52.2620807  39.9681736 108.5419023  52.1036725  39.2658987 107.2101381
  41.0959060  42.8120274  94.8895589  41.2447181  43.4955738  94.2362261
  41.9025504  42.7925364  95.4045044  49.5026564  36.1162656 108.9162807
  50.4036427  35.9769121 108.6246804  49.5774539  36.2817111 109.8560984
  43.8369369  33.4929511 107.7615993  42.9672679  33.7863077 107.4898581
  44.0728850  34.0769956 108.4823256  53.7140998  42.5528670 107.8445521
  53.4225807  42.9158650 108.6808982  53.1013130  41.8395678 107.6658853
  54.9136681  40.1181550 100.3648092  55.7483572  40.5571354 100.5285652
  55.0495810  39.6420203  99.5456337  51.9628187  37.6761284 106.3125579
  52.4382308  37.8688931 105.5044431  51.0393752  37.7320470 106.0668963
  38.8511693  38.8385452  95.8956658  38.6057735  37.9347782  96.0936868
  39.0207608  38.8402602  94.9536136  46.5408403  29.7109128 105.2781413
  47.0590347  30.4470155 104.9527902  46.1863536  30.0173121 106.1128172
  38.1207341  34.5713809  93.3942819  37.4276586  34.6458164  92.7382855
  37.8759093  33.8074153  93.9164336  46.7920997  26.1309411 100.7982310
  47.0722751  25.4632600 101.4242736  47.5771604  26.3238506 100.2856974
  50.6629856  34.5527045 104.5453885  51.6147279  34.6525142 104.5666109
  50.4933306  33.7605313 105.0551969  48.6844235  31.6382628 104.7313286
  48.0894167  31.9187640 104.0359775  48.3993932  32.1276529 105.5030027
  50.4439742  44.9071425  90.4519866  50.3653374  44.5731289  91.3455624
  51.2649409  45.3993193  90.4511338  53.1417933  37.7733164 103.6596185
  53.1094254  36.8349165 103.8455868  53.7518557  37.8517201 102.9262009
  44.9801264  36.6429217  89.7023389  45.9260369  36.5135425  89.7711807
  44.6015509  35.9043879  90.1792817  53.2912422  34.5644208 103.7054468
  52.7751471  33.7802664 103.5184397  54.1752370  34.2362924 103.8700987
  50.9523149  28.3085223  99.6650280  50.7547970  28.0000311 100.5493612
  51.5622854  29.0346862  99.7948210  58.9594483  38.8349171 102.8002221
  59.6897872  38.5734459 103.3609925  58.3501429  38.0977893 102.8404289
  57.0409780  36.9757034 103.3976673  56.3142944  36.8412999 102.7893164
  56.6257067  37.2833862 104.2033391  44.8639957  40.6946963 111.1624046
  45.7842966  40.8725562 111.3564092  44.8289540  39.7503009 111.0103745
  43.1644181  34.5679194  89.6378274  42.2575637  34.2712306  89.7140987
  43.4420162  34.2709012  88.7712560  34.0822122  35.8885557 100.0877320
  33.7624906  35.0350865  99.7951694  33.5355550  36.1034135 100.8435288
  37.8602029  38.6047998 103.8046827  38.0788039  39.5365106 103.8234861
  38.2727803  38.2455972 104.5901631  44.7806247  29.1116083  95.7922515
  43.9706976  28.7663168  96.1677761  45.4690664  28.8023627  96.3810127
  46.7096796  28.1894130  97.4146812  47.2627834  28.6089584  98.0736835
  46.9466882  27.2629878  97.4569768  41.9342966  31.4266129  89.7790253
  42.7962130  31.7521027  90.0386070  42.1193310  30.6397625  89.2663319
  33.9510382  39.5088468 102.0570442  33.2573853  39.0942421 101.5440396
  34.6983373  39.5509005 101.4603861  50.0875603  30.2994655  96.9225476
  49.5074272  30.9579459  96.5403528  49.8211535  29.4772000  96.5112894
  48.5379169  29.6999713  99.1246796  49.0378947  29.8116248  98.3161115
  49.1814777  29.3960766  99.7647605  42.5961165  37.6078343 112.0114637
  42.1128246  38.4078703 112.2178526  42.6822104  37.6186287 111.0582081
  35.8647124  39.4406722  99.9336457  35.8417813  39.5394410  98.9818340
  36.1747761  40.2871873 100.2553623  38.5234502  41.4982877 104.0483071
  39.4777756  41.4666820 103.9813003  38.3247026  41.0373501 104.8633297
  39.1133884  40.0683993 106.6153869  39.9326773  40.5628072 106.6388706
  39.3870692  39.1515961 106.5871436  48.8700481  32.4594746  95.9781824
  47.9826336  32.7444396  95.7602019  49.2854470  32.2988509  95.1309101
  52.2215017  32.4841267  99.6936164  52.9975407  32.9737719  99.9660780
  51.4963151  32.9099321 100.1508033  54.6587575  33.1968886 100.7510104
  55.2532066  32.9564622 100.0403412  54.7314159  32.4776016 101.3783640
  36.8784731  47.0402497 101.0653269  36.7439199  46.2802898 100.4991267
  36.4616793  47.7643397 100.5982058  48.0143694  42.2239420  90.0729844
  48.7179544  42.4289423  90.6887500  47.2906343  42.7916182  90.3378928
  48.8441504  37.9749282  96.1932114  48.7876706  38.4317833  95.3539747
  49.3969847  37.2139966  96.0154957  52.6546310  33.7639013  97.0182234
  52.3983244  33.3635649  97.8490442  52.0299178  34.4782807  96.8932373
  56.9658648  36.5035087  99.5253525  56.4058206  36.5728276 100.2985087
  56.3602151  36.3276071  98.8053022  40.0353857  47.9371814 101.2771712
  39.9186241  48.8817246 101.1750402  39.2146303  47.6345375 101.6657511
  49.9230391  42.6621950  92.1228304  50.7575995  42.2303148  91.9405779
  49.7614734  42.4903963  93.0505199  49.5776284  39.1654063  93.4884644
  49.5225087  38.9998334  92.5473088  48.9522339  39.8730096  93.6446833
  34.3668799  34.4022127 107.3146066  35.0127662  33.8921081 107.8033291
  34.1585950  35.1390809 107.8889491  46.8922191  41.4702975 112.8138206
  47.7613350  41.6443627 112.4524841  46.4128942  42.2897392 112.6913936
  42.8872409  28.6662172  93.0669962  42.8751079  29.6104012  93.2238233
  43.7795831  28.4832317  92.7729423  41.0608371  48.5900076 104.4927640
  41.9635618  48.6223686 104.8094135  40.8345741  47.6600527 104.5073976
  42.8161973  47.3431062 101.1537719  41.8657604  47.3432924 101.0402091
  43.1194459  46.5963797 100.6373753  46.7024529  25.2604948  97.3215899
  45.9356924  24.7063435  97.4672581  47.1135234  25.3326817  98.1830050
  58.5514667  53.1791601 102.2183481  59.1893077  53.0598348 101.5146821
  58.4335509  54.1272445 102.2771433  55.3604373  53.1319029 102.1545006
  55.0222884  53.0160093 101.2665541  56.2294141  52.7310194 102.1346012
  55.8424156  54.2853880 108.1131211  55.8312797  53.8906679 107.2411715
  56.0044795  53.5519953 108.7064983  56.7990747  58.6525473  93.4556362
  56.1478727  59.2379553  93.0690375  57.5935110  59.1831668  93.5151399
  52.5631417  57.0690992 107.0610395  52.2721283  57.9736623 106.9457062
  53.1988401  57.1107520 107.7754465  53.4887624  54.4467841 103.6511755
  54.0851196  54.2223863 102.9368718  53.5462595  53.7052586 104.2537203
  53.0612652  51.9007276  91.4861946  53.3138173  51.3788797  90.7245409
  52.1237211  51.7373422  91.5888630  58.1055935  50.9043054  99.2936689
  58.8919024  50.4862478  98.9427106  58.3694639  51.8089147  99.4618338
  58.2766012  56.3415905  93.9925346  57.6411845  56.4150531  94.7046251
  57.9463419  56.9309504  93.3144425  63.5064362  50.8418288 100.1969668
  64.2389534  50.2717504 100.4307497  62.7503718  50.4539888 100.6376173
  52.7808941  53.8035382  93.6886321  52.6645199  53.1280285  94.3567405
  52.8911201  53.3167756  92.8718474  55.1240482  53.2645529  97.3933010
  54.7598689  52.7376150  98.1045932  55.9807598  52.8743998  97.2199496
  61.0289783  44.5539862 104.6564276  60.6973107  45.4235273 104.4325491
  60.4335396  44.2376146 105.3358307  54.7645969  48.2935429  92.3894359
  54.9320371  49.1615665  92.7564830  54.5743138  48.4562711  91.4655648
  57.5221302  56.7552408 104.0560189  57.2222025  57.6577447 103.9475996
  57.1772362  56.4884591 104.9081342  50.9733784  53.2066205 100.0896893
  50.0484280  53.0742419 100.2974585  51.2218197  53.9860424 100.5866836
  60.9218446  49.2734948 101.7357626  60.0135323  49.2050356 101.4416387
  60.8706042  49.7506893 102.5639452  54.7435190  50.7493086  93.3741025
  54.6234815  51.1950137  94.2126506  54.0487778  51.0978404  92.8154564
  52.5042082  63.5196728  97.0231157  52.4266112  64.4704553  97.1019637
  51.9003725  63.1742601  97.6806083  54.9959312  50.6924594 109.6792524
  54.2192646  51.2518514 109.6695388  55.6349875  51.1781377 110.2007394
  62.7880092  47.4751386 103.5135500  62.1454473  47.7683920 102.8675295
  62.2835021  47.3604307 104.3188697  60.4420256  51.2214560  94.2021360
  61.3538112  51.4541946  94.0269057  59.9329903  51.8051604  93.6396438
  53.2505684  53.5010047 109.2410491  53.9920368  54.0395091 108.9645314
  52.5442669  54.1276336 109.3982042  58.7261024  55.6439187 107.8382652
  59.1344380  55.2021598 107.0937284  58.0038285  55.0691815 108.0916845
  55.0792094  50.5811794 105.2116209  55.9253289  51.0051208 105.3550858
  55.0190731  49.9245418 105.9054772  59.0489838  56.2040378 101.5934941
  58.4198701  56.3686092 100.8911009  58.6615500  56.6181988 102.3645905
  62.9279070  57.1394816  98.9479305  62.2430108  57.5193717  98.3976338
  63.0122919  57.7490143  99.6811252  58.2291539  48.2416163 106.8697383
  57.9852471  48.9958223 106.3331658  58.5051469  48.6201510 107.7044630
  60.1830002  54.7854775 105.5474648  60.3946897  55.4286535 104.8709029
  60.1359750  53.9517091 105.0796578  57.7856231  47.3972596 102.4511220
  56.9240710  47.6953849 102.7427958  57.8118665  47.6142994 101.5192253
  54.6017800  55.9414786  98.8585026  55.0656146  56.2202489  98.0689649
  54.3374598  55.0398231  98.6758117  51.4941881  55.4886268 101.7964789
  52.0643238  55.9173536 101.1582274  52.0849993  55.2068852 102.4948975
  53.5386686  52.0637938  95.6674591  54.2410730  52.5158982  96.1348518
  53.2067315  51.4221757  96.2954484  51.9867048  50.6549695 110.0425801
  51.3565708  51.3365976 110.2761197  51.8803136  50.5432777 109.0978939
  61.2975830  57.6626730 103.7197006  62.1193273  57.2606918 103.4379687
  61.2938233  57.5594964 104.6713121  55.0632433  57.2110774 105.8757716
  55.1276866  57.6731181 106.7115888  54.3543357  56.5808139 106.0040026
  69.3881823  54.0065479 100.0681977  68.6345531  53.4372877  99.9125982
  69.5229364  53.9728143 101.0152612  54.7780451  58.8778881  95.7436696
  54.6426126  59.7230417  96.1721544  55.3190263  59.0798159  94.9802630
  51.2647790  44.9570461 112.4051052  50.8714736  44.4036659 113.0798696
  52.0813931  45.2681039 112.7957569  54.1815751  46.3728340 109.9971308
  54.9225465  46.9735493 109.9175771  54.4133674  45.6305978 109.4389351
  49.3257089  51.5584707 108.2749538  49.2110605  50.6569965 108.5756637
  48.4701607  51.8048404 107.9234354  56.4048927  59.5002448 109.8737039
  55.9612781  58.7138826 109.5557943  57.0666141  59.6881598 109.2080929
  58.5030165  59.7805248 107.9018440  58.4848641  60.6014129 107.4098709
  59.4250085  59.6559323 108.1268581  54.9603219  57.2949377 108.7441948
  55.4931556  56.5337665 108.5141256  54.4317300  57.0023029 109.4866103
  58.1272914  42.4009443 104.2735590  57.7837184  43.2911085 104.1974700
  58.4951877  42.2111101 103.4105175  58.0923197  52.3918054  92.7808025
  57.5769821  53.1622659  93.0196412  57.8200506  51.7183190  93.4041086
  55.6770308  47.2367755  97.8393263  54.8211904  46.8474605  97.6598902
  56.0897260  47.3159716  96.9793049  57.2069455  44.7714098 102.2384823
  56.7034250  44.7344233 101.4252628  57.5000062  45.6806841 102.2981480
  53.4512341  44.8552828 101.2451005  54.3165337  44.6595637 100.8856894
  53.5189850  44.6263180 102.1720362  63.0657471  55.1450409  94.7161198
  62.2886914  54.8061568  94.2716361  63.7448952  55.1503032  94.0416164
  57.8809500  50.2645146  94.6067806  57.5759636  50.5791295  95.4577949
  58.8339942  50.3426566  94.6495139  56.3255932  56.4235369  96.2560760
  55.7977294  55.6888129  95.9433998  55.8243435  57.2010046  96.0100728
  61.3048778  54.6184390 101.3727806  60.6472453  55.3083651 101.4607935
  62.1089177  55.0080822 101.7161793  51.0574660  47.0855036  98.6167372
  51.6318412  46.8630217  97.8840565  51.6445642  47.1543730  99.3695973
  60.1154237  52.9728763  99.4231748  60.6286119  53.6058754  99.9253458
  60.7655461  52.3729958  99.0575108  51.3844247  49.1159497  92.6363257
  50.5481559  49.4534183  92.9572532  51.2449016  48.9808477  91.6990394
  53.3597327  43.9596285  97.3442441  52.7061740  43.6445302  96.7199056
  53.3177802  43.3372025  98.0702264  54.4708532  54.2415580  89.2595733
  53.5635594  54.0104833  89.4586882  54.9679564  53.4453199  89.4469715
  57.3776611  62.9513087  92.1792419  56.7038310  63.2544784  92.7877377
  57.7642433  63.7542167  91.8297876  56.5935068  50.4478218 101.6690089
  55.6757629  50.6693165 101.5111777  57.0095211  50.5224529 100.8101796
  57.3770116  51.8469634  96.7992769  58.1241934  52.3591031  96.4899891
  57.6461705  51.5253687  97.6597163  55.6496766  54.3428175  93.7819723
  54.7407985  54.0587207  93.8792193  55.6791850  54.7627253  92.9223030
  60.8816033  57.9534764  97.5510891  60.4278360  57.1125674  97.6076081
  60.2510000  58.5896162  97.8885671  59.8248953  48.8826750  98.7811558
  59.0871709  48.3704136  99.1121801  60.0775726  48.4427132  97.9694835
  59.3248972  59.7911261  98.4860709  59.6171947  60.3516318  97.7673075
  59.8347593  60.0839822  99.2413868  59.9260580  41.6603002  99.3753328
  60.2319457  40.8000366  99.0879243  60.6513185  42.2520622  99.1752321
  54.1981660  51.9556795  99.8829519  54.2530270  51.0030632  99.8071995
  53.3872862  52.1116234 100.3670817  55.3472854  55.8836918  91.1207802
  54.9092283  55.1672777  90.6613439  56.0883294  56.1113033  90.5592893
  52.1374020  50.5733855  97.6419898  51.3241885  50.8728026  98.0485090
  52.6333014  50.1789544  98.3594380  54.2882598  60.5691612  99.5754162
  54.2458776  60.7952458  98.6462694  55.2045296  60.3354986  99.7239963
  57.7348231  51.0375679 106.4734791  58.0897619  51.2647153 107.3329257
  58.3820363  51.3694056 105.8512047  63.4645968  54.1594115  97.1784120
  63.3263867  54.3495711  96.2505310  63.1082187  54.9213498  97.6352172
  51.6288094  48.1452210 103.2581132  52.2687474  48.0040970 102.5604096
  50.7965625  47.8586724 102.8819734  63.4915348  56.2270642 102.1895392
  63.9251855  56.1345931 103.0378446  64.2046929  56.2028143 101.5515408
  52.4048398  57.4454641  99.3716125  53.1988997  56.9504961  99.1698700
  51.6940091  56.9172504  99.0083830  57.2243243  59.8272736 103.7228493
  57.2780265  60.3963673 104.4906208  56.3558024  59.9974621 103.3582530
  48.6316711  48.1152535  98.0354119  48.8923528  49.0297869  97.9263280
  49.4533883  47.6476978  98.1850732  50.1041636  49.5290293 105.2052944
  50.7764690  49.3207655 104.5565593  49.2771423  49.3312379 104.7658176
  64.3530897  56.2694343 104.7228277  64.5466788  57.1740153 104.9687552
  64.2531516  55.8101762 105.5566862  56.0067208  46.1552234 107.2218605
  55.3595123  46.8542183 107.1283081  56.7768224  46.5888377 107.5894853
  59.4146006  56.4201086 110.2969158  59.2631513  56.1911637 109.3799242
  59.4050686  57.3771687 110.3100503  56.1831343  53.9932998 105.2815424
  57.1123403  54.1444158 105.1084392  55.7622373  54.0817019 104.4264071
  54.9819674  58.0183663 103.0513962  54.8430760  57.6502447 103.9239900
  54.1934271  58.5331302 102.8797920  55.5767826  63.1192759  94.3939499
  55.7519582  62.6480803  95.2085121  54.8900614  63.7458526  94.6220759
  56.5324889  57.3965266 100.4402800  56.1974722  57.3566036 101.3360450
  56.0328835  56.7309982  99.9673210  50.5069133  52.8032896 105.9655381
  50.3688931  52.0713134 106.5666920  51.4174057  52.7141796 105.6839569
  59.4684081  54.7421300  90.7139859  58.8513252  54.0168128  90.6172912
  59.0000570  55.5030660  90.3706934  53.1351434  52.5152855 105.4539061
  53.8451053  51.8746047 105.4125679  53.0920742  52.7665750 106.3765241
  61.1238213  59.4520208 108.3745640  61.0650759  58.7679428 107.7076223
  61.5257731  60.1939198 107.9226266  51.8480368  49.5018073 107.2734700
  51.3117725  49.0508811 107.9256296  51.2597077  49.6363982 106.5305164
  50.1428912  66.2682122 101.1679359  50.3825510  66.9000646 101.8458377
  49.2998108  65.9170162 101.4544718  51.2582627  48.9606724  89.8361164
  50.3812093  48.8395525  89.4723410  51.7340380  48.1692803  89.5840052
  61.1255620  57.4159792 106.6059619  60.2382399  57.0785714 106.7286018
  61.6954171  56.6842823 106.8428385  47.5819489  48.6374081 104.3587695
  47.4977678  48.0299750 103.6238105  46.7602196  49.1283099 104.3597191
  54.6556773  62.0761245 103.5720863  54.5826945  62.8816216 104.0840167
  54.2134167  62.2753210 102.7468884  54.4446553  61.3133015  97.0823684
  53.6614075  61.8554695  97.1761909  55.1439298  61.8306994  97.4817925
  57.7543203  47.1227644  99.7257890  58.2511903  46.3697606  99.4058960
  56.9830185  47.1591961  99.1601099  65.6072961  52.8268010 101.3676181
  65.5962837  53.7092725 100.9970114  64.7390340  52.4739560 101.1730718
  57.1155457  61.9748079 105.7279021  57.8283429  62.6095543 105.6554923
  56.6245486  62.0711945 104.9119023  58.8372984  55.8799331  97.2996313
  57.9029263  56.0000794  97.1301017  59.0149652  54.9771798  97.0356323
  54.3378172  49.2645027  99.4529574  53.9675959  48.7116067 100.1410480
  54.8337264  48.6603161  98.9004574  62.2245535  51.7216651  97.8346347
  62.6905987  52.5544642  97.7606650  62.6753036  51.2561632  98.5391606
  60.2921766  58.0660472  94.8332499  60.5681610  57.9517066  95.7426373
  59.4226265  57.6677957  94.7944672  60.1962198  44.0897238 101.8737248
  59.2825278  44.3201464 102.0419455  60.6255299  44.1735682 102.7251281
  59.9668656  52.2787130 104.3737143  59.3140107  52.5263037 103.7189595
  60.3449036  51.4651268 104.0399620  56.9275830  62.3146823  98.4765313
  57.1098225  61.4968479  98.9393065  57.7508816  62.5314515  98.0390203
  57.2617996  61.2415008  95.7380361  57.7905762  60.7307462  95.1250523
  57.5246215  60.9257538  96.6025894  56.0156229  53.0206941 110.8603180
  55.3396867  52.9201070 111.5305555  56.8383863  52.8646154 111.3239177
  54.7579012  64.3273868 105.0960796  55.3097320  64.4905490 105.8609881
  55.0985206  64.9178306 104.4240820  49.7343506  46.6749018 105.6982680
  49.7984832  47.5363849 105.2860078  49.6710626  46.0623019 104.9655039
  49.2095778  48.7472150 109.3455715  49.8367817  48.3649228 109.9593239
  48.3523697  48.5286352 109.7111407  59.6089887  59.1535126 110.9509450
  60.1529791  59.7665084 110.4564405  59.0276732  59.7114704 111.4676463
  57.8947400  62.2755844 102.0824478  57.7698539  61.4745583 101.5735423
  58.5526491  62.7702037 101.5938448  49.5155568  48.6304576 101.2601618
  48.7942154  49.2440544 101.1209091  50.3048824  49.1662341 101.1818264
  59.9582308  60.0764864 103.7104028  59.0112644  59.9570215 103.6382355
  60.3065081  59.1887362 103.7930289  52.3181881  45.9659003 107.5342270
  52.8416283  46.2121299 108.2968579  52.0994215  46.7979037 107.1145407
  47.7149162  48.2362677  95.4013395  47.3861869  47.3560056  95.2188500
  48.0688533  48.1810346  96.2889784  56.9628741  59.8717580  99.9108380
  56.8153704  58.9434287 100.0915950  57.7882235  59.8937671  99.4265455
  50.8290986  48.5235647  95.7688872  51.1687058  49.0521568  95.0467481
  51.2763106  48.8616053  96.5447439  60.5662863  60.6946139 100.9973253
  61.4909411  60.4889000 100.8597704  60.3978167  60.4462540 101.9062594
  53.5234426  46.9072698 105.2191940  53.1831247  46.1080511 105.6212620
  52.8173433  47.2074408 104.6468773  54.1750898  43.9922010 103.6719263
  54.9976968  43.5182488 103.5498154  54.4188962  44.7712494 104.1717950
  52.8159133  47.0210269  93.9682165  53.5367495  47.3991521  93.4645882
  52.1924437  47.7399145  94.0717143  56.9590256  47.7255417  94.9040497
  57.1753870  48.6080055  94.6029325  56.4784323  47.3341631  94.1746139
  51.6989477  50.6841131 101.4811242  51.5534058  50.9981434 102.3735523
  51.2214681  51.3026031 100.9282141  53.5585860  47.6743679 101.5292131
  53.5447429  46.7784772 101.1924429  54.2758288  47.6814342 102.1630418
  55.4111991  48.1081019 103.5745259  55.1529768  49.0298090 103.5729589
  54.8797031  47.7111453 104.2645723  60.3558179  61.2131806  96.3535344
  60.5295057  60.6478229  95.6009197  60.8487071  62.0132701  96.1714834
  52.9622756  46.5558059  96.7979702  53.0838667  45.6274705  96.9970589
  52.6724798  46.5696745  95.8858017  55.8313946  44.2412969  99.9346421
  55.8535643  44.3052303  98.9798401  56.2482005  43.4017478 100.1286928
  66.2097571  53.9768229  97.9725644  66.6528717  53.2275554  97.5744767
  65.3324081  53.9678365  97.5899376  61.3433352  60.5298570  93.4532243
  62.0384256  61.1505263  93.6719557  61.6856502  59.6793922  93.7284620
  46.9601161  52.3516371 107.3129060  46.2182897  52.4999007 107.8993690
  46.6393905  52.6124637 106.4495809  63.2424775  57.9798276  94.9819573
  63.7676099  58.3185549  94.2568893  63.1547128  57.0445291  94.7982708
  54.9044824  61.8932350 107.1109450  55.2131950  61.6481496 107.9832150
  55.7020306  62.0978988 106.6228320  54.9265436  64.0470259  99.3414827
  54.4870426  63.5546638 100.0347683  55.6773553  63.5043227  99.1006902
  52.4463835  48.0690056 111.0069634  52.4951991  48.9452179 110.6247404
  52.9886350  47.5267449 110.4341277  62.9318681  58.6131180 110.2870771
  62.1414225  58.5955318 109.7475271  62.6952036  59.1519473 111.0419808
  63.0516556  55.4623646 107.6003500  63.1014561  55.2973653 108.5419023
  62.9430479  54.5950905 107.2101381  51.9352815  58.1412192  94.8895589
  52.0840935  58.8247656  94.2362261  52.7419258  58.1217282  95.4045044
  60.3420319  51.4454574 108.9162807  61.2430181  51.3061039 108.6246804
  60.4168293  51.6109029 109.8560984  54.6763124  48.8221429 107.7615993
  53.8066433  49.1154995 107.4898581  54.9122604  49.4061874 108.4823256
  64.5534753  57.8820587 107.8445521  64.2619561  58.2450568 108.6808982
  63.9406884  57.1687596 107.6658853  65.7530435  55.4473467 100.3648092
  66.5877327  55.8863271 100.5285652  65.8889564  54.9712120  99.5456337
  62.8021941  53.0053202 106.3125579  63.2776063  53.1980848 105.5044431
  61.8787507  53.0612388 106.0668963  57.3802158  45.0401046 105.2781413
  57.8984102  45.7762073 104.9527902  57.0257290  45.3465039 106.1128172
  48.9601095  49.9005727  93.3942819  48.2670340  49.9750082  92.7382855
  48.7152847  49.1366071  93.9164336  57.6314752  41.4601328 100.7982310
  57.9116506  40.7924517 101.4242736  58.4165359  41.6530424 100.2856974
  55.4348220  60.6360322  92.3607336  54.8622187  61.2550509  91.9077808
  56.0081014  61.1859684  92.8947258  61.5023610  49.8818962 104.5453885
  62.4541033  49.9817060 104.5666109  61.3327061  49.0897231 105.0551969
  59.5237990  46.9674545 104.7313286  58.9287922  47.2479558 104.0359775
  59.2387686  47.4568446 105.5030027  58.6545480  60.9197472  93.4915918
  59.5876153  60.8543034  93.6948794  58.5668693  61.7553739  93.0330451
  61.2833497  60.2363343  90.4519866  61.2047128  59.9023206  91.3455624
  62.1043164  60.7285111  90.4511338  63.9811688  53.1025082 103.6596185
  63.9488008  52.1641083 103.8455868  64.5912312  53.1809119 102.9262009
  55.8195019  51.9721135  89.7023389  56.7654124  51.8427343  89.7711807
  55.4409264  51.2335797  90.1792817  64.1306176  49.8936125 103.7054468
  63.6145225  49.1094582 103.5184397  65.0146125  49.5654842 103.8700987
  61.7916903  43.6377141  99.6650280  61.5941725  43.3292229 100.5493612
  62.4016609  44.3638780  99.7948210  69.7988238  54.1641089 102.8002221
  70.5291626  53.9026377 103.3609925  69.1895183  53.4269811 102.8404289
  67.8803535  52.3048951 103.3976673  67.1536699  52.1704916 102.7893164
  67.4650822  52.6125780 104.2033391  55.7033711  56.0238881 111.1624046
  56.6236721  56.2017480 111.3564092  55.6683294  55.0794926 111.0103745
  54.0037936  49.8971111  89.6378274  53.0969391  49.6004224  89.7140987
  54.2813917  49.6000929  88.7712560  55.6200002  44.4408001  95.7922515
  54.8100730  44.0955086  96.1677761  56.3084419  44.1315545  96.3810127
  57.5490550  43.5186048  97.4146812  58.1021589  43.9381501  98.0736835
  57.7860636  42.5921796  97.4569768  53.5723649  49.5073121 113.1949576
  53.4720376  50.4567478 113.1261667  53.3545191  49.1791360 112.3225646
  52.7736721  46.7558046  89.7790253  53.6355885  47.0812945  90.0386070
  52.9587065  45.9689542  89.2663319  60.9269357  45.6286573  96.9225476
  60.3468026  46.2871377  96.5403528  60.6605290  44.8063918  96.5112894
  59.3772923  45.0291631  99.1246796  59.8772702  45.1408165  98.3161115
  60.0208531  44.7252683  99.7647605  53.4354919  52.9370260 112.0114637
  52.9522001  53.7370620 112.2178526  53.5215858  52.9478205 111.0582081
  49.3628257  56.8274795 104.0483071  50.3171510  56.7958737 103.9813003
  49.1640780  56.3665419 104.8633297  49.9527639  55.3975911 106.6153869
  50.7720528  55.8919990 106.6388706  50.2264447  54.4807879 106.5871436
  59.7094235  47.7886663  95.9781824  58.8220090  48.0736314  95.7602019
  60.1248224  47.6280427  95.1309101  63.0608771  47.8133184  99.6936164
  63.8369161  48.3029637  99.9660780  62.3356905  48.2391238 100.1508033
  65.4981330  48.5260804 100.7510104  66.0925821  48.2856539 100.0403412
  65.5707914  47.8067934 101.3783640  58.8537449  57.5531338  90.0729844
  59.5573299  57.7581340  90.6887500  58.1300097  58.1208100  90.3378928
  59.6835259  53.3041199  96.1932114  59.6270460  53.7609751  95.3539747
  60.2363601  52.5431884  96.0154957  63.4940065  49.0930931  97.0182234
  63.2376999  48.6927567  97.8490442  62.8692933  49.8074725  96.8932373
  67.8052403  51.8327004  99.5253525  67.2451961  51.9020194 100.2985087
  67.1995906  51.6567989  98.8053022  60.7624146  57.9913867  92.1228304
  61.5969750  57.5595066  91.9405779  60.6008489  57.8195881  93.0505199
  60.4170038  54.4945981  93.4884644  60.3618842  54.3290252  92.5473088
  59.7916093  55.2022013  93.6446833  45.2062553  49.7314045 107.3146066
  45.8521417  49.2212999 107.8033291  44.9979704  50.4682727 107.8889491
  57.7315945  56.7994892 112.8138206  58.6007105  56.9735545 112.4524841
  57.2522697  57.6189309 112.6913936  53.7266164  43.9954090  93.0669962
  53.7144833  44.9395929  93.2238233  54.6189585  43.8124235  92.7729423
  57.5418283  40.5896866  97.3215899  56.7750679  40.0355353  97.4672581
  57.9528988  40.6618735  98.1830050  49.5460044  46.8781662 111.4121080
  50.4091506  46.5218467 111.6224405  48.9725455  46.5395557 112.0996484
  69.3908421  68.5083518 102.2183481  70.0286831  68.3890266 101.5146821
  69.2729264  69.4564362 102.2771433  66.1998127  68.4610946 102.1545006
  65.8616639  68.3452011 101.2665541  67.0687896  68.0602112 102.1346012
  62.0584943  70.3146423  98.1441897  61.4949808  70.2236360  97.3758185
  61.9437338  69.4946327  98.6244389  66.6817910  69.6145798 108.1131211
  66.6706551  69.2198596 107.2411715  66.8438550  68.8811871 108.7064983
  59.6049375  71.8097614 100.9826117  60.3970667  71.4688439 100.5672417
  59.8446025  71.9192589 101.9028271  67.6384502  73.9817391  93.4556362
  66.9872482  74.5671471  93.0690375  68.4328865  74.5123585  93.5151399
  61.5640129  71.0706528  93.8543496  62.3371005  70.5235515  93.7156372
  61.9165528  71.9350777  94.0657957  63.4025171  72.3982910 107.0610395
  63.1115037  73.3028541 106.9457062  64.0382156  72.4399438 107.7754465
  64.3281378  69.7759758 103.6511755  64.9244951  69.5515781 102.9368718
  64.3856350  69.0344504 104.2537203  63.9006407  67.2299194  91.4861946
  64.1531927  66.7080715  90.7245409  62.9630966  67.0665339  91.5888630
  68.9449690  66.2334972  99.2936689  69.7312779  65.8154395  98.9427106
  69.2088394  67.1381064  99.4618338  69.1159767  71.6707822  93.9925346
  68.4805600  71.7442449  94.7046251  68.7857173  72.2601421  93.3144425
  74.3458117  66.1710205 100.1969668  75.0783289  65.6009422 100.4307497
  73.5897472  65.7831806 100.6376173  63.6202695  69.1327300  93.6886321
  63.5038954  68.4572203  94.3567405  63.7304955  68.6459674  92.8718474
  65.9634236  68.5937447  97.3933010  65.5992444  68.0668068  98.1045932
  66.8201352  68.2035916  97.2199496  71.8683537  59.8831779 104.6564276
  71.5366862  60.7527190 104.4325491  71.2729150  59.5668063 105.3358307
  65.6039723  63.6227347  92.3894359  65.7714126  64.4907583  92.7564830
  65.4136892  63.7854628  91.4655648  68.3615057  72.0844325 104.0560189
  68.0615780  72.9869364 103.9475996  68.0166116  71.8176509 104.9081342
  61.8127538  68.5358122 100.0896893  60.8878035  68.4034336 100.2974585
  62.0611951  69.3152342 100.5866836  71.7612200  64.6026866 101.7357626
  70.8529078  64.5342274 101.4416387  71.7099796  65.0798811 102.5639452
  65.5828944  66.0785004  93.3741025  65.4628569  66.5242055  94.2126506
  64.8881533  66.4270322  92.8154564  59.1736349  68.1791396 100.9240683
  59.3028730  68.4325875 101.8380094  58.4933800  68.7719104 100.6045338
  63.3435836  78.8488646  97.0231157  63.2659866  79.7996471  97.1019637
  62.7397480  78.5034518  97.6806083  65.8353066  66.0216511 109.6792524
  65.0586400  66.5810431 109.6695388  66.4743629  66.5073294 110.2007394
  73.6273847  62.8043304 103.5135500  72.9848227  63.0975837 102.8675295
  73.1228775  62.6896224 104.3188697  71.2814010  66.5506477  94.2021360
  72.1931867  66.7833864  94.0269057  70.7723657  67.1343521  93.6396438
  64.0899438  68.8301965 109.2410491  64.8314123  69.3687009 108.9645314
  63.3836424  69.4568253 109.3982042  69.5654778  70.9731105 107.8382652
  69.9738134  70.5313516 107.0937284  68.8432040  70.3983733 108.0916845
  65.9185848  65.9103712 105.2116209  66.7647043  66.3343125 105.3550858
  65.8584486  65.2537336 105.9054772  69.8883593  71.5332296 101.5934941
  69.2592455  71.6978010 100.8911009  69.5009255  71.9473905 102.3645905
  73.7672825  72.4686734  98.9479305  73.0823863  72.8485635  98.3976338
  73.8516674  73.0782060  99.6811252  69.0685293  63.5708080 106.8697383
  68.8246225  64.3250141 106.3331658  69.3445224  63.9493428 107.7044630
  71.0223756  70.1146693 105.5474648  71.2340651  70.7578452 104.8709029
  70.9753504  69.2809009 105.0796578  68.6249985  62.7264513 102.4511220
  67.7634464  63.0245767 102.7427958  68.6512420  62.9434912 101.5192253
  65.4411555  71.2706704  98.8585026  65.9049900  71.5494407  98.0689649
  65.1768353  70.3690148  98.6758117  62.3335636  70.8178185 101.7964789
  62.9036993  71.2465454 101.1582274  62.9243748  70.5360770 102.4948975
  64.3780441  67.3929856  95.6674591  65.0804484  67.8450900  96.1348518
  64.0461069  66.7513675  96.2954484  62.8260802  65.9841613 110.0425801
  62.1959463  66.6657894 110.2761197  62.7196890  65.8724694 109.0978939
  58.1205775  65.6513409 100.9691725  57.3304829  65.9070937 100.4931835
  58.6117022  66.4661747 101.0743765  72.1369584  72.9918648 103.7197006
  72.9587028  72.5898835 103.4379687  72.1331987  72.8886882 104.6713121
  60.0720520  66.0157988  97.9275201  59.2751683  66.1276682  98.4458697
  59.8446112  66.3544640  97.0616092  65.9026188  72.5402691 105.8757716
  65.9670620  73.0023099 106.7115888  65.1937111  71.9100056 106.0040026
  56.4043478  65.9043899 103.4006716  56.6551516  66.7890909 103.6664292
  56.9403026  65.7248501 102.6281807  80.2275577  69.3357396 100.0681977
  79.4739286  68.7664795  99.9125982  80.3623118  69.3020061 101.0152612
  65.6174205  74.2070799  95.7436696  65.4819880  75.0522334  96.1721544
  66.1584018  74.4090076  94.9802630  62.1041545  60.2862379 112.4051052
  61.7108490  59.7328577 113.0798696  62.9207685  60.5972957 112.7957569
  59.0703603  71.7246237  96.3164622  59.5828123  72.5189487  96.4670186
  59.7226315  71.0272527  96.2498223  60.8798487  74.8411993  98.3987375
  61.0565116  75.7629958  98.2108359  61.6755321  74.5270412  98.8281754
  65.0209506  61.7020258 109.9971308  65.7619219  62.3027411 109.9175771
  65.2527429  60.9597895 109.4389351  60.1650844  66.8876625 108.2749538
  60.0504359  65.9861882 108.5756637  59.3095362  67.1340322 107.9234354
  67.2442682  74.8294365 109.8737039  66.8006536  74.0430744 109.5557943
  67.9059895  75.0173516 109.2080929  62.0029803  76.3590167 104.3997717
  62.5537228  76.2307230 103.6274711  61.1641279  76.6585056 104.0492610
  69.3423920  75.1097165 107.9018440  69.3242395  75.9306046 107.4098709
  70.2643840  74.9851240 108.1268581  65.7996974  72.6241295 108.7441948
  66.3325311  71.8629583 108.5141256  65.2711055  72.3314946 109.4866103
  68.9666669  57.7301361 104.2735590  68.6230938  58.6203002 104.1974700
  69.3345631  57.5403018 103.4105175  57.0352519  70.0534891  97.0924192
  57.8727741  70.4631899  96.8757900  57.2130787  69.1134333  97.0624386
  68.9316952  67.7209972  92.7808025  68.4163575  68.4914576  93.0196412
  68.6594260  67.0475108  93.4041086  66.5164063  62.5659673  97.8393263
  65.6605659  62.1766523  97.6598902  66.9291014  62.6451633  96.9793049
  68.0463209  60.1006016 102.2384823  67.5428005  60.0636151 101.4252628
  68.3393816  61.0098759 102.2981480  64.2906095  60.1844746 101.2451005
  65.1559092  59.9887554 100.8856894  64.3583604  59.9555097 102.1720362
  73.9051226  70.4742326  94.7161198  73.1280668  70.1353486  94.2716361
  74.5842707  70.4794950  94.0416164  68.7203255  65.5937064  94.6067806
  68.4153390  65.9083213  95.4577949  69.6733697  65.6718484  94.6495139
  67.1649687  71.7527287  96.2560760  66.6371048  71.0180047  95.9433998
  66.6637189  72.5301964  96.0100728  72.1442533  69.9476308 101.3727806
  71.4866207  70.6375569 101.4607935  72.9482932  70.3372740 101.7161793
  61.8968414  62.4146953  98.6167372  62.4712166  62.1922135  97.8840565
  62.4839397  62.4835648  99.3695973  70.9547991  68.3020680  99.4231748
  71.4679873  68.9350672  99.9253458  71.6049215  67.7021876  99.0575108
  62.2238001  64.4451414  92.6363257  61.3875314  64.7826101  92.9572532
  62.0842771  64.3100394  91.6990394  64.1991082  59.2888202  97.3442441
  63.5455494  58.9737220  96.7199056  64.1571556  58.6663943  98.0702264
  65.3102287  69.5707497  89.2595733  64.4029348  69.3396751  89.4586882
  65.8073319  68.7745117  89.4469715  68.2170366  78.2805005  92.1792419
  67.5432064  78.5836701  92.7877377  68.6036188  79.0834085  91.8297876
  67.4328822  65.7770136 101.6690089  66.5151384  65.9985083 101.5111777
  67.8488966  65.8516446 100.8101796  68.2163870  67.1761552  96.7992769
  68.9635689  67.6882949  96.4899891  68.4855460  66.8545604  97.6597163
  66.4890520  69.6720092  93.7819723  65.5801739  69.3879125  93.8792193
  66.5185604  70.0919171  92.9223030  71.7209788  73.2826682  97.5510891
  71.2672115  72.4417592  97.6076081  71.0903754  73.9188080  97.8885671
  70.6642707  64.2118668  98.7811558  69.9265464  63.6996054  99.1121801
  70.9169481  63.7719049  97.9694835  70.1642727  75.1203178  98.4860709
  70.4565701  75.6808236  97.7673075  70.6741347  75.4131739  99.2413868
  70.7654334  56.9894920  99.3753328  71.0713211  56.1292283  99.0879243
  71.4906939  57.5812540  99.1752321  57.0578691  67.3925606  97.7634925
  56.8603090  66.7994967  97.0385992  56.5025355  67.0877817  98.4810864
  65.0375414  67.2848713  99.8829519  65.0924024  66.3322549  99.8071995
  64.2266616  67.4408152 100.3670817  66.1866608  71.2128836  91.1207802
  65.7486038  70.4964695  90.6613439  66.9277049  71.4404951  90.5592893
  62.9767774  65.9025773  97.6419898  62.1635640  66.2019943  98.0485090
  63.4726768  65.5081461  98.3594380  65.1276352  75.8983530  99.5754162
  65.0852531  76.1244376  98.6462694  66.0439051  75.6646904  99.7239963
  68.5741986  66.3667597 106.4734791  68.9291374  66.5939070 107.3329257
  69.2214117  66.6985974 105.8512047  74.3039723  69.4886033  97.1784120
  74.1657621  69.6787629  96.2505310  73.9475942  70.2505416  97.6352172
  62.4681849  63.4744128 103.2581132  63.1081228  63.3332887 102.5604096
  61.6359379  63.1878642 102.8819734  74.3309102  71.5562560 102.1895392
  74.7645609  71.4637849 103.0378446  75.0440683  71.5320060 101.5515408
  63.2442153  72.7746559  99.3716125  64.0382751  72.2796879  99.1698700
  62.5333845  72.2464422  99.0083830  68.0636997  75.1564654 103.7228493
  68.1174020  75.7255590 104.4906208  67.1951779  75.3266539 103.3582530
  59.5524916  66.9189640  95.4475878  58.6222504  66.8574096  95.6645840
  59.6482388  66.3965593  94.6512519  59.4710465  63.4444453  98.0354119
  59.7317283  64.3589786  97.9263280  60.2927638  62.9768896  98.1850732
  60.9435391  64.8582210 105.2052944  61.6158444  64.6499572 104.5565593
  60.1165177  64.6604296 104.7658176  75.1924652  71.5986261 104.7228277
  75.3860542  72.5032071 104.9687552  75.0925270  71.1393680 105.5566862
  66.8460963  61.4844151 107.2218605  66.1988878  62.1834101 107.1283081
  67.6161978  61.9180295 107.5894853  70.2539761  71.7493003 110.2969158
  70.1025267  71.5203555 109.3799242  70.2444440  72.7063605 110.3100503
  67.0225097  69.3224916 105.2815424  67.9517157  69.4736076 105.1084392
  66.6016127  69.4108937 104.4264071  65.8213429  73.3475581 103.0513962
  65.6824515  72.9794365 103.9239900  65.0328025  73.8623220 102.8797920
  66.4161581  78.4484677  94.3939499  66.5913336  77.9772720  95.2085121
  65.7294369  79.0750443  94.6220759  67.3718644  72.7257183 100.4402800
  67.0368477  72.6857953 101.3360450  66.8722590  72.0601899  99.9673210
  61.3462888  68.1324813 105.9655381  61.2082686  67.4005052 106.5666920
  62.2567811  68.0433713 105.6839569  70.3077836  70.0713218  90.7139859
  69.6907006  69.3460046  90.6172912  69.8394324  70.8322578  90.3706934
  63.9745189  67.8444773 105.4539061  64.6844807  67.2037965 105.4125679
  63.9314497  68.0957667 106.3765241  71.9631967  74.7812126 108.3745640
  71.9044513  74.0971346 107.7076223  72.3651486  75.5231116 107.9226266
  62.6874123  64.8309991 107.2734700  62.1511480  64.3800729 107.9256296
  62.0990831  64.9655899 106.5305164  60.9822666  81.5974040 101.1679359
  61.2219264  82.2292564 101.8458377  60.1391863  81.2462080 101.4544718
  62.0976382  64.2898642  89.8361164  61.2205848  64.1687443  89.4723410
  62.5734135  63.4984720  89.5840052  71.9649375  72.7451710 106.6059619
  71.0776153  72.4077632 106.7286018  72.5347926  72.0134741 106.8428385
  53.6178522  69.0775802  99.9302671  54.3049561  68.7637532  99.3423686
  53.4626650  69.9817166  99.6569922  58.4213244  63.9665998 104.3587695
  58.3371433  63.3591668 103.6238105  57.5995950  64.4575017 104.3597191
  65.4950528  77.4053162 103.5720863  65.4220699  78.2108134 104.0840167
  65.0527921  77.6045128 102.7468884  65.2840308  76.6424932  97.0823684
  64.5007829  77.1846612  97.1761909  65.9833053  77.1598912  97.4817925
  68.5936958  62.4519562  99.7257890  69.0905657  61.6989524  99.4058960
  67.8223939  62.4883878  99.1601099  76.4466715  68.1559927 101.3676181
  76.4356591  69.0384643 100.9970114  75.5784095  67.8031478 101.1730718
  67.9549211  77.3039996 105.7279021  68.6677184  77.9387461 105.6554923
  67.4639240  77.4003862 104.9119023  69.6766738  71.2091249  97.2996313
  68.7423017  71.3292711  97.1301017  69.8543407  70.3063716  97.0356323
  65.1771926  64.5936945  99.4529574  64.8069714  64.0407985 100.1410480
  65.6731019  63.9895078  98.9004574  73.0639290  67.0508568  97.8346347
  73.5299742  67.8836560  97.7606650  73.5146790  66.5853550  98.5391606
  63.0061125  75.0534440 106.5484592  63.7070584  75.6870923 106.7013986
  62.5356240  75.3949171 105.7880231  71.1315521  73.3952390  94.8332499
  71.4075365  73.2808984  95.7426373  70.2620020  72.9969874  94.7944672
  71.0355952  59.4189155 101.8737248  70.1219032  59.6493382 102.0419455
  71.4649054  59.5027599 102.7251281  70.8062411  67.6079047 104.3737143
  70.1533861  67.8554955 103.7189595  71.1842791  66.7943185 104.0399620
  67.7669585  77.6438740  98.4765313  67.9491979  76.8260396  98.9393065
  68.5902571  77.8606433  98.0390203  68.1011750  76.5706925  95.7380361
  68.6299517  76.0599380  95.1250523  68.3639970  76.2549456  96.6025894
  66.8549984  68.3498858 110.8603180  66.1790621  68.2492988 111.5305555
  67.6777618  68.1938072 111.3239177  58.6028843  74.5870795 103.4815695
  59.1882280  73.8414483 103.6143599  58.4053682  74.8974752 104.3652359
  61.4567498  77.6222042  98.4978137  60.7877874  78.1068170  98.0142177
  61.3180368  77.8691263  99.4121516  53.1946498  67.1576395 102.2020138
  53.2330597  66.6239986 102.9957256  52.6886791  66.6311601 101.5831115
  65.5972767  79.6565786 105.0960796  66.1491075  79.8197407 105.8609881
  65.9378960  80.2470224 104.4240820  60.5737260  62.0040936 105.6982680
  60.6378587  62.8655766 105.2860078  60.5104380  61.3914937 104.9655039
  60.0489533  64.0764068 109.3455715  60.6761571  63.6941145 109.9593239
  59.1917451  63.8578270 109.7111407  70.4483641  74.4827043 110.9509450
  70.9923545  75.0957001 110.4564405  69.8670486  75.0406622 111.4676463
  56.8255075  65.8840497  95.2774069  57.1208516  64.9751176  95.2241123
  55.9243111  65.8628237  94.9555072  68.7341154  77.6047761 102.0824478
  68.6092294  76.8037501 101.5735423  69.3920245  78.0993955 101.5938448
  60.3549322  63.9596494 101.2601618  59.6335908  64.5732461 101.1209091
  61.1442578  64.4954259 101.1818264  70.7976063  75.4056781 103.7104028
  69.8506398  75.2862132 103.6382355  71.1458836  74.5179279 103.7930289
  63.1575636  61.2950920 107.5342270  63.6810038  61.5413217 108.2968579
  62.9387969  62.1270955 107.1145407  58.5542917  63.5654595  95.4013395
  58.2255623  62.6851974  95.2188500  58.9082288  63.5102264  96.2889784
  67.8022496  75.2009498  99.9108380  67.6547458  74.2726205 100.0915950
  68.6275989  75.2229588  99.4265455  61.6684740  63.8527565  95.7688872
  62.0080813  64.3813486  95.0467481  62.1156861  64.1907971  96.5447439
  71.4056618  76.0238056 100.9973253  72.3303165  75.8180918 100.8597704
  71.2371921  75.7754457 101.9062594  64.3628181  62.2364615 105.2191940
  64.0225001  61.4372428 105.6212620  63.6567187  62.5366326 104.6468773
  65.0144653  59.3213928 103.6719263  65.8370722  58.8474406 103.5498154
  65.2582716  60.1004412 104.1717950  63.6552887  62.3502186  93.9682165
  64.3761250  62.7283439  93.4645882  63.0318191  63.0691063  94.0717143
  67.7984010  63.0547335  94.9040497  68.0147625  63.9371973  94.6029325
  67.3178077  62.6633549  94.1746139  62.5383232  66.0133048 101.4811242
  62.3927812  66.3273351 102.3735523  62.0608435  66.6317949 100.9282141
  64.3979614  63.0035596 101.5292131  64.3841183  62.1076690 101.1924429
  65.1152043  63.0106260 102.1630418  66.2505745  63.4372937 103.5745259
  65.9923523  64.3590007 103.5729589  65.7190785  63.0403371 104.2645723
  71.1951934  76.5423724  96.3535344  71.3688811  75.9770146  95.6009197
  71.6880825  77.3424619  96.1714834  57.0128894  68.5538393 104.4198903
  56.4682362  69.3298201 104.5519177  57.8908244  68.9009197 104.2618025
  63.8016510  61.8849977  96.7979702  63.9232422  60.9566623  96.9970589
  63.5118553  61.8988663  95.8858017  66.6707701  59.5704887  99.9346421
  66.6929398  59.6344220  98.9798401  67.0875760  58.7309396 100.1286928
  77.0491325  69.3060147  97.9725644  77.4922471  68.5567472  97.5744767
  76.1717835  69.2970283  97.5899376  72.1827106  75.8590488  93.4532243
  72.8778011  76.4797181  93.6719557  72.5250257  75.0085839  93.7284620
  57.7994916  67.6808289 107.3129060  57.0576652  67.8290924 107.8993690
  57.4787660  67.9416555 106.4495809  74.0818529  73.3090194  94.9819573
  74.6069854  73.6477466  94.2568893  73.9940882  72.3737209  94.7982708
  65.7438578  77.2224267 107.1109450  66.0525705  76.9773414 107.9832150
  66.5414060  77.4270906 106.6228320  65.7659190  79.3762177  99.3414827
  65.3264181  78.8838556 100.0347683  66.5167307  78.8335145  99.1006902
  58.2451529  75.5673718  99.3439455  59.0709549  75.2677490  98.9638098
  57.8945581  74.7981340  99.7929243  63.2133062  74.9200186 101.4137128
  62.5913072  74.2570891 101.1139356  63.8837929  74.9461318 100.7310776
  56.4460134  73.4860044 100.3028388  55.6092043  73.0582219 100.1212389
  56.4183780  73.6792488 101.2399179  63.2857590  63.3981974 111.0069634
  63.3345745  64.2744097 110.6247404  63.8280104  62.8559367 110.4341277
  73.7712436  73.9423097 110.2870771  72.9807979  73.9247236 109.7475271
  73.5345790  74.4811391 111.0419808  73.8910311  70.7915564 107.6003500
  73.9408316  70.6265571 108.5419023  73.7824234  69.9242823 107.2101381
  62.7746569  73.4704109  94.8895589  62.9234690  74.1539574  94.2362261
  63.5813013  73.4509199  95.4045044  71.1814073  66.7746492 108.9162807
  72.0823936  66.6352957 108.6246804  71.2562048  66.9400947 109.8560984
  65.5156878  64.1513346 107.7615993  64.6460188  64.4446912 107.4898581
  65.7516359  64.7353791 108.4823256  75.3928507  73.2112505 107.8445521
  75.1013316  73.5742486 108.6808982  74.7800639  72.4979513 107.6658853
  76.5924190  70.7765385 100.3648092  77.4271081  71.2155189 100.5285652
  76.7283319  70.3004038  99.5456337  73.6415696  68.3345120 106.3125579
  74.1169817  68.5272766 105.5044431  72.7181261  68.3904306 106.0668963
  60.5299202  69.4969287  95.8956658  60.2845244  68.5931617  96.0936868
  60.6995117  69.4986437  94.9536136  68.2195912  60.3692963 105.2781413
  68.7377856  61.1053990 104.9527902  67.8651045  60.6756957 106.1128172
  59.7994850  65.2297645  93.3942819  59.1064095  65.3042000  92.7382855
  59.5546602  64.4657988  93.9164336  68.4708506  56.7893246 100.7982310
  68.7510260  56.1216435 101.4242736  69.2559113  56.9822342 100.2856974
  66.2741975  75.9652240  92.3607336  65.7015942  76.5842427  91.9077808
  66.8474768  76.5151601  92.8947258  72.3417365  65.2110880 104.5453885
  73.2934788  65.3108978 104.5666109  72.1720815  64.4189148 105.0551969
  70.3631744  62.2966463 104.7313286  69.7681676  62.5771476 104.0359775
  70.0781441  62.7860364 105.5030027  69.4939235  76.2489390  93.4915918
  70.4269908  76.1834952  93.6948794  69.4062447  77.0845657  93.0330451
  72.1227251  75.5655260  90.4519866  72.0440883  75.2315124  91.3455624
  72.9436918  76.0577028  90.4511338  74.8205442  68.4317000 103.6596185
  74.7881763  67.4933000 103.8455868  75.4306066  68.5101036 102.9262009
  66.6588773  67.3013053  89.7023389  67.6047878  67.1719261  89.7711807
  66.2803018  66.5627714  90.1792817  74.9699931  65.2228043 103.7054468
  74.4538980  64.4386500 103.5184397  75.8539879  64.8946760 103.8700987
  72.6310658  58.9669059  99.6650280  72.4335479  58.6584147 100.5493612
  73.2410363  59.6930697  99.7948210  80.6381992  69.4933006 102.8002221
  81.3685381  69.2318295 103.3609925  80.0288938  68.7561728 102.8404289
  78.7197289  67.6340869 103.3976673  77.9930453  67.4996834 102.7893164
  78.3044576  67.9417698 104.2033391  66.5427466  71.3530799 111.1624046
  67.4630475  71.5309398 111.3564092  66.5077049  70.4086844 111.0103745
  64.8431690  65.2263029  89.6378274  63.9363146  64.9296142  89.7140987
  65.1207671  64.9292847  88.7712560  55.7609631  66.5469392 100.0877320
  55.4412415  65.6934701  99.7951694  55.2143059  66.7617970 100.8435288
  59.5389538  69.2631833 103.8046827  59.7575548  70.1948941 103.8234861
  59.9515312  68.9039808 104.5901631  66.4593756  59.7699919  95.7922515
  65.6494485  59.4247004  96.1677761  67.1478173  59.4607462  96.3810127
  68.3884304  58.8477965  97.4146812  68.9415343  59.2673419  98.0736835
  68.6254391  57.9213714  97.4569768  64.4117404  64.8365039 113.1949576
  64.3114131  65.7859396 113.1261667  64.1938946  64.5083278 112.3225646
  63.6130475  62.0849964  89.7790253  64.4749639  62.4104862  90.0386070
  63.7980819  61.2981460  89.2663319  55.6297891  70.1672304 102.0570442
  54.9361362  69.7526257 101.5440396  56.3770882  70.2092840 101.4603861
  71.7663112  60.9578491  96.9225476  71.1861781  61.6163295  96.5403528
  71.4999044  60.1355835  96.5112894  70.2166678  60.3583548  99.1246796
  70.7166456  60.4700083  98.3161115  70.8602286  60.0544601  99.7647605
  64.2748674  68.2662178 112.0114637  63.7915755  69.0662538 112.2178526
  64.3609613  68.2770123 111.0582081  57.5434633  70.0990558  99.9336457
  57.5205321  70.1978245  98.9818340  57.8535270  70.9455708 100.2553623
  60.2022011  72.1566713 104.0483071  61.1565265  72.1250655 103.9813003
  60.0034535  71.6957336 104.8633297  60.7921393  70.7267829 106.6153869
  61.6114282  71.2211907 106.6388706  61.0658201  69.8099797 106.5871436
  70.5487990  63.1178581  95.9781824  69.6613845  63.4028232  95.7602019
  70.9641979  62.9572344  95.1309101  73.9002526  63.1425102  99.6936164
  74.6762916  63.6321554  99.9660780  73.1750660  63.5683156 100.1508033
  76.3375084  63.8552721 100.7510104  76.9319575  63.6148457 100.0403412
  76.4101668  63.1359852 101.3783640  58.5572240  77.6986332 101.0653269
  58.4226708  76.9386733 100.4991267  58.1404302  78.4227232 100.5982058
  69.6931203  72.8823256  90.0729844  70.3967053  73.0873258  90.6887500
  68.9693852  73.4500018  90.3378928  70.5229013  68.6333117  96.1932114
  70.4664215  69.0901668  95.3539747  71.0757356  67.8723802  96.0154957
  74.3333819  64.4222849  97.0182234  74.0770753  64.0219484  97.8490442
  73.7086687  65.1366643  96.8932373  78.6446157  67.1618922  99.5253525
  78.0845715  67.2312111 100.2985087  78.0389660  66.9859907  98.8053022
  61.7141366  78.5955649 101.2771712  61.5973750  79.5401082 101.1750402
  60.8933812  78.2929211 101.6657511  71.6017900  73.3205785  92.1228304
  72.4363504  72.8886983  91.9405779  71.4402243  73.1487799  93.0505199
  71.2563793  69.8237898  93.4884644  71.2012596  69.6582170  92.5473088
  70.6309848  70.5313931  93.6446833  56.0456308  65.0605963 107.3146066
  56.6915171  64.5504917 107.8033291  55.8373459  65.7974644 107.8889491
  68.5709700  72.1286810 112.8138206  69.4400859  72.3027462 112.4524841
  68.0916451  72.9481227 112.6913936  64.5659918  59.3246007  93.0669962
  64.5538588  60.2687847  93.2238233  65.4583340  59.1416153  92.7729423
  62.7395880  79.2483911 104.4927640  63.6423127  79.2807521 104.8094135
  62.5133250  78.3184362 104.5073976  64.4949482  78.0014898 101.1537719
  63.5445113  78.0016759 101.0402091  64.7981968  77.2547632 100.6373753
  68.3812038  55.9188784  97.3215899  67.6144433  55.3647271  97.4672581
  68.7922743  55.9910653  98.1830050  60.3853799  62.2073580 111.4121080
  61.2485260  61.8510384 111.6224405  59.8119209  61.8687474 112.0996484
  80.2302176  83.8375436 102.2183481  80.8680586  83.7182183 101.5146821
  80.1123018  84.7856280 102.2771433  77.0391882  83.7902864 102.1545006
  76.7010393  83.6743929 101.2665541  77.9081650  83.3894029 102.1346012
  72.8978698  85.6438341  98.1441897  72.3343563  85.5528277  97.3758185
  72.7831093  84.8238245  98.6244389  77.5211665  84.9437716 108.1131211
  77.5100306  84.5490514 107.2411715  77.6832304  84.2103788 108.7064983
  70.4443129  87.1389532 100.9826117  71.2364421  86.7980357 100.5672417
  70.6839780  87.2484507 101.9028271  78.4778256  89.3109308  93.4556362
  77.8266236  89.8963389  93.0690375  79.2722619  89.8415503  93.5151399
  72.4033883  86.3998445  93.8543496  73.1764759  85.8527432  93.7156372
  72.7559282  87.2642695  94.0657957  74.2418926  87.7274828 107.0610395
  73.9508792  88.6320458 106.9457062  74.8775910  87.7691355 107.7754465
  75.1675133  85.1051676 103.6511755  75.7638705  84.8807699 102.9368718
  75.2250104  84.3636422 104.2537203  74.7400161  82.5591111  91.4861946
  74.9925682  82.0372633  90.7245409  73.8024720  82.3957257  91.5888630
  79.7843444  81.5626890  99.2936689  80.5706533  81.1446313  98.9427106
  80.0482148  82.4672982  99.4618338  79.9553521  86.9999740  93.9925346
  79.3199354  87.0734367  94.7046251  79.6250928  87.5893339  93.3144425
  85.1851871  81.5002123 100.1969668  85.9177043  80.9301340 100.4307497
  84.4291227  81.1123723 100.6376173  74.4596450  84.4619217  93.6886321
  74.3432708  83.7864121  94.3567405  74.5698710  83.9751591  92.8718474
  76.8027991  83.9229365  97.3933010  76.4386198  83.3959986  98.1045932
  77.6595107  83.5327834  97.2199496  82.7077292  75.2123697 104.6564276
  82.3760616  76.0819108 104.4325491  82.1122905  74.8959981 105.3358307
  76.4433478  78.9519264  92.3894359  76.6107880  79.8199501  92.7564830
  76.2530647  79.1146546  91.4655648  79.2008811  87.4136243 104.0560189
  78.9009534  88.3161282 103.9475996  78.8559871  87.1468426 104.9081342
  72.6521293  83.8650040 100.0896893  71.7271789  83.7326254 100.2974585
  72.9005706  84.6444259 100.5866836  82.6005955  79.9318783 101.7357626
  81.6922832  79.8634192 101.4416387  82.5493551  80.4090728 102.5639452
  76.4222699  81.4076922  93.3741025  76.3022324  81.8533972  94.2126506
  75.7275287  81.7562239  92.8154564  70.0130104  83.5083314 100.9240683
  70.1422485  83.7617792 101.8380094  69.3327555  84.1011022 100.6045338
  74.1829591  94.1780563  97.0231157  74.1053621  95.1288389  97.1019637
  73.5791234  93.8326436  97.6806083  76.6746821  81.3508429 109.6792524
  75.8980155  81.9102349 109.6695388  77.3137384  81.8365212 110.2007394
  84.4667601  78.1335222 103.5135500  83.8241981  78.4267755 102.8675295
  83.9622530  78.0188142 104.3188697  82.1207765  81.8798395  94.2021360
  83.0325621  82.1125782  94.0269057  81.6117412  82.4635439  93.6396438
  74.9293193  84.1593882 109.2410491  75.6707877  84.6978926 108.9645314
  74.2230178  84.7860171 109.3982042  80.4048533  86.3023023 107.8382652
  80.8131889  85.8605433 107.0937284  79.6825794  85.7275650 108.0916845
  76.7579603  81.2395630 105.2116209  77.6040798  81.6635043 105.3550858
  76.6978240  80.5829254 105.9054772  80.7277347  86.8624213 101.5934941
  80.0986210  87.0269927 100.8911009  80.3403009  87.2765823 102.3645905
  84.6066579  87.7978651  98.9479305  83.9217617  88.1777553  98.3976338
  84.6910428  88.4073978  99.6811252  79.9079048  78.8999998 106.8697383
  79.6639980  79.6542058 106.3331658  80.1838978  79.2785345 107.7044630
  81.8617511  85.4438610 105.5474648  82.0734406  86.0870370 104.8709029
  81.8147259  84.6100927 105.0796578  79.4643740  78.0556431 102.4511220
  78.6028219  78.3537684 102.7427958  79.4906174  78.2726830 101.5192253
  76.2805309  86.5998621  98.8585026  76.7443655  86.8786324  98.0689649
  76.0162107  85.6982066  98.6758117  73.1729390  86.1470103 101.7964789
  73.7430747  86.5757371 101.1582274  73.7637502  85.8652688 102.4948975
  75.2174195  82.7221774  95.6674591  75.9198238  83.1742817  96.1348518
  74.8854824  82.0805593  96.2954484  73.6654557  81.3133530 110.0425801
  73.0353217  81.9949811 110.2761197  73.5590645  81.2016612 109.0978939
  68.9599529  80.9805326 100.9691725  68.1698583  81.2362855 100.4931835
  69.4510776  81.7953664 101.0743765  82.9763339  88.3210566 103.7197006
  83.7980782  87.9190753 103.4379687  82.9725742  88.2178800 104.6713121
  70.9114274  81.3449906  97.9275201  70.1145438  81.4568600  98.4458697
  70.6839867  81.6836558  97.0616092  76.7419942  87.8694609 105.8757716
  76.8064375  88.3315016 106.7115888  76.0330866  87.2391974 106.0040026
  67.2437232  81.2335817 103.4006716  67.4945270  82.1182827 103.6664292
  67.7796780  81.0540418 102.6281807  91.0669332  84.6649314 100.0681977
  90.3133040  84.0956712  99.9125982  91.2016873  84.6311979 101.0152612
  76.4567960  89.5362716  95.7436696  76.3213635  90.3814252  96.1721544
  76.9977772  89.7381994  94.9802630  72.9435299  75.6154296 112.4051052
  72.5502245  75.0620495 113.0798696  73.7601440  75.9264875 112.7957569
  69.9097357  87.0538154  96.3164622  70.4221878  87.8481405  96.4670186
  70.5620070  86.3564445  96.2498223  71.7192242  90.1703911  98.3987375
  71.8958870  91.0921875  98.2108359  72.5149075  89.8562330  98.8281754
  75.8603260  77.0312175 109.9971308  76.6012974  77.6319329 109.9175771
  76.0921183  76.2889813 109.4389351  71.0044598  82.2168543 108.2749538
  70.8898114  81.3153800 108.5756637  70.1489116  82.4632239 107.9234354
  78.0836436  90.1586283 109.8737039  77.6400290  89.3722662 109.5557943
  78.7453650  90.3465433 109.2080929  72.8423557  91.6882085 104.3997717
  73.3930982  91.5599148 103.6274711  72.0035033  91.9876974 104.0492610
  80.1817674  90.4389083 107.9018440  80.1636150  91.2597964 107.4098709
  81.1037594  90.3143158 108.1268581  76.6390728  87.9533212 108.7441948
  77.1719065  87.1921501 108.5141256  76.1104809  87.6606864 109.4866103
  79.8060423  73.0593278 104.2735590  79.4624693  73.9494920 104.1974700
  80.1739386  72.8694936 103.4105175  67.8746274  85.3826809  97.0924192
  68.7121496  85.7923817  96.8757900  68.0524542  84.4426251  97.0624386
  79.7710706  83.0501889  92.7808025  79.2557329  83.8206494  93.0196412
  79.4988014  82.3767026  93.4041086  77.3557817  77.8951590  97.8393263
  76.4999413  77.5058441  97.6598902  77.7684769  77.9743551  96.9793049
  78.8856964  75.4297933 102.2384823  78.3821759  75.3928069 101.4252628
  79.1787571  76.3390676 102.2981480  75.1299850  75.5136663 101.2451005
  75.9952846  75.3179472 100.8856894  75.1977359  75.2847015 102.1720362
  84.7444980  85.8034244  94.7161198  83.9674423  85.4645404  94.2716361
  85.4236461  85.8086867  94.0416164  79.5597009  80.9228982  94.6067806
  79.2547145  81.2375131  95.4577949  80.5127451  81.0010401  94.6495139
  78.0043441  87.0819205  96.2560760  77.4764803  86.3471964  95.9433998
  77.5030944  87.8593881  96.0100728  82.9836287  85.2768225 101.3727806
  82.3259962  85.9667487 101.4607935  83.7876686  85.6664657 101.7161793
  72.7362169  77.7438871  98.6167372  73.3105921  77.5214053  97.8840565
  73.3233151  77.8127566  99.3695973  81.7941746  83.6312598  99.4231748
  82.3073628  84.2642590  99.9253458  82.4442970  83.0313794  99.0575108
  73.0631756  79.7743332  92.6363257  72.2269068  80.1118019  92.9572532
  72.9236525  79.6392312  91.6990394  75.0384836  74.6180120  97.3442441
  74.3849249  74.3029137  96.7199056  74.9965311  73.9955860  98.0702264
  76.1496041  84.8999415  89.2595733  75.2423103  84.6688669  89.4586882
  76.6467073  84.1037034  89.4469715  79.0564120  93.6096922  92.1792419
  78.3825819  93.9128619  92.7877377  79.4429942  94.4126003  91.8297876
  78.2722577  81.1062054 101.6690089  77.3545138  81.3277001 101.5111777
  78.6882720  81.1808364 100.8101796  79.0557625  82.5053469  96.7992769
  79.8029443  83.0174866  96.4899891  79.3249214  82.1837522  97.6597163
  77.3284275  85.0012010  93.7819723  76.4195494  84.7171043  93.8792193
  77.3579358  85.4211089  92.9223030  82.5603542  88.6118599  97.5510891
  82.1065869  87.7709509  97.6076081  81.9297509  89.2479998  97.8885671
  81.5036462  79.5410586  98.7811558  80.7659218  79.0287972  99.1121801
  81.7563235  79.1010967  97.9694835  81.0036481  90.4495096  98.4860709
  81.2959456  91.0100153  97.7673075  81.5135102  90.7423657  99.2413868
  81.6048089  72.3186838  99.3753328  81.9106966  71.4584201  99.0879243
  82.3300694  72.9104458  99.1752321  67.8972445  82.7217524  97.7634925
  67.6996845  82.1286885  97.0385992  67.3419109  82.4169734  98.4810864
  75.8769169  82.6140631  99.8829519  75.9317779  81.6614467  99.8071995
  75.0660371  82.7700070 100.3670817  77.0260362  86.5420754  91.1207802
  76.5879792  85.8256613  90.6613439  77.7670803  86.7696868  90.5592893
  73.8161529  81.2317690  97.6419898  73.0029394  81.5311861  98.0485090
  74.3120523  80.8373379  98.3594380  75.9670107  91.2275447  99.5754162
  75.9246285  91.4536294  98.6462694  76.8832805  90.9938822  99.7239963
  79.4135740  81.6959515 106.4734791  79.7685128  81.9230988 107.3329257
  80.0607872  82.0277892 105.8512047  85.1433477  84.8177951  97.1784120
  85.0051376  85.0079547  96.2505310  84.7869696  85.5797333  97.6352172
  73.3075603  78.8036046 103.2581132  73.9474983  78.6624805 102.5604096
  72.4753134  78.5170559 102.8819734  85.1702857  86.8854478 102.1895392
  85.6039364  86.7929767 103.0378446  85.8834438  86.8611978 101.5515408
  74.0835907  88.1038476  99.3716125  74.8776506  87.6088796  99.1698700
  73.3727600  87.5756339  99.0083830  78.9030752  90.4856572 103.7228493
  78.9567774  91.0547508 104.4906208  78.0345533  90.6558457 103.3582530
  70.3918671  82.2481558  95.4475878  69.4616259  82.1866013  95.6645840
  70.4876143  81.7257511  94.6512519  70.3104220  78.7736371  98.0354119
  70.5711037  79.6881704  97.9263280  71.1321392  78.3060813  98.1850732
  71.7829145  80.1874128 105.2052944  72.4552199  79.9791490 104.5565593
  70.9558932  79.9896214 104.7658176  86.0318406  86.9278178 104.7228277
  86.2254297  87.8323989 104.9687552  85.9319025  86.4685597 105.5566862
  77.6854717  76.8136069 107.2218605  77.0382632  77.5126019 107.1283081
  78.4555733  77.2472213 107.5894853  81.0933515  87.0784921 110.2969158
  80.9419022  86.8495473 109.3799242  81.0838195  88.0355523 110.3100503
  77.8618852  84.6516834 105.2815424  78.7910912  84.8027993 105.1084392
  77.4409882  84.7400855 104.4264071  76.6607183  88.6767498 103.0513962
  76.5218269  88.3086283 103.9239900  75.8721780  89.1915138 102.8797920
  77.2555335  93.7776595  94.3939499  77.4307091  93.3064638  95.2085121
  76.5688123  94.4042361  94.6220759  78.2112398  88.0549101 100.4402800
  77.8762231  88.0149871 101.3360450  77.7116344  87.3893817  99.9673210
  72.1856642  83.4616731 105.9655381  72.0476440  82.7296970 106.5666920
  73.0961566  83.3725631 105.6839569  81.1471590  85.4005135  90.7139859
  80.5300761  84.6751963  90.6172912  80.6788079  86.1614496  90.3706934
  74.8138943  83.1736690 105.4539061  75.5238562  82.5329882 105.4125679
  74.7708251  83.4249585 106.3765241  82.8025722  90.1104044 108.3745640
  82.7438268  89.4263264 107.7076223  83.2045240  90.8523034 107.9226266
  73.5267877  80.1601908 107.2734700  72.9905234  79.7092647 107.9256296
  72.9384586  80.2947817 106.5305164  71.8216421  96.9265957 101.1679359
  72.0613019  97.5584482 101.8458377  70.9785617  96.5753997 101.4544718
  72.9370136  79.6190560  89.8361164  72.0599602  79.4979360  89.4723410
  73.4127889  78.8276638  89.5840052  82.8043129  88.0743628 106.6059619
  81.9169908  87.7369549 106.7286018  83.3741680  87.3426659 106.8428385
  64.4572276  84.4067719  99.9302671  65.1443316  84.0929449  99.3423686
  64.3020405  85.3109084  99.6569922  69.2606998  79.2957916 104.3587695
  69.1765187  78.6883585 103.6238105  68.4389705  79.7866934 104.3597191
  76.3344282  92.7345080 103.5720863  76.2614454  93.5400051 104.0840167
  75.8921676  92.9337046 102.7468884  76.1234062  91.9716850  97.0823684
  75.3401584  92.5138530  97.1761909  76.8226807  92.4890830  97.4817925
  79.4330712  77.7811479  99.7257890  79.9299412  77.0281442  99.4058960
  78.6617694  77.8175796  99.1601099  87.2860470  83.4851845 101.3676181
  87.2750346  84.3676560 100.9970114  86.4177849  83.1323396 101.1730718
  78.7942966  92.6331914 105.7279021  79.5070938  93.2679379 105.6554923
  78.3032995  92.7295780 104.9119023  80.5160493  86.5383167  97.2996313
  79.5816772  86.6584629  97.1301017  80.6937161  85.6355633  97.0356323
  76.0165681  79.9228862  99.4529574  75.6463468  79.3699903 100.1410480
  76.5124773  79.3186996  98.9004574  83.9033044  82.3800486  97.8346347
  84.3693496  83.2128478  97.7606650  84.3540545  81.9145467  98.5391606
  73.8454879  90.3826357 106.5484592  74.5464339  91.0162840 106.7013986
  73.3749994  90.7241089 105.7880231  81.9709275  88.7244307  94.8332499
  82.2469119  88.6100902  95.7426373  81.1013774  88.3261792  94.7944672
  81.8749707  74.7481073 101.8737248  80.9612787  74.9785300 102.0419455
  82.3042808  74.8319517 102.7251281  81.6456165  82.9370965 104.3737143
  80.9927616  83.1846872 103.7189595  82.0236545  82.1235103 104.0399620
  78.6063339  92.9730658  98.4765313  78.7885734  92.1552314  98.9393065
  79.4296325  93.1898350  98.0390203  78.9405505  91.8998843  95.7380361
  79.4693271  91.3891298  95.1250523  79.2033724  91.5841373  96.6025894
  77.6943738  83.6790776 110.8603180  77.0184375  83.5784905 111.5305555
  78.5171372  83.5229990 111.3239177  69.4422598  89.9162712 103.4815695
  70.0276034  89.1706400 103.6143599  69.2447436  90.2266669 104.3652359
  72.2961253  92.9513960  98.4978137  71.6271628  93.4360087  98.0142177
  72.1574122  93.1983180  99.4121516  64.0340252  82.4868313 102.2020138
  64.0724352  81.9531903 102.9957256  63.5280545  81.9603518 101.5831115
  76.4366521  94.9857703 105.0960796  76.9884829  95.1489325 105.8609881
  76.7772715  95.5762141 104.4240820  71.4131015  77.3332853 105.6982680
  71.4772341  78.1947684 105.2860078  71.3498135  76.7206855 104.9655039
  70.8883287  79.4055986 109.3455715  71.5155326  79.0233063 109.9593239
  70.0311206  79.1870188 109.7111407  67.6648830  81.2132415  95.2774069
  67.9602271  80.3043093  95.2241123  66.7636866  81.1920154  94.9555072
  79.5734909  92.9339679 102.0824478  79.4486048  92.1329419 101.5735423
  80.2314000  93.4285872 101.5938448  71.1943077  79.2888411 101.2601618
  70.4729663  79.9024379 101.1209091  71.9836333  79.8246176 101.1818264
  81.6369817  90.7348699 103.7104028  80.6900153  90.6154050 103.6382355
  81.9852590  89.8471197 103.7930289  73.9969390  76.6242838 107.5342270
  74.5203792  76.8705134 108.2968579  73.7781724  77.4562873 107.1145407
  69.3936671  78.8946512  95.4013395  69.0649378  78.0143891  95.2188500
  69.7476042  78.8394181  96.2889784  78.6416250  90.5301415  99.9108380
  78.4941213  89.6018123 100.0915950  79.4669744  90.5521506  99.4265455
  72.5078495  79.1819482  95.7688872  72.8474567  79.7105404  95.0467481
  72.9550615  79.5199888  96.5447439  82.2450372  91.3529974 100.9973253
  83.1696920  91.1472835 100.8597704  82.0765676  91.1046375 101.9062594
  75.2021935  77.5656533 105.2191940  74.8618756  76.7664346 105.6212620
  74.4960942  77.8658244 104.6468773  75.8538407  74.6505845 103.6719263
  76.6764477  74.1766324 103.5498154  76.0976471  75.4296329 104.1717950
  74.4946642  77.6794104  93.9682165  75.2155004  78.0575357  93.4645882
  73.8711946  78.3982981  94.0717143  78.6377765  78.3839253  94.9040497
  78.8541379  79.2663891  94.6029325  78.1571832  77.9925466  94.1746139
  73.3776986  81.3424966 101.4811242  73.2321567  81.6565269 102.3735523
  72.9002190  81.9609866 100.9282141  75.2373369  78.3327514 101.5292131
  75.2234938  77.4368607 101.1924429  75.9545797  78.3398178 102.1630418
  77.0899500  78.7664854 103.5745259  76.8317277  79.6881925 103.5729589
  76.5584540  78.3695289 104.2645723  82.0345688  91.8715641  96.3535344
  82.2082566  91.3062064  95.6009197  82.5274580  92.6716536  96.1714834
  67.8522648  83.8830310 104.4198903  67.3076116  84.6590118 104.5519177
  68.7301998  84.2301115 104.2618025  74.6410265  77.2141894  96.7979702
  74.7626176  76.2858541  96.9970589  74.3512307  77.2280580  95.8858017
  77.5101455  74.8996805  99.9346421  77.5323152  74.9636138  98.9798401
  77.9269514  74.0601313 100.1286928  87.8885080  84.6352064  97.9725644
  88.3316226  83.8859390  97.5744767  87.0111590  84.6262201  97.5899376
  83.0220861  91.1882406  93.4532243  83.7171765  91.8089098  93.6719557
  83.3644011  90.3377757  93.7284620  68.6388670  83.0100207 107.3129060
  67.8970406  83.1582842 107.8993690  68.3181414  83.2708472 106.4495809
  84.9212284  88.6382111  94.9819573  85.4463608  88.9769384  94.2568893
  84.8334637  87.7029127  94.7982708  76.5832333  92.5516185 107.1109450
  76.8919459  92.3065332 107.9832150  77.3807815  92.7562823 106.6228320
  76.6052945  94.7054095  99.3414827  76.1657935  94.2130473 100.0347683
  77.3561062  94.1627062  99.1006902  69.0845284  90.8965635  99.3439455
  69.9103304  90.5969407  98.9638098  68.7339336  90.1273258  99.7929243
  74.0526817  90.2492104 101.4137128  73.4306826  89.5862809 101.1139356
  74.7231684  90.2753236 100.7310776  67.2853889  88.8151962 100.3028388
  66.4485797  88.3874136 100.1212389  67.2577534  89.0084405 101.2399179
  74.1251344  78.7273892 111.0069634  74.1739500  79.6036015 110.6247404
  74.6673859  78.1851285 110.4341277  84.7304065  86.1207481 107.6003500
  84.7802070  85.9557489 108.5419023  84.6217988  85.2534740 107.2101381
  73.6140324  88.7996027  94.8895589  73.7628444  89.4831491  94.2362261
  74.4206767  88.7801117  95.4045044  82.0207827  82.1038409 108.9162807
  82.9217690  81.9644874 108.6246804  82.0955802  82.2692864 109.8560984
  76.3550633  79.4805264 107.7615993  75.4853942  79.7738830 107.4898581
  76.5910113  80.0645709 108.4823256  86.2322262  88.5404423 107.8445521
  85.9407070  88.9034403 108.6808982  85.6194393  87.8271431 107.6658853
  87.4317944  86.1057303 100.3648092  88.2664836  86.5447107 100.5285652
  87.5677073  85.6295956  99.5456337  84.4809450  83.6637037 106.3125579
  84.9563572  83.8564684 105.5044431  83.5575016  83.7196223 106.0668963
  71.3692957  84.8261205  95.8956658  71.1238999  83.9223535  96.0936868
  71.5388871  84.8278355  94.9536136  79.0589667  75.6984881 105.2781413
  79.5771611  76.4345908 104.9527902  78.7044799  76.0048874 106.1128172
  70.6388604  80.5589562  93.3942819  69.9457849  80.6333917  92.7382855
  70.3940356  79.7949906  93.9164336  79.3102261  72.1185164 100.7982310
  79.5904015  71.4508353 101.4242736  80.0952868  72.3114259 100.2856974
  77.1135729  91.2944157  92.3607336  76.5409696  91.9134345  91.9077808
  77.6868523  91.8443519  92.8947258  83.1811119  80.5402798 104.5453885
  84.1328542  80.6400895 104.5666109  83.0114570  79.7481066 105.0551969
  81.2025499  77.6258381 104.7313286  80.6075431  77.9063393 104.0359775
  80.9175195  78.1152282 105.5030027  80.3332989  91.5781308  93.4915918
  81.2663662  91.5126869  93.6948794  80.2456202  92.4137574  93.0330451
  82.9621006  90.8947178  90.4519866  82.8834637  90.5607042  91.3455624
  83.7830673  91.3868946  90.4511338  85.6599197  83.7608917 103.6596185
  85.6275517  82.8224918 103.8455868  86.2699821  83.8392954 102.9262009
  77.4982528  82.6304970  89.7023389  78.4441633  82.5011178  89.7711807
  77.1196773  81.8919632  90.1792817  85.8093685  80.5519961 103.7054468
  85.2932734  79.7678417 103.5184397  86.6933634  80.2238677 103.8700987
  83.4704412  74.2960976  99.6650280  83.2729233  73.9876064 100.5493612
  84.0804118  75.0222615  99.7948210  91.4775747  84.8224924 102.8002221
  92.2079135  84.5610212 103.3609925  90.8682692  84.0853646 102.8404289
  89.5591044  82.9632787 103.3976673  88.8324207  82.8288752 102.7893164
  89.1438331  83.2709615 104.2033391  77.3821220  86.6822716 111.1624046
  78.3024230  86.8601315 111.3564092  77.3470803  85.7378762 111.0103745
  75.6825445  80.5554947  89.6378274  74.7756900  80.2588059  89.7140987
  75.9601426  80.2584765  88.7712560  66.6003385  81.8761310 100.0877320
  66.2806170  81.0226618  99.7951694  66.0536814  82.0909888 100.8435288
  70.3783293  84.5923751 103.8046827  70.5969303  85.5240859 103.8234861
  70.7909067  84.2331725 104.5901631  77.2987511  75.0991836  95.7922515
  76.4888239  74.7538921  96.1677761  77.9871928  74.7899380  96.3810127
  79.2278059  74.1769883  97.4146812  79.7809098  74.5965337  98.0736835
  79.4648145  73.2505631  97.4569768  75.2511158  80.1656957 113.1949576
  75.1507885  81.1151314 113.1261667  75.0332700  79.8375196 112.3225646
  74.4524230  77.4141882  89.7790253  75.3143394  77.7396780  90.0386070
  74.6374574  76.6273378  89.2663319  66.4691645  85.4964222 102.0570442
  65.7755117  85.0818174 101.5440396  67.2164636  85.5384758 101.4603861
  82.6056866  76.2870408  96.9225476  82.0255535  76.9455212  96.5403528
  82.3392799  75.4647753  96.5112894  81.0560432  75.6875466  99.1246796
  81.5560211  75.7992001  98.3161115  81.6996040  75.3836519  99.7647605
  75.1142428  83.5954096 112.0114637  74.6309510  84.3954456 112.2178526
  75.2003367  83.6062040 111.0582081  68.3828388  85.4282475  99.9336457
  68.3599076  85.5270163  98.9818340  68.6929024  86.2747626 100.2553623
  71.0415766  87.4858630 104.0483071  71.9959019  87.4542573 103.9813003
  70.8428289  87.0249254 104.8633297  71.6315148  86.0559746 106.6153869
  72.4508037  86.5503825 106.6388706  71.9051956  85.1391715 106.5871436
  81.3881744  78.4470499  95.9781824  80.5007599  78.7320149  95.7602019
  81.8035733  78.2864262  95.1309101  84.7396280  78.4717020  99.6936164
  85.5156670  78.9613472  99.9660780  84.0144414  78.8975074 100.1508033
  87.1768839  79.1844639 100.7510104  87.7713330  78.9440375 100.0403412
  87.2495423  78.4651769 101.3783640  69.3965995  93.0278250 101.0653269
  69.2620462  92.2678651 100.4991267  68.9798057  93.7519150 100.5982058
  80.5324958  88.2115173  90.0729844  81.2360808  88.4165176  90.6887500
  79.8087606  88.7791935  90.3378928  81.3622768  83.9625035  96.1932114
  81.3057969  84.4193586  95.3539747  81.9151110  83.2015719  96.0154957
  85.1727574  79.7514766  97.0182234  84.9164508  79.3511402  97.8490442
  84.5480442  80.4658560  96.8932373  89.4839912  82.4910840  99.5253525
  88.9239470  82.5604029 100.2985087  88.8783415  82.3151824  98.8053022
  72.5535120  93.9247567 101.2771712  72.4367505  94.8692999 101.1750402
  71.7327567  93.6221128 101.6657511  82.4411655  88.6497703  92.1228304
  83.2757259  88.2178901  91.9405779  82.2795998  88.4779716  93.0505199
  82.0957547  85.1529816  93.4884644  82.0406351  84.9874087  92.5473088
  81.4703602  85.8605849  93.6446833  66.8850062  80.3897880 107.3146066
  67.5308926  79.8796834 107.8033291  66.6767213  81.1266562 107.8889491
  75.4053673  74.6537925  93.0669962  75.3932342  75.5979765  93.2238233
  76.2977094  74.4708070  92.7729423  73.5789635  94.5775829 104.4927640
  74.4816881  94.6099439 104.8094135  73.3527005  93.6476280 104.5073976
  75.3343237  93.3306815 101.1537719  74.3838868  93.3308677 101.0402091
  75.6375723  92.5839550 100.6373753  79.2205792  71.2480701  97.3215899
  78.4538188  70.6939188  97.4672581  79.6316497  71.3202570  98.1830050
  71.2247553  77.5365497 111.4121080  72.0879015  77.1802302 111.6224405
  70.6512964  77.1979392 112.0996484  83.7372452 100.9730258  98.1441897
  83.1737317 100.8820195  97.3758185  83.6224847 100.1530163  98.6244389
  81.2836884 102.4681450 100.9826117  82.0758176 102.1272274 100.5672417
  81.5233534 102.5776425 101.9028271  89.3172011 104.6401226  93.4556362
  88.6659990 105.2255306  93.0690375  90.1116374 105.1707421  93.5151399
  83.2427638 101.7290363  93.8543496  84.0158514 101.1819350  93.7156372
  83.5953037 102.5934612  94.0657957  85.5793916  97.8883029  91.4861946
  85.8319436  97.3664550  90.7245409  84.6418475  97.7249175  91.5888630
  90.6237199  96.8918808  99.2936689  91.4100288  96.4738231  98.9427106
  90.8875903  97.7964900  99.4618338  90.7947276 102.3291658  93.9925346
  90.1593109 102.4026284  94.7046251  90.4644682 102.9185257  93.3144425
  85.2990204  99.7911135  93.6886321  85.1826463  99.1156038  94.3567405
  85.4092464  99.3043509  92.8718474  87.6421745  99.2521282  97.3933010
  87.2779953  98.7251903  98.1045932  88.4988861  98.8619751  97.2199496
  87.2827232  94.2811182  92.3894359  87.4501635  95.1491418  92.7564830
  87.0924401  94.4438464  91.4655648  83.4915047  99.1941958 100.0896893
  82.5665543  99.0618172 100.2974585  83.7399460  99.9736177 100.5866836
  87.2616453  96.7368839  93.3741025  87.1416078  97.1825890  94.2126506
  86.5669042  97.0854157  92.8154564  80.8523858  98.8375231 100.9240683
  80.9816239  99.0909710 101.8380094  80.1721309  99.4302939 100.6045338
  92.9601519  97.2090313  94.2021360  93.8719375  97.4417699  94.0269057
  92.4511166  97.7927357  93.6396438  90.3037494  93.3848349 102.4511220
  89.4421973  93.6829602 102.7427958  90.3299929  93.6018747 101.5192253
  87.1199064 101.9290539  98.8585026  87.5837409 102.2078242  98.0689649
  86.8555862 101.0273984  98.6758117  86.0567950  98.0513691  95.6674591
  86.7591993  98.5034735  96.1348518  85.7248578  97.4097510  96.2954484
  79.7993284  96.3097244 100.9691725  79.0092338  96.5654773 100.4931835
  80.2904531  97.1245582 101.0743765  81.7508029  96.6741823  97.9275201
  80.9539192  96.7860518  98.4458697  81.5233621  97.0128476  97.0616092
  78.0830987  96.5627735 103.4006716  78.3339025  97.4474745 103.6664292
  78.6190535  96.3832336 102.6281807  87.2961714 104.8654634  95.7436696
  87.1607389 105.7106170  96.1721544  87.8371527 105.0673912  94.9802630
  80.7491112 102.3830072  96.3164622  81.2615632 103.1773322  96.4670186
  81.4013824 101.6856363  96.2498223  82.5585996 105.4995828  98.3987375
  82.7352625 106.4213793  98.2108359  83.3542830 105.1854248  98.8281754
  90.6454178  88.3885196 104.2735590  90.3018447  89.2786838 104.1974700
  91.0133140  88.1986854 103.4105175  78.7140028 100.7118726  97.0924192
  79.5515250 101.1215735  96.8757900  78.8918296  99.7718169  97.0624386
  90.6104461  98.3793807  92.7808025  90.0951084  99.1498412  93.0196412
  90.3381769  97.7058943  93.4041086  88.1951572  93.2243508  97.8393263
  87.3393168  92.8350358  97.6598902  88.6078523  93.3035469  96.9793049
  89.7250718  90.7589851 102.2384823  89.2215514  90.7219986 101.4252628
  90.0181325  91.6682594 102.2981480  85.9693604  90.8428581 101.2451005
  86.8346601  90.6471390 100.8856894  86.0371113  90.6138933 102.1720362
  95.5838735 101.1326162  94.7161198  94.8068177 100.7937321  94.2716361
  96.2630216 101.1378785  94.0416164  90.3990764  96.2520899  94.6067806
  90.0940899  96.5667048  95.4577949  91.3521206  96.3302319  94.6495139
  88.8437196 102.4111123  96.2560760  88.3158557 101.6763882  95.9433998
  88.3424698 103.1885799  96.0100728  83.5755923  93.0730789  98.6167372
  84.1499675  92.8505970  97.8840565  84.1626906  93.1419483  99.3695973
  83.9025510  95.1035250  92.6363257  83.0662823  95.4409936  92.9572532
  83.7630280  94.9684230  91.6990394  85.8778591  89.9472038  97.3442441
  85.2243003  89.6321055  96.7199056  85.8359065  89.3247778  98.0702264
  86.9889796 100.2291333  89.2595733  86.0816857  99.9980586  89.4586882
  87.4860828  99.4328952  89.4469715  89.8957875 108.9388840  92.1792419
  89.2219573 109.2420537  92.7877377  90.2823697 109.7417920  91.8297876
  89.1116331  96.4353971 101.6690089  88.1938893  96.6568918 101.5111777
  89.5276475  96.5100282 100.8101796  89.8951379  97.8345387  96.7992769
  90.6423198  98.3466784  96.4899891  90.1642969  97.5129440  97.6597163
  88.1678029 100.3303928  93.7819723  87.2589248 100.0462960  93.8792193
  88.1973113 100.7503006  92.9223030  92.3430216  94.8702503  98.7811558
  91.6052973  94.3579889  99.1121801  92.5956990  94.4302885  97.9694835
  92.4441843  87.6478755  99.3753328  92.7500720  86.7876119  99.0879243
  93.1694448  88.2396375  99.1752321  78.7366200  98.0509442  97.7634925
  78.5390599  97.4578802  97.0385992  78.1812864  97.7461652  98.4810864
  86.7162923  97.9432548  99.8829519  86.7711533  96.9906385  99.8071995
  85.9054125  98.0991987 100.3670817  87.8654117 101.8712671  91.1207802
  87.4273547 101.1548530  90.6613439  88.6064558 102.0988786  90.5592893
  84.6555283  96.5609608  97.6419898  83.8423149  96.8603779  98.0485090
  85.1514277  96.1665297  98.3594380  95.9827232 100.1469868  97.1784120
  95.8445130 100.3371464  96.2505310  95.6263451 100.9089251  97.6352172
  84.1469358  94.1327964 103.2581132  84.7868737  93.9916723 102.5604096
  83.3146888  93.8462477 102.8819734  84.9229662 103.4330394  99.3716125
  85.7170260 102.9380714  99.1698700  84.2121354 102.9048257  99.0083830
  81.2312425  97.5773476  95.4475878  80.3010013  97.5157931  95.6645840
  81.3269897  97.0549428  94.6512519  81.1497974  94.1028289  98.0354119
  81.4104792  95.0173622  97.9263280  81.9715147  93.6352731  98.1850732
  82.6222900  95.5166046 105.2052944  83.2945953  95.3083408 104.5565593
  81.7952686  95.3188132 104.7658176  88.0949090 109.1068512  94.3939499
  88.2700845 108.6356556  95.2085121  87.4081878 109.7334279  94.6220759
  91.9865345 100.7297053  90.7139859  91.3694515 100.0043881  90.6172912
  91.5181833 101.4906413  90.3706934  83.7763891  94.9482477  89.8361164
  82.8993357  94.8271278  89.4723410  84.2521644  94.1568556  89.5840052
  75.2966031  99.7359637  99.9302671  75.9837070  99.4221367  99.3423686
  75.1414159 100.6401002  99.6569922  80.1000753  94.6249834 104.3587695
  80.0158942  94.0175503 103.6238105  79.2783459  95.1158852 104.3597191
  90.2724467  93.1103397  99.7257890  90.7693166  92.3573359  99.4058960
  89.5011448  93.1467714  99.1601099  91.3554247 101.8675084  97.2996313
  90.4210526 101.9876547  97.1301017  91.5330916 100.9647551  97.0356323
  86.8559435  95.2520780  99.4529574  86.4857223  94.6991820 100.1410480
  87.3518528  94.6478914  98.9004574  94.7426799  97.7092404  97.8346347
  95.2087251  98.5420395  97.7606650  95.1934299  97.2437385  98.5391606
  92.8103030 104.0536225  94.8332499  93.0862874 103.9392819  95.7426373
  91.9407529 103.6553710  94.7944672  92.7143461  90.0772991 101.8737248
  91.8006541  90.3077217 102.0419455  93.1436563  90.1611435 102.7251281
  89.7799259 107.2290761  95.7380361  90.3087026 106.7183215  95.1250523
  90.0427479 106.9133291  96.6025894  74.8734007  97.8160230 102.2020138
  74.9118106  97.2823821 102.9957256  74.3674300  97.2895436 101.5831115
  82.2524769  92.6624771 105.6982680  82.3166096  93.5239602 105.2860078
  82.1891889  92.0498773 104.9655039  78.5042584  96.5424333  95.2774069
  78.7996025  95.6335011  95.2241123  77.6030620  96.5212072  94.9555072
  82.0336831  94.6180329 101.2601618  81.3123417  95.2316297 101.1209091
  82.8230087  95.1538094 101.1818264  80.2330426  94.2238430  95.4013395
  79.9043132  93.3435809  95.2188500  80.5869797  94.1686099  96.2889784
  83.3472249  94.5111400  95.7688872  83.6868322  95.0397321  95.0467481
  83.7944370  94.8491806  96.5447439  86.0415690  92.8948451 105.2191940
  85.7012510  92.0956264 105.6212620  85.3354696  93.1950162 104.6468773
  86.6932162  89.9797763 103.6719263  87.5158231  89.5058241 103.5498154
  86.9370225  90.7588247 104.1717950  85.3340396  93.0086022  93.9682165
  86.0548759  93.3867274  93.4645882  84.7105700  93.7274898  94.0717143
  89.4771519  93.7131171  94.9040497  89.6935134  94.5955808  94.6029325
  88.9965586  93.3217384  94.1746139  84.2170740  96.6716884 101.4811242
  84.0715321  96.9857187 102.3735523  83.7395944  97.2901784 100.9282141
  86.0767123  93.6619432 101.5292131  86.0628692  92.7660525 101.1924429
  86.7939551  93.6690095 102.1630418  87.9293254  94.0956772 103.5745259
  87.6711032  95.0173843 103.5729589  87.3978294  93.6987206 104.2645723
  78.6916403  99.2122228 104.4198903  78.1469871  99.9882036 104.5519177
  79.5695753  99.5593033 104.2618025  85.4804019  92.5433812  96.7979702
  85.6019931  91.6150458  96.9970589  85.1906062  92.5572498  95.8858017
  88.3495210  90.2288722  99.9346421  88.3716907  90.2928056  98.9798401
  88.7663269  89.3893231 100.1286928  93.8614615 106.5174323  93.4532243
  94.5565520 107.1381016  93.6719557  94.2037765 105.6669675  93.7284620
  95.7606038 103.9674029  94.9819573  96.2857363 104.3061302  94.2568893
  95.6728391 103.0321044  94.7982708  79.9239038 106.2257553  99.3439455
  80.7497058 105.9261325  98.9638098  79.5733090 105.4565176  99.7929243
  78.1247643 104.1443880 100.3028388  77.2879552 103.7166054 100.1212389
  78.0971289 104.3376323 101.2399179  84.4534078 104.1287945  94.8895589
  84.6022199 104.8123409  94.2362261  85.2600522 104.1093035  95.4045044
  82.2086711 100.1553122  95.8956658  81.9632753  99.2515452  96.0936868
  82.3782626 100.1570273  94.9536136  81.4782359  95.8881480  93.3942819
  80.7851604  95.9625835  92.7382855  81.2334111  95.1241824  93.9164336
  90.1496015  87.4477081 100.7982310  90.4297769  86.7800270 101.4242736
  90.9346622  87.6406177 100.2856974  87.9529484 106.6236075  92.3607336
  87.3803451 107.2426262  91.9077808  88.5262277 107.1735437  92.8947258
  91.1726744 106.9073225  93.4915918  92.1057417 106.8418787  93.6948794
  91.0849956 107.7429492  93.0330451  93.8014760 106.2239096  90.4519866
  93.7228392 105.8898959  91.3455624  94.6224427 106.7160864  90.4511338
  88.3376282  97.9596888  89.7023389  89.2835387  97.8303096  89.7711807
  87.9590527  97.2211550  90.1792817  94.3098167  89.6252894  99.6650280
  94.1122988  89.3167982 100.5493612  94.9197872  90.3514533  99.7948210
  86.5219199  95.8846864  89.6378274  85.6150655  95.5879977  89.7140987
  86.7995180  95.5876682  88.7712560  77.4397140  97.2053228 100.0877320
  77.1199924  96.3518536  99.7951694  76.8930568  97.4201806 100.8435288
  88.1381265  90.4283754  95.7922515  87.3281993  90.0830839  96.1677761
  88.8265682  90.1191298  96.3810127  90.0671813  89.5061801  97.4146812
  90.6202852  89.9257254  98.0736835  90.3041900  88.5797549  97.4569768
  85.2917984  92.7433800  89.7790253  86.1537148  93.0688698  90.0386070
  85.4768328  91.9565295  89.2663319  77.3085400 100.8256139 102.0570442
  76.6148871 100.4110092 101.5440396  78.0558391 100.8676676 101.4603861
  93.4450621  91.6162326  96.9225476  92.8649290  92.2747130  96.5403528
  93.1786553  90.7939671  96.5112894  91.8954187  91.0167384  99.1246796
  92.3953965  91.1283918  98.3161115  92.5389795  90.7128437  99.7647605
  79.2222142 100.7574393  99.9336457  79.1992830 100.8562080  98.9818340
  79.5322779 101.6039544 100.2553623  92.2275499  93.7762416  95.9781824
  91.3401354  94.0612067  95.7602019  92.6429488  93.6156180  95.1309101
  95.5790035  93.8008937  99.6936164  96.3550425  94.2905390  99.9660780
  94.8538169  94.2266992 100.1508033  91.3718712 103.5407091  90.0729844
  92.0754562 103.7457094  90.6887500  90.6481361 104.1083853  90.3378928
  92.2016522  99.2916952  96.1932114  92.1451724  99.7485504  95.3539747
  92.7544865  98.5307637  96.0154957  96.0121328  95.0806684  97.0182234
  95.7558262  94.6803320  97.8490442  95.3874196  95.7950478  96.8932373
  93.2805409 103.9789620  92.1228304  94.1151013 103.5470819  91.9405779
  93.1189752 103.8071634  93.0505199  92.9351302 100.4821734  93.4884644
  92.8800105 100.3166005  92.5473088  92.3097357 101.1897766  93.6446833
  77.7243817  95.7189798 107.3146066  78.3702680  95.2088752 107.8033291
  77.5160968  96.4558480 107.8889491  86.2447427  89.9829843  93.0669962
  86.2326097  90.9271682  93.2238233  87.1370849  89.7999988  92.7729423
  90.0599547  86.5772619  97.3215899  89.2931942  86.0231106  97.4672581
  90.4710252  86.6494488  98.1830050  94.7419265 110.4327168  92.6363257
  93.9056577 110.7701854  92.9572532  94.6024034 110.2976147  91.6990394
  94.6157645 110.2774395  89.8361164  93.7387111 110.1563196  89.4723410
  95.0915398 109.4860473  89.5840052  92.3176113 111.2173398  93.3942819
  91.6245358 111.2917753  92.7382855  92.0727865 110.4533741  93.9164336
  97.3612954 111.2138782  89.6378274  96.4544409 110.9171895  89.7140987
  97.6388935 110.9168600  88.7712560  96.1311739 108.0725717  89.7790253
  96.9930903 108.3980616  90.0386070  96.3162083 107.2857213  89.2663319
  97.0841182 105.3121760  93.0669962  97.0719851 106.2563600  93.2238233
  97.9764603 105.1291906  92.7729423  36.8727159  -0.4730112  88.9428788
  37.5105569  -0.5923365  88.2392128  36.7548002   0.4750732  89.0016740
  29.5403681   1.3332792  84.8687203  28.9768546   1.2422729  84.1003491
  29.4256076   0.5132697  85.3489696  35.1203240   5.0003760  80.1801668
  34.4691219   5.5857841  79.7935682  35.9147602   5.5309955  80.2396706
  29.0458867   2.0892897  80.5788803  29.8189743   1.5421884  80.4401678
  29.3984266   2.9537147  80.7903264  31.3825145  -1.7514437  78.2107253
  31.6350665  -2.2732915  77.4490716  30.4449704  -1.9148291  78.3133936
  36.4268427  -2.7478658  86.0181996  37.2131517  -3.1659235  85.6672413
  36.6907132  -1.8432566  86.1863644  36.5978505   2.6894192  80.7170653
  35.9624338   2.7628819  81.4291557  36.2675911   3.2787791  80.0389732
  41.8276854  -2.8103425  86.9214974  42.5602026  -3.3804208  87.1552804
  41.0716210  -3.1981825  87.3621480  31.1021433   0.1513669  80.4131628
  30.9857691  -0.5241427  81.0812712  31.2123693  -0.3353957  79.5963781
  33.4452974  -0.3876184  84.1178317  33.0811181  -0.9145563  84.8291238
  34.3020090  -0.7777715  83.9444802  33.0647682  -2.9028626  80.0986332
  32.9447307  -2.4571576  80.9371812  32.3700270  -2.5543309  79.5399870
  30.8254574   9.8675015  83.7476463  30.7478604  10.8182840  83.8264944
  30.2216218   9.5220888  84.4051390  38.7632748  -2.4307153  80.9266666
  39.6750604  -2.1979766  80.7514364  38.2542395  -1.8470109  80.3641745
  37.3702331   2.5518665  88.3180248  36.7411193   2.7164379  87.6156315
  36.9827993   2.9660275  89.0891212  41.2491562   3.4873103  85.6724611
  40.5642601   3.8672004  85.1221645  41.3335412   4.0968430  86.4056559
  32.9230292   2.2893073  85.5830333  33.3868638   2.5680776  84.7934955
  32.6587090   1.3876518  85.4003423  31.8599178  -1.5883774  82.3919898
  32.5623222  -1.1362731  82.8593824  31.5279807  -2.2299955  83.0199791
  39.6188322   4.0105018  90.4442312  40.4405766   3.6085205  90.1624994
  39.6150725   3.9073252  91.3958428  47.7094315   0.3543766  86.7927284
  46.9558023  -0.2148836  86.6371288  47.8441856   0.3206431  87.7397918
  33.0992943   5.2257168  82.4682003  32.9638618   6.0708704  82.8966851
  33.6402756   5.4276446  81.7047937  26.5522340   2.7432606  83.0409928
  27.0646861   3.5375857  83.1915493  27.2045053   2.0458897  82.9743530
  28.3617225   5.8598363  85.1232681  28.5383853   6.7816327  84.9353665
  29.1574059   5.5456782  85.5527061  29.4848541   7.3776536  91.1243024
  30.0355966   7.2493600  90.3520018  28.6460017   7.6771425  90.7737916
  36.4135689  -1.2603659  79.5053332  35.8982313  -0.4899054  79.7441719
  36.1412998  -1.9338523  80.1286393  41.3869963   1.4928696  81.4406505
  40.6099406   1.1539855  80.9961667  42.0661444   1.4981319  80.7661470
  36.2021993  -3.3876567  81.3313113  35.8972128  -3.0730417  82.1823256
  37.1552435  -3.3095147  81.3740446  34.6468424   2.7713657  82.9806067
  34.1189786   2.0366416  82.6679304  34.1455927   3.5488333  82.7346035
  39.6261270   0.9662677  88.0973113  38.9684945   1.6561939  88.1853242
  40.4301670   1.3559109  88.4407099  38.4366729  -0.6792950  86.1477055
  38.9498611  -0.0462958  86.6498765  39.0867953  -1.2791755  85.7820415
  32.7921025   0.5893867  75.9841040  31.8848086   0.3583120  76.1832189
  33.2892057  -0.2068514  76.1715021  35.6989103   9.2991374  78.9037726
  35.0250802   9.6023071  79.5122684  36.0854925  10.1020455  78.5543183
  35.6982608  -1.8052079  83.5238076  36.4454427  -1.2930682  83.2145198
  35.9674197  -2.1268026  84.3842469  33.9709258   0.6906462  80.5065030
  33.0620477   0.4065495  80.6037500  34.0004342   1.1105540  79.6468337
  39.2028525   4.3013051  84.2756197  38.7490853   3.4603961  84.3321388
  38.5722492   4.9374450  84.6130978  38.1461445  -4.7694963  85.5056865
  37.4084202  -5.2817576  85.8367108  38.3988218  -5.2094581  84.6940142
  37.6461465   6.1389548  85.2106016  37.9384439   6.6994605  84.4918381
  38.1560085   6.4318109  85.9659175  32.5194152  -1.6964918  86.6074825
  32.5742762  -2.6491081  86.5317302  31.7085354  -1.5405478  87.0916124
  33.6685346   2.2315206  77.8453109  33.2304776   1.5151064  77.3858746
  34.4095787   2.4591320  77.2838200  32.6095090   6.9169899  86.2999469
  32.5671269   7.1430745  85.3708001  33.5257789   6.6833274  86.4485270
  41.7858461   0.5072403  83.9029427  41.6476359   0.6973999  82.9750616
  41.4294679   1.2691785  84.3597478  41.8127840   2.5748930  88.9140699
  42.2464347   2.4824219  89.7623753  42.5259421   2.5506430  88.2760715
  30.7260891   3.7932928  86.0961432  31.5201489   3.2983248  85.8944007
  30.0152583   3.2650791  85.7329137  35.5455735   6.1751024  90.4473799
  35.5992757   6.7441960  91.2151515  34.6770516   6.3452909  90.0827836
  42.6743390   2.6172630  91.4473584  42.8679280   3.5218441  91.6932859
  42.5744008   2.1580049  92.2812169  33.3032167   4.3661950  89.7759269
  33.1643252   3.9980735  90.6485207  32.5146763   4.8809590  89.6043226
  33.8980319   9.4671047  81.1184805  34.0732074   8.9959090  81.9330428
  33.2113107  10.0936813  81.3466066  34.8537382   3.7443553  87.1648106
  34.5187214   3.7044323  88.0605756  34.3541327   3.0788269  86.6918517
  37.7896573   1.0899587  77.4385166  37.1725744   0.3646415  77.3418219
  37.3213062   1.8508947  77.0952240  28.4641404  12.6160409  87.8924665
  28.7038002  13.2478934  88.5703684  27.6210600  12.2648449  88.1790025
  32.9769266   8.4239532  90.2966169  32.9039437   9.2294503  90.8085474
  32.5346659   8.6231498  89.4714191  32.7659045   7.6611302  83.8068991
  31.9826567   8.2032982  83.9007215  33.4651791   8.1785281  84.2063232
  43.9285453  -0.8253703  88.0921488  43.9175329   0.0571012  87.7215421
  43.0602832  -1.1782152  87.8976025  35.4367949   8.3226366  92.4524328
  36.1495921   8.9573831  92.3800229  34.9457978   8.4190232  91.6364330
  37.1585476   2.2277619  84.0241620  36.2241755   2.3479081  83.8546324
  37.3362145   1.3250085  83.7601629  40.5458028  -1.9305062  84.5591654
  41.0118480  -1.0977071  84.4851956  40.9965528  -2.3960081  85.2636912
  38.6134259   4.4138759  81.5577806  38.8894103   4.2995354  82.4671680
  37.7438757   4.0156244  81.5189979  35.2488323   8.6625110  85.2010619
  35.4310717   7.8446766  85.6638372  36.0721309   8.8792802  84.7635509
  35.5830488   7.5893295  82.4625668  36.1118255   7.0785750  81.8495830
  35.8458708   7.2735825  83.3271201  28.9386236   8.6408412  85.2223444
  28.2696611   9.1254539  84.7387484  28.7999106   8.8877632  86.1366822
  33.0791505  10.6752155  91.8206102  33.6309813  10.8383777  92.5855187
  33.4197698  11.2656593  91.1486127  36.2159892   8.6234131  88.8069784
  36.0911031   7.8223871  88.2980730  36.8738983   9.1180324  88.3183754
  38.2794800   6.4243151  90.4349334  37.3325136   6.3048502  90.3627661
  38.6277573   5.5365649  90.5175596  35.2841234   6.2195867  86.6353687
  35.1366196   5.2912575  86.8161257  36.1094727   6.2415958  86.1510762
  38.8875355   7.0424426  87.7218559  39.8121903   6.8367287  87.5843011
  38.7190659   6.7940827  88.6307901  38.6770672   7.5610093  83.0780651
  38.8507549   6.9956516  82.3254503  39.1699563   8.3610988  82.8960141
  44.5310063   0.3246516  84.6970951  44.9741209  -0.4246159  84.2990074
  43.6536573   0.3156653  84.3144683  39.6645844   6.8776858  80.1777549
  40.3596749   7.4983550  80.3964864  40.0068994   6.0272209  80.4529927
  41.5637267   4.3276563  81.7064880  42.0888591   4.6663836  80.9814200
  41.4759620   3.3923579  81.5228015  33.2477928  10.3948546  86.0660133
  32.8082918   9.9024925  86.7592990  33.9986045   9.8521514  85.8252208
  25.7270267   6.5860087  86.0684761  26.5528287   6.2863859  85.6883405
  25.3764319   5.8167710  86.5174550  30.6951800   5.9386556  88.1382435
  30.0731809   5.2757261  87.8384663  31.3656667   5.9647687  87.4556083
  30.2565307   4.4890479  81.6140895  30.4053427   5.1725943  80.9607568
  31.0631751   4.4695569  82.1290351  44.0742928   1.7951755  87.0893398
  44.9089819   2.2341559  87.2530959  44.2102056   1.3190408  86.2701644
  28.0117940   0.5155657  82.6201964  27.7663982  -0.3882013  82.8182174
  28.1813855   0.5172807  81.6781442  33.7560713   6.9838609  79.0852643
  33.1834680   7.6028796  78.6323115  34.3293506   7.5337971  79.6192565
  36.9757972   7.2675759  80.2161225  37.9088646   7.2021321  80.4194101
  36.8881185   8.1032026  79.7575758  39.6045989   6.5841630  77.1765173
  39.5259621   6.2501493  78.0700931  40.4255656   7.0763398  77.1756645
  42.3024180  -0.5496631  90.3841491  42.2700500  -1.4880630  90.5701175
  42.9124804  -0.4712594  89.6507316  34.1407511  -1.6800578  76.4268695
  35.0866616  -1.8094370  76.4957113  33.7621756  -2.4185916  76.9038123
  48.1200730   0.5119376  89.5247528  48.8504119   0.2504664  90.0855231
  47.5107676  -0.2251902  89.5649596  46.2016027  -1.3472761  90.1221979
  45.4749191  -1.4816796  89.5138471  45.7863314  -1.0395933  90.9278697
  39.2481849  -8.0235140  83.6470783  38.6680518  -7.3650336  83.2648835
  38.9817782  -8.8457795  83.2358200  38.0306727  -5.8635049  82.7027131
  37.1432582  -5.5785399  82.4847326  38.4460716  -6.0241286  81.8554408
  41.3821264  -5.8388528  86.4181470  42.1581654  -5.3492076  86.6906087
  40.6569398  -5.4130474  86.8753340  43.8193822  -5.1260909  87.4755411
  44.4138313  -5.3665173  86.7648719  43.8920406  -5.8453779  88.1028947
  26.0390978   8.7172702  87.7898576  25.9045446   7.9573103  87.2236574
  25.6223040   9.4413602  87.3227365  37.1749941   3.9009625  76.7975151
  37.8785791   4.1059628  77.4132807  36.4512590   4.4686387  77.0624234
  38.0047751  -0.3480513  82.9177421  37.9482953   0.1088038  82.0785054
  38.5576094  -1.1089829  82.7400264  41.8152557  -4.5590782  83.7427541
  41.5589491  -4.9594146  84.5735748  41.1905425  -3.8446988  83.6177680
  46.1264895  -1.8194708  86.2498832  45.5664453  -1.7501519  87.0230394
  45.5208398  -1.9953724  85.5298328  29.1960104   9.6142019  88.0017018
  29.0792488  10.5587451  87.8995709  28.3752550   9.3115580  88.3902818
  39.0836638   4.3392154  78.8473611  39.9182242   3.9073353  78.6651086
  38.9220981   4.1674168  79.7750505  38.7382530   0.8424268  80.2129950
  38.6831334   0.6768539  79.2718394  38.1128586   1.5500301  80.3692140
  30.2214618  10.2670281  91.2172947  31.1241865  10.2993891  91.5339442
  29.9951988   9.3370732  91.2319283  31.9768220   9.0201267  87.8783025
  31.0263851   9.0203129  87.7647398  32.2800706   8.2734002  87.3619060
  47.7120913  14.8561806  88.9428788  48.3499323  14.7368553  88.2392128
  47.5941756  15.8042650  89.0016740  44.5210620  14.8089234  88.8790312
  44.1829131  14.6930298  87.9910847  45.3900388  14.4080399  88.8591319
  40.3797435  16.6624710  84.8687203  39.8162300  16.5714647  84.1003491
  40.2649830  15.8424615  85.3489696  45.0030403  15.9624085  94.8376518
  44.9919043  15.5676884  93.9657022  45.1651042  15.2290158  95.4310289
  37.9261867  18.1575902  87.7071424  38.7183159  17.8166726  87.2917723
  38.1658517  18.2670877  88.6273577  45.9596994  20.3295678  80.1801668
  45.3084974  20.9149758  79.7935682  46.7541357  20.8601873  80.2396706
  39.8852621  17.4184815  80.5788803  40.6583497  16.8713802  80.4401678
  40.2378020  18.2829064  80.7903264  41.7237664  18.7461197  93.7855702
  41.4327530  19.6506828  93.6702368  42.3594648  18.7877725  94.4999772
  42.6493871  16.1238046  90.3757062  43.2457443  15.8994068  89.6614025
  42.7068842  15.3822791  90.9782509  42.2218899  13.5777481  78.2107253
  42.4744420  13.0559002  77.4490716  41.2843458  13.4143626  78.3133936
  47.2662182  12.5813259  86.0181996  48.0525271  12.1632683  85.6672413
  47.5300886  13.4859352  86.1863644  47.4372259  18.0186110  80.7170653
  46.8018092  18.0920736  81.4291557  47.1069666  18.6079709  80.0389732
  52.6670609  12.5188493  86.9214974  53.3995781  11.9487709  87.1552804
  51.9109965  12.1310093  87.3621480  41.9415188  15.4805587  80.4131628
  41.8251446  14.8050490  81.0812712  42.0517448  14.9937961  79.5963781
  44.2846729  14.9415734  84.1178317  43.9204936  14.4146355  84.8291238
  45.1413845  14.5514203  83.9444802  50.1896029   6.2310067  91.3809583
  49.8579354   7.1005478  91.1570798  49.5941643   5.9146351  92.0603613
  43.9252216   9.9705634  79.1139665  44.0926618  10.8385870  79.4810136
  43.7349385  10.1332915  78.1900955  46.6827549  18.4322613  90.7805496
  46.3828272  19.3347652  90.6721303  46.3378608  18.1654796  91.6326649
  40.1340030  14.8836410  86.8142200  39.2090527  14.7512624  87.0219892
  40.3824444  15.6630629  87.3112142  50.0824693  10.9505153  88.4602933
  49.1741570  10.8820561  88.1661694  50.0312288  11.4277098  89.2884758
  43.9041437  12.4263291  80.0986332  43.7841062  12.8720342  80.9371812
  43.2094025  12.7748609  79.5399870  37.4948841  14.5269683  87.6485989
  37.6241223  14.7804162  88.5625401  36.8146293  15.1197391  87.3290644
  41.6648329  25.1966933  83.7476463  41.5872358  26.1474758  83.8264944
  41.0609972  24.8512806  84.4051390  44.1565558  12.3694798  96.4037830
  43.3798892  12.9288719  96.3940695  44.7956121  12.8551581  96.9252700
  51.9486339   9.1521591  90.2380807  51.3060719   9.4454124  89.5920601
  51.4441268   9.0374512  91.0434004  49.6026503  12.8984764  80.9266666
  50.5144359  13.1312151  80.7514364  49.0936150  13.4821809  80.3641745
  42.4111931  15.1780252  95.9655797  43.1526615  15.7165296  95.6890621
  41.7048916  15.8046541  96.1227349  47.8867270  17.3209392  94.5627959
  48.2950626  16.8791803  93.8182591  47.1644532  16.7462020  94.8162152
  44.2398340  12.2581999  91.9361516  45.0859536  12.6821413  92.0796165
  44.1796978  11.6015623  92.6300079  48.2096085  17.8810583  88.3180248
  47.5804947  18.0456297  87.6156315  47.8221747  18.2952192  89.0891212
  52.0885317  18.8165021  85.6724611  51.4036355  19.1963922  85.1221645
  52.1729166  19.4260347  86.4056559  47.3897786   9.9186367  93.5942689
  47.1458718  10.6728428  93.0576965  47.6657716  10.2971715  94.4289936
  49.3436249  16.4624980  92.2719955  49.5553144  17.1056740  91.5954336
  49.2965997  15.6287296  91.8041885  46.9462477   9.0742800  89.1756527
  46.0846956   9.3724054  89.4673265  46.9724912   9.2913199  88.2437560
  43.7624047  17.6184991  85.5830333  44.2262392  17.8972694  84.7934955
  43.4980845  16.7168436  85.4003423  40.6548128  17.1656473  88.5210096
  41.2249485  17.5943741  87.8827580  41.2456240  16.8839057  89.2194282
  42.6992933  13.7408143  82.3919898  43.4016976  14.1929187  82.8593824
  42.3673561  13.0991962  83.0199791  41.1473294  12.3319900  96.7671107
  40.5171955  13.0136181  97.0006504  41.0409382  12.2202982  95.8224245
  36.4418267  11.9991696  87.6937031  35.6517321  12.2549225  87.2177142
  36.9329514  12.8140034  87.7989072  50.4582076  19.3396935  90.4442312
  51.2799520  18.9377122  90.1624994  50.4544479  19.2365169  91.3958428
  38.3933012  12.3636275  84.6520508  37.5964176  12.4754970  85.1704004
  38.1658604  12.7022928  83.7861399  44.2238680  18.8880979  92.6003023
  44.2883112  19.3501386  93.4361195  43.5149604  18.2578343  92.7285333
  34.7255970  12.2522186  90.1252022  34.9764008  13.1369196  90.3909598
  35.2615518  12.0726788  89.3527114  58.5488070  15.6835684  86.7927284
  57.7951778  15.1143082  86.6371288  58.6835611  15.6498348  87.7397918
  43.9386698  20.5549086  82.4682003  43.8032372  21.4000622  82.8966851
  44.4796510  20.7568364  81.7047937  37.3916095  18.0724524  83.0409928
  37.9040616  18.8667774  83.1915493  38.0438808  17.3750814  82.9743530
  39.2010980  21.1890280  85.1232681  39.3777608  22.1108245  84.9353665
  39.9967813  20.8748700  85.5527061  43.3421998   8.0498545  96.7216615
  44.0831712   8.6505698  96.6421077  43.5739921   7.3076183  96.1634657
  38.4863336  13.2354912  94.9994845  38.3716851  12.3340169  95.3001943
  37.6307854  13.4818609  94.6479661  45.5655174  21.1772653  96.5982345
  45.1219028  20.3909031  96.2803250  46.2272388  21.3651803  95.9326236
  40.3242295  22.7068454  91.1243024  40.8749720  22.5785517  90.3520018
  39.4853771  23.0063343  90.7737916  47.6636412  21.4575452  94.6263746
  47.6454887  22.2784333  94.1344016  48.5856332  21.3329528  94.8513888
  44.1209466  18.9719582  95.4687255  44.6537803  18.2107870  95.2386563
  43.5923547  18.6793234  96.2111409  47.2879161   4.0779648  90.9980897
  46.9443431   4.9681290  90.9220007  47.6558124   3.8881306  90.1350482
  35.3565012  16.4013178  83.8169499  36.1940234  16.8110187  83.6003206
  35.5343279  15.4612621  83.7869693  47.2529444  14.0688259  79.5053332
  46.7376067  14.8392864  79.7441719  46.9806752  13.3953395  80.1286393
  44.8376555   8.9137960  84.5638570  43.9818151   8.5244810  84.3844209
  45.2503507   8.9929921  83.7038356  46.3675702   6.4484303  88.9630130
  45.8640497   6.4114438  88.1497935  46.6606308   7.3577046  89.0226786
  42.6118587   6.5323033  87.9696312  43.4771584   6.3365841  87.6102201
  42.6796096   6.3033385  88.8965668  52.2263718  16.8220614  81.4406505
  51.4493161  16.4831773  80.9961667  52.9055199  16.8273237  80.7661470
  47.0415747  11.9415351  81.3313113  46.7365883  12.2561500  82.1823256
  47.9946189  12.0196771  81.3740446  45.4862179  18.1005574  82.9806067
  44.9583540  17.3658334  82.6679304  44.9849682  18.8780251  82.7346035
  50.4655025  16.2954595  88.0973113  49.8078699  16.9853856  88.1853242
  51.2695424  16.6851027  88.4407099  40.2180906   8.7625241  85.3412678
  40.7924658   8.5400422  84.6085871  40.8051889   8.8313935  86.0941280
  49.2760484  14.6498968  86.1477055  49.7892365  15.2828959  86.6498765
  49.9261708  14.0500163  85.7820415  40.5450494  10.7929702  79.3608564
  39.7087806  11.1304388  79.6817838  40.4055263  10.6578682  78.4235701
  42.5203574   5.6366490  84.0687748  41.8667987   5.3215507  83.4444363
  42.4784048   5.0142230  84.7947571  43.6314779  15.9185785  75.9841040
  42.7241841  15.6875038  76.1832189  44.1285811  15.1223404  76.1715021
  46.5382858  24.6283292  78.9037726  45.8644557  24.9314989  79.5122684
  46.9248680  25.4312372  78.5543183  45.7541315  12.1248423  88.3935395
  44.8363876  12.3463370  88.2357083  46.1701458  12.1994734  87.5347103
  46.5376362  13.5239839  83.5238076  47.2848181  14.0361236  83.2145198
  46.8067952  13.2023892  84.3842469  44.8103012  16.0198380  80.5065030
  43.9014232  15.7357412  80.6037500  44.8398096  16.4397458  79.6468337
  50.0422280  19.6304969  84.2756197  49.5884607  18.7895879  84.3321388
  49.4116247  20.2666367  84.6130978  48.9855199  10.5596955  85.5056865
  48.2477956  10.0474341  85.8367108  49.2381973  10.1197337  84.6940142
  48.4855219  21.4681466  85.2106016  48.7778194  22.0286523  84.4918381
  48.9953840  21.7610027  85.9659175  49.0866827   3.3373207  86.0998634
  49.3925704   2.4770570  85.8124549  49.8119432   3.9290827  85.8997628
  35.3791183  13.7403894  84.4880232  35.1815583  13.1473254  83.7631299
  34.8237847  13.4356104  85.2056171  43.3587907  13.6327000  86.6074825
  43.4136516  12.6800837  86.5317302  42.5479109  13.7886439  87.0916124
  44.5079100  17.5607123  77.8453109  44.0698530  16.8442982  77.3858746
  45.2489541  17.7883238  77.2838200  41.2980266  12.2504060  84.3665204
  40.4848132  12.5498230  84.7730396  41.7939261  11.8559749  85.0839686
  43.4488844  22.2461817  86.2999469  43.4065023  22.4722663  85.3708001
  44.3651543  22.0125191  86.4485270  46.8954478  12.7145884  93.1980098
  47.2503866  12.9417357  94.0574564  47.5426609  13.0464261  92.5757353
  52.6252215  15.8364320  83.9029427  52.4870114  16.0265916  82.9750616
  52.2688434  16.5983703  84.3597478  40.7894341   9.8222415  89.9826439
  41.4293721   9.6811175  89.2849402  39.9571872   9.5356929  89.6065041
  52.6521595  17.9040847  88.9140699  53.0858101  17.8116136  89.7623753
  53.3653175  17.8798348  88.2760715  41.5654645  19.1224846  86.0961432
  42.3595244  18.6275166  85.8944007  40.8546337  18.5942709  85.7329137
  46.3849490  21.5042941  90.4473799  46.4386512  22.0733878  91.2151515
  45.5164271  21.6744826  90.0827836  37.8737409  13.2667928  82.1721184
  36.9434997  13.2052383  82.3891146  37.9694881  12.7443880  81.3757825
  37.7922958   9.7922740  84.7599426  38.0529775  10.7068074  84.6508586
  38.6140130   9.3247183  84.9096039  39.2647883  11.2060498  91.9298250
  39.9370936  10.9977860  91.2810899  38.4377669  11.0082584  91.4903483
  53.5137144  17.9464548  91.4473584  53.7073034  18.8510358  91.6932859
  53.4137762  17.4871967  92.2812169  45.1673455   7.8322438  93.9463911
  44.5201370   8.5312388  93.8528388  45.9374470   8.2658582  94.3140160
  48.5752253  18.0971291  97.0214465  48.4237759  17.8681842  96.1044548
  48.5656932  19.0541892  97.0345810  45.3437589  15.6703203  92.0060731
  46.2729649  15.8214363  91.8329698  44.9228619  15.7587224  91.1509378
  44.1425921  19.6953868  89.7759269  44.0037007  19.3272652  90.6485207
  43.3540517  20.2101507  89.6043226  44.7374073  24.7962964  81.1184805
  44.9125829  24.3251007  81.9330428  44.0506861  25.4228730  81.3466066
  45.6931136  19.0735471  87.1648106  45.3580969  19.0336240  88.0605756
  45.1935082  18.4080186  86.6918517  39.6675380  14.4803101  92.6900688
  39.5295178  13.7483339  93.2912227  40.5780304  14.3912001  92.4084875
  48.6290328  16.4191505  77.4385166  48.0119499  15.6938333  77.3418219
  48.1606816  17.1800865  77.0952240  42.2957681  14.1923060  92.1784367
  43.0057299  13.5516252  92.1370986  42.2526989  14.4435955  93.1010548
  50.2844460  21.1290413  95.0990946  50.2257006  20.4449633  94.4321529
  50.6863978  21.8709403  94.6471572  41.0086615  11.1788278  93.9980007
  40.4723972  10.7279016  94.6501603  40.4203323  11.3134187  93.2550471
  39.3035158  27.9452327  87.8924665  39.5431757  28.5770851  88.5703684
  38.4604355  27.5940367  88.1790025  40.4188874  10.6376929  76.5606470
  39.5418340  10.5165730  76.1968717  40.8946627   9.8463007  76.3085359
  50.2861867  19.0929997  93.3304926  49.3988646  18.7555919  93.4531325
  50.8560418  18.3613028  93.5673692  31.9391014  15.4254089  86.6547978
  32.6262054  15.1115819  86.0668993  31.7839143  16.3295454  86.3815229
  36.7425736  10.3144285  91.0833001  36.6583925   9.7069955  90.3483411
  35.9208442  10.8053304  91.0842498  43.8163020  23.7531449  90.2966169
  43.7433192  24.5586421  90.8085474  43.3740413  23.9523415  89.4714191
  43.6052800  22.9903220  83.8068991  42.8220322  23.5324900  83.9007215
  44.3045545  23.5077199  84.2063232  46.9149450   8.7997849  86.4503196
  47.4118149   8.0467811  86.1304267  46.1436431   8.8362166  85.8846406
  54.7679207  14.5038215  88.0921488  54.7569084  15.3862930  87.7215421
  53.8996587  14.1509765  87.8976025  46.2761704  23.6518284  92.4524328
  46.9889676  24.2865748  92.3800229  45.7851732  23.7482150  91.6364330
  47.9979231  17.5569536  84.0241620  47.0635509  17.6770999  83.8546324
  48.1755899  16.6542003  83.7601629  43.4984419  10.9415232  86.1774881
  43.1282206  10.3886272  86.8655786  43.9943511  10.3373365  85.6249881
  51.3851782  13.3986855  84.5591654  51.8512234  14.2314847  84.4851956
  51.8359282  12.9331837  85.2636912  41.3273617  21.4012727  93.2729899
  42.0283077  22.0349210  93.4259293  40.8568732  21.7427459  92.5125538
  49.4528013  19.7430677  81.5577806  49.7287857  19.6287271  82.4671680
  48.5832512  19.3448162  81.5189979  49.3568445   5.7667442  88.5982555
  48.4431525   5.9971669  88.7664762  49.7861546   5.8505887  89.4496588
  49.1274903  13.9557334  91.0982449  48.4746353  14.2033242  90.4434902
  49.5055283  13.1421473  90.7644926  46.0882077  23.9917028  85.2010619
  46.2704472  23.1738684  85.6638372  46.9115063  24.2084720  84.7635509
  46.4224243  22.9185213  82.4625668  46.9512009  22.4077667  81.8495830
  46.6852462  22.6027743  83.3271201  45.1762476  14.6977145  97.5848486
  44.5003113  14.5971275  98.2550861  45.9990110  14.5416359  98.0484483
  36.9241335  20.9349082  90.2061001  37.5094772  20.1892770  90.3388906
  36.7266174  21.2453039  91.0897665  39.7779991  23.9700329  85.2223444
  39.1090366  24.4546457  84.7387484  39.6392860  24.2169550  86.1366822
  31.5158990  13.5054682  88.9265445  31.5543090  12.9718273  89.7202563
  31.0099283  12.9789888  88.3076422  43.9185259  26.0044073  91.8206102
  44.4703567  26.1675694  92.5855187  44.2591453  26.5948511  91.1486127
  38.8949752   8.3519223  92.4227987  38.9591079   9.2134054  92.0105385
  38.8316873   7.7393224  91.6900345  48.7696133  20.8305330  97.6754757
  49.3136037  21.4435289  97.1809711  48.1882978  21.3884909  98.1921770
  35.1467568  12.2318784  82.0019376  35.4421009  11.3229463  81.9486430
  34.2455603  12.2106524  81.6800378  47.0553646  23.9526048  88.8069784
  46.9304786  23.1515788  88.2980730  47.7132738  24.4472242  88.3183754
  38.6761815  10.3074781  87.9846925  37.9548400  10.9210749  87.8454398
  39.4655070  10.8432546  87.9063571  49.1188555  21.7535069  90.4349334
  48.1718890  21.6340420  90.3627661  49.4671328  20.8657567  90.5175596
  41.4788128   7.6429207  94.2587576  42.0022530   7.8891504  95.0213886
  41.2600461   8.4749242  93.8390714  36.8755409   9.9132882  82.1258701
  36.5468115   9.0330261  81.9433807  37.2294780   9.8580551  83.0135090
  46.1234988  21.5487785  86.6353687  45.9759951  20.6204492  86.8161257
  46.9488482  21.5707875  86.1510762  39.9897232  10.2005852  82.4934179
  40.3293305  10.7291773  81.7712787  40.4369353  10.5386258  83.2692745
  49.7269110  22.3716343  87.7218559  50.6515657  22.1659205  87.5843011
  49.5584413  22.1232745  88.6307901  42.6840673   8.5842903  91.9437247
  42.3437494   7.7850716  92.3457927  41.9779679   8.8844613  91.3714080
  43.3357145   5.6692215  90.3964570  44.1583214   5.1952693  90.2743460
  43.5795209   6.4482699  90.8963256  41.9765380   8.6980473  80.6927472
  42.6973742   9.0761726  80.1891188  41.3530684   9.4169350  80.7962450
  46.1196502   9.4025622  81.6285804  46.3360117  10.2850260  81.3274632
  45.6390570   9.0111836  80.8991446  40.8595724  12.3611336  88.2056549
  40.7140305  12.6751639  89.0980830  40.3820927  12.9796236  87.6527447
  42.7192107   9.3513884  88.2537438  42.7053675   8.4554977  87.9169736
  43.4364535   9.3584547  88.8875724  44.5718237   9.7851224  90.2990566
  44.3136015  10.7068294  90.2974896  44.0403278   9.3881658  90.9891030
  49.5164426  22.8902011  83.0780651  49.6901304  22.3248433  82.3254503
  50.0093317  23.6902906  82.8960141  35.3341386  14.9016680  91.1444210
  34.7894854  15.6776488  91.2764484  36.2120736  15.2487485  90.9863331
  42.1229003   8.2328264  83.5225008  42.2444914   7.3044910  83.7215896
  41.8331045   8.2466950  82.6103324  44.9920193   5.9183174  86.6591728
  45.0141890   5.9822507  85.7043708  45.4088252   5.0787683  86.8532234
  55.3703817  15.6538434  84.6970951  55.8134963  14.9045759  84.2990074
  54.4930328  15.6448570  84.3144683  50.5039599  22.2068775  80.1777549
  51.1990503  22.8275468  80.3964864  50.8462749  21.3564127  80.4529927
  36.1207408  14.0286576  94.0374367  35.3789144  14.1769212  94.6238997
  35.8000152  14.2894842  93.1741116  52.4031022  19.6568481  81.7064880
  52.9282346  19.9955754  80.9814200  52.3153374  18.7215496  81.5228015
  44.0651070  23.5702555  93.8354757  44.3738197  23.3251701  94.7077456
  44.8626552  23.7749193  93.3473627  44.0871683  25.7240464  86.0660133
  43.6476673  25.2316843  86.7592990  44.8379799  25.1813432  85.8252208
  36.5664021  21.9152005  86.0684761  37.3922041  21.6155777  85.6883405
  36.2158073  21.1459627  86.5174550  41.5345555  21.2678473  88.1382435
  40.9125564  20.6049178  87.8384663  42.2050422  21.2939605  87.4556083
  34.7672627  19.8338331  87.0273695  33.9304535  19.4060506  86.8457696
  34.7396272  20.0270775  87.9644486  52.0924928  20.2901385  97.0116078
  51.3020472  20.2725523  96.4720577  51.8558282  20.8289678  97.7665115
  52.2122803  17.1393851  94.3248806  52.2620808  16.9743858  95.2664329
  52.1036726  16.2721110  93.9346687  41.0959062  19.8182397  81.6140895
  41.2447182  20.5017861  80.9607568  41.9025505  19.7987487  82.1290351
  49.5026565  13.1224779  95.6408113  50.4036428  12.9831244  95.3492111
  49.5774540  13.2879234  96.5806291  43.8369371  10.4991634  94.4861299
  42.9672680  10.7925200  94.2143888  44.0728851  11.0832079  95.2068563
  53.7141000  19.5590792  94.5690828  53.4225808  19.9220773  95.4054289
  53.1013131  18.8457801  94.3904160  54.9136682  17.1243672  87.0893398
  55.7483573  17.5633476  87.2530959  55.0495811  16.6482325  86.2701644
  51.9628188  14.6823407  93.0370886  52.4382310  14.8751053  92.2289737
  51.0393753  14.7382593  92.7914270  38.8511695  15.8447574  82.6201964
  38.6057736  14.9409904  82.8182174  39.0207609  15.8464725  81.6781442
  46.5408404   6.7171251  92.0026720  47.0590348   7.4532278  91.6773208
  46.1863537   7.0235244  92.8373479  38.1207342  11.5775932  80.1188126
  37.4276587  11.6520287  79.4628162  37.8759094  10.8136275  80.6409643
  46.7920999   3.1371533  87.5227616  47.0722752   2.4694722  88.1488043
  47.5771606   3.3300629  87.0102280  44.5954467  22.3130527  79.0852643
  44.0228434  22.9320714  78.6323115  45.1687261  22.8629889  79.6192565
  50.6629857  11.5589167  91.2699192  51.6147280  11.6587265  91.2911416
  50.4933307  10.7667436  91.7797276  48.6844236   8.6444750  91.4558593
  48.0894169   8.9249763  90.7605081  48.3993933   9.1338651  92.2275334
  47.8151727  22.5967677  80.2161225  48.7482400  22.5313239  80.4194101
  47.7274940  23.4323944  79.7575758  50.4439744  21.9133548  77.1765173
  50.3653375  21.5793411  78.0700931  51.2649410  22.4055315  77.1756645
  53.1417935  14.7795287  90.3841491  53.1094255  13.8411288  90.5701175
  53.7518558  14.8579324  89.6507316  44.9801266  13.6491340  76.4268695
  45.9260370  13.5197548  76.4957113  44.6015511  12.9106002  76.9038123
  53.2912423  11.5706330  90.4299774  52.7751472  10.7864787  90.2429703
  54.1752372  11.2425047  90.5946294  50.9523150   5.3147346  86.3895587
  50.7547971   5.0062434  87.2738919  51.5622856   6.0408985  86.5193517
  58.9594485  15.8411294  89.5247528  59.6897873  15.5796582  90.0855231
  58.3501430  15.1040016  89.5649596  57.0409782  13.9819156  90.1221979
  56.3142945  13.8475121  89.5138471  56.6257069  14.2895985  90.9278697
  44.8639958  17.7009086  97.8869352  45.7842968  17.8787685  98.0809399
  44.8289541  16.7565131  97.7349052  43.1644183  11.5741316  76.3623581
  42.2575638  11.2774429  76.4386294  43.4420164  11.2771134  75.4957867
  34.0822123  12.8947680  86.8122627  33.7624907  12.0412988  86.5197001
  33.5355551  13.1096258  87.5680594  37.8602031  15.6110121  90.5292133
  38.0788040  16.5427228  90.5480167  38.2727804  15.2518095  91.3146937
  44.7806248   6.1178206  82.5167822  43.9706977   5.7725291  82.8923068
  45.4690665   5.8085750  83.1055433  46.7096797   5.1956253  84.1392118
  47.2627835   5.6151706  84.7982142  46.9466883   4.2692001  84.1815074
  41.9342967   8.4328251  76.5035560  42.7962131   8.7583150  76.7631377
  42.1193312   7.6459747  75.9908625  33.9510383  16.5150591  88.7815748
  33.2573855  16.1004544  88.2685703  34.6983374  16.5571128  88.1849167
  50.0875604   7.3056778  83.6470783  49.5074273   7.9641582  83.2648835
  49.8211537   6.4834122  83.2358200  48.5379170   6.7061836  85.8492103
  49.0378949   6.8178370  85.0406422  49.1814778   6.4022888  86.4892911
  42.5961166  14.6140465  98.7359944  42.1128248  15.4140825  98.9423833
  42.6822105  14.6248410  97.7827388  35.8647126  16.4468845  86.6581763
  35.8417814  16.5456532  85.7063646  36.1747762  17.2933996  86.9798929
  38.5234504  18.5045000  90.7728378  39.4777757  18.4728942  90.7058309
  38.3247027  18.0435624  91.5878604  39.1133886  17.0746116  93.3399175
  39.9326775  17.5690195  93.3634013  39.3870693  16.1578084  93.3116743
  48.8700482   9.4656868  82.7027131  47.9826337   9.7506519  82.4847326
  49.2854471   9.3050632  81.8554408  52.2215018   9.4903389  86.4181470
  52.9975408   9.9799842  86.6906087  51.4963152   9.9161443  86.8753340
  54.6587577  10.2031008  87.4755411  55.2532067   9.9626744  86.7648719
  54.7314160   9.4838139  88.1028947  36.8784732  24.0464619  87.7898576
  36.7439200  23.2865020  87.2236574  36.4616795  24.7705519  87.3227365
  48.0143695  19.2301543  76.7975151  48.7179545  19.4351545  77.4132807
  47.2906344  19.7978305  77.0624234  48.8441506  14.9811404  82.9177421
  48.7876707  15.4379956  82.0785054  49.3969848  14.2202089  82.7400264
  52.6546312  10.7701136  83.7427541  52.3983246  10.3697772  84.5735748
  52.0299180  11.4844930  83.6177680  56.9658649  13.5097209  86.2498832
  56.4058207  13.5790399  87.0230394  56.3602153  13.3338194  85.5298328
  40.0353858  24.9433936  88.0017018  39.9186242  25.8879369  87.8995709
  39.2146304  24.6407498  88.3902818  49.9230393  19.6684072  78.8473611
  50.7575997  19.2365271  78.6651086  49.7614736  19.4966086  79.7750505
  49.5776285  16.1716185  80.2129950  49.5225089  16.0060457  79.2718394
  48.9522340  16.8792218  80.3692140  34.3668800  11.4084250  94.0391373
  35.0127664  10.8983204  94.5278598  34.1585951  12.1452931  94.6134798
  46.8922192  18.4765097  99.5383513  47.7613352  18.6505750  99.1770148
  46.4128944  19.2959514  99.4159242  42.8872410   5.6724294  79.7915269
  42.8751080   6.6166134  79.9483540  43.7795832   5.4894440  79.4974730
  41.0608372  25.5962198  91.2172947  41.9635619  25.6285809  91.5339442
  40.8345742  24.6662649  91.2319283  42.8161974  24.3493185  87.8783025
  41.8657605  24.3495046  87.7647398  43.1194460  23.6025919  87.3619060
  46.7024530   2.2667071  84.0461206  45.9356926   1.7125558  84.1917888
  47.1135235   2.3388940  84.9075357  58.5514668  30.1853723  88.9428788
  59.1893078  30.0660471  88.2392128  58.4335511  31.1334567  89.0016740
  55.3604374  30.1381151  88.8790312  55.0222886  30.0222216  87.9910847
  56.2294142  29.7372316  88.8591319  51.2191190  31.9916628  84.8687203
  50.6556055  31.9006565  84.1003491  51.1043585  31.1716532  85.3489696
  55.8424157  31.2916003  94.8376518  55.8312798  30.8968801  93.9657022
  56.0044797  30.5582076  95.4310289  48.7655622  33.4867819  87.7071424
  49.5576914  33.1458644  87.2917723  49.0052272  33.5962794  88.6273577
  56.7990749  35.6587595  80.1801668  56.1478728  36.2441676  79.7935682
  57.5935111  36.1893790  80.2396706  50.7246376  32.7476733  80.5788803
  51.4977252  32.2005720  80.4401678  51.0771775  33.6120982  80.7903264
  52.5631418  34.0753115  93.7855702  52.2721284  34.9798746  93.6702368
  53.1988403  34.1169642  94.4999772  53.4887625  31.4529963  90.3757062
  54.0851197  31.2285986  89.6614025  53.5462597  30.7114709  90.9782509
  53.0612654  28.9069399  78.2107253  53.3138174  28.3850920  77.4490716
  52.1237213  28.7435544  78.3133936  58.1055936  27.9105177  86.0181996
  58.8919026  27.4924600  85.6672413  58.3694641  28.8151269  86.1863644
  58.2766014  33.3478027  80.7170653  57.6411847  33.4212654  81.4291557
  57.9463420  33.9371626  80.0389732  63.5064363  27.8480410  86.9214974
  64.2389535  27.2779627  87.1552804  62.7503719  27.4602011  87.3621480
  52.7808942  30.8097505  80.4131628  52.6645200  30.1342408  81.0812712
  52.8911202  30.3229879  79.5963781  55.1240483  30.2707652  84.1178317
  54.7598690  29.7438273  84.8291238  55.9807599  29.8806121  83.9444802
  61.0289784  21.5601984  91.3809583  60.6973109  22.4297395  91.1570798
  60.4335397  21.2438268  92.0603613  54.7645970  25.2997551  79.1139665
  54.9320372  26.1677788  79.4810136  54.5743139  25.4624833  78.1900955
  57.5221303  33.7614530  90.7805496  57.2222026  34.6639569  90.6721303
  57.1772363  33.4946714  91.6326649  50.9733785  30.2128327  86.8142200
  50.0484281  30.0804541  87.0219892  51.2218198  30.9922546  87.3112142
  60.9218447  26.2797071  88.4602933  60.0135324  26.2112479  88.1661694
  60.8706043  26.7569015  89.2884758  54.7435191  27.7555209  80.0986332
  54.6234816  28.2012260  80.9371812  54.0487779  28.1040527  79.5399870
  48.3342596  29.8561601  87.6485989  48.4634977  30.1096080  88.5625401
  47.6540047  30.4489309  87.3290644  52.5042083  40.5258851  83.7476463
  52.4266113  41.4766676  83.8264944  51.9003727  40.1804723  84.4051390
  54.9959313  27.6986716  96.4037830  54.2192647  28.2580636  96.3940695
  55.6349876  28.1843499  96.9252700  62.7880094  24.4813509  90.2380807
  62.1454474  24.7746042  89.5920601  62.2835022  24.3666429  91.0434004
  60.4420257  28.2276682  80.9266666  61.3538113  28.4604069  80.7514364
  59.9329904  28.8113726  80.3641745  53.2505685  30.5072170  95.9655797
  53.9920370  31.0457213  95.6890621  52.5442671  31.1338458  96.1227349
  58.7261025  32.6501310  94.5627959  59.1344381  32.2083720  93.8182591
  58.0038286  32.0753937  94.8162152  55.0792095  27.5873917  91.9361516
  55.9253290  28.0113330  92.0796165  55.0190733  26.9307541  92.6300079
  59.0489839  33.2102501  88.3180248  58.4198702  33.3748215  87.6156315
  58.6615502  33.6244110  89.0891212  62.9279071  34.1456938  85.6724611
  62.2430110  34.5255840  85.1221645  63.0122921  34.7552265  86.4056559
  58.2291540  25.2478285  93.5942689  57.9852472  26.0020346  93.0576965
  58.5051471  25.6263633  94.4289936  60.1830003  31.7916897  92.2719955
  60.3946898  32.4348657  91.5954336  60.1359751  30.9579214  91.8041885
  57.7856232  24.4034718  89.1756527  56.9240711  24.7015972  89.4673265
  57.8118667  24.6205117  88.2437560  54.6017801  32.9476909  85.5830333
  55.0656147  33.2264612  84.7934955  54.3374599  32.0460353  85.4003423
  51.4941882  32.4948390  88.5210096  52.0643239  32.9235659  87.8827580
  52.0849994  32.2130975  89.2194282  53.5386687  29.0700061  82.3919898
  54.2410731  29.5221105  82.8593824  53.2067316  28.4283880  83.0199791
  51.9867049  27.6611818  96.7671107  51.3565710  28.3428099  97.0006504
  51.8803137  27.5494899  95.8224245  47.2812021  27.3283614  87.6937031
  46.4911075  27.5841142  87.2177142  47.7723269  28.1431952  87.7989072
  61.2975831  34.6688853  90.4442312  62.1193275  34.2669040  90.1624994
  61.2938234  34.5657087  91.3958428  49.2326767  27.6928193  84.6520508
  48.4357930  27.8046887  85.1704004  49.0052359  28.0314845  83.7861399
  55.0632434  34.2172896  92.6003023  55.1276867  34.6793303  93.4361195
  54.3543358  33.5870261  92.7285333  45.5649724  27.5814104  90.1252022
  45.8157763  28.4661114  90.3909598  46.1009273  27.4018706  89.3527114
  69.3881824  31.0127601  86.7927284  68.6345532  30.4434999  86.6371288
  69.5229365  30.9790266  87.7397918  54.7780452  35.8841004  82.4682003
  54.6426127  36.7292539  82.8966851  55.3190265  36.0860281  81.7047937
  51.2647792  21.9632584  99.1296358  50.8714737  21.4098782  99.8044003
  52.0813932  22.2743162  99.5202876  48.2309849  33.4016442  83.0409928
  48.7434370  34.1959692  83.1915493  48.8832562  32.7042732  82.9743530
  50.0404734  36.5182198  85.1232681  50.2171362  37.4400163  84.9353665
  50.8361568  36.2040617  85.5527061  54.1815753  23.3790463  96.7216615
  54.9225466  23.9797616  96.6421077  54.4133675  22.6368100  96.1634657
  49.3257091  28.5646830  94.9994845  49.2110606  27.6632087  95.3001943
  48.4701608  28.8110527  94.6479661  56.4048928  36.5064570  96.5982345
  55.9612783  35.7200949  96.2803250  57.0666142  36.6943721  95.9326236
  51.1636050  38.0360372  91.1243024  51.7143475  37.9077435  90.3520018
  50.3247525  38.3355261  90.7737916  58.5030166  36.7867370  94.6263746
  58.4848642  37.6076251  94.1344016  59.4250087  36.6621445  94.8513888
  54.9603221  34.3011500  95.4687255  55.4931557  33.5399788  95.2386563
  54.4317302  34.0085151  96.2111409  58.1272916  19.4071566  90.9980897
  57.7837185  20.2973207  90.9220007  58.4951878  19.2173223  90.1350482
  46.1958766  31.7305096  83.8169499  47.0333988  32.1402104  83.6003206
  46.3737034  30.7904538  83.7869693  58.0923198  29.3980177  79.5053332
  57.5769822  30.1684781  79.7441719  57.8200507  28.7245313  80.1286393
  55.6770309  24.2429877  84.5638570  54.8211906  23.8536728  84.3844209
  56.0897261  24.3221838  83.7038356  57.2069456  21.7776221  88.9630130
  56.7034252  21.7406356  88.1497935  57.5000063  22.6868963  89.0226786
  53.4512342  21.8614950  87.9696312  54.3165339  21.6657759  87.6102201
  53.5189851  21.6325302  88.8965668  63.0657472  32.1512531  81.4406505
  62.2886915  31.8123691  80.9961667  63.7448953  32.1565154  80.7661470
  57.8809501  27.2707269  81.3313113  57.5759637  27.5853418  82.1823256
  58.8339944  27.3488689  81.3740446  56.3255933  33.4297492  82.9806067
  55.7977295  32.6950252  82.6679304  55.8243436  34.2072168  82.7346035
  61.3048779  31.6246513  88.0973113  60.6472454  32.3145774  88.1853242
  62.1089179  32.0142945  88.4407099  51.0574661  24.0917158  85.3412678
  51.6318413  23.8692340  84.6085871  51.6445643  24.1605853  86.0941280
  60.1154238  29.9790885  86.1477055  60.6286120  30.6120877  86.6498765
  60.7655462  29.3792081  85.7820415  51.3844248  26.1221619  79.3608564
  50.5481560  26.4596306  79.6817838  51.2449018  25.9870599  78.4235701
  53.3597329  20.9658407  84.0687748  52.7061741  20.6507424  83.4444363
  53.3177803  20.3434148  84.7947571  54.4708534  31.2477702  75.9841040
  53.5635595  31.0166956  76.1832189  54.9679566  30.4515322  76.1715021
  57.3776612  39.9575210  78.9037726  56.7038311  40.2606906  79.5122684
  57.7642434  40.7604290  78.5543183  56.5935069  27.4540341  88.3935395
  55.6757630  27.6755288  88.2357083  57.0095213  27.5286651  87.5347103
  57.3770117  28.8531756  83.5238076  58.1241936  29.3653154  83.2145198
  57.6461706  28.5315809  84.3842469  55.6496767  31.3490297  80.5065030
  54.7407986  31.0649330  80.6037500  55.6791851  31.7689376  79.6468337
  60.8816034  34.9596887  84.2756197  60.4278361  34.1187797  84.3321388
  60.2510001  35.5958285  84.6130978  59.8248954  25.8888873  85.5056865
  59.0871711  25.3766259  85.8367108  60.0775727  25.4489254  84.6940142
  59.3248974  36.7973383  85.2106016  59.6171948  37.3578441  84.4918381
  59.8347594  37.0901944  85.9659175  59.9260581  18.6665125  86.0998634
  60.2319458  17.8062488  85.8124549  60.6513186  19.2582745  85.8997628
  46.2184937  29.0695811  84.4880232  46.0209337  28.4765172  83.7631299
  45.6631601  28.7648022  85.2056171  54.1981661  28.9618918  86.6074825
  54.2530271  28.0092754  86.5317302  53.3872863  29.1178357  87.0916124
  55.3472855  32.8899041  77.8453109  54.9092285  32.1734900  77.3858746
  56.0883296  33.1175156  77.2838200  52.1374021  27.5795978  84.3665204
  51.3241886  27.8790148  84.7730396  52.6333015  27.1851666  85.0839686
  54.2882599  37.5753734  86.2999469  54.2458778  37.8014581  85.3708001
  55.2045298  37.3417109  86.4485270  57.7348233  28.0437802  93.1980098
  58.0897620  28.2709275  94.0574564  58.3820364  28.3756179  92.5757353
  63.4645970  31.1656238  83.9029427  63.3263868  31.3557834  82.9750616
  63.1082188  31.9275621  84.3597478  51.6288096  25.1514333  89.9826439
  52.2687475  25.0103092  89.2849402  50.7965626  24.8648846  89.6065041
  63.4915349  33.2332765  88.9140699  63.9251856  33.1408054  89.7623753
  64.2046930  33.2090265  88.2760715  52.4048400  34.4516763  86.0961432
  53.1988998  33.9567084  85.8944007  51.6940092  33.9234627  85.7329137
  57.2243244  36.8334859  90.4473799  57.2780266  37.4025795  91.2151515
  56.3558025  37.0036744  90.0827836  48.7131163  28.5959845  82.1721184
  47.7828751  28.5344301  82.3891146  48.8088635  28.0735798  81.3757825
  48.6316712  25.1214658  84.7599426  48.8923529  26.0359991  84.6508586
  49.4533884  24.6539101  84.9096039  50.1041637  26.5352415  91.9298250
  50.7764691  26.3269777  91.2810899  49.2771424  26.3374501  91.4903483
  64.3530899  33.2756466  91.4473584  64.5466789  34.1802276  91.6932859
  64.2531517  32.8163885  92.2812169  56.0067209  23.1614356  93.9463911
  55.3595124  23.8604306  93.8528388  56.7768225  23.5950500  94.3140160
  59.4146007  33.4263208  97.0214465  59.2631514  33.1973760  96.1044548
  59.4050687  34.3833810  97.0345810  56.1831344  30.9995121  92.0060731
  57.1123404  31.1506281  91.8329698  55.7622374  31.0879142  91.1509378
  54.9819676  35.0245785  89.7759269  54.8430761  34.6564570  90.6485207
  54.1934272  35.5393425  89.6043226  55.5767828  40.1254882  81.1184805
  55.7519583  39.6542925  81.9330428  54.8900616  40.7520648  81.3466066
  56.5324891  34.4027388  87.1648106  56.1974723  34.3628158  88.0605756
  56.0328836  33.7372104  86.6918517  50.5069135  29.8095018  92.6900688
  50.3688933  29.0775257  93.2912227  51.4174058  29.7203918  92.4084875
  59.4684082  31.7483423  77.4385166  58.8513253  31.0230251  77.3418219
  59.0000571  32.5092783  77.0952240  53.1351435  29.5214978  92.1784367
  53.8451054  28.8808170  92.1370986  53.0920744  29.7727872  93.1010548
  61.1238214  36.4582331  95.0990946  61.0650760  35.7741551  94.4321529
  61.5257732  37.2001321  94.6471572  51.8480369  26.5080195  93.9980007
  51.3117726  26.0570934  94.6501603  51.2597078  26.6426104  93.2550471
  50.1428913  43.2744245  87.8924665  50.3825511  43.9062769  88.5703684
  49.2998109  42.9232285  88.1790025  51.2582628  25.9668847  76.5606470
  50.3812095  25.8457648  76.1968717  51.7340381  25.1754925  76.3085359
  61.1255621  34.4221915  93.3304926  60.2382400  34.0847837  93.4531325
  61.6954172  33.6904946  93.5673692  42.7784768  30.7546007  86.6547978
  43.4655808  30.4407737  86.0668993  42.6232897  31.6587371  86.3815229
  47.5819491  25.6436203  91.0833001  47.4977679  25.0361873  90.3483411
  46.7602197  26.1345221  91.0842498  54.6556775  39.0823367  90.2966169
  54.5826946  39.8878339  90.8085474  54.2134168  39.2815333  89.4714191
  54.4446554  38.3195137  83.8068991  53.6614076  38.8616817  83.9007215
  55.1439300  38.8369117  84.2063232  57.7543204  24.1289767  86.4503196
  58.2511904  23.3759729  86.1304267  56.9830186  24.1654083  85.8846406
  65.6072962  29.8330132  88.0921488  65.5962838  30.7154848  87.7215421
  64.7390341  29.4801683  87.8976025  57.1155458  38.9810201  92.4524328
  57.8283430  39.6157666  92.3800229  56.6245487  39.0774067  91.6364330
  58.8372985  32.8861454  84.0241620  57.9029264  33.0062916  83.8546324
  59.0149654  31.9833921  83.7601629  54.3378173  26.2707150  86.1774881
  53.9675961  25.7178190  86.8655786  54.8337266  25.6665283  85.6249881
  62.2245536  28.7278773  84.5591654  62.6905989  29.5606765  84.4851956
  62.6753037  28.2623755  85.2636912  52.1667372  36.7304645  93.2729899
  52.8676831  37.3641128  93.4259293  51.6962487  37.0719376  92.5125538
  60.2921768  35.0722594  81.5577806  60.5681611  34.9579189  82.4671680
  59.4226266  34.6740079  81.5189979  60.1962199  21.0959360  88.5982555
  59.2825279  21.3263587  88.7664762  60.6255301  21.1797804  89.4496588
  59.9668658  29.2849252  91.0982449  59.3140108  29.5325160  90.4434902
  60.3449038  28.4713390  90.7644926  56.9275832  39.3208945  85.2010619
  57.1098226  38.5030601  85.6638372  57.7508818  39.5376638  84.7635509
  57.2617997  38.2477130  82.4625668  57.7905764  37.7369585  81.8495830
  57.5246217  37.9319661  83.3271201  56.0156231  30.0269063  97.5848486
  55.3396868  29.9263192  98.2550861  56.8383865  29.8708277  98.0484483
  47.7635090  36.2641000  90.2061001  48.3488527  35.5184688  90.3388906
  47.5659928  36.5744956  91.0897665  50.6173745  39.2992247  85.2223444
  49.9484120  39.7838375  84.7387484  50.4786615  39.5461468  86.1366822
  42.3552745  28.8346600  88.9265445  42.3936844  28.3010191  89.7202563
  41.8493037  28.3081805  88.3076422  54.7579014  41.3335991  91.8206102
  55.3097322  41.4967612  92.5855187  55.0985207  41.9240428  91.1486127
  49.7343507  23.6811140  92.4227987  49.7984833  24.5425971  92.0105385
  49.6710627  23.0685142  91.6900345  49.2095779  25.7534273  96.0701021
  49.8367818  25.3711350  96.6838546  48.3523698  25.5348475  96.4356714
  59.6089888  36.1597248  97.6754757  60.1529792  36.7727206  97.1809711
  59.0276733  36.7176827  98.1921770  45.9861322  27.5610702  82.0019376
  46.2814763  26.6521380  81.9486430  45.0849358  27.5398442  81.6800378
  57.8947401  39.2817966  88.8069784  57.7698540  38.4807706  88.2980730
  58.5526492  39.7764160  88.3183754  49.5155569  25.6366699  87.9846925
  48.7942155  26.2502666  87.8454398  50.3048825  26.1724463  87.9063571
  59.9582309  37.0826986  90.4349334  59.0112645  36.9632337  90.3627661
  60.3065082  36.1949484  90.5175596  52.3181883  22.9721125  94.2587576
  52.8416284  23.2183422  95.0213886  52.0994216  23.8041160  93.8390714
  47.7149164  25.2424800  82.1258701  47.3861870  24.3622179  81.9433807
  48.0688534  25.1872468  83.0135090  56.9628743  36.8779702  86.6353687
  56.8153705  35.9496410  86.8161257  57.7882236  36.8999793  86.1510762
  50.8290987  25.5297770  82.4934179  51.1687059  26.0583691  81.7712787
  51.2763107  25.8678176  83.2692745  60.5662864  37.7008261  87.7218559
  61.4909412  37.4951123  87.5843011  60.3978168  37.4524662  88.6307901
  53.5234428  23.9134820  91.9437247  53.1831248  23.1142633  92.3457927
  52.8173434  24.2136531  91.3714080  54.1750900  20.9984133  90.3964570
  54.9976969  20.5244611  90.2743460  54.4188963  21.7774616  90.8963256
  52.8159134  24.0272391  80.6927472  53.5367497  24.4053644  80.1891188
  52.1924438  24.7461268  80.7962450  56.9590257  24.7317540  81.6285804
  57.1753871  25.6142178  81.3274632  56.4784324  24.3403753  80.8991446
  51.6989478  27.6903253  88.2056549  51.5534059  28.0043556  89.0980830
  51.2214682  28.3088154  87.6527447  53.5585861  24.6805801  88.2537438
  53.5447430  23.7846895  87.9169736  54.2758289  24.6876465  88.8875724
  55.4111992  25.1143142  90.2990566  55.1529770  26.0360212  90.2974896
  54.8797032  24.7173576  90.9891030  60.3558181  38.2193929  83.0780651
  60.5295058  37.6540351  82.3254503  60.8487072  39.0194824  82.8960141
  46.1735140  30.2308598  91.1444210  45.6288609  31.0068406  91.2764484
  47.0514490  30.5779402  90.9863331  52.9622757  23.5620182  83.5225008
  53.0838668  22.6336828  83.7215896  52.6724799  23.5758868  82.6103324
  55.8313947  21.2475092  86.6591728  55.8535644  21.3114425  85.7043708
  56.2482006  20.4079601  86.8532234  66.2097572  30.9830352  84.6970951
  66.6528718  30.2337677  84.2990074  65.3324082  30.9740488  84.3144683
  61.3433353  37.5360693  80.1777549  62.0384258  38.1567386  80.3964864
  61.6856503  36.6856044  80.4529927  46.9601162  29.3578494  94.0374367
  46.2182898  29.5061129  94.6238997  46.6393907  29.6186760  93.1741116
  63.2424776  34.9860399  81.7064880  63.7676100  35.3247671  80.9814200
  63.1547129  34.0507414  81.5228015  54.9044825  38.8994472  93.8354757
  55.2131951  38.6543619  94.7077456  55.7020307  39.1041111  93.3473627
  54.9265437  41.0532382  86.0660133  54.4870427  40.5608761  86.7592990
  55.6773554  40.5105350  85.8252208  47.4057776  37.2443923  86.0684761
  48.2315796  36.9447695  85.6883405  47.0551828  36.4751545  86.5174550
  52.3739309  36.5970391  88.1382435  51.7519318  35.9341096  87.8384663
  53.0444176  36.6231523  87.4556083  45.6066381  35.1630249  87.0273695
  44.7698289  34.7352424  86.8457696  45.5790026  35.3562693  87.9644486
  52.4463837  25.0752179  97.7314941  52.4951992  25.9514302  97.3492710
  52.9886351  24.5329572  97.1586584  62.9318682  35.6193302  97.0116078
  62.1414226  35.6017441  96.4720577  62.6952037  36.1581596  97.7665115
  63.0516557  32.4685769  94.3248806  63.1014562  32.3035776  95.2664329
  62.9430481  31.6013028  93.9346687  51.9352816  35.1474314  81.6140895
  52.0840936  35.8309779  80.9607568  52.7419260  35.1279404  82.1290351
  60.3420320  28.4516697  95.6408113  61.2430183  28.3123161  95.3492111
  60.4168294  28.6171151  96.5806291  54.6763125  25.8283551  94.4861299
  53.8066434  26.1217117  94.2143888  54.9122605  26.4123996  95.2068563
  64.5534754  34.8882710  94.5690828  64.2619563  35.2512691  95.4054289
  63.9406885  34.1749718  94.3904160  65.7530437  32.4535590  87.0893398
  66.5877328  32.8925394  87.2530959  65.8889565  31.9774243  86.2701644
  62.8021942  30.0115325  93.0370886  63.2776064  30.2042971  92.2289737
  61.8787508  30.0674511  92.7914270  49.6905449  31.1739492  82.6201964
  49.4451491  30.2701822  82.8182174  49.8601364  31.1756642  81.6781442
  57.3802159  22.0463168  92.0026720  57.8984103  22.7824195  91.6773208
  57.0257292  22.3527162  92.8373479  48.9601097  26.9067849  80.1188126
  48.2670342  26.9812204  79.4628162  48.7152848  26.1428193  80.6409643
  57.6314753  18.4663451  87.5227616  57.9116507  17.7986640  88.1488043
  58.4165360  18.6592546  87.0102280  55.4348222  37.6422445  79.0852643
  54.8622189  38.2612632  78.6323115  56.0081015  38.1921806  79.6192565
  61.5023611  26.8881085  91.2699192  62.4541034  26.9879182  91.2911416
  61.3327062  26.0959353  91.7797276  59.5237991  23.9736668  91.4558593
  58.9287923  24.2541681  90.7605081  59.2387688  24.4630569  92.2275334
  58.6545481  37.9259595  80.2161225  59.5876155  37.8605157  80.4194101
  58.5668694  38.7615862  79.7575758  61.2833498  37.2425465  77.1765173
  61.2047130  36.9085329  78.0700931  62.1043165  37.7347233  77.1756645
  63.9811689  30.1087205  90.3841491  63.9488009  29.1703205  90.5701175
  64.5912313  30.1871241  89.6507316  55.8195020  28.9783257  76.4268695
  56.7654125  28.8489466  76.4957113  55.4409265  28.2397919  76.9038123
  64.1306178  26.8998248  90.4299774  63.6145226  26.1156705  90.2429703
  65.0146126  26.5716965  90.5946294  61.7916905  20.6439264  86.3895587
  61.5941726  20.3354352  87.2738919  62.4016610  21.3700902  86.5193517
  69.7988239  31.1703211  89.5247528  70.5291628  30.9088499  90.0855231
  69.1895185  30.4331933  89.5649596  67.8803536  29.3111074  90.1221979
  67.1536700  29.1767039  89.5138471  67.4650823  29.6187903  90.9278697
  55.7033713  33.0301004  97.8869352  56.6236722  33.2079603  98.0809399
  55.6683296  32.0857049  97.7349052  54.0037937  26.9033234  76.3623581
  53.0969393  26.6066347  76.4386294  54.2813918  26.6063052  75.4957867
  44.9215878  28.2239597  86.8122627  44.6018662  27.3704905  86.5197001
  44.3749306  28.4388175  87.5680594  48.6995785  30.9402038  90.5292133
  48.9181795  31.8719146  90.5480167  49.1121559  30.5810013  91.3146937
  55.6200003  21.4470124  82.5167822  54.8100731  21.1017209  82.8923068
  56.3084420  21.1377667  83.1055433  57.5490551  20.5248170  84.1392118
  58.1021590  20.9443624  84.7982142  57.7860638  19.5983918  84.1815074
  53.5723650  26.5135244  99.9194882  53.4720377  27.4629601  99.8506973
  53.3545193  26.1853483  99.0470952  52.7736722  23.7620169  76.5035560
  53.6355886  24.0875067  76.7631377  52.9587066  22.9751665  75.9908625
  44.7904138  31.8442509  88.7815748  44.0967609  31.4296462  88.2685703
  45.5377129  31.8863045  88.1849167  60.9269358  22.6348696  83.6470783
  60.3468027  23.2933500  83.2648835  60.6605291  21.8126040  83.2358200
  59.3772925  22.0353753  85.8492103  59.8772703  22.1470288  85.0406422
  60.0208533  21.7314806  86.4892911  53.4354921  29.9432383  98.7359944
  52.9522002  30.7432743  98.9423833  53.5215860  29.9540328  97.7827388
  46.7040880  31.7760763  86.6581763  46.6811568  31.8748450  85.7063646
  47.0141517  32.6225913  86.9798929  49.3628258  33.8336918  90.7728378
  50.3171512  33.8020860  90.7058309  49.1640782  33.3727541  91.5878604
  49.9527640  32.4038034  93.3399175  50.7720529  32.8982112  93.3634013
  50.2264448  31.4870002  93.3116743  59.7094236  24.7948786  82.7027131
  58.8220091  25.0798437  82.4847326  60.1248225  24.6342549  81.8554408
  63.0608772  24.8195307  86.4181470  63.8369163  25.3091759  86.6906087
  62.3356907  25.2453361  86.8753340  65.4981331  25.5322926  87.4755411
  66.0925822  25.2918662  86.7648719  65.5707915  24.8130057  88.1028947
  47.7178487  39.3756537  87.7898576  47.5832955  38.6156938  87.2236574
  47.3010549  40.0997437  87.3227365  58.8537450  34.5593461  76.7975151
  59.5573300  34.7643463  77.4132807  58.1300099  35.1270222  77.0624234
  59.6835260  30.3103322  82.9177421  59.6270462  30.7671873  82.0785054
  60.2363603  29.5494006  82.7400264  63.4940066  26.0993054  83.7427541
  63.2377000  25.6989689  84.5735748  62.8692934  26.8136848  83.6177680
  67.8052404  28.8389127  86.2498832  67.2451962  28.9082316  87.0230394
  67.1995907  28.6630112  85.5298328  50.8747613  40.2725854  88.0017018
  50.7579997  41.2171287  87.8995709  50.0540059  39.9699416  88.3902818
  60.7624147  34.9975990  78.8473611  61.5969751  34.5657188  78.6651086
  60.6008490  34.8258003  79.7750505  60.4170039  31.5008103  80.2129950
  60.3618843  31.3352375  79.2718394  59.7916095  32.2084136  80.3692140
  45.2062554  26.7376167  94.0391373  45.8521418  26.2275121  94.5278598
  44.9979706  27.4744849  94.6134798  57.7315947  33.8057015  99.5383513
  58.6007106  33.9797667  99.1770148  57.2522698  34.6251432  99.4159242
  53.7266165  21.0016212  79.7915269  53.7144835  21.9458052  79.9483540
  54.6189587  20.8186358  79.4974730  51.9002127  40.9254116  91.2172947
  52.8029374  40.9577726  91.5339442  51.6739497  39.9954567  91.2319283
  53.6555729  39.6785103  87.8783025  52.7051360  39.6786964  87.7647398
  53.9588215  38.9317837  87.3619060  57.5418284  17.5958989  84.0461206
  56.7750680  17.0417475  84.1917888  57.9528989  17.6680858  84.9075357
  49.5460045  23.8843785  98.1366387  50.4091507  23.5280589  98.3469711
  48.9725456  23.5457679  98.8241791  69.3908422  45.5145641  88.9428788
  70.0286832  45.3952388  88.2392128  69.2729265  46.4626485  89.0016740
  66.1998129  45.4673069  88.8790312  65.8616640  45.3514134  87.9910847
  67.0687897  45.0664234  88.8591319  62.0584944  47.3208545  84.8687203
  61.4949809  47.2298482  84.1003491  61.9437339  46.5008450  85.3489696
  66.6817912  46.6207921  94.8376518  66.6706552  46.2260719  93.9657022
  66.8438551  45.8873993  95.4310289  59.6049376  48.8159737  87.7071424
  60.3970668  48.4750562  87.2917723  59.8446026  48.9254712  88.6273577
  67.6384503  50.9879513  80.1801668  66.9872483  51.5733594  79.7935682
  68.4328866  51.5185708  80.2396706  61.5640130  48.0768650  80.5788803
  62.3371006  47.5297637  80.4401678  61.9165529  48.9412900  80.7903264
  63.4025173  49.4045033  93.7855702  63.1115039  50.3090663  93.6702368
  64.0382157  49.4461560  94.4999772  64.3281380  46.7821881  90.3757062
  64.9244952  46.5577903  89.6614025  64.3856351  46.0406627  90.9782509
  63.9006408  44.2361316  78.2107253  64.1531929  43.7142838  77.4490716
  62.9630967  44.0727462  78.3133936  68.9449691  43.2397095  86.0181996
  69.7312780  42.8216518  85.6672413  69.2088395  44.1443187  86.1863644
  69.1159768  48.6769945  80.7170653  68.4805601  48.7504572  81.4291557
  68.7857175  49.2663544  80.0389732  74.3458118  43.1772328  86.9214974
  75.0783290  42.6071545  87.1552804  73.5897474  42.7893928  87.3621480
  63.6202697  46.1389422  80.4131628  63.5038955  45.4634326  81.0812712
  63.7304957  45.6521796  79.5963781  65.9634238  45.5999569  84.1178317
  65.5992445  45.0730190  84.8291238  66.8201354  45.2098039  83.9444802
  71.8683538  36.8893902  91.3809583  71.5366863  37.7589313  91.1570798
  71.2729152  36.5730186  92.0603613  65.6039725  40.6289469  79.1139665
  65.7714127  41.4969706  79.4810136  65.4136894  40.7916751  78.1900955
  68.3615058  49.0906448  90.7805496  68.0615781  49.9931487  90.6721303
  68.0166117  48.8238631  91.6326649  61.8127539  45.5420245  86.8142200
  60.8878036  45.4096459  87.0219892  62.0611953  46.3214464  87.3112142
  71.7612202  41.6088988  88.4602933  70.8529079  41.5404397  88.1661694
  71.7099797  42.0860933  89.2884758  65.5828946  43.0847127  80.0986332
  65.4628571  43.5304177  80.9371812  64.8881534  43.4332444  79.5399870
  59.1736350  45.1853518  87.6485989  59.3028732  45.4387997  88.5625401
  58.4933802  45.7781226  87.3290644  63.3435838  55.8550768  83.7476463
  63.2659867  56.8058593  83.8264944  62.7397481  55.5096641  84.4051390
  65.8353067  43.0278634  96.4037830  65.0586401  43.5872554  96.3940695
  66.4743630  43.5135417  96.9252700  73.6273848  39.8105427  90.2380807
  72.9848228  40.1037960  89.5920601  73.1228777  39.6958347  91.0434004
  71.2814012  43.5568600  80.9266666  72.1931868  43.7895987  80.7514364
  70.7723659  44.1405644  80.3641745  64.0899440  45.8364087  95.9655797
  64.8314124  46.3749131  95.6890621  63.3836425  46.4630376  96.1227349
  69.5654779  47.9793228  94.5627959  69.9738135  47.5375638  93.8182591
  68.8432041  47.4045855  94.8162152  65.9185849  42.9165834  91.9361516
  66.7647045  43.3405248  92.0796165  65.8584487  42.2599459  92.6300079
  69.8883594  48.5394418  88.3180248  69.2592456  48.7040132  87.6156315
  69.5009256  48.9536028  89.0891212  73.7672826  49.4748856  85.6724611
  73.0823864  49.8547757  85.1221645  73.8516675  50.0844183  86.4056559
  69.0685295  40.5770203  93.5942689  68.8246227  41.3312263  93.0576965
  69.3445225  40.9555550  94.4289936  71.0223757  47.1208815  92.2719955
  71.2340653  47.7640575  91.5954336  70.9753506  46.2871132  91.8041885
  68.6249986  39.7326636  89.1756527  67.7634465  40.0307889  89.4673265
  68.6512421  39.9497035  88.2437560  65.4411556  48.2768826  85.5830333
  65.9049901  48.5556529  84.7934955  65.1768354  47.3752271  85.4003423
  62.3335637  47.8240308  88.5210096  62.9036994  48.2527576  87.8827580
  62.9243749  47.5422893  89.2194282  64.3780442  44.3991979  82.3919898
  65.0804485  44.8513022  82.8593824  64.0461070  43.7575798  83.0199791
  62.8260803  42.9903735  96.7671107  62.1959464  43.6720016  97.0006504
  62.7196891  42.8786817  95.8224245  58.1205776  42.6575531  87.6937031
  57.3304830  42.9133060  87.2177142  58.6117023  43.4723869  87.7989072
  72.1369585  49.9980771  90.4442312  72.9587029  49.5960958  90.1624994
  72.1331988  49.8949005  91.3958428  60.0720521  43.0220111  84.6520508
  59.2751685  43.1338805  85.1704004  59.8446113  43.3606763  83.7861399
  65.9026189  49.5464814  92.6003023  65.9670621  50.0085221  93.4361195
  65.1937113  48.9162179  92.7285333  56.4043479  42.9106022  90.1252022
  56.6551517  43.7953032  90.3909598  56.9403027  42.7310623  89.3527114
  80.2275578  46.3419519  86.7927284  79.4739287  45.7726917  86.6371288
  80.3623120  46.3082184  87.7397918  65.6174207  51.2132921  82.4682003
  65.4819881  52.0584457  82.8966851  66.1584019  51.4152199  81.7047937
  62.1041546  37.2924501  99.1296358  61.7108492  36.7390700  99.8044003
  62.9207686  37.6035080  99.5202876  59.0703604  48.7308359  83.0409928
  59.5828124  49.5251610  83.1915493  59.7226317  48.0334650  82.9743530
  60.8798489  51.8474116  85.1232681  61.0565117  52.7692080  84.9353665
  61.6755322  51.5332535  85.5527061  65.0209507  38.7082380  96.7216615
  65.7619221  39.3089533  96.6421077  65.2527430  37.9660018  96.1634657
  60.1650845  43.8938748  94.9994845  60.0504360  42.9924005  95.3001943
  59.3095363  44.1402444  94.6479661  67.2442683  51.8356488  96.5982345
  66.8006537  51.0492866  96.2803250  67.9059896  52.0235638  95.9326236
  62.0029804  53.3652289  91.1243024  62.5537229  53.2369353  90.3520018
  61.1641280  53.6647178  90.7737916  69.3423921  52.1159288  94.6263746
  69.3242396  52.9368169  94.1344016  70.2643841  51.9913363  94.8513888
  65.7996975  49.6303417  95.4687255  66.3325312  48.8691705  95.2386563
  65.2711056  49.3377069  96.2111409  68.9666670  34.7363483  90.9980897
  68.6230939  35.6265125  90.9220007  69.3345633  34.5465141  90.1350482
  57.0352521  47.0597014  83.8169499  57.8727743  47.4694022  83.6003206
  57.2130788  46.1196456  83.7869693  68.9316953  44.7272094  79.5053332
  68.4163576  45.4976699  79.7441719  68.6594261  44.0537231  80.1286393
  66.5164064  39.5721795  84.5638570  65.6605660  39.1828646  84.3844209
  66.9291016  39.6513756  83.7038356  68.0463210  37.1068138  88.9630130
  67.5428006  37.0698274  88.1497935  68.3393817  38.0160881  89.0226786
  64.2906096  37.1906868  87.9696312  65.1559093  36.9949677  87.6102201
  64.3583605  36.9617220  88.8965668  73.9051227  47.4804449  81.4406505
  73.1280670  47.1415608  80.9961667  74.5842708  47.4857072  80.7661470
  68.7203256  42.5999186  81.3313113  68.4153392  42.9145336  82.1823256
  69.6733698  42.6780606  81.3740446  67.1649688  48.7589410  82.9806067
  66.6371049  48.0242169  82.6679304  66.6637191  49.5364086  82.7346035
  72.1442534  46.9538430  88.0973113  71.4866208  47.6437692  88.1853242
  72.9482933  47.3434862  88.4407099  61.8968415  39.4209076  85.3412678
  62.4712167  39.1984258  84.6085871  62.4839398  39.4897771  86.0941280
  70.9547993  45.3082803  86.1477055  71.4679874  45.9412795  86.6498765
  71.6049217  44.7083998  85.7820415  62.2238003  41.4513537  79.3608564
  61.3875315  41.7888224  79.6817838  62.0842772  41.3162517  78.4235701
  64.1991083  36.2950325  84.0687748  63.5455495  35.9799342  83.4444363
  64.1571557  35.6726065  84.7947571  65.3102288  46.5769620  75.9841040
  64.4029350  46.3458873  76.1832189  65.8073320  45.7807239  76.1715021
  68.2170367  55.2867127  78.9037726  67.5432066  55.5898824  79.5122684
  68.6036189  56.0896208  78.5543183  67.4328824  42.7832258  88.3935395
  66.5151385  43.0047205  88.2357083  67.8488967  42.8578569  87.5347103
  68.2163871  44.1823674  83.5238076  68.9635690  44.6945071  83.2145198
  68.4855461  43.8607727  84.3842469  66.4890521  46.6782215  80.5065030
  65.5801741  46.3941248  80.6037500  66.5185605  47.0981293  79.6468337
  71.7209789  50.2888804  84.2756197  71.2672116  49.4479714  84.3321388
  71.0903756  50.9250203  84.6130978  70.6642708  41.2180790  85.5056865
  69.9265465  40.7058177  85.8367108  70.9169482  40.7781172  84.6940142
  70.1642728  52.1265301  85.2106016  70.4565702  52.6870358  84.4918381
  70.6741349  52.4193862  85.9659175  70.7654336  33.9957042  86.0998634
  71.0713213  33.1354406  85.8124549  71.4906941  34.5874663  85.8997628
  57.0578692  44.3987729  84.4880232  56.8603092  43.8057090  83.7631299
  56.5025356  44.0939939  85.2056171  65.0375415  44.2910835  86.6074825
  65.0924025  43.3384672  86.5317302  64.2266618  44.4470275  87.0916124
  66.1866609  48.2190959  77.8453109  65.7486039  47.5026817  77.3858746
  66.9277050  48.4467073  77.2838200  62.9767775  42.9087895  84.3665204
  62.1635641  43.2082066  84.7730396  63.4726770  42.5143584  85.0839686
  65.1276353  52.9045652  86.2999469  65.0852532  53.1306498  85.3708001
  66.0439052  52.6709027  86.4485270  68.5741987  43.3729720  93.1980098
  68.9291375  43.6001193  94.0574564  69.2214118  43.7048096  92.5757353
  74.3039724  46.4948156  83.9029427  74.1657623  46.6849752  82.9750616
  73.9475943  47.2567538  84.3597478  62.4681850  40.4806251  89.9826439
  63.1081229  40.3395010  89.2849402  61.6359381  40.1940764  89.6065041
  74.3309104  48.5624683  88.9140699  74.7645610  48.4699972  89.7623753
  75.0440684  48.5382183  88.2760715  63.2442154  49.7808681  86.0961432
  64.0382753  49.2859001  85.8944007  62.5333846  49.2526544  85.7329137
  68.0636999  52.1626777  90.4473799  68.1174021  52.7317713  91.2151515
  67.1951780  52.3328662  90.0827836  59.5524918  43.9251763  82.1721184
  58.6222506  43.8636218  82.3891146  59.6482390  43.4027716  81.3757825
  59.4710467  40.4506576  84.7599426  59.7317284  41.3651909  84.6508586
  60.2927639  39.9831018  84.9096039  60.9435392  41.8644333  91.9298250
  61.6158445  41.6561695  91.2810899  60.1165178  41.6666419  91.4903483
  75.1924653  48.6048383  91.4473584  75.3860543  49.5094194  91.6932859
  75.0925271  48.1455802  92.2812169  66.8460964  38.4906274  93.9463911
  66.1988879  39.1896223  93.8528388  67.6161979  38.9242418  94.3140160
  70.2539762  48.7555126  97.0214465  70.1025268  48.5265678  96.1044548
  70.2444441  49.7125727  97.0345810  67.0225098  46.3287039  92.0060731
  67.9517158  46.4798198  91.8329698  66.6016128  46.4171060  91.1509378
  65.8213430  50.3537703  89.7759269  65.6824516  49.9856488  90.6485207
  65.0328026  50.8685343  89.6043226  66.4161582  55.4546800  81.1184805
  66.5913338  54.9834843  81.9330428  65.7294370  56.0812566  81.3466066
  67.3718645  49.7319306  87.1648106  67.0368478  49.6920076  88.0605756
  66.8722591  49.0664022  86.6918517  61.3462889  45.1386936  92.6900688
  61.2082687  44.4067175  93.2912227  62.2567813  45.0495836  92.4084875
  70.3077837  47.0775340  77.4385166  69.6907008  46.3522168  77.3418219
  69.8394325  47.8384700  77.0952240  63.9745190  44.8506895  92.1784367
  64.6844808  44.2100087  92.1370986  63.9314498  45.1019790  93.1010548
  71.9631969  51.7874249  95.0990946  71.9044515  51.1033469  94.4321529
  72.3651487  52.5293239  94.6471572  62.6874124  41.8372113  93.9980007
  62.1511481  41.3862852  94.6501603  62.0990832  41.9718022  93.2550471
  60.9822667  58.6036162  87.8924665  61.2219266  59.2354687  88.5703684
  60.1391864  58.2524202  88.1790025  62.0976383  41.2960765  76.5606470
  61.2205849  41.1749565  76.1968717  62.5734136  40.5046843  76.3085359
  71.9649376  49.7513832  93.3304926  71.0776155  49.4139754  93.4531325
  72.5347927  49.0196864  93.5673692  53.6178523  46.0837924  86.6547978
  54.3049563  45.7699654  86.0668993  53.4626652  46.9879289  86.3815229
  58.4213245  40.9728121  91.0833001  58.3371434  40.3653790  90.3483411
  57.5995951  41.4637139  91.0842498  65.4950529  54.4115285  90.2966169
  65.4220701  55.2170256  90.8085474  65.0527922  54.6107251  89.4714191
  65.2840309  53.6487055  83.8068991  64.5007831  54.1908735  83.9007215
  65.9833054  54.1661035  84.2063232  68.5936959  39.4581684  86.4503196
  69.0905658  38.7051647  86.1304267  67.8223940  39.4946001  85.8846406
  76.4466716  45.1622050  88.0921488  76.4356593  46.0446765  87.7215421
  75.5784096  44.8093601  87.8976025  67.9549213  54.3102119  92.4524328
  68.6677185  54.9449584  92.3800229  67.4639241  54.4065985  91.6364330
  69.6766740  48.2153372  84.0241620  68.7423018  48.3354834  83.8546324
  69.8543408  47.3125838  83.7601629  65.1771928  41.5999067  86.1774881
  64.8069715  41.0470108  86.8655786  65.6731020  40.9957201  85.6249881
  73.0639291  44.0570691  84.5591654  73.5299743  44.8898682  84.4851956
  73.5146791  43.5915672  85.2636912  63.0061126  52.0596562  93.2729899
  63.7070586  52.6933045  93.4259293  62.5356241  52.4011294  92.5125538
  71.1315522  50.4014512  81.5577806  71.4075366  50.2871107  82.4671680
  70.2620021  50.0031997  81.5189979  71.0355954  36.4251278  88.5982555
  70.1219034  36.6555505  88.7664762  71.4649055  36.5089722  89.4496588
  70.8062412  44.6141170  91.0982449  70.1533862  44.8617077  90.4434902
  71.1842792  43.8005308  90.7644926  67.7669586  54.6500863  85.2010619
  67.9491981  53.8322519  85.6638372  68.5902572  54.8668555  84.7635509
  68.1011752  53.5769048  82.4625668  68.6299518  53.0661503  81.8495830
  68.3639971  53.2611578  83.3271201  66.8549985  45.3560981  97.5848486
  66.1790622  45.2555110  98.2550861  67.6777619  45.2000195  98.0484483
  58.6028844  51.5932917  90.2061001  59.1882281  50.8476605  90.3388906
  58.4053683  51.9036874  91.0897665  61.4567500  54.6284165  85.2223444
  60.7877875  55.1130292  84.7387484  61.3180369  54.8753385  86.1366822
  53.1946499  44.1638518  88.9265445  53.2330599  43.6302108  89.7202563
  52.6886792  43.6373723  88.3076422  65.5972768  56.6627908  91.8206102
  66.1491076  56.8259530  92.5855187  65.9378962  57.2532346  91.1486127
  60.5737261  39.0103058  92.4227987  60.6378588  39.8717889  92.0105385
  60.5104382  38.3977060  91.6900345  60.0489534  41.0826191  96.0701021
  60.6761573  40.7003268  96.6838546  59.1917453  40.8640393  96.4356714
  70.4483642  51.4889166  97.6754757  70.9923546  52.1019124  97.1809711
  69.8670487  52.0468744  98.1921770  56.8255077  42.8902620  82.0019376
  57.1208518  41.9813298  81.9486430  55.9243112  42.8690359  81.6800378
  68.7341155  54.6109884  88.8069784  68.6092295  53.8099624  88.2980730
  69.3920247  55.1056077  88.3183754  60.3549324  40.9658616  87.9846925
  59.6335909  41.5794584  87.8454398  61.1442579  41.5016381  87.9063571
  70.7976064  52.4118904  90.4349334  69.8506399  52.2924255  90.3627661
  71.1458837  51.5241402  90.5175596  63.1575637  38.3013043  94.2587576
  63.6810039  38.5475339  95.0213886  62.9387970  39.1333078  93.8390714
  58.5542918  40.5716717  82.1258701  58.2255624  39.6914096  81.9433807
  58.9082289  40.5164386  83.0135090  67.8022497  52.2071620  86.6353687
  67.6547460  51.2788328  86.8161257  68.6275991  52.2291711  86.1510762
  61.6684741  40.8589687  82.4934179  62.0080814  41.3875608  81.7712787
  62.1156862  41.1970093  83.2692745  71.4056619  53.0300179  87.7218559
  72.3303166  52.8243040  87.5843011  71.2371922  52.7816580  88.6307901
  64.3628182  39.2426738  91.9437247  64.0225003  38.4434551  92.3457927
  63.6567188  39.5428449  91.3714080  65.0144654  36.3276050  90.3964570
  65.8370723  35.8536529  90.2743460  65.2582718  37.1066534  90.8963256
  63.6552889  39.3564309  80.6927472  64.3761251  39.7345562  80.1891188
  63.0318193  40.0753186  80.7962450  67.7984011  40.0609458  81.6285804
  68.0147626  40.9434096  81.3274632  67.3178079  39.6695671  80.8991446
  62.5383233  43.0195171  88.2056549  62.3927813  43.3335474  89.0980830
  62.0608436  43.6380071  87.6527447  64.3979616  40.0097719  88.2537438
  64.3841184  39.1138812  87.9169736  65.1152044  40.0168383  88.8875724
  66.2505746  40.4435059  90.2990566  65.9923524  41.3652130  90.2974896
  65.7190787  40.0465494  90.9891030  57.0128895  45.5600515  91.1444210
  56.4682363  46.3360323  91.2764484  57.8908245  45.9071320  90.9863331
  63.8016512  38.8912099  83.5225008  63.9232423  37.9628745  83.7215896
  63.5118554  38.9050785  82.6103324  66.6707702  36.5767010  86.6591728
  66.6929399  36.6406343  85.7043708  67.0875761  35.7371518  86.8532234
  77.0491326  46.3122269  84.6970951  77.4922472  45.5629594  84.2990074
  76.1717837  46.3032406  84.3144683  72.1827108  52.8652611  80.1777549
  72.8778012  53.4859303  80.3964864  72.5250258  52.0147962  80.4529927
  57.7994917  44.6870412  94.0374367  57.0576653  44.8353047  94.6238997
  57.4787661  44.9478677  93.1741116  74.0818531  50.3152316  81.7064880
  74.6069855  50.6539589  80.9814200  73.9940883  49.3799332  81.5228015
  65.7438579  54.2286390  93.8354757  66.0525706  53.9835537  94.7077456
  66.5414061  54.4333028  93.3473627  65.7659191  56.3824300  86.0660133
  65.3264182  55.8900678  86.7592990  66.5167308  55.8397267  85.8252208
  58.2451530  52.5735840  86.0684761  59.0709550  52.2739612  85.6883405
  57.8945582  51.8043463  86.5174550  63.2133064  51.9262309  88.1382435
  62.5913073  51.2633014  87.8384663  63.8837931  51.9523440  87.4556083
  56.4460136  50.4922167  87.0273695  55.6092044  50.0644341  86.8457696
  56.4183781  50.6854610  87.9644486  63.2857591  40.4044097  97.7314941
  63.3345747  41.2806219  97.3492710  63.8280105  39.8621490  97.1586584
  73.7712437  50.9485220  97.0116078  72.9807981  50.9309359  96.4720577
  73.5345791  51.4873514  97.7665115  73.8910312  47.7977686  94.3248806
  73.9408317  47.6327694  95.2664329  73.7824235  46.9304945  93.9346687
  62.7746571  50.4766232  81.6140895  62.9234691  51.1601696  80.9607568
  63.5813014  50.4571322  82.1290351  71.1814074  43.7808614  95.6408113
  72.0823937  43.6415079  95.3492111  71.2562049  43.9463069  96.5806291
  65.5156880  41.1575469  94.4861299  64.6460189  41.4509035  94.2143888
  65.7516360  41.7415914  95.2068563  75.3928509  50.2174628  94.5690828
  75.1013317  50.5804608  95.4054289  74.7800640  49.5041636  94.3904160
  76.5924191  47.7827508  87.0893398  77.4271082  48.2217312  87.2530959
  76.7283320  47.3066161  86.2701644  73.6415697  45.3407242  93.0370886
  74.1169819  45.5334889  92.2289737  72.7181262  45.3966428  92.7914270
  60.5299204  46.5031410  82.6201964  60.2845245  45.5993740  82.8182174
  60.6995118  46.5048560  81.6781442  68.2195913  37.3755086  92.0026720
  68.7377857  38.1116113  91.6773208  67.8651046  37.6819079  92.8373479
  59.7994851  42.2359767  80.1188126  59.1064096  42.3104122  79.4628162
  59.5546603  41.4720111  80.6409643  68.4708508  33.7955368  87.5227616
  68.7510261  33.1278558  88.1488043  69.2559115  33.9884464  87.0102280
  66.2741976  52.9714362  79.0852643  65.7015943  53.5904550  78.6323115
  66.8474770  53.5213724  79.6192565  72.3417366  42.2173002  91.2699192
  73.2934789  42.3171100  91.2911416  72.1720816  41.4251271  91.7797276
  70.3631745  39.3028586  91.4558593  69.7681678  39.5833598  90.7605081
  70.0781442  39.7922487  92.2275334  69.4939236  53.2551513  80.2161225
  70.4269909  53.1897074  80.4194101  69.4062449  54.0907779  79.7575758
  72.1227253  52.5717383  77.1765173  72.0440884  52.2377246  78.0700931
  72.9436919  53.0639151  77.1756645  74.8205444  45.4379122  90.3841491
  74.7881764  44.4995123  90.5701175  75.4306067  45.5163159  89.6507316
  66.6588775  44.3075175  76.4268695  67.6047879  44.1781383  76.4957113
  66.2803020  43.5689837  76.9038123  74.9699932  42.2290166  90.4299774
  74.4538981  41.4448622  90.2429703  75.8539881  41.9008882  90.5946294
  72.6310659  35.9731181  86.3895587  72.4335480  35.6646269  87.2738919
  73.2410365  36.6992820  86.5193517  80.6381994  46.4995129  89.5247528
  81.3685382  46.2380417  90.0855231  80.0288939  45.7623851  89.5649596
  78.7197291  44.6402992  90.1221979  77.9930454  44.5058957  89.5138471
  78.3044578  44.9479820  90.9278697  66.5427467  48.3592921  97.8869352
  67.4630477  48.5371520  98.0809399  66.5077050  47.4148967  97.7349052
  64.8431692  42.2325152  76.3623581  63.9363147  41.9358264  76.4386294
  65.1207673  41.9354970  75.4957867  55.7609632  43.5531515  86.8122627
  55.4412416  42.6996823  86.5197001  55.2143060  43.7680093  87.5680594
  59.5389540  46.2693956  90.5292133  59.7575549  47.2011064  90.5480167
  59.9515313  45.9101930  91.3146937  66.4593757  36.7762041  82.5167822
  65.6494486  36.4309126  82.8923068  67.1478174  36.4669585  83.1055433
  68.3884306  35.8540088  84.1392118  68.9415344  36.2735541  84.7982142
  68.6254392  34.9275836  84.1815074  64.4117405  41.8427162  99.9194882
  64.3114132  42.7921519  99.8506973  64.1938947  41.5145401  99.0470952
  63.6130476  39.0912087  76.5035560  64.4749640  39.4166985  76.7631377
  63.7980821  38.3043583  75.9908625  55.6297892  47.1734426  88.7815748
  54.9361364  46.7588379  88.2685703  56.3770883  47.2154963  88.1849167
  71.7663113  37.9640613  83.6470783  71.1861782  38.6225417  83.2648835
  71.4999046  37.1417958  83.2358200  70.2166679  37.3645671  85.8492103
  70.7166458  37.4762205  85.0406422  70.8602287  37.0606724  86.4892911
  64.2748675  45.2724301  98.7359944  63.7915757  46.0724661  98.9423833
  64.3609614  45.2832245  97.7827388  57.5434635  47.1052680  86.6581763
  57.5205323  47.2040367  85.7063646  57.8535271  47.9517831  86.9798929
  60.2022013  49.1628835  90.7728378  61.1565266  49.1312778  90.7058309
  60.0034536  48.7019459  91.5878604  60.7921395  47.7329951  93.3399175
  61.6114284  48.2274030  93.3634013  61.0658202  46.8161919  93.3116743
  70.5487991  40.1240704  82.7027131  69.6613846  40.4090354  82.4847326
  70.9641980  39.9634467  81.8554408  73.9002527  40.1487225  86.4181470
  74.6762917  40.6383677  86.6906087  73.1750661  40.5745279  86.8753340
  76.3375086  40.8614844  87.4755411  76.9319576  40.6210580  86.7648719
  76.4101669  40.1421974  88.1028947  58.5572241  54.7048455  87.7898576
  58.4226709  53.9448856  87.2236574  58.1404304  55.4289355  87.3227365
  69.6931204  49.8885378  76.7975151  70.3967054  50.0935381  77.4132807
  68.9693853  50.4562140  77.0624234  70.5229015  45.6395240  82.9177421
  70.4664216  46.0963791  82.0785054  71.0757357  44.8785924  82.7400264
  74.3333821  41.4284971  83.7427541  74.0770755  41.0281607  84.5735748
  73.7086689  42.1428765  83.6177680  78.6446158  44.1681045  86.2498832
  78.0845716  44.2374234  87.0230394  78.0389662  43.9922029  85.5298328
  61.7141367  55.6017772  88.0017018  61.5973751  56.5463204  87.8995709
  60.8933813  55.2991333  88.3902818  71.6017902  50.3267907  78.8473611
  72.4363506  49.8949106  78.6651086  71.4402245  50.1549921  79.7750505
  71.2563794  46.8300021  80.2129950  71.2012598  46.6644292  79.2718394
  70.6309849  47.5376054  80.3692140  56.0456309  42.0668085  94.0391373
  56.6915172  41.5567039  94.5278598  55.8373460  42.8036767  94.6134798
  68.5709701  49.1348933  99.5383513  69.4400861  49.3089585  99.1770148
  68.0916453  49.9543349  99.4159242  64.5659919  36.3308130  79.7915269
  64.5538589  37.2749970  79.9483540  65.4583341  36.1478275  79.4974730
  62.7395881  56.2546034  91.2172947  63.6423128  56.2869644  91.5339442
  62.5133251  55.3246485  91.2319283  64.4949483  55.0077020  87.8783025
  63.5445114  55.0078882  87.7647398  64.7981969  54.2609755  87.3619060
  68.3812039  32.9250906  84.0461206  67.6144435  32.3709393  84.1917888
  68.7922744  32.9972775  84.9075357  60.3853800  39.2135702  98.1366387
  61.2485261  38.8572507  98.3469711  59.8119211  38.8749597  98.8241791
  80.2302177  60.8437559  88.9428788  80.8680587  60.7244306  88.2392128
  80.1123020  61.7918403  89.0016740  77.0391883  60.7964987  88.8790312
  76.7010395  60.6806051  87.9910847  77.9081651  60.3956152  88.8591319
  72.8978699  62.6500463  84.8687203  72.3343564  62.5590400  84.1003491
  72.7831094  61.8300368  85.3489696  77.5211666  61.9499838  94.8376518
  77.5100307  61.5552637  93.9657022  77.6832306  61.2165911  95.4310289
  70.4443131  64.1451655  87.7071424  71.2364423  63.8042479  87.2917723
  70.6839781  64.2546630  88.6273577  74.2418927  64.7336950  93.7855702
  73.9508793  65.6382581  93.6702368  74.8775912  64.7753478  94.4999772
  75.1675134  62.1113799  90.3757062  75.7638706  61.8869821  89.6614025
  75.2250106  61.3698544  90.9782509  79.7843445  58.5689012  86.0181996
  80.5706535  58.1508436  85.6672413  80.0482150  59.4735105  86.1863644
  79.9553523  64.0061863  80.7170653  79.3199356  64.0796489  81.4291557
  79.6250929  64.5955462  80.0389732  85.1851872  58.5064246  86.9214974
  85.9177044  57.9363462  87.1552804  84.4291228  58.1185846  87.3621480
  76.8027992  60.9291487  84.1178317  76.4386199  60.4022108  84.8291238
  77.6595108  60.5389956  83.9444802  82.7077293  52.2185820  91.3809583
  82.3760618  53.0881231  91.1570798  82.1122906  51.9022104  92.0603613
  76.4433479  55.9581387  79.1139665  76.6107881  56.8261623  79.4810136
  76.2530648  56.1208669  78.1900955  79.2008812  64.4198366  90.7805496
  78.9009535  65.3223405  90.6721303  78.8559872  64.1530549  91.6326649
  72.6521294  60.8712163  86.8142200  71.7271790  60.7388377  87.0219892
  72.9005707  61.6506382  87.3112142  82.6005956  56.9380906  88.4602933
  81.6922833  56.8696314  88.1661694  82.5493552  57.4152851  89.2884758
  70.0130105  60.5145436  87.6485989  70.1422486  60.7679915  88.5625401
  69.3327556  61.1073144  87.3290644  74.1829592  71.1842686  83.7476463
  74.1053622  72.1350511  83.8264944  73.5791236  70.8388559  84.4051390
  76.6746822  58.3570552  96.4037830  75.8980156  58.9164472  96.3940695
  77.3137385  58.8427334  96.9252700  84.4667602  55.1397344  90.2380807
  83.8241983  55.4329877  89.5920601  83.9622531  55.0250265  91.0434004
  82.1207766  58.8860518  80.9266666  83.0325622  59.1187904  80.7514364
  81.6117413  59.4697562  80.3641745  74.9293194  61.1656005  95.9655797
  75.6707879  61.7041049  95.6890621  74.2230180  61.7922294  96.1227349
  80.4048534  63.3085145  94.5627959  80.8131890  62.8667556  93.8182591
  79.6825795  62.7337773  94.8162152  76.7579604  58.2457752  91.9361516
  77.6040799  58.6697166  92.0796165  76.6978242  57.5891376  92.6300079
  80.7277348  63.8686336  88.3180248  80.0986211  64.0332050  87.6156315
  80.3403011  64.2827946  89.0891212  84.6066580  64.8040774  85.6724611
  83.9217619  65.1839675  85.1221645  84.6910430  65.4136100  86.4056559
  79.9079049  55.9062120  93.5942689  79.6639981  56.6604181  93.0576965
  80.1838980  56.2847468  94.4289936  81.8617512  62.4500733  92.2719955
  82.0734407  63.0932493  91.5954336  81.8147260  61.6163049  91.8041885
  79.4643741  55.0618553  89.1756527  78.6028220  55.3599807  89.4673265
  79.4906176  55.2788952  88.2437560  76.2805310  63.6060744  85.5830333
  76.7443656  63.8848447  84.7934955  76.0162108  62.7044189  85.4003423
  73.1729391  63.1532226  88.5210096  73.7430748  63.5819494  87.8827580
  73.7637503  62.8714810  89.2194282  75.2174196  59.7283896  82.3919898
  75.9198240  60.1804940  82.8593824  74.8854825  59.0867715  83.0199791
  73.6654558  58.3195653  96.7671107  73.0353219  59.0011934  97.0006504
  73.5590646  58.2078735  95.8224245  68.9599530  57.9867449  87.6937031
  68.1698584  58.2424978  87.2177142  69.4510778  58.8015787  87.7989072
  82.9763340  65.3272688  90.4442312  83.7980784  64.9252876  90.1624994
  82.9725743  65.2240922  91.3958428  76.7419943  64.8756732  92.6003023
  76.8064376  65.3377139  93.4361195  76.0330867  64.2454096  92.7285333
  67.2437233  58.2397940  90.1252022  67.4945272  59.1244949  90.3909598
  67.7796782  58.0602541  89.3527114  91.0669333  61.6711437  86.7927284
  90.3133041  61.1018835  86.6371288  91.2016874  61.6374101  87.7397918
  72.9435301  52.6216419  99.1296358  72.5502246  52.0682617  99.8044003
  73.7601441  52.9326997  99.5202876  71.7192243  67.1766033  85.1232681
  71.8958871  68.0983998  84.9353665  72.5149077  66.8624453  85.5527061
  75.8603262  54.0374298  96.7216615  76.6012975  54.6381451  96.6421077
  76.0921184  53.2951936  96.1634657  71.0044600  59.2230665  94.9994845
  70.8898115  58.3215922  95.3001943  70.1489117  59.4694362  94.6479661
  78.0836437  67.1648406  96.5982345  77.6400292  66.3784784  96.2803250
  78.7453651  67.3527556  95.9326236  72.8423559  68.6944207  91.1243024
  73.3930984  68.5661270  90.3520018  72.0035034  68.9939096  90.7737916
  80.1817675  67.4451205  94.6263746  80.1636151  68.2660087  94.1344016
  81.1037596  67.3205281  94.8513888  76.6390730  64.9595335  95.4687255
  77.1719066  64.1983623  95.2386563  76.1104811  64.6668987  96.2111409
  79.8060425  50.0655401  90.9980897  79.4624694  50.9557043  90.9220007
  80.1739387  49.8757059  90.1350482  67.8746275  62.3888931  83.8169499
  68.7121497  62.7985940  83.6003206  68.0524543  61.4488374  83.7869693
  79.7710707  60.0564012  79.5053332  79.2557331  60.8268617  79.7441719
  79.4988016  59.3829148  80.1286393  77.3557818  54.9013713  84.5638570
  76.4999415  54.5120563  84.3844209  77.7684770  54.9805674  83.7038356
  78.8856965  52.4360056  88.9630130  78.3821761  52.3990191  88.1497935
  79.1787572  53.3452799  89.0226786  75.1299851  52.5198786  87.9696312
  75.9952848  52.3241594  87.6102201  75.1977360  52.2909138  88.8965668
  84.7444981  62.8096367  81.4406505  83.9674424  62.4707526  80.9961667
  85.4236462  62.8148990  80.7661470  79.5597010  57.9291104  81.3313113
  79.2547146  58.2437253  82.1823256  80.5127453  58.0072524  81.3740446
  78.0043442  64.0881327  82.9806067  77.4764804  63.3534087  82.6679304
  77.5030945  64.8656004  82.7346035  82.9836288  62.2830348  88.0973113
  82.3259963  62.9729609  88.1853242  83.7876688  62.6726780  88.4407099
  81.7941747  60.6374721  86.1477055  82.3073629  61.2704712  86.6498765
  82.4442971  60.0375916  85.7820415  75.0384838  51.6242243  84.0687748
  74.3849250  51.3091260  83.4444363  74.9965312  51.0017983  84.7947571
  79.0564121  70.6159045  78.9037726  78.3825820  70.9190742  79.5122684
  79.4429943  71.4188125  78.5543183  78.2722578  58.1124176  88.3935395
  77.3545139  58.3339123  88.2357083  78.6882722  58.1870487  87.5347103
  79.0557626  59.5115592  83.5238076  79.8029445  60.0236989  83.2145198
  79.3249215  59.1899645  84.3842469  77.3284276  62.0074133  80.5065030
  76.4195495  61.7233165  80.6037500  77.3579360  62.4273211  79.6468337
  82.5603543  65.6180722  84.2756197  82.1065870  64.7771632  84.3321388
  81.9297510  66.2542120  84.6130978  81.5036463  56.5472708  85.5056865
  80.7659220  56.0350094  85.8367108  81.7563236  56.1073090  84.6940142
  81.0036483  67.4557219  85.2106016  81.2959457  68.0162276  84.4918381
  81.5135103  67.7485780  85.9659175  81.6048090  49.3248960  86.0998634
  81.9106967  48.4646324  85.8124549  82.3300695  49.9166580  85.8997628
  67.8972446  59.7279647  84.4880232  67.6996846  59.1349007  83.7631299
  67.3419110  59.4231857  85.2056171  75.8769170  59.6202753  86.6074825
  75.9317780  58.6676590  86.5317302  75.0660372  59.7762192  87.0916124
  75.9670108  68.2337570  86.2999469  75.9246287  68.4598416  85.3708001
  76.8832807  68.0000944  86.4485270  79.4135742  58.7021637  93.1980098
  79.7685129  58.9293111  94.0574564  80.0607873  59.0340014  92.5757353
  85.1433479  61.8240073  83.9029427  85.0051377  62.0141669  82.9750616
  84.7869697  62.5859456  84.3597478  73.3075605  55.8098168  89.9826439
  73.9474984  55.6686928  89.2849402  72.4753135  55.5232682  89.6065041
  85.1702858  63.8916600  88.9140699  85.6039365  63.7991889  89.7623753
  85.8834439  63.8674101  88.2760715  74.0835909  65.1100599  86.0961432
  74.8776507  64.6150919  85.8944007  73.3727601  64.5818462  85.7329137
  78.9030753  67.4918694  90.4473799  78.9567775  68.0609631  91.2151515
  78.0345534  67.6620579  90.0827836  71.7829146  57.1936251  91.9298250
  72.4552200  56.9853613  91.2810899  70.9558933  56.9958337  91.4903483
  86.0318408  63.9340301  91.4473584  86.2254298  64.8386111  91.6932859
  85.9319026  63.4747720  92.2812169  77.6854718  53.8198192  93.9463911
  77.0382633  54.5188141  93.8528388  78.4555734  54.2534335  94.3140160
  81.0933516  64.0847044  97.0214465  80.9419023  63.8557595  96.1044548
  81.0838196  65.0417645  97.0345810  77.8618853  61.6578956  92.0060731
  78.7910913  61.8090116  91.8329698  77.4409883  61.7462977  91.1509378
  76.6607185  65.6829621  89.7759269  76.5218270  65.3148405  90.6485207
  75.8721781  66.1977260  89.6043226  77.2555337  70.7838717  81.1184805
  77.4307092  70.3126761  81.9330428  76.5688125  71.4104484  81.3466066
  78.2112400  65.0611224  87.1648106  77.8762232  65.0211994  88.0605756
  77.7116345  64.3955939  86.6918517  72.1856644  60.4678854  92.6900688
  72.0476442  59.7359092  93.2912227  73.0961567  60.3787754  92.4084875
  81.1471591  62.4067258  77.4385166  80.5300762  61.6814086  77.3418219
  80.6788080  63.1676618  77.0952240  74.8138944  60.1798813  92.1784367
  75.5238563  59.5392005  92.1370986  74.7708252  60.4311708  93.1010548
  82.8025723  67.1166166  95.0990946  82.7438269  66.4325386  94.4321529
  83.2045241  67.8585156  94.6471572  73.5267878  57.1664031  93.9980007
  72.9905235  56.7154769  94.6501603  72.9384587  57.3009940  93.2550471
  82.8043130  65.0805750  93.3304926  81.9169909  64.7431672  93.4531325
  83.3741681  64.3488781  93.5673692  64.4572277  61.4129842  86.6547978
  65.1443317  61.0991572  86.0668993  64.3020406  62.3171207  86.3815229
  69.2607000  56.3020038  91.0833001  69.1765188  55.6945708  90.3483411
  68.4389706  56.7929057  91.0842498  76.3344284  69.7407203  90.2966169
  76.2614455  70.5462174  90.8085474  75.8921677  69.9399168  89.4714191
  79.4330713  54.7873602  86.4503196  79.9299413  54.0343564  86.1304267
  78.6617695  54.8237919  85.8846406  87.2860471  60.4913968  88.0921488
  87.2750347  61.3738683  87.7215421  86.4177850  60.1385518  87.8976025
  78.7942967  69.6394037  92.4524328  79.5070939  70.2741501  92.3800229
  78.3032996  69.7357903  91.6364330  80.5160494  63.5445289  84.0241620
  79.5816773  63.6646752  83.8546324  80.6937163  62.6417756  83.7601629
  76.0165682  56.9290985  86.1774881  75.6463470  56.3762025  86.8655786
  76.5124775  56.3249118  85.6249881  83.9033045  59.3862609  84.5591654
  84.3693498  60.2190600  84.4851956  84.3540546  58.9207590  85.2636912
  73.8454881  67.3888480  93.2729899  74.5464340  68.0224963  93.4259293
  73.3749996  67.7303212  92.5125538  81.9709277  65.7306430  81.5577806
  82.2469120  65.6163024  82.4671680  81.1013775  65.3323915  81.5189979
  81.8749708  51.7543195  88.5982555  80.9612788  51.9847422  88.7664762
  82.3042810  51.8381640  89.4496588  81.6456167  59.9433087  91.0982449
  80.9927617  60.1908995  90.4434902  82.0236547  59.1297226  90.7644926
  78.6063341  69.9792781  85.2010619  78.7885735  69.1614437  85.6638372
  79.4296327  70.1960473  84.7635509  78.9405506  68.9060966  82.4625668
  79.4693273  68.3953420  81.8495830  79.2033726  68.5903496  83.3271201
  77.6943740  60.6852899  97.5848486  77.0184377  60.5847028  98.2550861
  78.5171374  60.5292112  98.0484483  69.4422599  66.9224835  90.2061001
  70.0276036  66.1768523  90.3388906  69.2447437  67.2328792  91.0897665
  72.2961254  69.9576082  85.2223444  71.6271629  70.4422210  84.7387484
  72.1574124  70.2045303  86.1366822  64.0340254  59.4930435  88.9265445
  64.0724353  58.9594026  89.7202563  63.5280546  58.9665641  88.3076422
  76.4366523  71.9919826  91.8206102  76.9884831  72.1551447  92.5855187
  76.7772716  72.5824264  91.1486127  71.4131016  54.3394976  92.4227987
  71.4772342  55.2009807  92.0105385  71.3498136  53.7268977  91.6900345
  70.8883288  56.4118108  96.0701021  71.5155327  56.0295186  96.6838546
  70.0311207  56.1932310  96.4356714  81.2877397  66.8181083  97.6754757
  81.8317301  67.4311042  97.1809711  80.7064242  67.3760662  98.1921770
  79.5734910  69.9401801  88.8069784  79.4486049  69.1391541  88.2980730
  80.2314001  70.4347995  88.3183754  71.1943078  56.2950534  87.9846925
  70.4729664  56.9086502  87.8454398  71.9836334  56.8308299  87.9063571
  81.6369818  67.7410822  90.4349334  80.6900154  67.6216173  90.3627661
  81.9852591  66.8533320  90.5175596  73.9969392  53.6304960  94.2587576
  74.5203793  53.8767257  95.0213886  73.7781725  54.4624995  93.8390714
  78.6416252  67.5363538  86.6353687  78.4941214  66.6080245  86.8161257
  79.4669745  67.5583629  86.1510762  82.2450373  68.3592097  87.7218559
  83.1696921  68.1534958  87.5843011  82.0765677  68.1108498  88.6307901
  75.2021937  54.5718656  91.9437247  74.8618757  53.7726469  92.3457927
  74.4960943  54.8720366  91.3714080  75.8538408  51.6567968  90.3964570
  76.6764478  51.1828446  90.2743460  76.0976472  52.4358452  90.8963256
  78.6377766  55.3901375  81.6285804  78.8541380  56.2726013  81.3274632
  78.1571833  54.9987589  80.8991446  73.3776987  58.3487089  88.2056549
  73.2321568  58.6627392  89.0980830  72.9002191  58.9671989  87.6527447
  75.2373370  55.3389637  88.2537438  75.2234939  54.4430730  87.9169736
  75.9545798  55.3460300  88.8875724  77.0899501  55.7726977  90.2990566
  76.8317279  56.6944048  90.2974896  76.5584541  55.3757411  90.9891030
  82.0345690  68.8777764  83.0780651  82.2082567  68.3124186  82.3254503
  82.5274581  69.6778659  82.8960141  67.8522649  60.8892433  91.1444210
  67.3076117  61.6652241  91.2764484  68.7301999  61.2363238  90.9863331
  74.6410266  54.2204017  83.5225008  74.7626177  53.2920663  83.7215896
  74.3512308  54.2342703  82.6103324  77.5101456  51.9058927  86.6591728
  77.5323153  51.9698260  85.7043708  77.9269515  51.0663436  86.8532234
  87.8885081  61.6414187  84.6970951  88.3316227  60.8921512  84.2990074
  87.0111591  61.6324323  84.3144683  83.0220862  68.1944528  80.1777549
  83.7171767  68.8151221  80.3964864  83.3644012  67.3439880  80.4529927
  68.6388671  60.0162329  94.0374367  67.8970407  60.1644965  94.6238997
  68.3181416  60.2770595  93.1741116  84.9212285  65.6444234  81.7064880
  85.4463609  65.9831507  80.9814200  84.8334638  64.7091249  81.5228015
  76.5832334  69.5578308  93.8354757  76.8919460  69.3127454  94.7077456
  77.3807816  69.7624946  93.3473627  76.6052946  71.7116217  86.0660133
  76.1657936  71.2192596  86.7592990  77.3561063  71.1689185  85.8252208
  69.0845285  67.9027758  86.0684761  69.9103305  67.6031530  85.6883405
  68.7339337  67.1335380  86.5174550  74.0526818  67.2554226  88.1382435
  73.4306827  66.5924931  87.8384663  74.7231685  67.2815358  87.4556083
  67.2853890  65.8214085  87.0273695  66.4485798  65.3936259  86.8457696
  67.2577535  66.0146528  87.9644486  74.1251346  55.7336014  97.7314941
  74.1739501  56.6098137  97.3492710  74.6673860  55.1913407  97.1586584
  84.6106191  66.2777138  97.0116078  83.8201735  66.2601276  96.4720577
  84.3739546  66.8165431  97.7665115  84.7304066  63.1269604  94.3248806
  84.7802071  62.9619611  95.2664329  84.6217990  62.2596863  93.9346687
  82.0207829  59.1100532  95.6408113  82.9217691  58.9706997  95.3492111
  82.0955803  59.2754987  96.5806291  76.3550634  56.4867387  94.4861299
  75.4853943  56.7800953  94.2143888  76.5910114  57.0707832  95.2068563
  86.2322263  65.5466545  94.5690828  85.9407071  65.9096526  95.4054289
  85.6194394  64.8333554  94.3904160  87.4317945  63.1119425  87.0893398
  88.2664837  63.5509229  87.2530959  87.5677074  62.6358078  86.2701644
  84.4809451  60.6699160  93.0370886  84.9563573  60.8626806  92.2289737
  83.5575017  60.7258346  92.7914270  79.0589668  52.7047004  92.0026720
  79.5771612  53.4408031  91.6773208  78.7044801  53.0110997  92.8373479
  79.3102262  49.1247286  87.5227616  79.5904016  48.4570475  88.1488043
  80.0952869  49.3176382  87.0102280  83.1811120  57.5464920  91.2699192
  84.1328543  57.6463018  91.2911416  83.0114571  56.7543189  91.7797276
  81.2025500  54.6320503  91.4558593  80.6075432  54.9125516  90.7605081
  80.9175197  55.1214404  92.2275334  80.3332990  68.5843430  80.2161225
  81.2663664  68.5188992  80.4194101  80.2456203  69.4199697  79.7575758
  82.9621007  67.9009301  77.1765173  82.8834639  67.5669164  78.0700931
  83.7830674  68.3931068  77.1756645  85.6599198  60.7671040  90.3841491
  85.6275518  59.8287041  90.5701175  86.2699822  60.8455077  89.6507316
  77.4982529  59.6367093  76.4268695  78.4441634  59.5073301  76.4957113
  77.1196774  58.8981755  76.9038123  85.8093687  57.5582083  90.4299774
  85.2932735  56.7740540  90.2429703  86.6933635  57.2300800  90.5946294
  83.4704414  51.3023099  86.3895587  83.2729235  50.9938187  87.2738919
  84.0804119  52.0284738  86.5193517  91.4775748  61.8287047  89.5247528
  92.2079137  61.5672335  90.0855231  90.8682694  61.0915769  89.5649596
  89.5591045  59.9694909  90.1221979  88.8324209  59.8350874  89.5138471
  89.1438332  60.2771738  90.9278697  77.3821222  63.6884839  97.8869352
  78.3024231  63.8663438  98.0809399  77.3470805  62.7440884  97.7349052
  66.6003387  58.8823433  86.8122627  66.2806171  58.0288741  86.5197001
  66.0536815  59.0972011  87.5680594  70.3783294  61.5985874  90.5292133
  70.5969304  62.5302981  90.5480167  70.7909068  61.2393848  91.3146937
  77.2987512  52.1053959  82.5167822  76.4888240  51.7601044  82.8923068
  77.9871929  51.7961503  83.1055433  79.2278060  51.1832006  84.1392118
  79.7809099  51.6027459  84.7982142  79.4648147  50.2567754  84.1815074
  75.2511159  57.1719079  99.9194882  75.1507886  58.1213436  99.8506973
  75.0332702  56.8437318  99.0470952  74.4524231  54.4204004  76.5035560
  75.3143395  54.7458903  76.7631377  74.6374575  53.6335500  75.9908625
  66.4691647  62.5026344  88.7815748  65.7755118  62.0880297  88.2685703
  67.2164638  62.5446881  88.1849167  82.6056867  53.2932531  83.6470783
  82.0255536  53.9517335  83.2648835  82.3392800  52.4709875  83.2358200
  81.0560434  52.6937589  85.8492103  81.5560212  52.8054123  85.0406422
  81.6996042  52.3898641  86.4892911  75.1142430  60.6016218  98.7359944
  74.6309511  61.4016578  98.9423833  75.2003369  60.6124163  97.7827388
  68.3828389  62.4344598  86.6581763  68.3599077  62.5332285  85.7063646
  68.6929026  63.2809749  86.9798929  71.0415767  64.4920753  90.7728378
  71.9959021  64.4604695  90.7058309  70.8428291  64.0311377  91.5878604
  71.6315149  63.0621869  93.3399175  72.4508038  63.5565948  93.3634013
  71.9051957  62.1453837  93.3116743  81.3881745  55.4532621  82.7027131
  80.5007600  55.7382272  82.4847326  81.8035734  55.2926385  81.8554408
  84.7396281  55.4779142  86.4181470  85.5156672  55.9675595  86.6906087
  84.0144416  55.9037196  86.8753340  87.1768840  56.1906761  87.4755411
  87.7713331  55.9502497  86.7648719  87.2495424  55.4713892  88.1028947
  69.3965996  70.0340372  87.7898576  69.2620464  69.2740773  87.2236574
  68.9798058  70.7581272  87.3227365  80.5324959  65.2177296  76.7975151
  81.2360809  65.4227298  77.4132807  79.8087608  65.7854058  77.0624234
  81.3622769  60.9687157  82.9177421  81.3057970  61.4255709  82.0785054
  81.9151112  60.2077842  82.7400264  85.1727575  56.7576889  83.7427541
  84.9164509  56.3573525  84.5735748  84.5480443  57.4720683  83.6177680
  89.4839913  59.4972962  86.2498832  88.9239471  59.5666152  87.0230394
  88.8783416  59.3213947  85.5298328  72.5535122  70.9309689  88.0017018
  72.4367506  71.8755122  87.8995709  71.7327568  70.6283251  88.3902818
  82.4411656  65.6559825  78.8473611  83.2757260  65.2241024  78.6651086
  82.2795999  65.4841839  79.7750505  82.0957548  62.1591938  80.2129950
  82.0406352  61.9936210  79.2718394  81.4703604  62.8667971  80.3692140
  66.8850063  57.3960003  94.0391373  67.5308927  56.8858957  94.5278598
  66.6767214  58.1328684  94.6134798  79.4103456  64.4640850  99.5383513
  80.2794615  64.6381503  99.1770148  78.9310207  65.2835267  99.4159242
  75.4053674  51.6600047  79.7915269  75.3932344  52.6041887  79.9483540
  76.2977096  51.4770193  79.4974730  73.5789636  71.5837951  91.2172947
  74.4816882  71.6161562  91.5339442  73.3527006  70.6538402  91.2319283
  75.3343238  70.3368938  87.8783025  74.3838869  70.3370799  87.7647398
  75.6375724  69.5901672  87.3619060  79.2205793  48.2542824  84.0461206
  78.4538189  47.7001311  84.1917888  79.6316498  48.3264693  84.9075357
  71.2247554  54.5427620  98.1366387  72.0879016  54.1864425  98.3469711
  70.6512965  54.2041515  98.8241791  91.0695931  76.1729476  88.9428788
  91.7074341  76.0536224  88.2392128  90.9516774  77.1210320  89.0016740
  87.8785638  76.1256904  88.8790312  87.5404149  76.0097969  87.9910847
  88.7475406  75.7248069  88.8591319  83.7372453  77.9792381  84.8687203
  83.1737318  77.8882318  84.1003491  83.6224848  77.1592285  85.3489696
  88.3605421  77.2791756  94.8376518  88.3494061  76.8844554  93.9657022
  88.5226060  76.5457829  95.4310289  81.2836885  79.4743572  87.7071424
  82.0758177  79.1334397  87.2917723  81.5233535  79.5838547  88.6273577
  89.3172012  81.6463348  80.1801668  88.6659992  82.2317429  79.7935682
  90.1116375  82.1769543  80.2396706  83.2427639  78.7352486  80.5788803
  84.0158515  78.1881473  80.4401678  83.5953038  79.5996735  80.7903264
  85.0812682  80.0628868  93.7855702  84.7902548  80.9674499  93.6702368
  85.7169666  80.1045396  94.4999772  86.0068889  77.4405716  90.3757062
  86.6032461  77.2161739  89.6614025  86.0643860  76.6990462  90.9782509
  85.5793917  74.8945152  78.2107253  85.8319438  74.3726673  77.4490716
  84.6418476  74.7311297  78.3133936  90.7947277  79.3353780  80.7170653
  90.1593110  79.4088407  81.4291557  90.4644684  79.9247379  80.0389732
  96.0245627  73.8356163  86.9214974  96.7570799  73.2655380  87.1552804
  95.2684983  73.4477764  87.3621480  85.2990206  76.7973258  80.4131628
  85.1826464  76.1218161  81.0812712  85.4092466  76.3105632  79.5963781
  87.6421747  76.2583405  84.1178317  87.2779954  75.7314026  84.8291238
  88.4988863  75.8681874  83.9444802  93.5471047  67.5477737  91.3809583
  93.2154372  68.4173148  91.1570798  92.9516661  67.2314021  92.0603613
  87.2827234  71.2873304  79.1139665  87.4501636  72.1553541  79.4810136
  87.0924403  71.4500586  78.1900955  90.0402567  79.7490283  90.7805496
  89.7403290  80.6515322  90.6721303  89.6953626  79.4822467  91.6326649
  83.4915048  76.2004080  86.8142200  82.5665545  76.0680294  87.0219892
  83.7399461  76.9798299  87.3112142  93.4399711  72.2672824  88.4602933
  92.5316588  72.1988232  88.1661694  93.3887306  72.7444769  89.2884758
  87.2616454  73.7430962  80.0986332  87.1416080  74.1888013  80.9371812
  86.5669043  74.0916280  79.5399870  80.8523859  75.8437354  87.6485989
  80.9816240  76.0971833  88.5625401  80.1721311  76.4365062  87.3290644
  85.0223347  86.5134604  83.7476463  84.9447376  87.4642429  83.8264944
  84.4184990  86.1680476  84.4051390  87.5140576  73.6862469  96.4037830
  86.7373910  74.2456389  96.3940695  88.1531139  74.1719252  96.9252700
  95.3061357  70.4689262  90.2380807  94.6635737  70.7621795  89.5920601
  94.8016286  70.3542182  91.0434004  85.7686949  76.4947923  95.9655797
  86.5101633  77.0332967  95.6890621  85.0623934  77.1214211  96.1227349
  91.2442288  78.6377063  94.5627959  91.6525644  78.1959474  93.8182591
  90.5219550  78.0629691  94.8162152  87.5973358  73.5749670  91.9361516
  88.4434554  73.9989083  92.0796165  87.5371996  72.9183294  92.6300079
  91.5671103  79.1978254  88.3180248  90.9379965  79.3623968  87.6156315
  91.1796765  79.6119863  89.0891212  95.4460335  80.1332691  85.6724611
  94.7611373  80.5131593  85.1221645  95.5304184  80.7428018  86.4056559
  90.7472804  71.2354038  93.5942689  90.5033736  71.9896099  93.0576965
  91.0232734  71.6139386  94.4289936  92.7011266  77.7792651  92.2719955
  92.9128162  78.4224410  91.5954336  92.6541015  76.9454967  91.8041885
  90.3037495  70.3910471  89.1756527  89.4421974  70.6891725  89.4673265
  90.3299930  70.6080870  88.2437560  87.1199065  78.9352662  85.5830333
  87.5837410  79.2140365  84.7934955  86.8555863  78.0336106  85.4003423
  84.0123146  78.4824143  88.5210096  84.5824503  78.9111412  87.8827580
  84.6031258  78.2006728  89.2194282  86.0567951  75.0575814  82.3919898
  86.7591994  75.5096858  82.8593824  85.7248579  74.4159633  83.0199791
  84.5048312  73.6487571  96.7671107  83.8746973  74.3303852  97.0006504
  84.3984400  73.5370652  95.8224245  79.7993285  73.3159367  87.6937031
  79.0092339  73.5716895  87.2177142  80.2904532  74.1307705  87.7989072
  93.8157094  80.6564606  90.4442312  94.6374538  80.2544793  90.1624994
  93.8119497  80.5532840  91.3958428  81.7508030  73.6803946  84.6520508
  80.9539194  73.7922640  85.1704004  81.5233622  74.0190598  83.7861399
  87.5813698  80.2048649  92.6003023  87.6458130  80.6669056  93.4361195
  86.8724622  79.5746014  92.7285333  78.0830988  73.5689857  90.1252022
  78.3339026  74.4536867  90.3909598  78.6190536  73.3894459  89.3527114
 101.9063087  77.0003354  86.7927284 101.1526796  76.4310752  86.6371288
 102.0410629  76.9666019  87.7397918  87.2961716  81.8716757  82.4682003
  87.1607390  82.7168292  82.8966851  87.8371528  82.0736034  81.7047937
  83.7829055  67.9508337  99.1296358  83.3896001  67.3974535  99.8044003
  84.5995195  68.2618915  99.5202876  80.7491113  79.3892195  83.0409928
  81.2615633  80.1835445  83.1915493  81.4013826  78.6918485  82.9743530
  82.5585998  82.5057951  85.1232681  82.7352626  83.4275916  84.9353665
  83.3542831  82.1916370  85.5527061  86.6997016  69.3666216  96.7216615
  87.4406730  69.9673369  96.6421077  86.9314939  68.6243853  96.1634657
  81.8438354  74.5522583  94.9994845  81.7291869  73.6507840  95.3001943
  80.9882872  74.7986280  94.6479661  88.9230192  82.4940323  96.5982345
  88.4794046  81.7076702  96.2803250  89.5847405  82.6819474  95.9326236
  83.6817313  84.0236125  91.1243024  84.2324738  83.8953188  90.3520018
  82.8428789  84.3231014  90.7737916  91.0211430  82.7743123  94.6263746
  91.0029905  83.5952004  94.1344016  91.9431350  82.6497198  94.8513888
  87.4784484  80.2887253  95.4687255  88.0112821  79.5275541  95.2386563
  86.9498565  79.9960904  96.2111409  90.6454179  65.3947319  90.9980897
  90.3018448  66.2848960  90.9220007  91.0133142  65.2048976  90.1350482
  78.7140030  77.7180849  83.8169499  79.5515252  78.1277857  83.6003206
  78.8918297  76.7780291  83.7869693  90.6104462  75.3855930  79.5053332
  90.0951085  76.1560534  79.7441719  90.3381770  74.7121066  80.1286393
  88.1951573  70.2305630  84.5638570  87.3393169  69.8412481  84.3844209
  88.6078525  70.3097591  83.7038356  89.7250719  67.7651974  88.9630130
  89.2215515  67.7282109  88.1497935  90.0181326  68.6744716  89.0226786
  85.9693605  67.8490703  87.9696312  86.8346602  67.6533512  87.6102201
  86.0371114  67.6201055  88.8965668  95.5838736  78.1388284  81.4406505
  94.8068179  77.7999444  80.9961667  96.2630217  78.1440908  80.7661470
  90.3990765  73.2583022  81.3313113  90.0940901  73.5729171  82.1823256
  91.3521207  73.3364442  81.3740446  88.8437197  79.4173245  82.9806067
  88.3158558  78.6826005  82.6679304  88.3424700  80.1947921  82.7346035
  93.8230043  77.6122266  88.0973113  93.1653717  78.3021527  88.1853242
  94.6270442  78.0018698  88.4407099  83.5755924  70.0792911  85.3412678
  84.1499676  69.8568093  84.6085871  84.1626907  70.1481606  86.0941280
  92.6335502  75.9666638  86.1477055  93.1467383  76.5996630  86.6498765
  93.2836726  75.3667834  85.7820415  83.9025512  72.1097372  79.3608564
  83.0662824  72.4472059  79.6817838  83.7630281  71.9746352  78.4235701
  85.8778592  66.9534160  84.0687748  85.2243004  66.6383177  83.4444363
  85.8359066  66.3309901  84.7947571  86.9889797  77.2353455  75.9841040
  86.0816859  77.0042709  76.1832189  87.4860829  76.4391075  76.1715021
  89.8957876  85.9450963  78.9037726  89.2219575  86.2482659  79.5122684
  90.2823698  86.7480043  78.5543183  89.1116332  73.4416094  88.3935395
  88.1938894  73.6631041  88.2357083  89.5276476  73.5162404  87.5347103
  89.8951380  74.8407510  83.5238076  90.6423199  75.3528907  83.2145198
  90.1642970  74.5191562  84.3842469  88.1678030  77.3366050  80.5065030
  87.2589250  77.0525083  80.6037500  88.1973114  77.7565129  79.6468337
  93.3997298  80.9472640  84.2756197  92.9459625  80.1063550  84.3321388
  92.7691265  81.5834038  84.6130978  92.3430217  71.8764626  85.5056865
  91.6052974  71.3642012  85.8367108  92.5956991  71.4365007  84.6940142
  91.8430237  82.7849136  85.2106016  92.1353211  83.3454194  84.4918381
  92.3528858  83.0777697  85.9659175  78.7366201  75.0571564  84.4880232
  78.5390601  74.4640925  83.7631299  78.1812865  74.7523775  85.2056171
  86.7162924  74.9494671  86.6074825  86.7711534  73.9968507  86.5317302
  85.9054127  75.1054110  87.0916124  87.8654118  78.8774794  77.8453109
  87.4273548  78.1610653  77.3858746  88.6064559  79.1050909  77.2838200
  84.6555284  73.5671731  84.3665204  83.8423150  73.8665901  84.7730396
  85.1514279  73.1727419  85.0839686  86.8063862  83.5629488  86.2999469
  86.7640041  83.7890334  85.3708001  87.7226561  83.3292862  86.4485270
  90.2529496  74.0313555  93.1980098  90.6078884  74.2585028  94.0574564
  90.9001627  74.3631932  92.5757353  95.9827233  77.1531991  83.9029427
  95.8445132  77.3433587  82.9750616  95.6263452  77.9151374  84.3597478
  84.1469359  71.1390086  89.9826439  84.7868738  70.9978845  89.2849402
  83.3146890  70.8524599  89.6065041  96.0096613  79.2208518  88.9140699
  96.4433119  79.1283807  89.7623753  96.7228193  79.1966018  88.2760715
  84.9229663  80.4392517  86.0961432  85.7170262  79.9442837  85.8944007
  84.2121355  79.9110380  85.7329137  89.7424508  82.8210612  90.4473799
  89.7961530  83.3901548  91.2151515  88.8739289  82.9912497  90.0827836
  81.2312427  74.5835598  82.1721184  80.3010015  74.5220054  82.3891146
  81.3269899  74.0611551  81.3757825  81.1497976  71.1090411  84.7599426
  81.4104793  72.0235744  84.6508586  81.9715148  70.6414854  84.9096039
  82.6222901  72.5228168  91.9298250  83.2945954  72.3145530  91.2810899
  81.7952687  72.3250254  91.4903483  96.8712162  79.2632219  91.4473584
  97.0648052  80.1678029  91.6932859  96.7712780  78.8039638  92.2812169
  88.5248473  69.1490109  93.9463911  87.8776388  69.8480059  93.8528388
  89.2949488  69.5826253  94.3140160  91.9327271  79.4138961  97.0214465
  91.7812777  79.1849513  96.1044548  91.9231950  80.3709563  97.0345810
  88.7012607  76.9870874  92.0060731  89.6304667  77.1382034  91.8329698
  88.2803637  77.0754895  91.1509378  87.5000939  81.0121539  89.7759269
  87.3612025  80.6440323  90.6485207  86.7115535  81.5269178  89.6043226
  88.0949091  86.1130635  81.1184805  88.2700847  85.6418678  81.9330428
  87.4081879  86.7396401  81.3466066  89.0506154  80.3903141  87.1648106
  88.7155987  80.3503911  88.0605756  88.5510100  79.7247857  86.6918517
  83.0250398  75.7970771  92.6900688  82.8870196  75.0651010  93.2912227
  83.9355322  75.7079671  92.4084875  91.9865346  77.7359176  77.4385166
  91.3694516  77.0106004  77.3418219  91.5181834  78.4968536  77.0952240
  85.6532699  75.5090731  92.1784367  86.3632317  74.8683923  92.1370986
  85.6102007  75.7603625  93.1010548  93.6419478  82.4458084  95.0990946
  93.5832024  81.7617304  94.4321529  94.0438996  83.1877074  94.6471572
  84.3661633  72.4955948  93.9980007  83.8298990  72.0446687  94.6501603
  83.7778341  72.6301857  93.2550471  82.6610176  89.2619998  87.8924665
  82.9006775  89.8938522  88.5703684  81.8179373  88.9108038  88.1790025
  83.7763892  71.9544600  76.5606470  82.8993358  71.8333401  76.1968717
  84.2521645  71.1630678  76.3085359  93.6436885  80.4097668  93.3304926
  92.7563664  80.0723590  93.4531325  94.2135436  79.6780699  93.5673692
  75.2966032  76.7421760  86.6547978  75.9837072  76.4283490  86.0668993
  75.1414161  77.6463124  86.3815229  80.1000754  71.6311956  91.0833001
  80.0158943  71.0237626  90.3483411  79.2783460  72.1220974  91.0842498
  87.1738038  85.0699120  90.2966169  87.1008210  85.8754092  90.8085474
  86.7315431  85.2691086  89.4714191  86.9627818  84.3070890  83.8068991
  86.1795340  84.8492570  83.9007215  87.6620563  84.8244870  84.2063232
  90.2724468  70.1165520  86.4503196  90.7693167  69.3635482  86.1304267
  89.5011449  70.1529836  85.8846406  98.1254225  75.8205885  88.0921488
  98.1144102  76.7030601  87.7215421  97.2571605  75.4677436  87.8976025
  89.6336722  84.9685954  92.4524328  90.3464694  85.6033419  92.3800229
  89.1426750  85.0649820  91.6364330  91.3554249  78.8737207  84.0241620
  90.4210527  78.9938669  83.8546324  91.5330917  77.9709674  83.7601629
  86.8559437  72.2582903  86.1774881  86.4857224  71.7053943  86.8655786
  87.3518529  71.6541036  85.6249881  94.7426800  74.7154526  84.5591654
  95.2087252  75.5482518  84.4851956  95.1934300  74.2499508  85.2636912
  84.6848635  82.7180398  93.2729899  85.3858095  83.3516881  93.4259293
  84.2143750  83.0595129  92.5125538  92.7143463  67.0835113  88.5982555
  91.8006542  67.3139340  88.7664762  93.1436564  67.1673557  89.4496588
  92.4849921  75.2725005  91.0982449  91.8321371  75.5200913  90.4434902
  92.8630301  74.4589143  90.7644926  89.4457095  85.3084698  85.2010619
  89.6279490  84.4906354  85.6638372  90.2690081  85.5252391  84.7635509
  89.7799261  84.2352883  82.4625668  90.3087027  83.7245338  81.8495830
  90.0427480  83.9195414  83.3271201  88.5337494  76.0144816  97.5848486
  87.8578131  75.9138946  98.2550861  89.3565128  75.8584030  98.0484483
  80.2816353  82.2516753  90.2061001  80.8669790  81.5060441  90.3388906
  80.0841192  82.5620709  91.0897665  83.1355009  85.2868000  85.2223444
  82.4665384  85.7714128  84.7387484  82.9967878  85.5337221  86.1366822
  74.8734008  74.8222353  88.9265445  74.9118108  74.2885944  89.7202563
  74.3674301  74.2957558  88.3076422  87.2760277  87.3211744  91.8206102
  87.8278585  87.4843365  92.5855187  87.6166471  87.9116181  91.1486127
  82.2524770  69.6686893  92.4227987  82.3166097  70.5301724  92.0105385
  82.1891891  69.0560895  91.6900345  81.7277043  71.7410026  96.0701021
  82.3549082  71.3587103  96.6838546  80.8704962  71.5224228  96.4356714
  92.1271151  82.1473001  97.6754757  92.6711055  82.7602959  97.1809711
  91.5457996  82.7052580  98.1921770  78.5042586  73.5486455  82.0019376
  78.7996027  72.6397134  81.9486430  77.6030621  73.5274195  81.6800378
  90.4128664  85.2693719  88.8069784  90.2879804  84.4683459  88.2980730
  91.0707755  85.7639913  88.3183754  82.0336833  71.6242452  87.9846925
  81.3123418  72.2378419  87.8454398  82.8230088  72.1600216  87.9063571
  92.4763573  83.0702739  90.4349334  91.5293908  82.9508090  90.3627661
  92.8246346  82.1825237  90.5175596  84.8363146  68.9596878  94.2587576
  85.3597548  69.2059175  95.0213886  84.6175479  69.7916913  93.8390714
  80.2330427  71.2300553  82.1258701  79.9043133  70.3497932  81.9433807
  80.5869798  71.1748221  83.0135090  89.4810006  82.8655455  86.6353687
  89.3334968  81.9372163  86.8161257  90.3063500  82.8875546  86.1510762
  83.3472250  71.5173523  82.4934179  83.6868323  72.0459444  81.7712787
  83.7944371  71.8553929  83.2692745  93.0844128  83.6884014  87.7218559
  94.0090675  83.4826876  87.5843011  92.9159431  83.4400415  88.6307901
  86.0415691  69.9010573  91.9437247  85.7012512  69.1018386  92.3457927
  85.3354697  70.2012284  91.3714080  86.6932163  66.9859886  90.3964570
  87.5158232  66.5120364  90.2743460  86.9370227  67.7650369  90.8963256
  85.3340397  70.0148144  80.6927472  86.0548760  70.3929397  80.1891188
  84.7105702  70.7337021  80.7962450  89.4771520  70.7193293  81.6285804
  89.6935135  71.6017931  81.3274632  88.9965588  70.3279507  80.8991446
  84.2170742  73.6779006  88.2056549  84.0715322  73.9919309  89.0980830
  83.7395945  74.2963907  87.6527447  86.0767125  70.6681554  88.2537438
  86.0628693  69.7722648  87.9169736  86.7939553  70.6752218  88.8875724
  87.9293255  71.1018895  90.2990566  87.6711033  72.0235965  90.2974896
  87.3978296  70.7049329  90.9891030  92.8739444  84.2069682  83.0780651
  93.0476322  83.6416104  82.3254503  93.3668335  85.0070577  82.8960141
  78.6916404  76.2184351  91.1444210  78.1469872  76.9944159  91.2764484
  79.5695754  76.5655155  90.9863331  85.4804021  69.5495935  83.5225008
  85.6019932  68.6212581  83.7215896  85.1906063  69.5634621  82.6103324
  88.3495211  67.2350845  86.6591728  88.3716908  67.2990178  85.7043708
  88.7663270  66.3955354  86.8532234  98.7278835  76.9706105  84.6970951
  99.1709981  76.2213430  84.2990074  97.8505346  76.9616241  84.3144683
  93.8614617  83.5236446  80.1777549  94.5565521  84.1443139  80.3964864
  94.2037767  82.6731797  80.4529927  79.4782426  75.3454247  94.0374367
  78.7364162  75.4936882  94.6238997  79.1575170  75.6062513  93.1741116
  95.7606040  80.9736152  81.7064880  96.2857364  81.3123424  80.9814200
  95.6728392  80.0383167  81.5228015  87.4226088  84.8870225  93.8354757
  87.7313215  84.6419372  94.7077456  88.2201570  85.0916864  93.3473627
  87.4446700  87.0408135  86.0660133  87.0051691  86.5484514  86.7592990
  88.1954817  86.4981103  85.8252208  79.9239039  83.2319676  86.0684761
  80.7497059  82.9323448  85.6883405  79.5733091  82.4627298  86.5174550
  84.8920573  82.5846144  88.1382435  84.2700582  81.9216849  87.8384663
  85.5625440  82.6107276  87.4556083  78.1247644  81.1506002  87.0273695
  77.2879553  80.7228177  86.8457696  78.0971290  81.3438446  87.9644486
  84.9645100  71.0627932  97.7314941  85.0133256  71.9390055  97.3492710
  85.5067614  70.5205325  97.1586584  95.4499946  81.6069055  97.0116078
  94.6595489  81.5893194  96.4720577  95.2133300  82.1457349  97.7665115
  95.5697821  78.4561522  94.3248806  95.6195826  78.2911529  95.2664329
  95.4611744  77.5888781  93.9346687  84.4534080  81.1350067  81.6140895
  84.6022200  81.8185532  80.9607568  85.2600523  81.1155157  82.1290351
  92.8601583  74.4392450  95.6408113  93.7611446  74.2998914  95.3492111
  92.9349558  74.6046904  96.5806291  87.1944389  71.8159304  94.4861299
  86.3247698  72.1092870  94.2143888  87.4303869  72.3999749  95.2068563
  97.0716018  80.8758463  94.5690828  96.7800826  81.2388444  95.4054289
  96.4588149  80.1625471  94.3904160  98.2711700  78.4411343  87.0893398
  99.1058591  78.8801147  87.2530959  98.4070829  77.9649996  86.2701644
  95.3203206  75.9991078  93.0370886  95.7957327  76.1918724  92.2289737
  94.3968771  76.0550264  92.7914270  82.2086713  77.1615245  82.6201964
  81.9632754  76.2577575  82.8182174  82.3782627  77.1632395  81.6781442
  89.8983422  68.0338921  92.0026720  90.4165366  68.7699948  91.6773208
  89.5438555  68.3402915  92.8373479  81.4782360  72.8943603  80.1188126
  80.7851605  72.9687957  79.4628162  81.2334112  72.1303946  80.6409643
  90.1496017  64.4539204  87.5227616  90.4297770  63.7862393  88.1488043
  90.9346623  64.6468299  87.0102280  87.9529485  83.6298198  79.0852643
  87.3803452  84.2488385  78.6323115  88.5262279  84.1797559  79.6192565
  94.0204875  72.8756838  91.2699192  94.9722298  72.9754936  91.2911416
  93.8508325  72.0835106  91.7797276  92.0419254  69.9612421  91.4558593
  91.4469186  70.2417434  90.7605081  91.7568951  70.4506322  92.2275334
  91.1726745  83.9135348  80.2161225  92.1057418  83.8480910  80.4194101
  91.0849958  84.7491615  79.7575758  93.8014762  83.2301218  77.1765173
  93.7228393  82.8961082  78.0700931  94.6224428  83.7222986  77.1756645
  96.4992953  76.0962958  90.3841491  96.4669273  75.1578958  90.5701175
  97.1093576  76.1746994  89.6507316  88.3376284  74.9659011  76.4268695
  89.2835388  74.8365219  76.4957113  87.9590529  74.2273672  76.9038123
  96.6487441  72.8874001  90.4299774  96.1326490  72.1032458  90.2429703
  97.5327390  72.5592718  90.5946294  94.3098168  66.6315017  86.3895587
  94.1122989  66.3230105  87.2738919  94.9197874  67.3576655  86.5193517
 102.3169503  77.1578964  89.5247528 103.0472891  76.8964252  90.0855231
 101.7076448  76.4207686  89.5649596 100.3984800  75.2986827  90.1221979
  99.6717963  75.1642792  89.5138471  99.9832087  75.6063656  90.9278697
  88.2214976  79.0176757  97.8869352  89.1417986  79.1955356  98.0809399
  88.1864559  78.0732802  97.7349052  86.5219201  72.8908987  76.3623581
  85.6150656  72.5942100  76.4386294  86.7995182  72.5938805  75.4957867
  77.4397141  74.2115350  86.8122627  77.1199925  73.3580658  86.5197001
  76.8930569  74.4263928  87.5680594  81.2177049  76.9277791  90.5292133
  81.4363058  77.8594899  90.5480167  81.6302822  76.5685766  91.3146937
  88.1381266  67.4345877  82.5167822  87.3281995  67.0892962  82.8923068
  88.8265683  67.1253420  83.1055433  90.0671815  66.5123923  84.1392118
  90.6202853  66.9319377  84.7982142  90.3041901  65.5859672  84.1815074
  86.0904914  72.5010997  99.9194882  85.9901641  73.4505354  99.8506973
  85.8726456  72.1729236  99.0470952  85.2917985  69.7495922  76.5035560
  86.1537149  70.0750820  76.7631377  85.4768329  68.9627418  75.9908625
  77.3085401  77.8318262  88.7815748  76.6148873  77.4172215  88.2685703
  78.0558392  77.8738798  88.1849167  93.4450622  68.6224449  83.6470783
  92.8649291  69.2809253  83.2648835  93.1786554  67.8001793  83.2358200
  91.8954188  68.0229506  85.8492103  92.3953967  68.1346041  85.0406422
  92.5389796  67.7190559  86.4892911  85.9536184  75.9308136  98.7359944
  85.4703266  76.7308496  98.9423833  86.0397123  75.9416081  97.7827388
  79.2222144  77.7636516  86.6581763  79.1992832  77.8624203  85.7063646
  79.5322780  78.6101666  86.9798929  81.8809521  79.8212671  90.7728378
  82.8352775  79.7896613  90.7058309  81.6822045  79.3603294  91.5878604
  82.4708904  78.3913787  93.3399175  83.2901793  78.8857865  93.3634013
  82.7445711  77.4745755  93.3116743  95.5790036  70.8071060  86.4181470
  96.3550426  71.2967512  86.6906087  94.8538170  71.2329114  86.8753340
  98.0162595  71.5198679  87.4755411  98.6107085  71.2794415  86.7648719
  98.0889178  70.8005810  88.1028947  80.2359750  85.3632290  87.7898576
  80.1014218  84.6032691  87.2236574  79.8191813  86.0873190  87.3227365
  91.3718713  80.5469214  76.7975151  92.0754563  80.7519216  77.4132807
  90.6481362  81.1145976  77.0624234  96.0121329  72.0868807  83.7427541
  95.7558264  71.6865442  84.5735748  95.3874198  72.8012601  83.6177680
 100.3233667  74.8264880  86.2498832  99.7633225  74.8958069  87.0230394
  99.7177171  74.6505865  85.5298328  83.3928876  86.2601607  88.0017018
  83.2761260  87.2047040  87.8995709  82.5721322  85.9575169  88.3902818
  93.2805411  80.9851743  78.8473611  94.1151015  80.5532941  78.6651086
  93.1189754  80.8133757  79.7750505  92.9351303  77.4883856  80.2129950
  92.8800107  77.3228128  79.2718394  92.3097358  78.1959889  80.3692140
  77.7243818  72.7251921  94.0391373  78.3702681  72.2150874  94.5278598
  77.5160969  73.4620602  94.6134798  90.2497210  79.7932768  99.5383513
  91.1188370  79.9673420  99.1770148  89.7703962  80.6127185  99.4159242
  86.2447428  66.9891965  79.7915269  86.2326098  67.9333805  79.9483540
  87.1370850  66.8062111  79.4974730  84.4183390  86.9129869  91.2172947
  85.3210637  86.9453479  91.5339442  84.1920760  85.9830320  91.2319283
  86.1736992  85.6660856  87.8783025  85.2232623  85.6662717  87.7647398
  86.4769478  84.9193590  87.3619060  90.0599548  63.5834742  84.0461206
  89.2931944  63.0293228  84.1917888  90.4710253  63.6556611  84.9075357
  82.0641309  69.8719538  98.1366387  82.9272770  69.5156342  98.3469711
  81.4906720  69.5333432  98.8241791 101.9089686  91.5021394  88.9428788
 102.5468096  91.3828141  88.2392128 101.7910529  92.4502238  89.0016740
  98.7179392  91.4548822  88.8790312  98.3797904  91.3389887  87.9910847
  99.5869160  91.0539987  88.8591319  94.5766208  93.3084298  84.8687203
  94.0131073  93.2174235  84.1003491  94.4618603  92.4884203  85.3489696
  99.1999175  92.6083674  94.8376518  99.1887816  92.2136472  93.9657022
  99.3619815  91.8749746  95.4310289  92.1230640  94.8035490  87.7071424
  92.9151932  94.4626315  87.2917723  92.3627290  94.9130465  88.6273577
 100.1565766  96.9755266  80.1801668  99.5053746  97.5609347  79.7935682
 100.9510129  97.5061461  80.2396706  94.0821394  94.0644403  80.5788803
  94.8552270  93.5173390  80.4401678  94.4346793  94.9288653  80.7903264
  95.9206436  95.3920786  93.7855702  95.6296302  96.2966416  93.6702368
  96.5563421  95.4337313  94.4999772  96.8462643  92.7697634  90.3757062
  97.4426215  92.5453656  89.6614025  96.9037615  92.0282380  90.9782509
  96.4187671  90.2237069  78.2107253  96.6713192  89.7018591  77.4490716
  95.4812231  90.0603215  78.3133936 101.4630954  89.2272848  86.0181996
 102.2494044  88.8092271  85.6672413 101.7269659  90.1318940  86.1863644
 101.6341032  94.6645698  80.7170653 100.9986865  94.7380325  81.4291557
 101.3038438  95.2539297  80.0389732 106.8639381  89.1648081  86.9214974
 107.5964553  88.5947298  87.1552804 106.1078737  88.7769681  87.3621480
  96.1383960  92.1265175  80.4131628  96.0220218  91.4510079  81.0812712
  96.2486220  91.6397549  79.5963781  98.4815501  91.5875322  84.1178317
  98.1173708  91.0605943  84.8291238  99.3382617  91.1973792  83.9444802
 104.3864802  82.8769655  91.3809583 104.0548127  83.7465066  91.1570798
 103.7910415  82.5605939  92.0603613  98.1220988  86.6165222  79.1139665
  98.2895390  87.4845459  79.4810136  97.9318157  86.7792504  78.1900955
 100.8796321  95.0782201  90.7805496 100.5797044  95.9807240  90.6721303
 100.5347381  94.8114384  91.6326649  94.3308803  91.5295998  86.8142200
  93.4059299  91.3972212  87.0219892  94.5793216  92.3090217  87.3112142
 104.2793465  87.5964741  88.4602933 103.3710342  87.5280150  88.1661694
 104.2281061  88.0736686  89.2884758  98.1010209  89.0722880  80.0986332
  97.9809834  89.5179930  80.9371812  97.4062797  89.4208197  79.5399870
  91.6917614  91.1729271  87.6485989  91.8209995  91.4263750  88.5625401
  91.0115065  91.7656979  87.3290644  95.8617101 101.8426521  83.7476463
  95.7841131 102.7934347  83.8264944  95.2578745 101.4972394  84.4051390
  98.3534331  89.0154387  96.4037830  97.5767665  89.5748307  96.3940695
  98.9924894  89.5011170  96.9252700 106.1455111  85.7981180  90.2380807
 105.5029492  86.0913713  89.5920601 105.6410040  85.6834100  91.0434004
 103.7995275  89.5444353  80.9266666 104.7113131  89.7771740  80.7514364
 103.2904922  90.1281397  80.3641745  96.6080703  91.8239840  95.9655797
  97.3495388  92.3624884  95.6890621  95.9017689  92.4506129  96.1227349
 102.0836043  93.9668981  94.5627959 102.4919399  93.5251391  93.8182591
 101.3613304  93.3921608  94.8162152  98.4367113  88.9041587  91.9361516
  99.2828308  89.3281001  92.0796165  98.3765751  88.2475212  92.6300079
 102.4064857  94.5270171  88.3180248 101.7773720  94.6915885  87.6156315
 102.0190520  94.9411781  89.0891212 106.2854089  95.4624609  85.6724611
 105.6005127  95.8423511  85.1221645 106.3697939  96.0719936  86.4056559
 101.5866558  86.5645956  93.5942689 101.3427490  87.3188016  93.0576965
 101.8626489  86.9431303  94.4289936 103.5405021  93.1084568  92.2719955
 103.7521916  93.7516328  91.5954336 103.4934769  92.2746885  91.8041885
 101.1431250  85.7202389  89.1756527 100.2815729  86.0183642  89.4673265
 101.1693685  85.9372788  88.2437560  97.9592819  94.2644579  85.5830333
  98.4231165  94.5432282  84.7934955  97.6949617  93.3628024  85.4003423
  94.8516900  93.8116061  88.5210096  95.4218257  94.2403329  87.8827580
  95.4425012  93.5298646  89.2194282  96.8961705  90.3867732  82.3919898
  97.5985749  90.8388775  82.8593824  96.5642334  89.7451551  83.0199791
  95.3442067  88.9779488  96.7671107  94.7140727  89.6595769  97.0006504
  95.2378155  88.8662570  95.8224245  90.6387039  88.6451284  87.6937031
  89.8486093  88.9008813  87.2177142  91.1298287  89.4599622  87.7989072
 104.6550849  95.9856524  90.4442312 105.4768293  95.5836711  90.1624994
 104.6513252  95.8824758  91.3958428  92.5901785  89.0095864  84.6520508
  91.7932948  89.1214558  85.1704004  92.3627377  89.3482516  83.7861399
  98.4207452  95.5340567  92.6003023  98.4851885  95.9960974  93.4361195
  97.7118376  94.9037932  92.7285333  88.9224742  88.8981775  90.1252022
  89.1732781  89.7828785  90.3909598  89.4584291  88.7186376  89.3527114
 112.7456842  92.3295272  86.7927284 111.9920550  91.7602670  86.6371288
 112.8804383  92.2957937  87.7397918  98.1355470  97.2008674  82.4682003
  98.0001145  98.0460210  82.8966851  98.6765283  97.4027952  81.7047937
  94.6222810  83.2800254  99.1296358  94.2289755  82.7266453  99.8044003
  95.4388950  83.5910833  99.5202876  91.5884867  94.7184112  83.0409928
  92.1009388  95.5127363  83.1915493  92.2407580  94.0210403  82.9743530
  93.3979752  97.8349869  85.1232681  93.5746380  98.7567833  84.9353665
  94.1936586  97.5208288  85.5527061  97.5390771  84.6958133  96.7216615
  98.2800484  85.2965286  96.6421077  97.7708693  83.9535771  96.1634657
  92.6832109  89.8814501  94.9994845  92.5685624  88.9799758  95.3001943
  91.8276626  90.1278197  94.6479661  99.7623946  97.8232241  96.5982345
  99.3187801  97.0368619  96.2803250 100.4241160  98.0111391  95.9326236
  94.5211068  99.3528042  91.1243024  95.0718493  99.2245106  90.3520018
  93.6822543  99.6522932  90.7737916 101.8605184  98.1035041  94.6263746
 101.8423660  98.9243922  94.1344016 102.7825104  97.9789116  94.8513888
  98.3178239  95.6179170  95.4687255  98.8506575  94.8567458  95.2386563
  97.7892320  95.3252822  96.2111409 101.4847934  80.7239236  90.9980897
 101.1412203  81.6140878  90.9220007 101.8526896  80.5340894  90.1350482
  89.5533784  93.0472767  83.8169499  90.3909006  93.4569775  83.6003206
  89.7312052  92.1072209  83.7869693 101.4498216  90.7147847  79.5053332
 100.9344840  91.4852452  79.7441719 101.1775525  90.0412984  80.1286393
  99.0345327  85.5597548  84.5638570  98.1786924  85.1704399  84.3844209
  99.4472279  85.6389509  83.7038356 100.5644474  83.0943891  88.9630130
 100.0609270  83.0574027  88.1497935 100.8575081  84.0036634  89.0226786
  96.8087360  83.1782621  87.9696312  97.6740357  82.9825430  87.6102201
  96.8764869  82.9492973  88.8965668 106.4232490  93.4680202  81.4406505
 105.6461933  93.1291362  80.9961667 107.1023971  93.4732825  80.7661470
 101.2384519  88.5874939  81.3313113 100.9334655  88.9021089  82.1823256
 102.1914962  88.6656359  81.3740446  99.6830951  94.7465163  82.9806067
  99.1552313  94.0117922  82.6679304  99.1818454  95.5239839  82.7346035
 104.6623797  92.9414183  88.0973113 104.0047472  93.6313445  88.1853242
 105.4664197  93.3310615  88.4407099  94.4149679  85.4084829  85.3412678
  94.9893431  85.1860011  84.6085871  95.0020661  85.4773524  86.0941280
 103.4729256  91.2958556  86.1477055 103.9861138  91.9288548  86.6498765
 104.1230480  90.6959751  85.7820415  94.7419266  87.4389290  79.3608564
  93.9056578  87.7763977  79.6817838  94.6024036  87.3038270  78.4235701
  96.7172347  82.2826078  84.0687748  96.0636759  81.9675095  83.4444363
  96.6752821  81.6601818  84.7947571  97.8283551  92.5645373  75.9841040
  96.9210613  92.3334627  76.1832189  98.3254583  91.7682992  76.1715021
 100.7351630 101.2742880  78.9037726 100.0613329 101.5774577  79.5122684
 101.1217452 102.0771961  78.5543183  99.9510087  88.7708012  88.3935395
  99.0332648  88.9922959  88.2357083 100.3670231  88.8454322  87.5347103
 100.7345135  90.1699427  83.5238076 101.4816954  90.6820824  83.2145198
 101.0036724  89.8483480  84.3842469  99.0071785  92.6657968  80.5065030
  98.0983004  92.3817001  80.6037500  99.0366869  93.0857046  79.6468337
 104.2391052  96.2764557  84.2756197 103.7853379  95.4355467  84.3321388
 103.6085019  96.9125956  84.6130978 103.1823972  87.2056543  85.5056865
 102.4446729  86.6933930  85.8367108 103.4350745  86.7656925  84.6940142
 102.6823992  98.1141054  85.2106016 102.9746966  98.6746111  84.4918381
 103.1922612  98.4069615  85.9659175 103.2835599  79.9832795  86.0998634
 103.5894476  79.1230159  85.8124549 104.0088204  80.5750416  85.8997628
  89.5759955  90.3863482  84.4880232  89.3784355  89.7932843  83.7631299
  89.0206619  90.0815692  85.2056171  97.5556679  90.2786589  86.6074825
  97.6105289  89.3260425  86.5317302  96.7447881  90.4346028  87.0916124
  98.7047873  94.2066712  77.8453109  98.2667303  93.4902571  77.3858746
  99.4458314  94.4342826  77.2838200  95.4949039  88.8963648  84.3665204
  94.6816904  89.1957819  84.7730396  95.9908033  88.5019337  85.0839686
  97.6457617  98.8921405  86.2999469  97.6033796  99.1182252  85.3708001
  98.5620316  98.6584780  86.4485270 101.0923251  89.3605473  93.1980098
 101.4472638  89.5876946  94.0574564 101.7395382  89.6923850  92.5757353
 106.8220988  92.4823909  83.9029427 106.6838886  92.6725505  82.9750616
 106.4657206  93.2443291  84.3597478  94.9863114  86.4682004  89.9826439
  95.6262493  86.3270763  89.2849402  94.1540644  86.1816517  89.6065041
 106.8490367  94.5500436  88.9140699 107.2826874  94.4575725  89.7623753
 107.5621948  94.5257936  88.2760715  95.7623418  95.7684434  86.0961432
  96.5564016  95.2734754  85.8944007  95.0515110  95.2402297  85.7329137
 100.5818262  98.1502530  90.4473799 100.6355284  98.7193466  91.2151515
  99.7133043  98.3204415  90.0827836  92.0706181  89.9127516  82.1721184
  91.1403769  89.8511971  82.3891146  92.1663653  89.3903469  81.3757825
  91.9891730  86.4382329  84.7599426  92.2498547  87.3527662  84.6508586
  92.8108902  85.9706771  84.9096039  93.4616655  87.8520086  91.9298250
  94.1339709  87.6437448  91.2810899  92.6346442  87.6542172  91.4903483
 107.7105917  94.5924136  91.4473584 107.9041807  95.4969947  91.6932859
 107.6106535  94.1331555  92.2812169  99.3642227  84.4782027  93.9463911
  98.7170142  85.1771977  93.8528388 100.1343243  84.9118171  94.3140160
 102.7721025  94.7430879  97.0214465 102.6206532  94.5141431  96.1044548
 102.7625705  95.7001480  97.0345810  99.5406362  92.3162792  92.0060731
 100.4698422  92.4673951  91.8329698  99.1197392  92.4046813  91.1509378
  98.3394694  96.3413456  89.7759269  98.2005779  95.9732241  90.6485207
  97.5509290  96.8561096  89.6043226  98.9342846 101.4422553  81.1184805
  99.1094601 100.9710596  81.9330428  98.2475634 102.0688319  81.3466066
  99.8899909  95.7195059  87.1648106  99.5549741  95.6795829  88.0605756
  99.3903854  95.0539775  86.6918517  93.8644153  91.1262689  92.6900688
  93.7263951  90.3942928  93.2912227  94.7749076  91.0371589  92.4084875
 102.8259100  93.0651093  77.4385166 102.2088271  92.3397921  77.3418219
 102.3575589  93.8260454  77.0952240  96.4926453  90.8382648  92.1784367
  97.2026072  90.1975840  92.1370986  96.4495761  91.0895543  93.1010548
 104.4813232  97.7750002  95.0990946 104.4225778  97.0909222  94.4321529
 104.8832750  98.5168992  94.6471572  95.2055387  87.8247866  93.9980007
  94.6692744  87.3738605  94.6501603  94.6172096  87.9593775  93.2550471
  93.5003931 104.5911915  87.8924665  93.7400529 105.2230440  88.5703684
  92.6573127 104.2399955  88.1790025  94.6157646  87.2836518  76.5606470
  93.7387113  87.1625318  76.1968717  95.0915399  86.4922596  76.3085359
 104.4830639  95.7389586  93.3304926 103.5957418  95.4015507  93.4531325
 105.0529190  95.0072617  93.5673692  86.1359786  92.0713677  86.6547978
  86.8230826  91.7575407  86.0668993  85.9807915  92.9755042  86.3815229
  90.9394509  86.9603874  91.0833001  90.8552697  86.3529543  90.3483411
  90.1177215  87.4512892  91.0842498  98.0131793 100.3991038  90.2966169
  97.9401964 101.2046009  90.8085474  97.5709186 100.5983004  89.4714191
  97.8021572  99.6362808  83.8068991  97.0189094 100.1784488  83.9007215
  98.5014317 100.1536788  84.2063232 101.1118222  85.4457437  86.4503196
 101.6086922  84.6927400  86.1304267 100.3405204  85.4821754  85.8846406
 108.9647980  91.1497803  88.0921488 108.9537856  92.0322518  87.7215421
 108.0965359  90.7969354  87.8976025 100.4730476 100.2977872  92.4524328
 101.1858448 100.9325337  92.3800229  99.9820505 100.3941738  91.6364330
 102.1948003  94.2029125  84.0241620 101.2604282  94.3230587  83.8546324
 102.3724672  93.3001591  83.7601629  97.6953191  87.5874820  86.1774881
  97.3250979  87.0345861  86.8655786  98.1912284  86.9832954  85.6249881
 105.5820554  90.0446444  84.5591654 106.0481007  90.8774435  84.4851956
 106.0328055  89.5791425  85.2636912  95.5242390  98.0472315  93.2729899
  96.2251849  98.6808798  93.4259293  95.0537505  98.3887047  92.5125538
 103.6496786  96.3890265  81.5577806 103.9256629  96.2746860  82.4671680
 102.7801284  95.9907750  81.5189979 103.5537217  82.4127031  88.5982555
 102.6400297  82.6431258  88.7664762 103.9830319  82.4965475  89.4496588
 103.3243676  90.6016923  91.0982449 102.6715126  90.8492830  90.4434902
 103.7024056  89.7881061  90.7644926 100.2850850 100.6376616  85.2010619
 100.4673244  99.8198272  85.6638372 101.1083836 100.8544308  84.7635509
 100.6193015  99.5644801  82.4625668 101.1480781  99.0537256  81.8495830
 100.8821235  99.2487331  83.3271201  99.3731249  91.3436734  97.5848486
  98.6971886  91.2430863  98.2550861 100.1958883  91.1875948  98.0484483
  91.1210108  97.5808670  90.2061001  91.7063545  96.8352358  90.3388906
  90.9234946  97.8912627  91.0897665  93.9748763 100.6159918  85.2223444
  93.3059138 101.1006045  84.7387484  93.8361633 100.8629138  86.1366822
  85.7127763  90.1514271  88.9265445  85.7511862  89.6177861  89.7202563
  85.2068055  89.6249476  88.3076422  98.1154032 102.6503661  91.8206102
  98.6672340 102.8135283  92.5855187  98.4560225 103.2408099  91.1486127
  93.0918525  84.9978811  92.4227987  93.1559851  85.8593642  92.0105385
  93.0285645  84.3852813  91.6900345  92.5670797  87.0701944  96.0701021
  93.1942836  86.6879021  96.6838546  91.7098716  86.8516146  96.4356714
  89.3436340  88.8778373  82.0019376  89.6389781  87.9689051  81.9486430
  88.4424376  88.8566112  81.6800378 101.2522419 100.5985637  88.8069784
 101.1273558  99.7975377  88.2980730 101.9101510 101.0931830  88.3183754
  92.8730587  86.9534369  87.9846925  92.1517173  87.5670337  87.8454398
  93.6623843  87.4892134  87.9063571 103.3157327  98.3994657  90.4349334
 102.3687663  98.2800008  90.3627661 103.6640100  97.5117155  90.5175596
  95.6756901  84.2888796  94.2587576  96.1991302  84.5351092  95.0213886
  95.4569234  85.1208831  93.8390714  91.0724182  86.5592470  82.1258701
  90.7436888  85.6789849  81.9433807  91.4263552  86.5040139  83.0135090
 100.3203761  98.1947373  86.6353687 100.1728723  97.2664081  86.8161257
 101.1457254  98.2167464  86.1510762  94.1866005  86.8465440  82.4934179
  94.5262077  87.3751361  81.7712787  94.6338125  87.1845846  83.2692745
 103.9237882  99.0175932  87.7218559 104.8484430  98.8118793  87.5843011
 103.7553186  98.7692333  88.6307901  96.8809446  85.2302491  91.9437247
  96.5406266  84.4310304  92.3457927  96.1748452  85.5304202  91.3714080
  97.5325917  82.3151803  90.3964570  98.3551987  81.8412282  90.2743460
  97.7763981  83.0942287  90.8963256  96.1734152  85.3440062  80.6927472
  96.8942514  85.7221315  80.1891188  95.5499456  86.0628939  80.7962450
 100.3165275  86.0485211  81.6285804 100.5328889  86.9309849  81.3274632
  99.8359342  85.6571424  80.8991446  95.0564496  89.0070924  88.2056549
  94.9109077  89.3211227  89.0980830  94.5789700  89.6255824  87.6527447
  96.9160879  85.9973472  88.2537438  96.9022448  85.1014565  87.9169736
  97.6333307  86.0044136  88.8875724  98.7687010  86.4310812  90.2990566
  98.5104788  87.3527883  90.2974896  98.2372050  86.0341247  90.9891030
 103.7133199  99.5361599  83.0780651 103.8870076  98.9708022  82.3254503
 104.2062090 100.3362494  82.8960141  89.5310158  91.5476268  91.1444210
  88.9863626  92.3236076  91.2764484  90.4089508  91.8947073  90.9863331
  96.3197775  84.8787852  83.5225008  96.4413686  83.9504498  83.7215896
  96.0299817  84.8926538  82.6103324  99.1888965  82.5642763  86.6591728
  99.2110662  82.6282096  85.7043708  99.6057024  81.7247271  86.8532234
 109.5672590  92.2998022  84.6970951 110.0103736  91.5505347  84.2990074
 108.6899100  92.2908159  84.3144683 104.7008371  98.8528364  80.1777549
 105.3959276  99.4735056  80.3964864 105.0431521  98.0023715  80.4529927
  90.3176180  90.6746165  94.0374367  89.5757916  90.8228800  94.6238997
  89.9968925  90.9354430  93.1741116 106.5999794  96.3028069  81.7064880
 107.1251118  96.6415342  80.9814200 106.5122147  95.3675085  81.5228015
  98.2619843 100.2162143  93.8354757  98.5706969  99.9711290  94.7077456
  99.0595325 100.4208781  93.3473627  98.2840455 102.3700053  86.0660133
  97.8445445 101.8776431  86.7592990  99.0348572 101.8273020  85.8252208
  90.7632794  98.5611593  86.0684761  91.5890814  98.2615365  85.6883405
  90.4126846  97.7919216  86.5174550  95.7314327  97.9138062  88.1382435
  95.1094336  97.2508767  87.8384663  96.4019194  97.9399194  87.4556083
  88.9641399  96.4797920  87.0273695  88.1273307  96.0520094  86.8457696
  88.9365044  96.6730363  87.9644486  95.8038855  86.3919850  97.7314941
  95.8527010  87.2681972  97.3492710  96.3461369  85.8497243  97.1586584
 106.4091575  93.7853439  94.3248806 106.4589580  93.6203447  95.2664329
 106.3005499  92.9180698  93.9346687  95.2927834  96.4641985  81.6140895
  95.4415954  97.1477449  80.9607568  96.0994277  96.4447075  82.1290351
 103.6995338  89.7684367  95.6408113 104.6005200  89.6290832  95.3492111
 103.7743312  89.9338822  96.5806291  98.0338143  87.1451222  94.4861299
  97.1641452  87.4384788  94.2143888  98.2697623  87.7291667  95.2068563
 107.9109772  96.2050381  94.5690828 107.6194580  96.5680361  95.4054289
 107.2981903  95.4917389  94.3904160 109.1105454  93.7703261  87.0893398
 109.9452346  94.2093065  87.2530959 109.2464583  93.2941914  86.2701644
 106.1596960  91.3282995  93.0370886 106.6351082  91.5210642  92.2289737
 105.2362526  91.3842181  92.7914270  93.0480467  92.4907163  82.6201964
  92.8026509  91.5869493  82.8182174  93.2176382  92.4924313  81.6781442
 100.7377177  83.3630839  92.0026720 101.2559121  84.0991866  91.6773208
 100.3832310  83.6694832  92.8373479  92.3176115  88.2235520  80.1188126
  91.6245359  88.2979875  79.4628162  92.0727866  87.4595864  80.6409643
 100.9889771  79.7831122  87.5227616 101.2691525  79.1154311  88.1488043
 101.7740378  79.9760217  87.0102280  98.7923240  98.9590115  79.0852643
  98.2197207  99.5780303  78.6323115  99.3656033  99.5089477  79.6192565
 104.8598629  88.2048756  91.2699192 105.8116052  88.3046853  91.2911416
 104.6902080  87.4127024  91.7797276 102.8813009  85.2904339  91.4558593
 102.2862941  85.5709351  90.7605081 102.5962706  85.7798240  92.2275334
 102.0120499  99.2427266  80.2161225 102.9451172  99.1772827  80.4194101
 101.9243712 100.0783532  79.7575758 104.6408516  98.5593136  77.1765173
 104.5622148  98.2252999  78.0700931 105.4618183  99.0514904  77.1756645
 107.3386707  91.4254875  90.3841491 107.3063027  90.4870876  90.5701175
 107.9487331  91.5038912  89.6507316  99.1770038  90.2950928  76.4268695
 100.1229143  90.1657136  76.4957113  98.7984283  89.5565590  76.9038123
 107.4881196  88.2165919  90.4299774 106.9720244  87.4324375  90.2429703
 108.3721144  87.8884635  90.5946294 105.1491923  81.9606934  86.3895587
 104.9516744  81.6522022  87.2738919 105.7591628  82.6868573  86.5193517
 113.1563257  92.4870882  89.5247528 113.8866646  92.2256170  90.0855231
 112.5470203  91.7499604  89.5649596 111.2378554  90.6278745  90.1221979
 110.5111718  90.4934710  89.5138471 110.8225841  90.9355573  90.9278697
  99.0608731  94.3468674  97.8869352  99.9811740  94.5247273  98.0809399
  99.0258314  93.4024720  97.7349052  97.3612955  88.2200905  76.3623581
  96.4544411  87.9234017  76.4386294  97.6388936  87.9230723  75.4957867
  88.2790896  89.5407268  86.8122627  87.9593680  88.6872576  86.5197001
  87.7324324  89.7555846  87.5680594  92.0570803  92.2569709  90.5292133
  92.2756813  93.1886817  90.5480167  92.4696577  91.8977683  91.3146937
  98.9775021  82.7637794  82.5167822  98.1675749  82.4184879  82.8923068
  99.6659438  82.4545338  83.1055433 100.9065569  81.8415841  84.1392118
 101.4596608  82.2611295  84.7982142 101.1435656  80.9151589  84.1815074
  96.9298668  87.8302915  99.9194882  96.8295395  88.7797272  99.8506973
  96.7120210  87.5021154  99.0470952  96.1311740  85.0787840  76.5035560
  96.9930904  85.4042738  76.7631377  96.3162084  84.2919336  75.9908625
  88.1479156  93.1610179  88.7815748  87.4542627  92.7464132  88.2685703
  88.8952147  93.2030716  88.1849167 104.2844376  83.9516366  83.6470783
 103.7043045  84.6101170  83.2648835 104.0180309  83.1293711  83.2358200
 102.7347943  83.3521424  85.8492103 103.2347721  83.4637958  85.0406422
 103.3783551  83.0482477  86.4892911  96.7929938  91.2600054  98.7359944
  96.3097020  92.0600414  98.9423833  96.8790878  91.2707998  97.7827388
  90.0615898  93.0928433  86.6581763  90.0386586  93.1916121  85.7063646
  90.3716535  93.9393584  86.9798929  92.7203276  95.1504588  90.7728378
  93.6746530  95.1188531  90.7058309  92.5215800  94.6895212  91.5878604
  93.3102658  93.7205704  93.3399175  94.1295547  94.2149783  93.3634013
  93.5839466  92.8037672  93.3116743 103.0669254  86.1116457  82.7027131
 102.1795109  86.3966107  82.4847326 103.4823243  85.9510220  81.8554408
 106.4183790  86.1362978  86.4181470 107.1944181  86.6259430  86.6906087
 105.6931925  86.5621032  86.8753340 108.8556349  86.8490597  87.4755411
 109.4500840  86.6086333  86.7648719 108.9282933  86.1297727  88.1028947
  91.0753505 100.6924208  87.7898576  90.9407973  99.9324609  87.2236574
  90.6585567 101.4165108  87.3227365 102.2112468  95.8761131  76.7975151
 102.9148318  96.0811134  77.4132807 101.4875117  96.4437893  77.0624234
 103.0410278  91.6270993  82.9177421 102.9845479  92.0839544  82.0785054
 103.5938621  90.8661677  82.7400264 106.8515084  87.4160724  83.7427541
 106.5952018  87.0157360  84.5735748 106.2267952  88.1304518  83.6177680
 111.1627422  90.1556798  86.2498832 110.6026980  90.2249987  87.0230394
 110.5570925  89.9797782  85.5298328  94.2322631 101.5893525  88.0017018
  94.1155015 102.5338957  87.8995709  93.4115077 101.2867086  88.3902818
 104.1199165  96.3143660  78.8473611 104.9544769  95.8824859  78.6651086
 103.9583508  96.1425674  79.7750505 103.7745057  92.8175774  80.2129950
 103.7193861  92.6520045  79.2718394 103.1491113  93.5251807  80.3692140
  88.5637572  88.0543838  94.0391373  89.2096436  87.5442792  94.5278598
  88.3554723  88.7912520  94.6134798  97.0841183  82.3183883  79.7915269
  97.0719853  83.2625723  79.9483540  97.9764605  82.1354028  79.4974730
  95.2577145 102.2421787  91.2172947  96.1604391 102.2745397  91.5339442
  95.0314515 101.3122238  91.2319283  97.0130747 100.9952773  87.8783025
  96.0626378 100.9954635  87.7647398  97.3163233 100.2485508  87.3619060
 100.8993302  78.9126659  84.0461206 100.1325698  78.3585146  84.1917888
 101.3104007  78.9848528  84.9075357  92.9035063  85.2011455  98.1366387
  93.7666525  84.8448260  98.3469711  92.3300474  84.8625350  98.8241791
 105.4159962 108.6376216  84.8687203 104.8524827 108.5466153  84.1003491
 105.3012357 107.8176121  85.3489696 102.9624394 110.1327408  87.7071424
 103.7545686 109.7918232  87.2917723 103.2021044 110.2422383  88.6273577
 104.9215148 109.3936321  80.5788803 105.6946024 108.8465308  80.4401678
 105.2740547 110.2580570  80.7903264 107.2581426 105.5528987  78.2107253
 107.5106947 105.0310508  77.4490716 106.3205985 105.3895133  78.3133936
 112.3024709 104.5564765  86.0181996 113.0887798 104.1384189  85.6672413
 112.5663413 105.4610858  86.1863644 106.9777715 107.4557093  80.4131628
 106.8613973 106.7801996  81.0812712 107.0879975 106.9689467  79.5963781
 109.3209256 106.9167240  84.1178317 108.9567463 106.3897861  84.8291238
 110.1776372 106.5265709  83.9444802 108.9614743 101.9457140  79.1139665
 109.1289145 102.8137376  79.4810136 108.7711912 102.1084422  78.1900955
 105.1702557 106.8587916  86.8142200 104.2453054 106.7264130  87.0219892
 105.4186970 107.6382135  87.3112142 108.9403963 104.4014797  80.0986332
 108.8203589 104.8471848  80.9371812 108.2456552 104.7500115  79.5399870
 102.5311368 106.5021189  87.6485989 102.6603749 106.7555668  88.5625401
 101.8508820 107.0948897  87.3290644 114.6389030 104.8736271  80.9266666
 115.5506886 105.1063657  80.7514364 114.1298677 105.4573315  80.3641745
 111.9825004 101.0494306  89.1756527 111.1209483 101.3475560  89.4673265
 112.0087439 101.2664705  88.2437560 108.7986574 109.5936497  85.5830333
 109.2624919 109.8724200  84.7934955 108.5343372 108.6919942  85.4003423
 107.7355460 105.7159649  82.3919898 108.4379503 106.1680693  82.8593824
 107.4036088 105.0743468  83.0199791 101.4780794 103.9743202  87.6937031
 100.6879848 104.2300731  87.2177142 101.9692041 104.7891540  87.7989072
 103.4295539 104.3387781  84.6520508 102.6326702 104.4506476  85.1704004
 103.2021131 104.6774434  83.7861399  99.7618497 104.2273693  90.1252022
 100.0126535 105.1120702  90.3909598 100.2978045 104.0478294  89.3527114
 102.4278622 110.0476030  83.0409928 102.9403142 110.8419280  83.1915493
 103.0801335 109.3502321  82.9743530 104.2373507 113.1641786  85.1232681
 104.4140135 114.0859751  84.9353665 105.0330340 112.8500206  85.5527061
 112.3241688  96.0531154  90.9980897 111.9805957  96.9432796  90.9220007
 112.6920651  95.8632812  90.1350482 100.3927539 108.3764684  83.8169499
 101.2302761 108.7861693  83.6003206 100.5705806 107.4364127  83.7869693
 112.2891971 106.0439765  79.5053332 111.7738594 106.8144370  79.7441719
 112.0169279 105.3704901  80.1286393 109.8739082 100.8889466  84.5638570
 109.0180678 100.4996316  84.3844209 110.2866034 100.9681427  83.7038356
 111.4038228  98.4235809  88.9630130 110.9003024  98.3865944  88.1497935
 111.6968835  99.3328552  89.0226786 107.6481114  98.5074539  87.9696312
 108.5134111  98.3117348  87.6102201 107.7158623  98.2784891  88.8965668
 112.0778274 103.9166857  81.3313113 111.7728410 104.2313006  82.1823256
 113.0308716 103.9948277  81.3740446 110.5224706 110.0757080  82.9806067
 109.9946067 109.3409840  82.6679304 110.0212209 110.8531757  82.7346035
 105.2543433 100.7376747  85.3412678 105.8287185 100.5151928  84.6085871
 105.8414416 100.8065441  86.0941280 105.5813021 102.7681208  79.3608564
 104.7450333 103.1055894  79.6817838 105.4417790 102.6330188  78.4235701
 107.5566101  97.6117996  84.0687748 106.9030513  97.2967013  83.4444363
 107.5146575  96.9893736  84.7947571 108.6677306 107.8937291  75.9841040
 107.7604368 107.6626544  76.1832189 109.1648338 107.0974910  76.1715021
 110.7903841 104.0999929  88.3935395 109.8726403 104.3214876  88.2357083
 111.2063985 104.1746240  87.5347103 111.5738889 105.4991345  83.5238076
 112.3210708 106.0112742  83.2145198 111.8430479 105.1775398  84.3842469
 109.8465539 107.9949886  80.5065030 108.9376759 107.7108918  80.6037500
 109.8760623 108.4148964  79.6468337 114.0217726 102.5348461  85.5056865
 113.2840483 102.0225847  85.8367108 114.2744500 102.0948843  84.6940142
 114.1229354  95.3124713  86.0998634 114.4288231  94.4522077  85.8124549
 114.8481959  95.9042333  85.8997628 100.4153710 105.7155400  84.4880232
 100.2178110 105.1224760  83.7631299  99.8600374 105.4107610  85.2056171
 108.3950433 105.6078506  86.6074825 108.4499043 104.6552343  86.5317302
 107.5841635 105.7637945  87.0916124 109.5441627 109.5358629  77.8453109
 109.1061057 108.8194488  77.3858746 110.2852068 109.7634744  77.2838200
 106.3342793 104.2255566  84.3665204 105.5210659 104.5249736  84.7730396
 106.8301788 103.8311255  85.0839686 105.8256868 101.7973921  89.9826439
 106.4656247 101.6562681  89.2849402 104.9934399 101.5108435  89.6065041
 106.6017172 111.0976352  86.0961432 107.3957771 110.6026672  85.8944007
 105.8908864 110.5694215  85.7329137 102.9099936 105.2419434  82.1721184
 101.9797524 105.1803889  82.3891146 103.0057407 104.7195386  81.3757825
 102.8285485 101.7674246  84.7599426 103.0892302 102.6819580  84.6508586
 103.6502657 101.2998689  84.9096039 104.3010410 103.1812004  91.9298250
 104.9733463 102.9729366  91.2810899 103.4740196 102.9834090  91.4903483
 113.6652855 108.3943011  77.4385166 113.0482025 107.6689839  77.3418219
 113.1969343 109.1552371  77.0952240 105.4551401 102.6128435  76.5606470
 104.5780867 102.4917236  76.1968717 105.9309154 101.8214514  76.3085359
  96.9753541 107.4005595  86.6547978  97.6624581 107.0867325  86.0668993
  96.8201670 108.3046960  86.3815229 101.7788263 102.2895792  91.0833001
 101.6946452 101.6821461  90.3483411 100.9570969 102.7804810  91.0842498
 111.9511977 100.7749355  86.4503196 112.4480676 100.0219317  86.1304267
 111.1798958 100.8113672  85.8846406 113.0341758 109.5321042  84.0241620
 112.0998036 109.6522505  83.8546324 113.2118426 108.6293509  83.7601629
 108.5346946 102.9166738  86.1774881 108.1644733 102.3637778  86.8655786
 109.0306038 102.3124872  85.6249881 116.4214309 105.3738362  84.5591654
 116.8874761 106.2066353  84.4851956 116.8721809 104.9083343  85.2636912
 114.3930972  97.7418949  88.5982555 113.4794051  97.9723175  88.7664762
 114.8224073  97.8257393  89.4496588  96.5521517 105.4806188  88.9265445
  96.5905617 104.9469779  89.7202563  96.0461810 104.9541394  88.3076422
 103.9312279 100.3270729  92.4227987 103.9953606 101.1885560  92.0105385
 103.8679400  99.7144730  91.6900345 100.1830095 104.2070290  82.0019376
 100.4783536 103.2980969  81.9486430  99.2818130 104.1858030  81.6800378
 103.7124342 102.2826287  87.9846925 102.9910927 102.8962255  87.8454398
 104.5017597 102.8184052  87.9063571 101.9117936 101.8884388  82.1258701
 101.5830642 101.0081767  81.9433807 102.2657307 101.8332057  83.0135090
 105.0259759 102.1757358  82.4934179 105.3655832 102.7043279  81.7712787
 105.4731880 102.5137764  83.2692745 107.7203200 100.5594409  91.9437247
 107.3800021  99.7602222  92.3457927 107.0142206 100.8596119  91.3714080
 108.3719672  97.6443721  90.3964570 109.1945741  97.1704199  90.2743460
 108.6157736  98.4234205  90.8963256 107.0127906 100.6731980  80.6927472
 107.7336269 101.0513232  80.1891188 106.3893211 101.3920856  80.7962450
 111.1559029 101.3777128  81.6285804 111.3722644 102.2601766  81.3274632
 110.6753096 100.9863342  80.8991446 105.8958251 104.3362842  88.2056549
 105.7502831 104.6503145  89.0980830 105.4183454 104.9547742  87.6527447
 107.7554634 101.3265390  88.2537438 107.7416202 100.4306483  87.9169736
 108.4727062 101.3336053  88.8875724 109.6080764 101.7602730  90.2990566
 109.3498542 102.6819801  90.2974896 109.0765805 101.3633164  90.9891030
 100.3703913 106.8768186  91.1444210  99.8257381 107.6527994  91.2764484
 101.2483263 107.2238991  90.9863331 107.1591530 100.2079770  83.5225008
 107.2807441  99.2796416  83.7215896 106.8693572 100.2218456  82.6103324
 110.0282720  97.8934680  86.6591728 110.0504417  97.9574013  85.7043708
 110.4450779  97.0539189  86.8532234 101.6026548 113.8903511  86.0684761
 102.4284568 113.5907283  85.6883405 101.2520600 113.1211134  86.5174550
  99.8035153 111.8089838  87.0273695  98.9667062 111.3812012  86.8457696
  99.7758799 112.0022281  87.9644486 106.1321589 111.7933903  81.6140895
 106.2809709 112.4769367  80.9607568 106.9388032 111.7738993  82.1290351
 103.8874221 107.8199080  82.6201964 103.6420263 106.9161410  82.8182174
 104.0570136 107.8216231  81.6781442 103.1569869 103.5527438  80.1188126
 102.4639114 103.6271793  79.4628162 102.9121621 102.7887781  80.6409643
 111.8283526  95.1123039  87.5227616 112.1085279  94.4446228  88.1488043
 112.6134132  95.3052135  87.0102280 110.0163793 105.6242846  76.4268695
 110.9622897 105.4949054  76.4957113 109.6378037 104.8857508  76.9038123
 115.9885677  97.2898852  86.3895587 115.7910498  96.9813940  87.2738919
 116.5985383  98.0160491  86.5193517 108.2006710 103.5492822  76.3623581
 107.2938165 103.2525935  76.4386294 108.4782691 103.2522640  75.4957867
  99.1184650 104.8699186  86.8122627  98.7987434 104.0164494  86.5197001
  98.5718078 105.0847764  87.5680594 109.8168775  98.0929712  82.5167822
 109.0069504  97.7476797  82.8923068 110.5053192  97.7837256  83.1055433
 111.7459324  97.1707759  84.1392118 112.2990362  97.5903212  84.7982142
 111.9829410  96.2443507  84.1815074 106.9705494 100.4079757  76.5035560
 107.8324658 100.7334656  76.7631377 107.1555838  99.6211253  75.9908625
  98.9872910 108.4902097  88.7815748  98.2936381 108.0756050  88.2685703
  99.7345901 108.5322634  88.1849167 115.1238131  99.2808284  83.6470783
 114.5436800  99.9393088  83.2648835 114.8574063  98.4585629  83.2358200
 113.5741697  98.6813342  85.8492103 114.0741476  98.7929876  85.0406422
 114.2177305  98.3774394  86.4892911 100.9009653 108.4220351  86.6581763
 100.8780341 108.5208038  85.7063646 101.2110289 109.2685502  86.9798929
 113.9063009 101.4408374  82.7027131 113.0188864 101.7258025  82.4847326
 114.3216998 101.2802138  81.8554408 117.2577545 101.4654895  86.4181470
 118.0337935 101.9551348  86.6906087 116.5325679 101.8912949  86.8753340
 113.8804033 106.9562910  82.9177421 113.8239234 107.4131462  82.0785054
 114.4332375 106.1953595  82.7400264 117.6908838 102.7452642  83.7427541
 117.4345773 102.3449278  84.5735748 117.0661706 103.4596436  83.6177680
 114.6138812 108.1467691  80.2129950 114.5587616 107.9811963  79.2718394
 113.9884867 108.8543724  80.3692140  99.4031327 103.3835756  94.0391373
 100.0490190 102.8734710  94.5278598  99.1948478 104.1204438  94.6134798
 107.9234937  97.6475800  79.7915269 107.9113607  98.5917640  79.9483540
 108.8158359  97.4645946  79.4974730 111.7387057  94.2418577  84.0461206
 110.9719453  93.6877064  84.1917888 112.1497762  94.3140446  84.9075357
  44.5210621  -8.1848644  75.6035619  44.1829132  -8.3007579  74.7156154
  45.3900389  -8.5857479  75.5836625  40.3797437  -6.3313167  71.5932510
  39.8162302  -6.4223230  70.8248798  40.2649832  -7.1513263  72.0735003
  45.0030404  -7.0313792  81.5621825  44.9919045  -7.4260994  80.6902328
  45.1651043  -7.7647719  82.1555596  37.9261869  -4.8361976  74.4316730
  38.7183160  -5.1771151  74.0163030  38.1658519  -4.7267001  75.3518884
  45.9596995  -2.6642200  66.9046975  45.3084975  -2.0788119  66.5180989
  46.7541358  -2.1336005  66.9642012  39.8852622  -5.5753062  67.3034109
  40.6583498  -6.1224075  67.1646985  40.2378021  -4.7108813  67.5148571
  41.7237665  -4.2476680  80.5101009  41.4327531  -3.3431049  80.3947675
  42.3594649  -4.2060153  81.2245078  42.6493872  -6.8699832  77.1002368
  43.2457444  -7.0943809  76.3859331  42.7068843  -7.6115086  77.7027816
  47.4372260  -4.9751768  67.4415959  46.8018093  -4.9017141  68.1536864
  47.1069667  -4.3858169  66.7635038  41.9415189  -7.5132290  67.1376934
  41.8251447  -8.1887387  67.8058018  42.0517449  -7.9999916  66.3209087
  44.2846730  -8.0522143  70.8423623  43.9204937  -8.5791522  71.5536545
  45.1413846  -8.4423674  70.6690109  46.6827550  -4.5615265  77.5050802
  46.3828273  -3.6590226  77.3966610  46.3378610  -4.8283081  78.3571955
  40.1340032  -8.1101468  73.5387507  39.2090528  -8.2425254  73.7465198
  40.3824445  -7.3307249  74.0357449  41.6648330   2.2029056  70.4721770
  41.5872360   3.1536881  70.5510251  41.0609973   1.8574928  71.1296696
  42.4111932  -7.8157626  82.6901104  43.1526616  -7.2772582  82.4135927
  41.7048917  -7.1891337  82.8472656  47.8867272  -5.6728485  81.2873265
  48.2950628  -6.1146075  80.5427898  47.1644533  -6.2475858  81.5407458
  48.2096086  -5.1127294  75.0425554  47.5804949  -4.9481580  74.3401622
  47.8221748  -4.6985685  75.8136518  52.0885318  -4.1772857  72.3969918
  51.4036356  -3.7973955  71.8466951  52.1729167  -3.5677530  73.1301866
  49.3436250  -6.5312898  78.9965262  49.5553145  -5.8881138  78.3199643
  49.2965998  -7.3650581  78.5287192  43.7624048  -5.3752886  72.3075639
  44.2262394  -5.0965183  71.5180262  43.4980846  -6.2769442  72.1248730
  40.6548129  -5.8281405  75.2455403  41.2249486  -5.3994136  74.6072887
  41.2456241  -6.1098820  75.9439588  50.4582078  -3.6540942  77.1687619
  51.2799521  -4.0560755  76.8870301  50.4544481  -3.7572708  78.1203735
  44.2238681  -4.1056899  79.3248329  44.2883114  -3.6436492  80.1606501
  43.5149605  -4.7359534  79.4530639  43.9386699  -2.4388791  69.1927310
  43.8032374  -1.5937256  69.6212158  44.4796511  -2.2369514  68.4293243
  37.3916096  -4.9213353  69.7655235  37.9040617  -4.1270103  69.9160799
  38.0438809  -5.6187063  69.6988836  39.2010981  -1.8047597  71.8477988
  39.3777609  -0.8829632  71.6598972  39.9967814  -2.1189178  72.2772368
  45.5655175  -1.8165225  83.3227652  45.1219029  -2.6028846  83.0048556
  46.2272389  -1.6286074  82.6571543  40.3242296  -0.2869423  77.8488330
  40.8749721  -0.4152360  77.0765324  39.4853772   0.0125466  77.4983223
  47.6636413  -1.5362425  81.3509053  47.6454889  -0.7153544  80.8589322
  48.5856333  -1.6608350  81.5759194  44.1209467  -4.0218295  82.1932561
  44.6537804  -4.7830007  81.9631869  43.5923549  -4.3144644  82.9356716
  45.4862180  -4.8932303  69.7051373  44.9583542  -5.6279543  69.3924611
  44.9849683  -4.1157627  69.4591342  50.4655026  -6.6983283  74.8218420
  49.8078701  -6.0084021  74.9098548  51.2695425  -6.3086851  75.1652406
  43.6314780  -7.0752093  62.7086346  42.7241842  -7.3062839  62.9077495
  44.1285812  -7.8714473  62.8960328  46.5382859   1.6345414  65.6283033
  45.8644558   1.9377111  66.2367990  46.9248681   2.4374495  65.2788490
  44.8103014  -6.9739498  67.2310337  43.9014233  -7.2580465  67.3282806
  44.8398098  -6.5540419  66.3713643  50.0422281  -3.3632908  71.0001504
  49.5884608  -4.2041998  71.0566695  49.4116248  -2.7271510  71.3376284
  48.4855220  -1.5256412  71.9351322  48.7778195  -0.9651355  71.2163688
  48.9953841  -1.2327851  72.6904481  44.5079102  -5.4330754  64.5698415
  44.0698531  -6.1494895  64.1104052  45.2489542  -5.2054639  64.0083507
  43.4488846  -0.7476061  73.0244775  43.4065024  -0.5215214  72.0953307
  44.3651544  -0.9812686  73.1730577  52.6521596  -5.0897030  75.6386005
  53.0858103  -5.1821741  76.4869059  53.3653177  -5.1139530  75.0006021
  41.5654646  -3.8713032  72.8206738  42.3595245  -4.3662711  72.6189313
  40.8546339  -4.3995168  72.4574444  46.3849491  -1.4894936  77.1719106
  46.4386513  -0.9204000  77.9396822  45.5164272  -1.3193051  76.8073143
  53.5137145  -5.0473330  78.1718891  53.7073036  -4.1427519  78.4178166
  53.4137764  -5.5065910  79.0057476  48.5752254  -4.8966587  83.7459771
  48.4237761  -5.1256035  82.8289855  48.5656934  -3.9395985  83.7591116
  45.3437591  -7.3234674  78.7306038  46.2729651  -7.1723514  78.5575005
  44.9228621  -7.2350653  77.8754684  44.1425922  -3.2984010  76.5004575
  44.0037008  -3.6665225  77.3730513  43.3540519  -2.7836370  76.3288533
  44.7374074   1.8025087  67.8430112  44.9125830   1.3313130  68.6575734
  44.0506862   2.4290853  68.0711373  45.6931138  -3.9202407  73.8893413
  45.3580970  -3.9601637  74.7851063  45.1935083  -4.5857691  73.4163823
  39.6675381  -8.5134777  79.4145994  39.5295179  -9.2454538  80.0157533
  40.5780305  -8.6025877  79.1330182  48.6290329  -6.5746373  64.1630473
  48.0119500  -7.2999544  64.0663525  48.1606818  -5.8137012  63.8197547
  42.2957682  -8.8014818  78.9029674  43.0057301  -9.4421625  78.8616292
  42.2526990  -8.5501923  79.8255855  50.2844461  -1.8647464  81.8236253
  50.2257007  -2.5488244  81.1566836  50.6863979  -1.1228474  81.3716879
  39.3035160   4.9514450  74.6169972  39.5431758   5.5832974  75.2948991
  38.4604356   4.6002490  74.9035331  50.2861868  -3.9007880  80.0550233
  49.3988647  -4.2381958  80.1776632  50.8560419  -4.6324849  80.2918998
  43.8163021   0.7593572  77.0211476  43.7433193   1.5648544  77.5330781
  43.3740415   0.9585538  76.1959497  43.6052801  -0.0034658  70.5314298
  42.8220323   0.5387022  70.6252522  44.3045546   0.5139322  70.9308539
  46.2761705   0.6580406  79.1769635  46.9889677   1.2927871  79.1045536
  45.7851734   0.7544272  78.3609636  47.9979232  -5.4368341  70.7486926
  47.0635511  -5.3166879  70.5791631  48.1755900  -6.3395874  70.4846936
  41.3273619  -1.5925150  79.9975205  42.0283078  -0.9588667  80.1504600
  40.8568734  -1.2510419  79.2370845  49.4528014  -3.2507201  68.2823112
  49.7287858  -3.3650606  69.1916987  48.5832513  -3.6489716  68.2435286
  46.0882078   0.9979150  71.9255926  46.2704473   0.1800806  72.3883678
  46.9115064   1.2146842  71.4880816  46.4224244  -0.0752665  69.1870975
  46.9512010  -0.5860210  68.5741137  46.6852463  -0.3910134  70.0516508
  45.1762478  -8.2960732  84.3093793  44.5003115  -8.3966603  84.9796168
  45.9990111  -8.4521518  84.7729790  36.9241337  -2.0588795  76.9306308
  37.5094773  -2.8045107  77.0634212  36.7266175  -1.7484839  77.8142972
  39.7779992   0.9762452  71.9468751  39.1090367   1.4608580  71.4632791
  39.6392862   1.2231672  72.8612129  43.9185260   3.0106196  78.5451409
  44.4703568   3.1737817  79.3100494  44.2591454   3.6010633  77.8731434
  48.7696135  -2.1632547  84.4000063  49.3136039  -1.5502589  83.9055018
  48.1882980  -1.6052969  84.9167076  47.0553648   0.9588171  75.5315091
  46.9304787   0.1577911  75.0226037  47.7132739   1.4534364  75.0429061
  49.1188556  -1.2402809  77.1594641  48.1718892  -1.3597458  77.0872968
  49.4671329  -2.1280311  77.2420903  46.1234989  -1.4450093  73.3598993
  45.9759952  -2.3733385  73.5406563  46.9488483  -1.4230002  72.8756069
  49.7269111  -0.6221534  74.4463866  50.6515659  -0.8278673  74.3088317
  49.5584415  -0.8705133  75.3553208  49.5164427  -0.1035866  69.8025958
  49.6901305  -0.6689444  69.0499810  50.0093319   0.6965028  69.6205448
  50.5039600  -0.7869102  66.9022856  51.1990505  -0.1662409  67.1210170
  50.8462750  -1.6373751  67.1775234  52.4031023  -3.3369397  68.4310187
  52.9282347  -2.9982124  67.7059507  52.3153376  -4.2722381  68.2473321
  44.0651072   0.5764677  80.5600063  44.3738198   0.3313824  81.4322763
  44.8626554   0.7811316  80.0718933  44.0871684   2.7302587  72.7905440
  43.6476674   2.2378965  73.4838297  44.8379801   2.1875554  72.5497515
  36.5664023  -1.0785872  72.7930068  37.3922043  -1.3782101  72.4128711
  36.2158075  -1.8478250  73.2419857  41.5345556  -1.7259404  74.8627741
  40.9125565  -2.3888699  74.5629969  42.2050423  -1.6998272  74.1801389
  34.7672628  -3.1599546  73.7519001  33.9304536  -3.5877372  73.5703003
  34.7396273  -2.9667103  74.6889793  52.0924929  -2.7036493  83.7361385
  51.3020473  -2.7212354  83.1965884  51.8558284  -2.1648199  84.4910421
  41.0959063  -3.1755481  68.3386202  41.2447183  -2.4920016  67.6852875
  41.9025506  -3.1950391  68.8535658  53.7141001  -3.4347085  81.2936135
  53.4225809  -3.0717104  82.1299596  53.1013132  -4.1480077  81.1149467
  38.8511696  -7.1490303  69.3447271  38.6057738  -8.0527973  69.5427481
  39.0207610  -7.1473153  68.4026749  44.5954468  -0.6807350  65.8097949
  44.0228435  -0.0617163  65.3568421  45.1687262  -0.1307989  66.3437871
  47.8151728  -0.3970200  66.9406532  48.7482401  -0.4624639  67.1439407
  47.7274941   0.4386067  66.4821064  50.4439745  -1.0804330  63.9010479
  50.3653376  -1.4144466  64.7946237  51.2649412  -0.5882562  63.9001952
  44.8639959  -5.2928791  84.6114659  45.7842969  -5.1150192  84.8054705
  44.8289542  -6.2372746  84.4594358  37.8602032  -7.3827757  77.2537440
  38.0788042  -6.4510649  77.2725474  38.2727806  -7.7419782  78.0392244
  42.5961167  -8.3797412  85.4605251  42.1128249  -7.5797052  85.6669140
  42.6822106  -8.3689467  84.5072695  35.8647127  -6.5469033  73.3827070
  35.8417815  -6.4481345  72.4308953  36.1747763  -5.7003882  73.7044236
  38.5234505  -4.4892878  77.4973684  39.4777758  -4.5208935  77.4303616
  38.3247028  -4.9502254  78.3123910  39.1133887  -5.9191761  80.0644482
  39.9326776  -5.4247683  80.0879319  39.3870695  -6.8359793  80.0362050
  36.8784734   1.0526742  74.5143882  36.7439202   0.2927143  73.9481880
  36.4616796   1.7767642  74.0472671  48.0143697  -3.7636334  63.5220458
  48.7179547  -3.5586332  64.1378113  47.2906345  -3.1959573  63.7869541
  40.0353859   1.9496059  74.7262325  39.9186244   2.8941491  74.6241015
  39.2146306   1.6469621  75.1148124  49.9230394  -3.3253805  65.5718918
  50.7575998  -3.7572607  65.3896392  49.7614737  -3.4971792  66.4995812
  49.5776286  -6.8221692  66.9375257  49.5225090  -6.9877421  65.9963701
  48.9522341  -6.1145659  67.0937447  46.8922193  -4.5172780  86.2628820
  47.7613353  -4.3432128  85.9015455  46.4128945  -3.6978363  86.1404549
  41.0608374   2.6024321  77.9418253  41.9635620   2.6347931  78.2584748
  40.8345744   1.6724772  77.9564589  42.8161976   1.3555307  74.6028332
  41.8657607   1.3557169  74.4892704  43.1194462   0.6088042  74.0864367
  58.5514669   7.1915846  75.6674094  59.1893079   7.0722593  74.9637434
  58.4335512   8.1396690  75.7262047  55.3604375   7.1443274  75.6035619
  55.0222887   7.0284339  74.7156154  56.2294144   6.7434439  75.5836625
  51.2191191   8.9978750  71.5932510  50.6556056   8.9068687  70.8248798
  51.1043586   8.1778655  72.0735003  55.8424158   8.2978126  81.5621825
  55.8312799   7.9030924  80.6902328  56.0044798   7.5644198  82.1555596
  48.7655623  10.4929942  74.4316730  49.5576915  10.1520767  74.0163030
  49.0052273  10.6024917  75.3518884  56.7990750  12.6649718  66.9046975
  56.1478730  13.2503798  66.5180989  57.5935113  13.1955913  66.9642012
  50.7246377   9.7538855  67.3034109  51.4977253   9.2067842  67.1646985
  51.0771776  10.6183105  67.5148571  52.5631420  11.0815237  80.5101009
  52.2721285  11.9860868  80.3947675  53.1988404  11.1231765  81.2245078
  53.4887626   8.4592086  77.1002368  54.0851199   8.2348108  76.3859331
  53.5462598   7.7176831  77.7027816  53.0612655   5.9131521  64.9352559
  53.3138175   5.3913043  64.1736022  52.1237214   5.7497667  65.0379243
  58.1055938   4.9167300  72.7427302  58.8919027   4.4986723  72.3917719
  58.3694642   5.8213392  72.9108951  58.2766015  10.3540150  67.4415959
  57.6411848  10.4274776  68.1536864  57.9463421  10.9433749  66.7635038
  63.5064365   4.8542533  73.6460281  64.2389537   4.2841750  73.8798110
  62.7503720   4.4664133  74.0866787  52.7808943   7.8159627  67.1376934
  52.6645202   7.1404531  67.8058018  52.8911203   7.3292001  66.3209087
  55.1240484   7.2769774  70.8423623  54.7598692   6.7500395  71.5536545
  55.9807600   6.8868243  70.6690109  61.0289785  -1.4335893  78.1054890
  60.6973110  -0.5640482  77.8816105  60.4335398  -1.7499609  78.7848920
  54.7645971   2.3059674  65.8384972  54.9320374   3.1739910  66.2055443
  54.5743140   2.4686956  64.9146261  57.5221305  10.7676653  77.5050802
  57.2222028  11.6701692  77.3966610  57.1772364  10.5008836  78.3571955
  50.9733786   7.2190450  73.5387507  50.0484283   7.0866664  73.7465198
  51.2218199   7.9984669  74.0357449  60.9218448   3.2859193  75.1848240
  60.0135326   3.2174602  74.8907001  60.8706044   3.7631138  76.0130065
  54.7435192   4.7617332  66.8231639  54.6234817   5.2074382  67.6617119
  54.0487781   5.1102649  66.2645177  48.3342597   6.8623723  74.3731296
  48.4634978   7.1158202  75.2870707  47.6540048   7.4551431  74.0535951
  52.5042084  17.5320973  70.4721770  52.4266114  18.4828798  70.5510251
  51.9003728  17.1866846  71.1296696  54.9959314   4.7048839  83.1283137
  54.2192648   5.2642759  83.1186002  55.6349877   5.1905622  83.6498007
  62.7880095   1.4875632  76.9626114  62.1454475   1.7808165  76.3165908
  62.2835023   1.3728552  77.7679310  60.4420258   5.2338805  67.6511973
  61.3538115   5.4666191  67.4759670  59.9329906   5.8175849  67.0887051
  53.2505686   7.5134292  82.6901104  53.9920371   8.0519336  82.4135927
  52.5442672   8.1400581  82.8472656  58.7261026   9.6563433  81.2873265
  59.1344382   9.2145843  80.5427898  58.0038288   9.0816060  81.5407458
  55.0792096   4.5936039  78.6606822  55.9253291   5.0175453  78.8041471
  55.0190734   3.9369664  79.3545385  59.0489841  10.2164623  75.0425554
  58.4198703  10.3810337  74.3401622  58.6615503  10.6306233  75.8136518
  62.9279073  11.1519061  72.3969918  62.2430111  11.5317962  71.8466951
  63.0122922  11.7614388  73.1301866  58.2291541   2.2540408  80.3187996
  57.9852473   3.0082468  79.7822272  58.5051472   2.6325755  81.1535243
  60.1830004   8.7979020  78.9965262  60.3946899   9.4410780  78.3199643
  60.1359753   7.9641337  78.5287192  57.7856233   1.4096841  75.9001834
  56.9240712   1.7078094  76.1918571  57.8118668   1.6267240  74.9682866
  54.6017803   9.9539031  72.3075639  55.0656148  10.2326734  71.5180262
  54.3374601   9.0522476  72.1248730  51.4941884   9.5010513  75.2455403
  52.0643241   9.9297781  74.6072887  52.0849996   9.2193098  75.9439588
  53.5386689   6.0762184  69.1165204  54.2410732   6.5283227  69.5839131
  53.2067317   5.4346003  69.7445098  51.9867050   4.6673940  83.4916414
  51.3565711   5.3490221  83.7251811  51.8803138   4.5557022  82.5469552
  47.2812023   4.3345736  74.4182338  46.4911077   4.5903265  73.9422449
  47.7723270   5.1494074  74.5234379  61.2975832  11.6750975  77.1687619
  62.1193276  11.2731163  76.8870301  61.2938235  11.5719210  78.1203735
  49.2326768   4.6990316  71.3765815  48.4357931   4.8109010  71.8949310
  49.0052360   5.0376968  70.5106705  55.0632436  11.2235019  79.3248329
  55.1276868  11.6855426  80.1606501  54.3543360  10.5932384  79.4530639
  45.5649726   4.5876227  76.8497329  45.8157764   5.4723237  77.1154905
  46.1009274   4.4080828  76.0772421  69.3881825   8.0189724  73.5172590
  68.6345534   7.4497122  73.3616595  69.5229366   7.9852388  74.4643225
  54.7780453  12.8903126  69.1927310  54.6426128  13.7354662  69.6212158
  55.3190266  13.0922404  68.4293243  51.2647793  -1.0305294  85.8541665
  50.8714739  -1.5839095  86.5289309  52.0813933  -0.7194715  86.2448182
  48.2309851  10.4078564  69.7655235  48.7434371  11.2021815  69.9160799
  48.8832564   9.7104855  69.6988836  50.0404735  13.5244321  71.8477988
  50.2171364  14.4462285  71.6598972  50.8361569  13.2102740  72.2772368
  54.1815754   0.3852585  83.4461921  54.9225467   0.9859738  83.3666384
  54.4133677  -0.3569777  82.8879964  49.3257092   5.5708952  81.7240151
  49.2110607   4.6694210  82.0247250  48.4701610   5.8172649  81.3724968
  56.4048930  13.5126693  83.3227652  55.9612784  12.7263071  83.0048556
  57.0666143  13.7005843  82.6571543  51.1636051  15.0422494  77.8488330
  51.7143476  14.9139558  77.0765324  50.3247527  15.3417383  77.4983223
  58.5030168  13.7929493  81.3509053  58.4848643  14.6138374  80.8589322
  59.4250088  13.6683568  81.5759194  54.9603222  11.3073622  82.1932561
  55.4931559  10.5461910  81.9631869  54.4317303  11.0147274  82.9356716
  58.1272917  -3.5866312  77.7226203  57.7837186  -2.6964670  77.6465314
  58.4951879  -3.7764654  76.8595788  46.1958767   8.7367219  70.5414805
  47.0333989   9.1464227  70.3248513  46.3737035   7.7966661  70.5114999
  58.0923200   6.4042299  66.2298638  57.5769823   7.1746904  66.4687026
  57.8200508   5.7307435  66.8531700  55.6770311   1.2492000  71.2883877
  54.8211907   0.8598850  71.1089515  56.0897262   1.3283961  70.4283662
  57.2069457  -1.2161657  75.6875436  56.7034253  -1.2531522  74.8743242
  57.5000064  -0.3068914  75.7472093  53.4512343  -1.1322927  74.6941618
  54.3165340  -1.3280118  74.3347508  53.5189852  -1.3612575  75.6210975
  63.0657474   9.1574654  68.1651812  62.2886916   8.8185813  67.7206974
  63.7448955   9.1627277  67.4906777  57.8809503   4.2769391  68.0558419
  57.5759638   4.5915541  68.9068563  58.8339945   4.3550811  68.0985752
  56.3255935  10.4359615  69.7051373  55.7977296   9.7012374  69.3924611
  55.8243437  11.2134291  69.4591342  61.3048781   8.6308635  74.8218420
  60.6472455   9.3207897  74.9098548  62.1089180   9.0205067  75.1652406
  51.0574662   1.0979281  72.0657985  51.6318414   0.8754462  71.3331178
  51.6445645   1.1667975  72.8186586  60.1154239   6.9853008  72.8722361
  60.6286121   7.6183000  73.3744071  60.7655463   6.3854203  72.5065722
  51.3844249   3.1283742  66.0853870  50.5481562   3.4658429  66.4063145
  51.2449019   2.9932722  65.1481007  53.3597330  -2.0279470  70.7933054
  52.7061742  -2.3430453  70.1689669  53.3177804  -2.6503730  71.5192877
  54.4708535   8.2539825  62.7086346  53.5635597   8.0229078  62.9077495
  54.9679567   7.4577444  62.8960328  57.3776614  16.9637332  65.6283033
  56.7038312  17.2669029  66.2367990  57.7642436  17.7666412  65.2788490
  56.5935070   4.4602463  75.1180702  55.6757632   4.6817410  74.9602390
  57.0095214   4.5348774  74.2592409  57.3770118   5.8593879  70.2483382
  58.1241937   6.3715276  69.9390504  57.6461708   5.5377932  71.1087776
  55.6496768   8.3552420  67.2310337  54.7407987   8.0711453  67.3282806
  55.6791852   8.7751498  66.3713643  60.8816036  11.9659009  71.0001504
  60.4278363  11.1249919  71.0566695  60.2510002  12.6020408  71.3376284
  59.8248955   2.8950995  72.2302172  59.0871712   2.3828382  72.5612414
  60.0775729   2.4551377  71.4185448  59.3248975  13.8035506  71.9351322
  59.6171949  14.3640563  71.2163688  59.8347595  14.0964067  72.6904481
  46.2184939   6.0757934  71.2125539  46.0209338   5.4827295  70.4876605
  45.6631603   5.7710144  71.9301478  54.1981662   5.9681040  73.3320132
  54.2530272   5.0154877  73.2562608  53.3872864   6.1240480  73.8161430
  55.3472856   9.8961163  64.5698415  54.9092286   9.1797022  64.1104052
  56.0883297  10.1237278  64.0083507  52.1374022   4.5858100  71.0910511
  51.3241888   4.8852271  71.4975703  52.6333016   4.1913789  71.8084993
  54.2882600  14.5815857  73.0244775  54.2458779  14.8076703  72.0953307
  55.2045299  14.3479232  73.1730577  57.7348234   5.0499925  79.9225405
  58.0897622   5.2771398  80.7819870  58.3820365   5.3818301  79.3002660
  63.4645971   8.1718361  70.6274734  63.3263869   8.3619956  69.6995923
  63.1082190   8.9337743  71.0842785  51.6288097   2.1576456  76.7071746
  52.2687476   2.0165215  76.0094709  50.7965627   1.8710969  76.3310348
  63.4915350  10.2394888  75.6386005  63.9251857  10.1470177  76.4869059
  64.2046931  10.2152388  75.0006021  52.4048401  11.4578886  72.8206738
  53.1988999  10.9629206  72.6189313  51.6940093  10.9296749  72.4574444
  57.2243245  13.8396982  77.1719106  57.2780268  14.4087918  77.9396822
  56.3558027  14.0098867  76.8073143  48.7131164   5.6021968  68.8966491
  47.7828752   5.5406423  69.1136453  48.8088636   5.0797921  68.1003132
  48.6316713   2.1276781  71.4844733  48.8923531   3.0422114  71.3753893
  49.4533886   1.6601223  71.6341345  50.1041639   3.5414538  78.6543557
  50.7764692   3.3331900  78.0056206  49.2771425   3.3436624  78.2148789
  64.3530900  10.2818588  78.1718891  64.5466790  11.1864399  78.4178166
  64.2531518   9.8226007  79.0057476  56.0067211   0.1676479  80.6709218
  55.3595126   0.8666428  80.5773694  56.7768226   0.6012623  81.0385466
  59.4146009  10.4325331  83.7459771  59.2631515  10.2035883  82.8289855
  59.4050688  11.3895932  83.7591116  56.1831345   8.0057244  78.7306038
  57.1123405   8.1568403  78.5575005  55.7622375   8.0941264  77.8754684
  54.9819677  12.0307908  76.5004575  54.8430763  11.6626692  77.3730513
  54.1934273  12.5455548  76.3288533  55.5767829  17.1317005  67.8430112
  55.7519585  16.6605048  68.6575734  54.8900617  17.7582771  68.0711373
  56.5324892  11.4089511  73.8893413  56.1974725  11.3690281  74.7851063
  56.0328838  10.7434227  73.4163823  50.5069136   6.8157141  79.4145994
  50.3688934   6.0837380  80.0157533  51.4174059   6.7266041  79.1330182
  59.4684084   8.7545545  64.1630473  58.8513254   8.0292373  64.0663525
  59.0000572   9.5154905  63.8197547  53.1351437   6.5277100  78.9029674
  53.8451055   5.8870292  78.8616292  53.0920745   6.7789995  79.8255855
  61.1238215  13.4644453  81.8236253  61.0650761  12.7803674  81.1566836
  61.5257734  14.2063443  81.3716879  51.8480371   3.5142318  80.7225313
  51.3117728   3.0633056  81.3746910  51.2597079   3.6488227  79.9795778
  50.1428914  20.2806367  74.6169972  50.3825512  20.9124891  75.2948991
  49.2998111  19.9294407  74.9035331  51.2582630   2.9730969  63.2851777
  50.3812096   2.8519770  62.9214024  51.7340383   2.1817048  63.0330666
  61.1255623  11.4284037  80.0550233  60.2382401  11.0909959  80.1776632
  61.6954174  10.6967069  80.2918998  42.7784770   7.7608129  73.3793284
  43.4655810   7.4469859  72.7914299  42.6232898   8.6649494  73.1060536
  47.5819492   2.6498326  77.8078308  47.4977681   2.0423995  77.0728718
  46.7602198   3.1407344  77.8087804  54.6556776  16.0885490  77.0211476
  54.5826947  16.8940461  77.5330781  54.2134169  16.2877456  76.1959497
  54.4446556  15.3257260  70.5314298  53.6614077  15.8678940  70.6252522
  55.1439301  15.8431239  70.9308539  57.7543206   1.1351889  73.1748503
  58.2511905   0.3821852  72.8549573  56.9830187   1.1716206  72.6091712
  65.6072963   6.8392255  74.8166794  65.5962839   7.7216970  74.4460727
  64.7390343   6.4863806  74.6221331  57.1155459  15.9872324  79.1769635
  57.8283432  16.6219789  79.1045536  56.6245488  16.0836190  78.3609636
  58.8372986   9.8923576  70.7486926  57.9029265  10.0125039  70.5791631
  59.0149655   8.9896043  70.4846936  54.3378174   3.2769272  72.9020187
  53.9675962   2.7240313  73.5901093  54.8337267   2.6727406  72.3495188
  62.2245538   5.7340896  71.2836960  62.6905990   6.5668887  71.2097263
  62.6753038   5.2685877  71.9882219  52.1667373  13.7366767  79.9975205
  52.8676833  14.3703250  80.1504600  51.6962488  14.0781499  79.2370845
  60.2921769  12.0784717  68.2823112  60.5681613  11.9641312  69.1916987
  59.4226268  11.6802202  68.2435286  60.1962200  -1.8978517  75.3227862
  59.2825280  -1.6674290  75.4910069  60.6255302  -1.8140073  76.1741894
  59.9668659   6.2911375  77.8227756  59.3140109   6.5387282  77.1680209
  60.3449039   5.4775513  77.4890233  56.9275833  16.3271068  71.9255926
  57.1098227  15.5092724  72.3883678  57.7508819  16.5438760  71.4880816
  57.2617998  15.2539253  69.1870975  57.7905765  14.7431708  68.5741137
  57.5246218  14.9381783  70.0516508  56.0156232   7.0331186  84.3093793
  55.3396869   6.9325315  84.9796168  56.8383866   6.8770400  84.7729790
  47.7635091  13.2703122  76.9306308  48.3488528  12.5246810  77.0634212
  47.5659930  13.5807079  77.8142972  50.6173746  16.3054370  71.9468751
  49.9484122  16.7900497  71.4632791  50.4786616  16.5523590  72.8612129
  42.3552746   5.8408723  75.6510751  42.3936845   5.3072313  76.4447869
  41.8493039   5.3143928  75.0321728  54.7579015  18.3398113  78.5451409
  55.3097323  18.5029735  79.3100494  55.0985208  18.9302551  77.8731434
  49.7343508   0.6873263  79.1473294  49.7984835   1.5488094  78.7350691
  49.6710628   0.0747265  78.4145652  49.2095781   2.7596396  82.7946328
  49.8367819   2.3773473  83.4083852  48.3523700   2.5410597  83.1602020
  59.6089889  13.1659371  84.4000063  60.1529793  13.7789329  83.9055018
  59.0276734  13.7238949  84.9167076  45.9861323   4.5672825  68.7264683
  46.2814764   3.6583503  68.6731736  45.0849359   4.5460564  68.4045685
  57.8947402  16.2880089  75.5315091  57.7698542  15.4869829  75.0226037
  58.5526493  16.7826282  75.0429061  49.5155570   2.6428821  74.7092231
  48.7942156   3.2564789  74.5699705  50.3048826   3.1786586  74.6308877
  59.9582311  14.0889109  77.1594641  59.0112646  13.9694460  77.0872968
  60.3065084  13.2011607  77.2420903  52.3181884  -0.0216752  80.9832883
  52.8416286   0.2245544  81.7459192  52.0994217   0.8103283  80.5636020
  47.7149165   2.2486922  68.8504008  47.3861871   1.3684301  68.6679114
  48.0688536   2.1934591  69.7380397  56.9628744  13.8841825  73.3598993
  56.8153706  12.9558532  73.5406563  57.7882237  13.9061916  72.8756069
  50.8290988   2.5359892  69.2179486  51.1687061   3.0645813  68.4958094
  51.2763109   2.8740298  69.9938052  60.5662866  14.7070384  74.4463866
  61.4909413  14.5013245  74.3088317  60.3978169  14.4586785  75.3553208
  53.5234429   0.9196943  78.6682554  53.1831249   0.1204756  79.0703233
  52.8173435   1.2198654  78.0959387  54.1750901  -1.9953745  77.1209877
  54.9976970  -2.4693267  76.9988767  54.4188964  -1.2163261  77.6208563
  52.8159135   1.0334514  67.4172778  53.5367498   1.4115767  66.9136495
  52.1924439   1.7523391  67.5207756  56.9590258   1.7379663  68.3531111
  57.1753873   2.6204301  68.0519939  56.4784325   1.3465876  67.6236753
  51.6989480   4.6965376  74.9301855  51.5534060   5.0105679  75.8226137
  51.2214683   5.3150276  74.3772754  53.5585862   1.6867924  74.9782745
  53.5447431   0.7909017  74.6415043  54.2758291   1.6938588  75.6121031
  55.4111993   2.1205264  77.0235872  55.1529771   3.0422335  77.0220203
  54.8797034   1.7235699  77.7136336  60.3558182  15.2256051  69.8025958
  60.5295059  14.6602474  69.0499810  60.8487073  16.0256946  69.6205448
  46.1735142   7.2370720  77.8689516  45.6288610   8.0130528  78.0009791
  47.0514492   7.5841525  77.7108638  52.9622758   0.5682304  70.2470315
  53.0838670  -0.3601050  70.4461202  52.6724801   0.5820990  69.3348630
  55.8313949  -1.7462785  73.3837035  55.8535646  -1.6823452  72.4289014
  56.2482008  -2.5858277  73.5777541  66.2097573   7.9892474  71.4216257
  66.6528719   7.2399799  71.0235381  65.3324083   7.9802611  71.0389989
  61.3433354  14.5422816  66.9022856  62.0384259  15.1629508  67.1210170
  61.6856505  13.6918167  67.1775234  46.9601164   6.3640617  80.7619673
  46.2182900   6.5123252  81.3484304  46.6393908   6.6248882  79.8986423
  63.2424778  11.9922521  68.4310187  63.7676102  12.3309794  67.7059507
  63.1547130  11.0569536  68.2473321  54.9044826  15.9056595  80.5600063
  55.2131953  15.6605742  81.4322763  55.7020308  16.1103233  80.0718933
  54.9265438  18.0594504  72.7905440  54.4870429  17.5670883  73.4838297
  55.6773555  17.5167472  72.5497515  47.4057777  14.2506045  72.7930068
  48.2315797  13.9509817  72.4128711  47.0551829  13.4813668  73.2419857
  52.3739310  13.6032514  74.8627741  51.7519320  12.9403219  74.5629969
  53.0444177  13.6293645  74.1801389  45.6066382  12.1692372  73.7519001
  44.7698291  11.7414546  73.5703003  45.5790028  12.3624815  74.6889793
  52.4463838   2.0814302  84.4560248  52.4951993   2.9576424  84.0738017
  52.9886352   1.5391695  83.8831891  62.9318684  12.6255425  83.7361385
  62.1414227  12.6079564  83.1965884  62.6952038  13.1643718  84.4910421
  63.0516559   9.4747891  81.0494113  63.1014564   9.3097899  81.9909636
  62.9430482   8.6075150  80.6591994  51.9352817  12.1536437  68.3386202
  52.0840938  12.8371901  67.6852875  52.7419261  12.1341527  68.8535658
  60.3420321   5.4578819  82.3653420  61.2430184   5.3185284  82.0737418
  60.4168296   5.6233274  83.3051597  54.6763126   2.8345674  81.2106606
  53.8066436   3.1279240  80.9389195  54.9122607   3.4186119  81.9313870
  64.5534755  11.8944833  81.2936135  64.2619564  12.2574813  82.1299596
  63.9406887  11.1811841  81.1149467  65.7530438   9.4597712  73.8138705
  66.5877329   9.8987517  73.9776265  65.8889567   8.9836366  72.9946951
  62.8021944   7.0177447  79.7616193  63.2776065   7.2105094  78.9535044
  61.8787509   7.0736633  79.5159576  49.6905450   8.1801614  69.3447271
  49.4451492   7.2763944  69.5427481  49.8601365   8.1818765  68.4026749
  57.3802160  -0.9474709  78.7272027  57.8984104  -0.2113682  78.4018515
  57.0257293  -0.6410716  79.5618786  48.9601098   3.9129972  66.8433432
  48.2670343   3.9874327  66.1873468  48.7152850   3.1490316  67.3654949
  55.4348223  14.6484567  65.8097949  54.8622190  15.2674754  65.3568421
  56.0081017  15.1983929  66.3437871  61.5023613   3.8943207  77.9944498
  62.4541036   3.9941305  78.0156722  61.3327063   3.1021476  78.5042583
  59.5237992   0.9798791  78.1803899  58.9287924   1.2603803  77.4850388
  59.2387689   1.4692692  78.9520640  58.6545483  14.9321717  66.9406532
  59.5876156  14.8667279  67.1439407  58.5668695  15.7677984  66.4821064
  61.2833499  14.2487588  63.9010479  61.2047131  13.9147451  64.7946237
  62.1043166  14.7409356  63.9001952  63.9811690   7.1149327  77.1086798
  63.9488011   6.1765328  77.2946482  64.5912314   7.1933364  76.3752623
  55.8195021   5.9845380  63.1514002  56.7654126   5.8551588  63.2202420
  55.4409266   5.2460042  63.6283430  64.1306179   3.9060371  77.1545081
  63.6145228   3.1218827  76.9675010  65.0146127   3.5779087  77.3191601
  61.7916906  -2.3498614  73.1140894  61.5941727  -2.6583526  73.9984226
  62.4016611  -1.6236975  73.2438824  69.7988240   8.1765334  76.2492835
  70.5291629   7.9150622  76.8100538  69.1895186   7.4394056  76.2894903
  67.8803537   6.3173197  76.8467286  67.1536701   6.1829161  76.2383777
  67.4650824   6.6250025  77.6524004  55.7033714  10.0363126  84.6114659
  56.6236723  10.2141725  84.8054705  55.6683297   9.0919172  84.4594358
  54.0037938   3.9095356  63.0868887  53.0969394   3.6128469  63.1631601
  54.2813920   3.6125175  62.2203173  44.9215879   5.2301720  73.5367934
  44.6018663   4.3767028  73.2442308  44.3749307   5.4450298  74.2925901
  48.6995786   7.9464161  77.2537440  48.9181796   8.8781269  77.2725474
  49.1121560   7.5872135  78.0392244  55.6200004  -1.5467754  69.2413128
  54.8100733  -1.8920669  69.6168375  56.3084421  -1.8560210  69.8300740
  57.5490553  -2.4689707  70.8637425  58.1021591  -2.0494254  71.5227448
  57.7860639  -3.3953959  70.9060381  53.5723652   3.5197367  86.6440189
  53.4720379   4.4691724  86.5752280  53.3545194   3.1915606  85.7716259
  52.7736723   0.7682292  63.2280866  53.6355887   1.0937190  63.4876684
  52.9587067  -0.0186212  62.7153932  44.7904139   8.8504631  75.5061055
  44.0967610   8.4358584  74.9931010  45.5377130   8.8925168  74.9094474
  60.9269360  -0.3589182  70.3716089  60.3468029   0.2995622  69.9894142
  60.6605292  -1.1811837  69.9603507  59.3772926  -0.9584124  72.5737410
  59.8772704  -0.8467590  71.7651729  60.0208534  -1.2623071  73.2138218
  53.4354922   6.9494505  85.4605251  52.9522003   7.7494866  85.6669140
  53.5215861   6.9602450  84.5072695  46.7040881   8.7822885  73.3827070
  46.6811570   8.8810572  72.4308953  47.0141518   9.6288036  73.7044236
  49.3628259  10.8399040  77.4973684  50.3171513  10.8082982  77.4303616
  49.1640783  10.3789664  78.3123910  49.9527641   9.4100156  80.0644482
  50.7720530   9.9044235  80.0879319  50.2264449   8.4932124  80.0362050
  59.7094238   1.8010909  69.4272438  58.8220093   2.0860559  69.2092632
  60.1248227   1.6404672  68.5799715  63.0608774   1.8257429  73.1426777
  63.8369164   2.3153882  73.4151394  62.3356908   2.2515484  73.5998646
  65.4981332   2.5385049  74.2000717  66.0925823   2.2980785  73.4894026
  65.5707916   1.8192179  74.8274254  47.7178488  16.3818660  74.5143882
  47.5832956  15.6219061  73.9481880  47.3010550  17.1059560  74.0472671
  58.8537451  11.5655583  63.5220458  59.5573301  11.7705586  64.1378113
  58.1300100  12.1332345  63.7869541  59.6835261   7.3165444  69.6422728
  59.6270463   7.7733996  68.8030360  60.2363604   6.5556129  69.4645571
  63.4940067   3.1055176  70.4672847  63.2377002   2.7051812  71.2981055
  62.8692935   3.8198970  70.3422986  67.8052405   5.8451250  72.9744139
  67.2451963   5.9144439  73.7475701  67.1995908   5.6692234  72.2543635
  50.8747614  17.2787977  74.7262325  50.7579998  18.2233409  74.6241015
  50.0540060  16.9761538  75.1148124  60.7624148  12.0038112  65.5718918
  61.5969752  11.5719311  65.3896392  60.6008491  11.8320126  66.4995812
  60.4170041   8.5070226  66.9375257  60.3618844   8.3414497  65.9963701
  59.7916096   9.2146259  67.0937447  45.2062556   3.7438290  80.7636679
  45.8521419   3.2337244  81.2523904  44.9979707   4.4806972  81.3380104
  57.7315948  10.8119138  86.2628820  58.6007107  10.9859790  85.9015455
  57.2522699  11.6313554  86.1404549  53.7266166  -1.9921665  66.5160575
  53.7144836  -1.0479825  66.6728846  54.6189588  -2.1751520  66.2220037
  51.9002128  17.9316239  77.9418253  52.8029375  17.9639849  78.2584748
  51.6739498  17.0016690  77.9564589  53.6555730  16.6847225  74.6028332
  52.7051361  16.6849087  74.4892704  53.9588216  15.9379960  74.0864367
  49.5460047   0.8905907  84.8611693  50.4091508   0.5342712  85.0715018
  48.9725457   0.5519802  85.5487098  69.3908424  22.5207764  75.6674094
  70.0286834  22.4014511  74.9637434  69.2729266  23.4688607  75.7262047
  66.1998130  22.4735192  75.6035619  65.8616641  22.3576256  74.7156154
  67.0687898  22.0726357  75.5836625  62.0584946  24.3270668  71.5932510
  61.4949811  24.2360605  70.8248798  61.9437341  23.5070572  72.0735003
  66.6817913  23.6270043  81.5621825  66.6706554  23.2322842  80.6902328
  66.8438552  22.8936116  82.1555596  59.6049377  25.8221860  74.4316730
  60.3970669  25.4812684  74.0163030  59.8446028  25.9316835  75.3518884
  67.6384504  27.9941636  66.9046975  66.9872484  28.5795716  66.5180989
  68.4328867  28.5247831  66.9642012  61.5640131  25.0830773  67.3034109
  62.3371007  24.5359760  67.1646985  61.9165530  25.9475022  67.5148571
  63.4025174  26.4107155  80.5101009  63.1115040  27.3152786  80.3947675
  64.0382158  26.4523683  81.2245078  64.3281381  23.7884004  77.1002368
  64.9244953  23.5640026  76.3859331  64.3856352  23.0468749  77.7027816
  63.9006409  21.2423439  64.9352559  64.1531930  20.7204960  64.1736022
  62.9630968  21.0789584  65.0379243  68.9449692  20.2459217  72.7427302
  69.7312781  19.8278641  72.3917719  69.2088396  21.1505310  72.9108951
  69.1159769  25.6832068  67.4415959  68.4805602  25.7566694  68.1536864
  68.7857176  26.2725666  66.7635038  74.3458119  20.1834451  73.6460281
  75.0783291  19.6133667  73.8798110  73.5897475  19.7956051  74.0866787
  63.6202698  23.1451545  67.1376934  63.5038956  22.4696448  67.8058018
  63.7304958  22.6583919  66.3209087  65.9634239  22.6061692  70.8423623
  65.5992446  22.0792313  71.5536545  66.8201355  22.2160161  70.6690109
  71.8683540  13.8956025  78.1054890  71.5366864  14.7651436  77.8816105
  71.2729153  13.5792309  78.7848920  65.6039726  17.6351592  65.8384972
  65.7714128  18.5031828  66.2055443  65.4136895  17.7978873  64.9146261
  68.3615059  26.0968571  77.5050802  68.0615782  26.9993609  77.3966610
  68.0166119  25.8300754  78.3571955  61.8127541  22.5482367  73.5387507
  60.8878037  22.4158582  73.7465198  62.0611954  23.3276587  74.0357449
  71.7612203  18.6151111  75.1848240  70.8529080  18.5466519  74.8907001
  71.7099799  19.0923056  76.0130065  65.5828947  20.0909249  66.8231639
  65.4628572  20.5366300  67.6617119  64.8881535  20.4394567  66.2645177
  59.1736352  22.1915641  74.3731296  59.3028733  22.4450120  75.2870707
  58.4933803  22.7843349  74.0535951  63.3435839  32.8612891  70.4721770
  63.2659869  33.8120716  70.5510251  62.7397482  32.5158763  71.1296696
  65.8353069  20.0340756  83.1283137  65.0586403  20.5934677  83.1186002
  66.4743632  20.5197539  83.6498007  73.6273849  16.8167549  76.9626114
  72.9848230  17.1100082  76.3165908  73.1228778  16.7020470  77.7679310
  71.2814013  20.5630722  67.6511973  72.1931869  20.7958109  67.4759670
  70.7723660  21.1467767  67.0887051  64.0899441  22.8426210  82.6901104
  64.8314125  23.3811254  82.4135927  63.3836426  23.4692499  82.8472656
  69.5654781  24.9855350  81.2873265  69.9738137  24.5437761  80.5427898
  68.8432042  24.4107978  81.5407458  65.9185851  19.9227957  78.6606822
  66.7647046  20.3467371  78.8041471  65.8584488  19.2661581  79.3545385
  69.8883595  25.5456541  75.0425554  69.2592458  25.7102255  74.3401622
  69.5009257  25.9598150  75.8136518  73.7672827  26.4810979  72.3969918
  73.0823865  26.8609880  71.8466951  73.8516676  27.0906305  73.1301866
  69.0685296  17.5832325  80.3187996  68.8246228  18.3374386  79.7822272
  69.3445226  17.9617673  81.1535243  71.0223759  24.1270938  78.9965262
  71.2340654  24.7702698  78.3199643  70.9753507  23.2933254  78.5287192
  68.6249988  16.7388758  75.9001834  67.7634467  17.0370012  76.1918571
  68.6512422  16.9559157  74.9682866  65.4411557  25.2830949  72.3075639
  65.9049903  25.5618652  71.5180262  65.1768355  24.3814394  72.1248730
  62.3335638  24.8302431  75.2455403  62.9036995  25.2589699  74.6072887
  62.9243750  24.5485015  75.9439588  64.3780443  21.4054101  69.1165204
  65.0804487  21.8575145  69.5839131  64.0461072  20.7637920  69.7445098
  62.8260805  19.9965858  83.4916414  62.1959465  20.6782139  83.7251811
  62.7196893  19.8848940  82.5469552  58.1205777  19.6637654  74.4182338
  57.3304831  19.9195183  73.9422449  58.6117025  20.4785992  74.5234379
  72.1369587  27.0042893  77.1687619  72.9587030  26.6023080  76.8870301
  72.1331990  26.9011127  78.1203735  60.0720523  20.0282233  71.3765815
  59.2751686  20.1400927  71.8949310  59.8446115  20.3668885  70.5106705
  65.9026190  26.5526936  79.3248329  65.9670623  27.0147344  80.1606501
  65.1937114  25.9224301  79.4530639  56.4043480  19.9168144  76.8497329
  56.6551519  20.8015154  77.1154905  56.9403029  19.7372746  76.0772421
  80.2275580  23.3481642  73.5172590  79.4739288  22.7789040  73.3616595
  80.3623121  23.3144306  74.4643225  65.6174208  28.2195044  69.1927310
  65.4819883  29.0646580  69.6212158  66.1584020  28.4214322  68.4293243
  62.1041547  14.2986624  85.8541665  61.7108493  13.7452822  86.5289309
  62.9207688  14.6097202  86.2448182  59.0703605  25.7370482  69.7655235
  59.5828126  26.5313732  69.9160799  59.7226318  25.0396772  69.6988836
  60.8798490  28.8536238  71.8477988  61.0565118  29.7754203  71.6598972
  61.6755323  28.5394657  72.2772368  65.0209508  15.7144503  83.4461921
  65.7619222  16.3151656  83.3666384  65.2527431  14.9722141  82.8879964
  60.1650846  20.9000870  81.7240151  60.0504362  19.9986127  82.0247250
  59.3095364  21.1464567  81.3724968  67.2442684  28.8418610  83.3227652
  66.8006538  28.0554989  83.0048556  67.9059898  29.0297761  82.6571543
  62.0029805  30.3714412  77.8488330  62.5537230  30.2431475  77.0765324
  61.1641281  30.6709301  77.4983223  69.3423922  29.1221410  81.3509053
  69.3242398  29.9430291  80.8589322  70.2643842  28.9975486  81.5759194
  65.7996976  26.6365540  82.1932561  66.3325313  25.8753828  81.9631869
  65.2711057  26.3439192  82.9356716  68.9666671  11.7425606  77.7226203
  68.6230941  12.6327248  77.6465314  69.3345634  11.5527263  76.8595788
  57.0352522  24.0659136  70.5414805  57.8727744  24.4756145  70.3248513
  57.2130790  23.1258578  70.5114999  68.9316954  21.7334217  66.2298638
  68.4163578  22.5038822  66.4687026  68.6594263  21.0599353  66.8531700
  66.5164065  16.5783918  71.2883877  65.6605661  16.1890768  71.1089515
  66.9291017  16.6575879  70.4283662  68.0463212  14.1130261  75.6875436
  67.5428007  14.0760396  74.8743242  68.3393819  15.0223004  75.7472093
  64.2906098  14.1968991  74.6941618  65.1559094  14.0011799  74.3347508
  64.3583607  13.9679342  75.6210975  73.9051228  24.4866572  68.1651812
  73.1280671  24.1477731  67.7206974  74.5842709  24.4919195  67.4906777
  68.7203257  19.6061309  68.0558419  68.4153393  19.9207458  68.9068563
  69.6733699  19.6842729  68.0985752  67.1649689  25.7651532  69.7051373
  66.6371051  25.0304292  69.3924611  66.6637192  26.5426209  69.4591342
  72.1442535  23.9600553  74.8218420  71.4866210  24.6499814  74.9098548
  72.9482934  24.3496985  75.1652406  61.8968417  16.4271199  72.0657985
  62.4712169  16.2046380  71.3331178  62.4839399  16.4959893  72.8186586
  70.9547994  22.3144926  72.8722361  71.4679876  22.9474917  73.3744071
  71.6049218  21.7146121  72.5065722  62.2238004  18.4575660  66.0853870
  61.3875316  18.7950346  66.4063145  62.0842773  18.3224639  65.1481007
  64.1991084  13.3012448  70.7933054  63.5455497  12.9861465  70.1689669
  64.1571559  12.6788188  71.5192877  65.3102289  23.5831743  62.7086346
  64.4029351  23.3520996  62.9077495  65.8073321  22.7869362  62.8960328
  68.2170368  32.2929250  65.6283033  67.5432067  32.5960947  66.2367990
  68.6036190  33.0958330  65.2788490  67.4328825  19.7894381  75.1180702
  66.5151386  20.0109328  74.9602390  67.8488968  19.8640692  74.2592409
  68.2163873  21.1885797  70.2483382  68.9635691  21.7007194  69.9390504
  68.4855462  20.8669849  71.1087776  66.4890523  23.6844337  67.2310337
  65.5801742  23.4003370  67.3282806  66.5185607  24.1043416  66.3713643
  71.7209790  27.2950927  71.0001504  71.2672117  26.4541837  71.0566695
  71.0903757  27.9312325  71.3376284  70.6642710  18.2242913  72.2302172
  69.9265466  17.7120299  72.5612414  70.9169483  17.7843295  71.4185448
  70.1642729  29.1327424  71.9351322  70.4565704  29.6932481  71.2163688
  70.6741350  29.4255985  72.6904481  70.7654337  11.0019165  72.8243941
  71.0713214  10.1416528  72.5369856  71.4906942  11.5936785  72.6242935
  57.0578693  21.4049852  71.2125539  56.8603093  20.8119212  70.4876605
  56.5025357  21.1002062  71.9301478  65.0375417  21.2972958  73.3320132
  65.0924027  20.3446794  73.2562608  64.2266619  21.4532397  73.8161430
  66.1866611  25.2253081  64.5698415  65.7486040  24.5088940  64.1104052
  66.9277051  25.4529196  64.0083507  62.9767777  19.9150018  71.0910511
  62.1635642  20.2144188  71.4975703  63.4726771  19.5205707  71.8084993
  65.1276355  29.9107775  73.0244775  65.0852533  30.1368621  72.0953307
  66.0439053  29.6771149  73.1730577  68.5741988  20.3791842  79.9225405
  68.9291376  20.6063315  80.7819870  69.2214120  20.7110219  79.3002660
  74.3039725  23.5010278  70.6274734  74.1657624  23.6911874  69.6995923
  73.9475944  24.2629661  71.0842785  62.4681851  17.4868373  76.7071746
  63.1081231  17.3457132  76.0094709  61.6359382  17.2002887  76.3310348
  74.3309105  25.5686805  75.6386005  74.7645612  25.4762094  76.4869059
  75.0440686  25.5444306  75.0006021  63.2442155  26.7870804  72.8206738
  64.0382754  26.2921124  72.6189313  62.5333848  26.2588667  72.4574444
  68.0637000  29.1688899  77.1719106  68.1174022  29.7379836  77.9396822
  67.1951781  29.3390784  76.8073143  59.5524919  20.9313886  68.8966491
  58.6222507  20.8698341  69.1136453  59.6482391  20.4089838  68.1003132
  59.4710468  17.4568698  71.4844733  59.7317285  18.3714032  71.3753893
  60.2927640  16.9893141  71.6341345  60.9435393  18.8706456  78.6543557
  61.6158447  18.6623818  78.0056206  60.1165180  18.6728542  78.2148789
  75.1924654  25.6110506  78.1718891  75.3860545  26.5156316  78.4178166
  75.0925273  25.1517925  79.0057476  66.8460965  15.4968396  80.6709218
  66.1988880  16.1958346  80.5773694  67.6161981  15.9304540  81.0385466
  70.2539763  25.7617249  83.7459771  70.1025270  25.5327800  82.8289855
  70.2444443  26.7187850  83.7591116  67.0225100  23.3349161  78.7306038
  67.9517160  23.4860321  78.5575005  66.6016130  23.4233182  77.8754684
  65.8213431  27.3599826  76.5004575  65.6824517  26.9918610  77.3730513
  65.0328028  27.8747465  76.3288533  66.4161583  32.4608922  67.8430112
  66.5913339  31.9896965  68.6575734  65.7294371  33.0874688  68.0711373
  67.3718646  26.7381428  73.8893413  67.0368479  26.6982198  74.7851063
  66.8722592  26.0726144  73.4163823  61.3462890  22.1449058  79.4145994
  61.2082688  21.4129297  80.0157533  62.2567814  22.0557959  79.1330182
  70.3077838  24.0837463  64.1630473  69.6907009  23.3584291  64.0663525
  69.8394327  24.8446823  63.8197547  63.9745191  21.8569018  78.9029674
  64.6844810  21.2162210  78.8616292  63.9314499  22.1081913  79.8255855
  71.9631970  28.7936371  81.8236253  71.9044516  28.1095591  81.1566836
  72.3651488  29.5355361  81.3716879  62.6874125  18.8434236  80.7225313
  62.1511482  18.3924974  81.3746910  62.0990834  18.9780145  79.9795778
  60.9822669  35.6098285  74.6169972  61.2219267  36.2416809  75.2948991
  60.1391865  35.2586325  74.9035331  62.0976384  18.3022887  63.2851777
  61.2205850  18.1811688  62.9214024  62.5734137  17.5108965  63.0330666
  71.9649377  26.7575955  80.0550233  71.0776156  26.4201877  80.1776632
  72.5347928  26.0258986  80.2918998  53.6178524  23.0900047  73.3793284
  54.3049564  22.7761777  72.7914299  53.4626653  23.9941411  73.1060536
  58.4213246  17.9790243  77.8078308  58.3371435  17.3715913  77.0728718
  57.5995953  18.4699262  77.8087804  65.4950530  31.4177407  77.0211476
  65.4220702  32.2232379  77.5330781  65.0527924  31.6169373  76.1959497
  65.2840310  30.6549177  70.5314298  64.5007832  31.1970858  70.6252522
  65.9833055  31.1723157  70.9308539  68.5936960  16.4643807  73.1748503
  69.0905660  15.7113769  72.8549573  67.8223942  16.5008124  72.6091712
  76.4466718  22.1684172  74.8166794  76.4356594  23.0508888  74.4460727
  75.5784097  21.8155723  74.6221331  67.9549214  31.3164241  79.1769635
  68.6677186  31.9511706  79.1045536  67.4639243  31.4128107  78.3609636
  69.6766741  25.2215494  70.7486926  68.7423020  25.3416957  70.5791631
  69.8543409  24.3187961  70.4846936  65.1771929  18.6061190  72.9020187
  64.8069716  18.0532230  73.5901093  65.6731021  18.0019323  72.3495188
  73.0639292  21.0632813  71.2836960  73.5299744  21.8960805  71.2097263
  73.5146793  20.5977795  71.9882219  63.0061128  29.0658685  79.9975205
  63.7070587  29.6995168  80.1504600  62.5356243  29.4073416  79.2370845
  71.1315523  27.4076635  68.2823112  71.4075367  27.2933229  69.1916987
  70.2620022  27.0094120  68.2435286  71.0355955  13.4313400  75.3227862
  70.1219035  13.6617627  75.4910069  71.4649056  13.5151844  76.1741894
  70.8062413  21.6203292  77.8227756  70.1533864  21.8679200  77.1680209
  71.1842793  20.8067431  77.4890233  67.7669587  31.6562986  71.9255926
  67.9491982  30.8384641  72.3883678  68.5902573  31.8730678  71.4880816
  68.1011753  30.5831171  69.1870975  68.6299519  30.0723625  68.5741137
  68.3639972  30.2673701  70.0516508  66.8549986  22.3623103  84.3093793
  66.1790624  22.2617233  84.9796168  67.6777620  22.2062317  84.7729790
  58.6028846  28.5995040  76.9306308  59.1882282  27.8538728  77.0634212
  58.4053684  28.9098997  77.8142972  61.4567501  31.6346287  71.9468751
  60.7877876  32.1192415  71.4632791  61.3180370  31.8815508  72.8612129
  53.1946500  21.1700640  75.6510751  53.2330600  20.6364231  76.4447869
  52.6886793  20.6435846  75.0321728  65.5972769  33.6690031  78.5451409
  66.1491077  33.8321652  79.3100494  65.9378963  34.2594469  77.8731434
  60.5737263  16.0165181  79.1473294  60.6378589  16.8780012  78.7350691
  60.5104383  15.4039182  78.4145652  60.0489535  18.0888313  82.7946328
  60.6761574  17.7065391  83.4083852  59.1917454  17.8702515  83.1602020
  70.4483644  28.4951288  84.4000063  70.9923548  29.1081247  83.9055018
  69.8670489  29.0530867  84.9167076  56.8255078  19.8964742  68.7264683
  57.1208519  18.9875421  68.6731736  55.9243114  19.8752482  68.4045685
  68.7341157  31.6172006  75.5315091  68.6092296  30.8161746  75.0226037
  69.3920248  32.1118200  75.0429061  60.3549325  17.9720739  74.7092231
  59.6335911  18.5856707  74.5699705  61.1442581  18.5078504  74.6308877
  70.7976065  29.4181027  77.1594641  69.8506401  29.2986378  77.0872968
  71.1458838  28.5303525  77.2420903  63.1575638  15.3075165  80.9832883
  63.6810040  15.5537462  81.7459192  62.9387972  16.1395200  80.5636020
  58.5542919  17.5778840  68.8504008  58.2255626  16.6976219  68.6679114
  58.9082290  17.5226509  69.7380397  67.8022498  29.2133743  73.3598993
  67.6547461  28.2850450  73.5406563  68.6275992  29.2353833  72.8756069
  61.6684743  17.8651810  69.2179486  62.0080815  18.3937731  68.4958094
  62.1156863  18.2032216  69.9938052  71.4056620  30.0362301  74.4463866
  72.3303168  29.8305163  74.3088317  71.2371924  29.7878703  75.3553208
  64.3628183  16.2488861  78.6682554  64.0225004  15.4496674  79.0703233
  63.6567190  16.5490571  78.0959387  65.0144655  13.3338173  77.1209877
  65.8370725  12.8598651  76.9988767  65.2582719  14.1128657  77.6208563
  63.6552890  16.3626431  67.4172778  64.3761252  16.7407684  66.9136495
  63.0318194  17.0815308  67.5207756  67.7984013  17.0671580  68.3531111
  68.0147627  17.9496218  68.0519939  67.3178080  16.6757794  67.6236753
  62.5383234  20.0257294  74.9301855  62.3927815  20.3397597  75.8226137
  62.0608438  20.6442194  74.3772754  64.3979617  17.0159842  74.9782745
  64.3841186  16.1200935  74.6415043  65.1152045  17.0230505  75.6121031
  66.2505748  17.4497182  77.0235872  65.9923525  18.3714252  77.0220203
  65.7190788  17.0527616  77.7136336  71.1951936  30.5547969  69.8025958
  71.3688814  29.9894391  69.0499810  71.6880828  31.3548864  69.6205448
  57.0128896  22.5662638  77.8689516  56.4682364  23.3422446  78.0009791
  57.8908246  22.9133442  77.7108638  63.8016513  15.8974222  70.2470315
  63.9232424  14.9690868  70.4461202  63.5118555  15.9112908  69.3348630
  66.6707703  13.5829132  73.3837035  66.6929400  13.6468465  72.4289014
  67.0875762  12.7433641  73.5777541  77.0491328  23.3184392  71.4216257
  77.4922474  22.5691717  71.0235381  76.1717838  23.3094528  71.0389989
  72.1827109  29.8714733  66.9022856  72.8778014  30.4921426  67.1210170
  72.5250259  29.0210085  67.1775234  57.7994918  21.6932534  80.7619673
  57.0576654  21.8415170  81.3484304  57.4787662  21.9540800  79.8986423
  74.0818532  27.3214439  68.4310187  74.6069856  27.6601712  67.7059507
  73.9940885  26.3861454  68.2473321  65.7438581  31.2348512  80.5600063
  66.0525707  30.9897659  81.4322763  66.5414063  31.4395151  80.0718933
  65.7659193  33.3886422  72.7905440  65.3264183  32.8962801  73.4838297
  66.5167310  32.8459390  72.5497515  58.2451532  29.5797963  72.7930068
  59.0709552  29.2801735  72.4128711  57.8945584  28.8105585  73.2419857
  63.2133065  28.9324431  74.8627741  62.5913074  28.2695136  74.5629969
  63.8837932  28.9585563  74.1801389  56.4460137  27.4984289  73.7519001
  55.6092045  27.0706464  73.5703003  56.4183782  27.6916733  74.6889793
  63.2857592  17.4106219  84.4560248  63.3345748  18.2868342  84.0738017
  63.8280107  16.8683612  83.8831891  73.7712438  27.9547342  83.7361385
  72.9807982  27.9371481  83.1965884  73.5345793  28.4935636  84.4910421
  73.8910313  24.8039809  81.0494113  73.9408318  24.6389816  81.9909636
  73.7824236  23.9367068  80.6591994  62.7746572  27.4828355  68.3386202
  62.9234692  28.1663819  67.6852875  63.5813015  27.4633445  68.8535658
  71.1814076  20.7870737  82.3653420  72.0823938  20.6477202  82.0737418
  71.2562050  20.9525192  83.3051597  65.5156881  18.1637592  81.2106606
  64.6460190  18.4571158  80.9389195  65.7516361  18.7478037  81.9313870
  75.3928510  27.2236750  81.2936135  75.1013318  27.5866731  82.1299596
  74.7800641  26.5103759  81.1149467  76.5924192  24.7889630  73.8138705
  77.4271084  25.2279434  73.9776265  76.7283321  24.3128283  72.9946951
  73.6415698  22.3469365  79.7616193  74.1169820  22.5397011  78.9535044
  72.7181264  22.4028551  79.5159576  60.5299205  23.5093532  69.3447271
  60.2845247  22.6055862  69.5427481  60.6995119  23.5110683  68.4026749
  68.2195915  14.3817209  78.7272027  68.7377859  15.1178235  78.4018515
  67.8651047  14.6881202  79.5618786  59.7994852  19.2421890  66.8433432
  59.1064097  19.3166245  66.1873468  59.5546604  18.4782233  67.3654949
  68.4708509  10.8017491  74.2472923  68.7510263  10.1340680  74.8733350
  69.2559116  10.9946587  73.7347587  66.2741977  29.9776485  65.8097949
  65.7015944  30.5966672  65.3568421  66.8474771  30.5275847  66.3437871
  72.3417367  19.2235125  77.9944498  73.2934790  19.3233223  78.0156722
  72.1720818  18.4313394  78.5042583  70.3631747  16.3090708  78.1803899
  69.7681679  16.5895721  77.4850388  70.0781443  16.7984609  78.9520640
  69.4939237  30.2613635  66.9406532  70.4269910  30.1959197  67.1439407
  69.4062450  31.0969902  66.4821064  72.1227254  29.5779505  63.9010479
  72.0440885  29.2439369  64.7946237  72.9436921  30.0701273  63.9001952
  74.8205445  22.4441245  77.1086798  74.7881765  21.5057245  77.2946482
  75.4306069  22.5225281  76.3752623  66.6588776  21.3137298  63.1514002
  67.6047881  21.1843506  63.2202420  66.2803021  20.5751960  63.6283430
  74.9699933  19.2352288  77.1545081  74.4538982  18.4510745  76.9675010
  75.8539882  18.9071005  77.3191601  72.6310660  12.9793304  73.1140894
  72.4335482  12.6708392  73.9984226  73.2410366  13.7054943  73.2438824
  80.6381995  23.5057252  76.2492835  81.3685383  23.2442540  76.8100538
  80.0288940  22.7685974  76.2894903  78.7197292  21.6465114  76.8467286
  77.9930456  21.5121079  76.2383777  78.3044579  21.9541943  77.6524004
  66.5427468  25.3655044  84.6114659  67.4630478  25.5433643  84.8054705
  66.5077051  24.4211089  84.4594358  64.8431693  19.2387274  63.0868887
  63.9363148  18.9420387  63.1631601  65.1207674  18.9417092  62.2203173
  55.7609633  20.5593638  73.5367934  55.4412418  19.7058946  73.2442308
  55.2143062  20.7742216  74.2925901  59.5389541  23.2756079  77.2537440
  59.7575551  24.2073186  77.2725474  59.9515315  22.9164053  78.0392244
  66.4593759  13.7824164  69.2413128  65.6494487  13.4371249  69.6168375
  67.1478176  13.4731708  69.8300740  68.3884307  12.8602211  70.8637425
  68.9415346  13.2797664  71.5227448  68.6254393  11.9337959  70.9060381
  64.4117406  18.8489284  86.6440189  64.3114133  19.7983641  86.5752280
  64.1938948  18.5207523  85.7716259  63.6130478  16.0974209  63.2280866
  64.4749642  16.4229108  63.4876684  63.7980822  15.3105705  62.7153932
  55.6297893  24.1796549  75.5061055  54.9361365  23.7650502  74.9931010
  56.3770884  24.2217086  74.9094474  71.7663114  14.9702736  70.3716089
  71.1861783  15.6287540  69.9894142  71.4999047  14.1480080  69.9603507
  70.2166680  14.3707794  72.5737410  70.7166459  14.4824328  71.7651729
  70.8602288  14.0668846  73.2138218  64.2748676  22.2786423  85.4605251
  63.7915758  23.0786783  85.6669140  64.3609615  22.2894368  84.5072695
  57.5434636  24.1114803  73.3827070  57.5205324  24.2102490  72.4308953
  57.8535272  24.9579954  73.7044236  60.2022014  26.1690958  77.4973684
  61.1565267  26.1374900  77.4303616  60.0034537  25.7081582  78.3123910
  60.7921396  24.7392074  80.0644482  61.6114285  25.2336153  80.0879319
  61.0658204  23.8224042  80.0362050  70.5487992  17.1302826  69.4272438
  69.6613847  17.4152477  69.2092632  70.9641981  16.9696590  68.5799715
  73.9002528  17.1549347  73.1426777  74.6762918  17.6445800  73.4151394
  73.1750662  17.5807401  73.5998646  76.3375087  17.8676966  74.2000717
  76.9319578  17.6272702  73.4894026  76.4101671  17.1484097  74.8274254
  58.5572243  31.7110577  74.5143882  58.4226710  30.9510978  73.9481880
  58.1404305  32.4351477  74.0472671  69.6931206  26.8947501  63.5220458
  70.3967056  27.0997503  64.1378113  68.9693854  27.4624263  63.7869541
  70.5229016  22.6457362  69.6422728  70.4664217  23.1025914  68.8030360
  71.0757358  21.8848047  69.4645571  74.3333822  18.4347094  70.4672847
  74.0770756  18.0343730  71.2981055  73.7086690  19.1490888  70.3422986
  78.6446160  21.1743167  72.9744139  78.0845718  21.2436357  73.7475701
  78.0389663  20.9984152  72.2543635  61.7141368  32.6079894  74.7262325
  61.5973753  33.5525327  74.6241015  60.8933815  32.3053456  75.1148124
  71.6017903  27.3330030  65.5718918  72.4363507  26.9011229  65.3896392
  71.4402246  27.1612044  66.4995812  71.2563795  23.8362143  66.9375257
  71.2012599  23.6706415  65.9963701  70.6309850  24.5438176  67.0937447
  56.0456310  19.0730208  80.7636679  56.6915174  18.5629162  81.2523904
  55.8373461  19.8098889  81.3380104  68.5709702  26.1411055  86.2628820
  69.4400862  26.3151708  85.9015455  68.0916454  26.9605472  86.1404549
  64.5659921  13.3370252  66.5160575  64.5538590  14.2812092  66.6728846
  65.4583342  13.1540398  66.2220037  62.7395883  33.2608156  77.9418253
  63.6423129  33.2931767  78.2584748  62.5133253  32.3308607  77.9564589
  64.4949485  32.0139143  74.6028332  63.5445116  32.0141004  74.4892704
  64.7981971  31.2671877  74.0864367  68.3812040   9.9313029  70.7706512
  67.6144436   9.3771516  70.9163194  68.7922745  10.0034898  71.6320664
  60.3853801  16.2197825  84.8611693  61.2485263  15.8634630  85.0715018
  59.8119212  15.8811720  85.5487098  80.2302178  37.8499681  75.6674094
  80.8680588  37.7306429  74.9637434  80.1123021  38.7980525  75.7262047
  77.0391884  37.8027109  75.6035619  76.7010396  37.6868174  74.7156154
  77.9081653  37.4018274  75.5836625  72.8978700  39.6562586  71.5932510
  72.3343565  39.5652523  70.8248798  72.7831095  38.8362490  72.0735003
  77.5211667  38.9561961  81.5621825  77.5100308  38.5614759  80.6902328
  77.6832307  38.2228034  82.1555596  70.4443132  41.1513777  74.4316730
  71.2364424  40.8104602  74.0163030  70.6839782  41.2608752  75.3518884
  78.4778259  43.3233553  66.9046975  77.8266239  43.9087634  66.5180989
  79.2722622  43.8539748  66.9642012  72.4033886  40.4122691  67.3034109
  73.1764762  39.8651678  67.1646985  72.7559285  41.2766940  67.5148571
  74.2418928  41.7399073  80.5101009  73.9508794  42.6444704  80.3947675
  74.8775913  41.7815600  81.2245078  75.1675135  39.1175921  77.1002368
  75.7638708  38.8931944  76.3859331  75.2250107  38.3760667  77.7027816
  74.7400164  36.5715357  64.9352559  74.9925684  36.0496878  64.1736022
  73.8024723  36.4081502  65.0379243  79.7843447  35.5751135  72.7427302
  80.5706536  35.1570558  72.3917719  80.0482151  36.4797227  72.9108951
  79.9553524  41.0123985  67.4415959  79.3199357  41.0858612  68.1536864
  79.6250930  41.6017584  66.7635038  85.1851874  35.5126368  73.6460281
  85.9177046  34.9425585  73.8798110  84.4291229  35.1247969  74.0866787
  74.4596452  38.4743463  67.1376934  74.3432711  37.7988366  67.8058018
  74.5698712  37.9875837  66.3209087  76.8027993  37.9353610  70.8423623
  76.4386201  37.4084231  71.5536545  77.6595109  37.5452079  70.6690109
  82.7077294  29.2247942  78.1054890  82.3760619  30.0943353  77.8816105
  82.1122907  28.9084226  78.7848920  76.4433480  32.9643509  65.8384972
  76.6107883  33.8323746  66.2055443  76.2530649  33.1270791  64.9146261
  79.2008814  41.4260488  77.5050802  78.9009537  42.3285527  77.3966610
  78.8559873  41.1592672  78.3571955  72.6521295  37.8774285  73.5387507
  71.7271792  37.7450499  73.7465198  72.9005708  38.6568504  74.0357449
  82.6005957  33.9443029  75.1848240  81.6922835  33.8758437  74.8907001
  82.5493553  34.4214973  76.0130065  76.4222701  35.4201167  66.8231639
  76.3022326  35.8658218  67.6617119  75.7275290  35.7686485  66.2645177
  70.0130106  37.5207559  74.3731296  70.1422487  37.7742038  75.2870707
  69.3327557  38.1135267  74.0535951  76.6746823  35.3632674  83.1283137
  75.8980157  35.9226594  83.1186002  77.3137386  35.8489457  83.6498007
  84.4667604  32.1459467  76.9626114  83.8241984  32.4392000  76.3165908
  83.9622532  32.0312387  77.7679310  82.1207767  35.8922640  67.6511973
  83.0325624  36.1250027  67.4759670  81.6117414  36.4759684  67.0887051
  74.9293195  38.1718127  82.6901104  75.6707880  38.7103171  82.4135927
  74.2230181  38.7984416  82.8472656  80.4048535  40.3147268  81.2873265
  80.8131891  39.8729678  80.5427898  79.6825797  39.7399895  81.5407458
  76.7579605  35.2519875  78.6606822  77.6040800  35.6759288  78.8041471
  76.6978243  34.5953499  79.3545385  80.7277350  40.8748459  75.0425554
  80.0986212  41.0394173  74.3401622  80.3403012  41.2890068  75.8136518
  84.6066582  41.8102896  72.3969918  83.9217620  42.1901798  71.8466951
  84.6910431  42.4198223  73.1301866  79.9079050  32.9124243  80.3187996
  79.6639982  33.6666304  79.7822272  80.1838981  33.2909591  81.1535243
  81.8617513  39.4562855  78.9965262  82.0734408  40.0994615  78.3199643
  81.8147261  38.6225172  78.5287192  79.4643742  32.0680676  75.9001834
  78.6028221  32.3661930  76.1918571  79.4906177  32.2851075  74.9682866
  76.2805312  40.6122867  72.3075639  76.7443657  40.8910570  71.5180262
  76.0162110  39.7106311  72.1248730  73.1729393  40.1594348  75.2455403
  73.7430750  40.5881617  74.6072887  73.7637505  39.8776933  75.9439588
  75.2174198  36.7346019  69.1165204  75.9198241  37.1867063  69.5839131
  74.8854826  36.0929838  69.7445098  73.6654559  35.3257776  83.4916414
  73.0353220  36.0074056  83.7251811  73.5590647  35.2140857  82.5469552
  68.9599532  34.9929572  74.4182338  68.1698586  35.2487100  73.9422449
  69.4510779  35.8077910  74.5234379  82.9763341  42.3334811  77.1687619
  83.7980785  41.9314998  76.8870301  82.9725744  42.2303045  78.1203735
  70.9114277  35.3574151  71.3765815  70.1145440  35.4692845  71.8949310
  70.6839869  35.6960803  70.5106705  76.7419945  41.8818854  79.3248329
  76.8064377  42.3439261  80.1606501  76.0330869  41.2516219  79.4530639
  67.2437235  35.2460062  76.8497329  67.4945273  36.1307072  77.1154905
  67.7796783  35.0664664  76.0772421  91.0669334  38.6773559  73.5172590
  90.3133043  38.1080957  73.3616595  91.2016875  38.6436224  74.4643225
  76.4567962  43.5486962  69.1927310  76.3213637  44.3938497  69.6212158
  76.9977775  43.7506239  68.4293243  72.9435302  29.6278541  85.8541665
  72.5502247  29.0744740  86.5289309  73.7601442  29.9389120  86.2448182
  69.9097360  41.0662400  69.7655235  70.4221880  41.8605650  69.9160799
  70.5620072  40.3688690  69.6988836  71.7192244  44.1828156  71.8477988
  71.8958873  45.1046121  71.6598972  72.5149078  43.8686575  72.2772368
  75.8603263  31.0436421  83.4461921  76.6012976  31.6443574  83.3666384
  76.0921186  30.3014058  82.8879964  71.0044601  36.2292788  81.7240151
  70.8898116  35.3278045  82.0247250  70.1489119  36.4756485  81.3724968
  78.0836439  44.1710528  83.3227652  77.6400293  43.3846907  83.0048556
  78.7453652  44.3589679  82.6571543  72.8423560  45.7006330  77.8488330
  73.3930985  45.5723393  77.0765324  72.0035036  46.0001219  77.4983223
  80.1817677  44.4513328  81.3509053  80.1636152  45.2722209  80.8589322
  81.1037597  44.3267403  81.5759194  76.6390731  41.9657458  82.1932561
  77.1719068  41.2045746  81.9631869  76.1104812  41.6731109  82.9356716
  79.8060426  27.0717524  77.7226203  79.4624695  27.9619165  77.6465314
  80.1739388  26.8819181  76.8595788  67.8746276  39.3951054  70.5414805
  68.7121498  39.8048062  70.3248513  68.0524544  38.4550496  70.5114999
  79.7710709  37.0626135  66.2298638  79.2557332  37.8330739  66.4687026
  79.4988017  36.3891271  66.8531700  77.3557820  31.9075835  71.2883877
  76.4999416  31.5182686  71.1089515  77.7684771  31.9867796  70.4283662
  78.8856966  29.4422179  75.6875436  78.3821762  29.4052314  74.8743242
  79.1787573  30.3514921  75.7472093  75.1299852  29.5260908  74.6941618
  75.9952849  29.3303717  74.3347508  75.1977361  29.2971260  75.6210975
  84.7444983  39.8158489  68.1651812  83.9674425  39.4769649  67.7206974
  85.4236464  39.8211112  67.4906777  79.5597012  34.9353227  68.0558419
  79.2547147  35.2499376  68.9068563  80.5127454  35.0134647  68.0985752
  78.0043444  41.0943450  69.7051373  77.4764805  40.3596210  69.3924611
  77.5030946  41.8718126  69.4591342  82.9836290  39.2892471  74.8218420
  82.3259964  39.9791732  74.9098548  83.7876689  39.6788902  75.1652406
  72.7362171  31.7563116  72.0657985  73.3105923  31.5338298  71.3331178
  73.3233154  31.8251811  72.8186586  81.7941748  37.6436843  72.8722361
  82.3073630  38.2766835  73.3744071  82.4442972  37.0438039  72.5065722
  73.0631758  33.7867577  66.0853870  72.2269071  34.1242264  66.4063145
  72.9236528  33.6516557  65.1481007  75.0384839  28.6304365  70.7933054
  74.3849251  28.3153382  70.1689669  74.9965313  28.0080106  71.5192877
  76.1496044  38.9123660  62.7086346  75.2423106  38.6812914  62.9077495
  76.6467076  38.1161280  62.8960328  79.0564123  47.6221167  65.6283033
  78.3825821  47.9252864  66.2367990  79.4429945  48.4250248  65.2788490
  78.2722579  35.1186299  75.1180702  77.3545141  35.3401246  74.9602390
  78.6882723  35.1932609  74.2592409  79.0557627  36.5177714  70.2483382
  79.8029446  37.0299112  69.9390504  79.3249217  36.1961767  71.1087776
  77.3284277  39.0136255  67.2310337  76.4195496  38.7295288  67.3282806
  77.3579361  39.4335334  66.3713643  82.5603545  42.6242845  71.0001504
  82.1065872  41.7833755  71.0566695  81.9297511  43.2604243  71.3376284
  81.5036464  33.5534831  72.2302172  80.7659221  33.0412217  72.5612414
  81.7563238  33.1135212  71.4185448  81.0036484  44.4619341  71.9351322
  81.2959458  45.0224398  71.2163688  81.5135104  44.7547902  72.6904481
  81.6048091  26.3311083  72.8243941  81.9106968  25.4708446  72.5369856
  82.3300696  26.9228703  72.6242935  67.8972448  36.7341769  71.2125539
  67.6996847  36.1411130  70.4876605  67.3419112  36.4293979  71.9301478
  75.8769171  36.6264876  73.3320132  75.9317781  35.6738712  73.2562608
  75.0660373  36.7824315  73.8161430  77.0260365  40.5544999  64.5698415
  76.5879795  39.8380858  64.1104052  77.7670806  40.7821114  64.0083507
  73.8161531  35.2441936  71.0910511  73.0029397  35.5436106  71.4975703
  74.3120525  34.8497624  71.8084993  75.9670109  45.2399692  73.0244775
  75.9246288  45.4660539  72.0953307  76.8832808  45.0063067  73.1730577
  79.4135743  35.7083760  79.9225405  79.7685131  35.9355233  80.7819870
  80.0607874  36.0402137  79.3002660  85.1433480  38.8302196  70.6274734
  85.0051378  39.0203792  69.6995923  84.7869699  39.5921579  71.0842785
  73.3075606  32.8160291  76.7071746  73.9474985  32.6749050  76.0094709
  72.4753136  32.5294804  76.3310348  85.1702859  40.8978723  75.6386005
  85.6039366  40.8054012  76.4869059  85.8834440  40.8736223  75.0006021
  74.0835910  42.1162721  72.8206738  74.8776508  41.6213042  72.6189313
  73.3727602  41.5880585  72.4574444  78.9030754  44.4980817  77.1719106
  78.9567777  45.0671753  77.9396822  78.0345536  44.6682702  76.8073143
  70.3918673  36.2605803  68.8966491  69.4616261  36.1990259  69.1136453
  70.4876145  35.7381756  68.1003132  70.3104222  32.7860616  71.4844733
  70.5711040  33.7005949  71.3753893  71.1321395  32.3185059  71.6341345
  71.7829148  34.1998373  78.6543557  72.4552201  33.9915735  78.0056206
  70.9558934  34.0020459  78.2148789  86.0318409  40.9402424  78.1718891
  86.2254299  41.8448234  78.4178166  85.9319027  40.4809843  79.0057476
  77.6854720  30.8260314  80.6709218  77.0382635  31.5250264  80.5773694
  78.4555735  31.2596458  81.0385466  81.0933518  41.0909166  83.7459771
  80.9419024  40.8619718  82.8289855  81.0838197  42.0479768  83.7591116
  77.8618854  38.6641079  78.7306038  78.7910914  38.8152239  78.5575005
  77.4409884  38.7525100  77.8754684  76.6607186  42.6891743  76.5004575
  76.5218272  42.3210528  77.3730513  75.8721782  43.2039383  76.3288533
  77.2555338  47.7900840  67.8430112  77.4307093  47.3188883  68.6575734
  76.5688126  48.4166606  68.0711373  78.2112401  42.0673346  73.8893413
  77.8762234  42.0274116  74.7851063  77.7116347  41.4018062  73.4163823
  72.1856645  37.4740976  79.4145994  72.0476443  36.7421215  80.0157533
  73.0961568  37.3849876  79.1330182  81.1471593  39.4129380  64.1630473
  80.5300763  38.6876209  64.0663525  80.6788081  40.1738741  63.8197547
  74.8138946  37.1860935  78.9029674  75.5238564  36.5454128  78.8616292
  74.7708254  37.4373830  79.8255855  82.8025724  44.1228289  81.8236253
  82.7438270  43.4387509  81.1566836  83.2045243  44.8647279  81.3716879
  73.5267880  34.1726153  80.7225313  72.9905237  33.7216892  81.3746910
  72.9384588  34.3072062  79.9795778  71.8216423  50.9390203  74.6169972
  72.0613021  51.5708727  75.2948991  70.9785620  50.5878243  74.9035331
  72.9370139  33.6314805  63.2851777  72.0599605  33.5103606  62.9214024
  73.4127892  32.8400883  63.0330666  82.8043132  42.0867873  80.0550233
  81.9169910  41.7493795  80.1776632  83.3741683  41.3550904  80.2918998
  64.4572279  38.4191965  73.3793284  65.1443319  38.1053695  72.7914299
  64.3020407  39.3233329  73.1060536  69.2607001  33.3082161  77.8078308
  69.1765190  32.7007831  77.0728718  68.4389707  33.7991179  77.8087804
  76.3344285  46.7469325  77.0211476  76.2614456  47.5524297  77.5330781
  75.8921678  46.9461291  76.1959497  76.1234065  45.9841095  70.5314298
  75.3401586  46.5262775  70.6252522  76.8226810  46.5015075  70.9308539
  79.4330715  31.7935725  73.1748503  79.9299414  31.0405687  72.8549573
  78.6617696  31.8300041  72.6091712  87.2860472  37.4976090  74.8166794
  87.2750348  38.3800806  74.4460727  86.4177852  37.1447641  74.6221331
  78.7942968  46.6456159  79.1769635  79.5070941  47.2803624  79.1045536
  78.3032997  46.7420025  78.3609636  80.5160495  40.5507412  70.7486926
  79.5816774  40.6708874  70.5791631  80.6937164  39.6479879  70.4846936
  76.0165683  33.9353108  72.9020187  75.6463471  33.3824148  73.5901093
  76.5124776  33.3311241  72.3495188  83.9033047  36.3924731  71.2836960
  84.3693499  37.2252723  71.2097263  84.3540547  35.9269713  71.9882219
  73.8454882  44.3950603  79.9975205  74.5464341  45.0287086  80.1504600
  73.3749997  44.7365334  79.2370845  81.9709278  42.7368552  68.2823112
  82.2469122  42.6225147  69.1916987  81.1013777  42.3386037  68.2435286
  81.8749709  28.7605318  75.3227862  80.9612789  28.9909545  75.4910069
  82.3042811  28.8443762  76.1741894  81.6456168  36.9495210  77.8227756
  80.9927618  37.1971118  77.1680209  82.0236548  36.1359348  77.4890233
  78.6063342  46.9854903  71.9255926  78.7885736  46.1676559  72.3883678
  79.4296328  47.2022595  71.4880816  78.9405507  45.9123088  69.1870975
  79.4693274  45.4015543  68.5741137  79.2033727  45.5965619  70.0516508
  77.6943741  37.6915021  84.3093793  77.0184378  37.5909150  84.9796168
  78.5171375  37.5354235  84.7729790  69.4422600  43.9286958  76.9306308
  70.0276037  43.1830646  77.0634212  69.2447439  44.2390914  77.8142972
  72.2961255  46.9638205  71.9468751  71.6271631  47.4484333  71.4632791
  72.1574125  47.2107425  72.8612129  64.0340255  36.4992558  75.6510751
  64.0724354  35.9656149  76.4447869  63.5280548  35.9727763  75.0321728
  76.4366524  48.9981949  78.5451409  76.9884832  49.1613570  79.3100494
  76.7772717  49.5886386  77.8731434  71.4131017  31.3457098  79.1473294
  71.4772344  32.2071929  78.7350691  71.3498137  30.7331100  78.4145652
  70.8883290  33.4180231  82.7946328  71.5155328  33.0357308  83.4083852
  70.0311208  33.1994433  83.1602020  81.2877398  43.8243206  84.4000063
  81.8317302  44.4373164  83.9055018  80.7064243  44.3822784  84.9167076
  67.6648832  35.2256660  68.7264683  67.9602273  34.3167338  68.6731736
  66.7636868  35.2044399  68.4045685  79.5734911  46.9463924  75.5315091
  79.4486051  46.1453664  75.0226037  80.2314002  47.4410117  75.0429061
  71.1943079  33.3012657  74.7092231  70.4729665  33.9148624  74.5699705
  71.9836335  33.8370421  74.6308877  81.6369820  44.7472944  77.1594641
  80.6900155  44.6278295  77.0872968  81.9852593  43.8595442  77.2420903
  73.9969393  30.6367083  80.9832883  74.5203795  30.8829380  81.7459192
  73.7781726  31.4687118  80.5636020  69.3936674  32.9070758  68.8504008
  69.0649380  32.0268137  68.6679114  69.7476045  32.8518426  69.7380397
  78.6416253  44.5425660  73.3598993  78.4941215  43.6142368  73.5406563
  79.4669746  44.5645751  72.8756069  72.5078497  33.1943727  69.2179486
  72.8474570  33.7229649  68.4958094  72.9550618  33.5324134  69.9938052
  82.2450375  45.3654219  74.4463866  83.1696922  45.1597080  74.3088317
  82.0765678  45.1170620  75.3553208  75.2021938  31.5780778  78.6682554
  74.8618758  30.7788591  79.0703233  74.4960944  31.8782489  78.0959387
  75.8538410  28.6630091  77.1209877  76.6764479  28.1890569  76.9988767
  76.0976473  29.4420574  77.6208563  74.4946644  31.6918349  67.4172778
  75.2155007  32.0699602  66.9136495  73.8711948  32.4107226  67.5207756
  78.6377767  32.3963498  68.3531111  78.8541382  33.2788136  68.0519939
  78.1571834  32.0049711  67.6236753  73.3776989  35.3549211  74.9301855
  73.2321569  35.6689514  75.8226137  72.9002192  35.9734112  74.3772754
  75.2373371  32.3451759  74.9782745  75.2234940  31.4492853  74.6415043
  75.9545800  32.3522423  75.6121031  77.0899502  32.7789099  77.0235872
  76.8317280  33.7006170  77.0220203  76.5584542  32.3819534  77.7136336
  82.0345691  45.8839887  69.8025958  82.2082568  45.3186309  69.0499810
  82.5274582  46.6840781  69.6205448  67.8522651  37.8954556  77.8689516
  67.3076119  38.6714364  78.0009791  68.7302001  38.2425360  77.7108638
  74.6410267  31.2266140  70.2470315  74.7626179  30.2982786  70.4461202
  74.3512310  31.2404825  69.3348630  77.5101458  28.9121050  73.3837035
  77.5323155  28.9760383  72.4289014  77.9269517  28.0725559  73.5777541
  87.8885082  38.6476310  71.4216257  88.3316228  37.8983635  71.0235381
  87.0111592  38.6386446  71.0389989  83.0220863  45.2006651  66.9022856
  83.7171768  45.8213344  67.1210170  83.3644014  44.3502002  67.1775234
  68.6388673  37.0224452  80.7619673  67.8970409  37.1707087  81.3484304
  68.3181417  37.2832718  79.8986423  84.9212286  42.6506357  68.4310187
  85.4463611  42.9893629  67.7059507  84.8334639  41.7153372  68.2473321
  76.5832335  46.5640430  80.5600063  76.8919462  46.3189577  81.4322763
  77.3807817  46.7687069  80.0718933  76.6052947  48.7178340  72.7905440
  76.1657938  48.2254718  73.4838297  77.3561064  48.1751307  72.5497515
  69.0845286  44.9089881  72.7930068  69.9103306  44.6093653  72.4128711
  68.7339338  44.1397503  73.2419857  74.0526819  44.2616349  74.8627741
  73.4306829  43.5987054  74.5629969  74.7231686  44.2877481  74.1801389
  67.2853891  42.8276207  73.7519001  66.4485800  42.3998381  73.5703003
  67.2577537  43.0208650  74.6889793  74.1251347  32.7398137  84.4560248
  74.1739502  33.6160260  84.0738017  74.6673861  32.1975530  83.8831891
  84.6106193  43.2839260  83.7361385  83.8201736  43.2663399  83.1965884
  84.3739547  43.8227554  84.4910421  84.7304068  40.1331727  81.0494113
  84.7802073  39.9681734  81.9909636  84.6217991  39.2658986  80.6591994
  73.6140326  42.8120272  68.3386202  73.7628447  43.4955737  67.6852875
  74.4206770  42.7925362  68.8535658  82.0207830  36.1162655  82.3653420
  82.9217693  35.9769119  82.0737418  82.0955805  36.2817109  83.3051597
  76.3550635  33.4929509  81.2106606  75.4853945  33.7863075  80.9389195
  76.5910116  34.0769954  81.9313870  86.2322264  42.5528668  81.2936135
  85.9407073  42.9158649  82.1299596  85.6194396  41.8395676  81.1149467
  87.4317947  40.1181548  73.8138705  88.2664838  40.5571352  73.9776265
  87.5677076  39.6420201  72.9946951  84.4809453  37.6761283  79.7616193
  84.9563574  37.8688929  78.9535044  83.5575018  37.7320468  79.5159576
  71.3692959  38.8385450  69.3447271  71.1239001  37.9347780  69.5427481
  71.5388874  38.8402600  68.4026749  79.0589669  29.7109126  78.7272027
  79.5771613  30.4470153  78.4018515  78.7044802  30.0173120  79.5618786
  70.6388607  34.5713807  66.8433432  69.9457852  34.6458162  66.1873468
  70.3940359  33.8074151  67.3654949  79.3102263  26.1309409  74.2472923
  79.5904017  25.4632598  74.8733350  80.0952870  26.3238504  73.7347587
  77.1135732  45.3068403  65.8097949  76.5409699  45.9258590  65.3568421
  77.6868525  45.8567764  66.3437871  83.1811122  34.5527043  77.9944498
  84.1328545  34.6525140  78.0156722  83.0114572  33.7605311  78.5042583
  81.2025501  31.6382626  78.1803899  80.6075433  31.9187639  77.4850388
  80.9175198  32.1276527  78.9520640  80.3332992  45.5905553  66.9406532
  81.2663665  45.5251114  67.1439407  80.2456204  46.4261820  66.4821064
  82.9621008  44.9071423  63.9010479  82.8834640  44.5731287  64.7946237
  83.7830675  45.3993191  63.9001952  85.6599199  37.7733162  77.1086798
  85.6275520  36.8349163  77.2946482  86.2699823  37.8517199  76.3752623
  77.4982530  36.6429215  63.1514002  78.4441635  36.5135424  63.2202420
  77.1196775  35.9043877  63.6283430  85.8093688  34.5644206  77.1545081
  85.2932737  33.7802663  76.9675010  86.6933636  34.2362922  77.3191601
  83.4704415  28.3085221  73.1140894  83.2729236  28.0000310  73.9984226
  84.0804120  29.0346860  73.2438824  91.4775749  38.8349169  76.2492835
  92.2079138  38.5734457  76.8100538  90.8682695  38.0977891  76.2894903
  89.5591046  36.9757032  76.8467286  88.8324210  36.8412997  76.2383777
  89.1438333  37.2833860  77.6524004  77.3821223  40.6946962  84.6114659
  78.3024232  40.8725561  84.8054705  77.3470806  39.7503007  84.4594358
  75.6825447  34.5679192  63.0868887  74.7756903  34.2712305  63.1631601
  75.9601428  34.2709010  62.2203173  66.6003388  35.8885555  73.5367934
  66.2806172  35.0350863  73.2442308  66.0536816  36.1034133  74.2925901
  70.3783295  38.6047996  77.2537440  70.5969305  39.5365104  77.2725474
  70.7909069  38.2455971  78.0392244  77.2987513  29.1116082  69.2413128
  76.4888242  28.7663166  69.6168375  77.9871930  28.8023625  69.8300740
  79.2278061  28.1894128  70.8637425  79.7809100  28.6089582  71.5227448
  79.4648148  27.2629876  70.9060381  75.2511161  34.1781202  86.6440189
  75.1507888  35.1275559  86.5752280  75.0332703  33.8499441  85.7716259
  74.4524232  31.4266127  63.2280866  75.3143396  31.7521025  63.4876684
  74.6374576  30.6397623  62.7153932  66.4691648  39.5088467  75.5061055
  65.7755119  39.0942419  74.9931010  67.2164639  39.5509003  74.9094474
  82.6056869  30.2994653  70.3716089  82.0255538  30.9579458  69.9894142
  82.3392801  29.4771998  69.9603507  81.0560435  29.6999711  72.5737410
  81.5560213  29.8116246  71.7651729  81.6996043  29.3960764  73.2138218
  75.1142431  37.6078341  85.4605251  74.6309512  38.4078701  85.6669140
  75.2003370  37.6186286  84.5072695  68.3828390  39.4406720  73.3827070
  68.3599078  39.5394408  72.4308953  68.6929027  40.2871871  73.7044236
  71.0415768  41.4982876  77.4973684  71.9959022  41.4666818  77.4303616
  70.8428292  41.0373499  78.3123910  71.6315150  40.0683992  80.0644482
  72.4508039  40.5628070  80.0879319  71.9051958  39.1515960  80.0362050
  81.3881747  32.4594744  69.4272438  80.5007602  32.7444394  69.2092632
  81.8035736  32.2988507  68.5799715  84.7396283  32.4841265  73.1426777
  85.5156673  32.9737717  73.4151394  84.0144417  32.9099319  73.5998646
  87.1768841  33.1968884  74.2000717  87.7713332  32.9564620  73.4894026
  87.2495425  32.4776015  74.8274254  69.3965997  47.0402495  74.5143882
  69.2620465  46.2802896  73.9481880  68.9798059  47.7643395  74.0472671
  80.5324960  42.2239419  63.5220458  81.2360810  42.4289421  64.1378113
  79.8087609  42.7916180  63.7869541  81.3622770  37.9749280  69.6422728
  81.3057972  38.4317831  68.8030360  81.9151113  37.2139964  69.4645571
  85.1727576  33.7639012  70.4672847  84.9164510  33.3635647  71.2981055
  84.5480444  34.4782806  70.3422986  89.4839914  36.5035085  72.9744139
  88.9239472  36.5728274  73.7475701  88.8783417  36.3276070  72.2543635
  72.5535123  47.9371812  74.7262325  72.4367507  48.8817245  74.6241015
  71.7327569  47.6345374  75.1148124  82.4411657  42.6621948  65.5718918
  83.2757261  42.2303146  65.3896392  82.2796000  42.4903961  66.4995812
  82.0957550  39.1654061  66.9375257  82.0406353  38.9998332  65.9963701
  81.4703605  39.8730094  67.0937447  66.8850065  34.4022125  80.7636679
  67.5308928  33.8921079  81.2523904  66.6767216  35.1390807  81.3380104
  79.4103457  41.4702973  86.2628820  80.2794616  41.6443625  85.9015455
  78.9310208  42.2897390  86.1404549  75.4053675  28.6662170  66.5160575
  75.3932345  29.6104010  66.6728846  76.2977097  28.4832315  66.2220037
  73.5789637  48.5900074  77.9418253  74.4816884  48.6223684  78.2584748
  73.3527007  47.6600525  77.9564589  75.3343239  47.3431060  74.6028332
  74.3838870  47.3432922  74.4892704  75.6375725  46.5963795  74.0864367
  79.2205795  25.2604947  70.7706512  78.4538190  24.7063433  70.9163194
  79.6316500  25.3326815  71.6320664  71.2247556  31.5489742  84.8611693
  72.0879017  31.1926547  85.0715018  70.6512966  31.2103637  85.5487098
  91.0695933  53.1791599  75.6674094  91.7074343  53.0598346  74.9637434
  90.9516775  54.1272443  75.7262047  87.8785639  53.1319027  75.6035619
  87.5404150  53.0160092  74.7156154  88.7475407  52.7310192  75.5836625
  83.7372455  54.9854503  71.5932510  83.1737320  54.8944440  70.8248798
  83.6224850  54.1654408  72.0735003  88.3605422  54.2853879  81.5621825
  88.3494063  53.8906677  80.6902328  88.5226061  53.5519951  82.1555596
  81.2836886  56.4805695  74.4316730  82.0758178  56.1396520  74.0163030
  81.5233537  56.5900670  75.3518884  89.3172013  58.6525471  66.9046975
  88.6659993  59.2379551  66.5180989  90.1116376  59.1831666  66.9642012
  83.2427640  55.7414608  67.3034109  84.0158516  55.1943595  67.1646985
  83.5953039  56.6058858  67.5148571  85.0812683  57.0690990  80.5101009
  84.7902549  57.9736621  80.3947675  85.7169667  57.1107518  81.2245078
  86.0068890  54.4467839  77.1002368  86.6032462  54.2223861  76.3859331
  86.0643861  53.7052584  77.7027816  85.5793918  51.9007274  64.9352559
  85.8319439  51.3788796  64.1736022  84.6418477  51.7373420  65.0379243
  90.6237201  50.9043053  72.7427302  91.4100290  50.4862476  72.3917719
  90.8875905  51.8089145  72.9108951  90.7947278  56.3415903  67.4415959
  90.1593111  56.4150530  68.1536864  90.4644685  56.9309502  66.7635038
  96.0245628  50.8418286  73.6460281  96.7570800  50.2717503  73.8798110
  95.2684984  50.4539886  74.0866787  85.2990207  53.8035380  67.1376934
  85.1826465  53.1280284  67.8058018  85.4092467  53.3167754  66.3209087
  87.6421748  53.2645527  70.8423623  87.2779955  52.7376148  71.5536545
  88.4988864  52.8743996  70.6690109  93.5471049  44.5539860  78.1054890
  93.2154373  45.4235271  77.8816105  92.9516662  44.2376144  78.7848920
  87.2827235  48.2935427  65.8384972  87.4501637  49.1615664  66.2055443
  87.0924404  48.4562709  64.9146261  90.0402568  56.7552406  77.5050802
  89.7403291  57.6577445  77.3966610  89.6953628  56.4884589  78.3571955
  83.4915050  53.2066203  73.5387507  82.5665546  53.0742417  73.7465198
  83.7399463  53.9860422  74.0357449  87.2616456  50.7493085  66.8231639
  87.1416081  51.1950135  67.6617119  86.5669044  51.0978402  66.2645177
  80.8523861  52.8499476  74.3731296  80.9816242  53.1033955  75.2870707
  80.1721312  53.4427184  74.0535951  85.0223348  63.5196726  70.4721770
  84.9447378  64.4704551  70.5510251  84.4184991  63.1742599  71.1296696
  87.5140578  50.6924592  83.1283137  86.7373912  51.2518512  83.1186002
  88.1531141  51.1781375  83.6498007  95.3061358  47.4751385  76.9626114
  94.6635738  47.7683918  76.3165908  94.8016287  47.3604305  77.7679310
  92.9601522  51.2214558  67.6511973  93.8719378  51.4541945  67.4759670
  92.4511169  51.8051602  67.0887051  85.7686950  53.5010045  82.6901104
  86.5101634  54.0395089  82.4135927  85.0623935  54.1276334  82.8472656
  91.2442290  55.6439186  81.2873265  91.6525646  55.2021596  80.5427898
  90.5219551  55.0691813  81.5407458  87.5973360  50.5811792  78.6606822
  88.4434555  51.0051206  78.8041471  87.5371997  49.9245417  79.3545385
  91.5671104  56.2040376  75.0425554  90.9379967  56.3686090  74.3401622
  91.1796766  56.6181986  75.8136518  90.7472805  48.2416161  80.3187996
  90.5033737  48.9958221  79.7822272  91.0232735  48.6201508  81.1535243
  92.7011268  54.7854773  78.9965262  92.9128163  55.4286533  78.3199643
  92.6541016  53.9517090  78.5287192  90.3037497  47.3972594  75.9001834
  89.4421976  47.6953847  76.1918571  90.3299931  47.6142993  74.9682866
  87.1199066  55.9414784  72.3075639  87.5837412  56.2202487  71.5180262
  86.8555864  55.0398229  72.1248730  84.0123147  55.4886266  75.2455403
  84.5824504  55.9173534  74.6072887  84.6031259  55.2068851  75.9439588
  86.0567952  52.0637937  69.1165204  86.7591995  52.5158980  69.5839131
  85.7248581  51.4221756  69.7445098  84.5048314  50.6549693  83.4916414
  83.8746974  51.3365974  83.7251811  84.3984402  50.5432775  82.5469552
  79.7993286  50.3221489  74.4182338  79.0092340  50.5779018  73.9422449
  80.2904533  51.1369827  74.5234379  93.8157096  57.6626729  77.1687619
  94.6374539  57.2606916  76.8870301  93.8119499  57.5594963  78.1203735
  81.7508031  50.6866069  71.3765815  80.9539195  50.7984763  71.8949310
  81.5233624  51.0252721  70.5106705  87.5813699  57.2110772  79.3248329
  87.6458132  57.6731179  80.1606501  86.8724623  56.5808137  79.4530639
  78.0830989  50.5751980  76.8497329  78.3339028  51.4598990  77.1154905
  78.6190537  50.3956581  76.0772421 101.9063089  54.0065477  73.5172590
 101.1526797  53.4372875  73.3616595 102.0410630  53.9728142  74.4643225
  87.2961717  58.8778879  69.1927310  87.1607392  59.7230415  69.6212158
  87.8371529  59.0798157  68.4293243  83.7829056  44.9570459  85.8541665
  83.3896002  44.4036658  86.5289309  84.5995197  45.2681038  86.2448182
  82.5585999  59.5120074  71.8477988  82.7352627  60.4338038  71.6598972
  83.3542832  59.1978493  72.2772368  86.6997017  46.3728338  83.4461921
  87.4406731  46.9735491  83.3666384  86.9314940  45.6305976  82.8879964
  81.8438355  51.5584706  81.7240151  81.7291871  50.6569963  82.0247250
  80.9882873  51.8048402  81.3724968  88.9230193  59.5002446  83.3227652
  88.4794047  58.7138824  83.0048556  89.5847407  59.6881596  82.6571543
  83.6817314  61.0298247  77.8488330  84.2324739  60.9015311  77.0765324
  82.8428790  61.3293136  77.4983223  87.4784485  57.2949375  82.1932561
  88.0112822  56.5337663  81.9631869  86.9498566  57.0023027  82.9356716
  90.6454180  42.4009441  77.7226203  90.3018450  43.2911083  77.6465314
  91.0133143  42.2111099  76.8595788  90.6104463  52.3918052  66.2298638
  90.0951086  53.1622657  66.4687026  90.3381772  51.7183188  66.8531700
  88.1951574  47.2367753  71.2883877  87.3393170  46.8474603  71.1089515
  88.6078526  47.3159714  70.4283662  89.7250721  44.7714096  75.6875436
  89.2215516  44.7344232  74.8743242  90.0181328  45.6806839  75.7472093
  85.9693607  44.8552826  74.6941618  86.8346603  44.6595635  74.3347508
  86.0371116  44.6263178  75.6210975  90.3990766  50.2645144  68.0558419
  90.0940902  50.5791294  68.9068563  91.3521208  50.3426564  68.0985752
  88.8437198  56.4235368  69.7051373  88.3158560  55.6888127  69.3924611
  88.3424701  57.2010044  69.4591342  83.5755926  47.0855034  72.0657985
  84.1499678  46.8630215  71.3331178  84.1626908  47.1543728  72.8186586
  92.6335503  52.9728761  72.8722361  93.1467385  53.6058753  73.3744071
  93.2836727  52.3729956  72.5065722  83.9025513  49.1159495  66.0853870
  83.0662825  49.4534182  66.4063145  83.7630282  48.9808475  65.1481007
  85.8778593  43.9596283  70.7933054  85.2243006  43.6445300  70.1689669
  85.8359068  43.3372023  71.5192877  86.9889798  54.2415578  62.7086346
  86.0816860  54.0104831  62.9077495  87.4860830  53.4453197  62.8960328
  89.8957877  62.9513085  65.6283033  89.2219576  63.2544782  66.2367990
  90.2823699  63.7542166  65.2788490  89.1116334  50.4478216  75.1180702
  88.1938895  50.6693163  74.9602390  89.5276477  50.5224527  74.2592409
  89.8951382  51.8469632  70.2483382  90.6423200  52.3591029  69.9390504
  90.1642971  51.5253685  71.1087776  88.1678032  54.3428173  67.2310337
  87.2589251  54.0587206  67.3282806  88.1973115  54.7627251  66.3713643
  93.3997299  57.9534762  71.0001504  92.9459626  57.1125672  71.0566695
  92.7691266  58.5896161  71.3376284  92.3430219  48.8826748  72.2302172
  91.6052975  48.3704135  72.5612414  92.5956992  48.4427130  71.4185448
  91.8430238  59.7911259  71.9351322  92.1353213  60.3516316  71.2163688
  92.3528859  60.0839820  72.6904481  92.4441846  41.6603000  72.8243941
  92.7500723  40.8000364  72.5369856  93.1694451  42.2520621  72.6242935
  78.7366202  52.0633687  71.2125539  78.5390602  51.4703048  70.4876605
  78.1812866  51.7585897  71.9301478  86.7162926  51.9556793  73.3320132
  86.7711536  51.0030630  73.2562608  85.9054128  52.1116233  73.8161430
  87.8654119  55.8836917  64.5698415  87.4273549  55.1672775  64.1104052
  88.6064560  56.1113031  64.0083507  84.6555286  50.5733853  71.0910511
  83.8423151  50.8728024  71.4975703  85.1514280  50.1789542  71.8084993
  86.8063864  60.5691610  73.0244775  86.7640042  60.7952456  72.0953307
  87.7226562  60.3354985  73.1730577  90.2529497  51.0375678  79.9225405
  90.6078885  51.2647151  80.7819870  90.9001629  51.3694054  79.3002660
  95.9827234  54.1594114  70.6274734  95.8445133  54.3495710  69.6995923
  95.6263453  54.9213496  71.0842785  84.1469360  48.1452209  76.7071746
  84.7868740  48.0040968  76.0094709  83.3146891  47.8586722  76.3310348
  96.0096614  56.2270641  75.6386005  96.4433121  56.1345930  76.4869059
  96.7228195  56.2028141  75.0006021  84.9229664  57.4454639  72.8206738
  85.7170263  56.9504959  72.6189313  84.2121357  56.9172502  72.4574444
  81.2312428  51.5897721  68.8966491  80.3010016  51.5282176  69.1136453
  81.3269900  51.0673674  68.1003132  81.1497977  48.1152534  71.4844733
  81.4104794  49.0297867  71.3753893  81.9715149  47.6476976  71.6341345
  82.6222902  49.5290291  78.6543557  83.2945956  49.3207653  78.0056206
  81.7952689  49.3312377  78.2148789  96.8712163  56.2694341  78.1718891
  97.0648054  57.1740152  78.4178166  96.7712782  55.8101760  79.0057476
  88.5248474  46.1552232  80.6709218  87.8776389  46.8542181  80.5773694
  89.2949490  46.5888376  81.0385466  91.9327272  56.4201084  83.7459771
  91.7812779  56.1911636  82.8289855  91.9231952  57.3771685  83.7591116
  88.7012609  53.9932997  78.7306038  89.6304669  54.1444156  78.5575005
  88.2803639  54.0817017  77.8754684  87.5000940  58.0183661  76.5004575
  87.3612026  57.6502446  77.3730513  86.7115537  58.5331301  76.3288533
  88.0949092  63.1192758  67.8430112  88.2700848  62.6480801  68.6575734
  87.4081880  63.7458524  68.0711373  89.0506155  57.3965264  73.8893413
  88.7155988  57.3566034  74.7851063  88.5510101  56.7309980  73.4163823
  83.0250399  52.8032894  79.4145994  82.8870197  52.0713133  80.0157533
  83.9355323  52.7141794  79.1330182  91.9865347  54.7421298  64.1630473
  91.3694518  54.0168126  64.0663525  91.5181836  55.5030658  63.8197547
  85.6532700  52.5152853  78.9029674  86.3632319  51.8746045  78.8616292
  85.6102008  52.7665748  79.8255855  93.6419479  59.4520207  81.8236253
  93.5832025  58.7679427  81.1566836  94.0438997  60.1939197  81.3716879
  84.3661634  49.5018071  80.7225313  83.8298991  49.0508810  81.3746910
  83.7778343  49.6363980  79.9795778  83.7763893  48.9606722  63.2851777
  82.8993359  48.8395523  62.9214024  84.2521646  48.1692801  63.0330666
  93.6436886  57.4159790  80.0550233  92.7563665  57.0785712  80.1776632
  94.2135437  56.6842822  80.2918998  80.1000755  48.6374079  77.8078308
  80.0158944  48.0299748  77.0728718  79.2783462  49.1283097  77.8087804
  87.1738039  62.0761243  77.0211476  87.1008211  62.8816214  77.5330781
  86.7315433  62.2753209  76.1959497  86.9627819  61.3133013  70.5314298
  86.1795341  61.8554693  70.6252522  87.6620564  61.8306992  70.9308539
  90.2724469  47.1227642  73.1748503  90.7693169  46.3697605  72.8549573
  89.5011451  47.1591959  72.6091712  98.1254227  52.8268008  74.8166794
  98.1144103  53.7092723  74.4460727  97.2571606  52.4739559  74.6221331
  89.6336723  61.9748077  79.1769635  90.3464695  62.6095542  79.1045536
  89.1426752  62.0711943  78.3609636  86.8559438  49.2645025  72.9020187
  86.4857225  48.7116066  73.5901093  87.3518530  48.6603159  72.3495188
  84.6848636  59.7242520  79.9975205  85.3858096  60.3579003  80.1504600
  84.2143751  60.0657252  79.2370845  92.8103032  58.0660470  68.2823112
  93.0862876  57.9517065  69.1916987  91.9407531  57.6677955  68.2435286
  92.7143464  44.0897236  75.3227862  91.8006544  44.3201463  75.4910069
  93.1436565  44.1735680  76.1741894  92.4849922  52.2787128  77.8227756
  91.8321373  52.5263035  77.1680209  92.8630302  51.4651266  77.4890233
  89.4457096  62.3146821  71.9255926  89.6279491  61.4968477  72.3883678
  90.2690082  62.5314513  71.4880816  89.7799262  61.2415006  69.1870975
  90.3087028  60.7307461  68.5741137  90.0427481  60.9257536  70.0516508
  88.5337495  53.0206939  84.3093793  87.8578132  52.9201068  84.9796168
  89.3565129  52.8646153  84.7729790  80.2816355  59.2578875  76.9306308
  80.8669791  58.5122563  77.0634212  80.0841193  59.5682832  77.8142972
  83.1355010  62.2930123  71.9468751  82.4665385  62.7776250  71.4632791
  82.9967879  62.5399343  72.8612129  74.8734009  51.8284476  75.6510751
  74.9118109  51.2948066  76.4447869  74.3674302  51.3019681  75.0321728
  87.2760278  64.3273866  78.5451409  87.8278586  64.4905488  79.3100494
  87.6166472  64.9178304  77.8731434  82.2524772  46.6749016  79.1473294
  82.3166098  47.5363847  78.7350691  82.1891892  46.0623018  78.4145652
  81.7277044  48.7472149  82.7946328  82.3549083  48.3649226  83.4083852
  80.8704963  48.5286351  83.1602020  92.1271153  59.1535124  84.4000063
  92.6711057  59.7665082  83.9055018  91.5457998  59.7114702  84.9167076
  78.5042587  50.5548578  68.7264683  78.7996028  49.6459256  68.6731736
  77.6030623  50.5336317  68.4045685  90.4128666  62.2755842  75.5315091
  90.2879805  61.4745582  75.0226037  91.0707757  62.7702035  75.0429061
  82.0336834  48.6304574  74.7092231  81.3123420  49.2440542  74.5699705
  82.8230090  49.1662339  74.6308877  92.4763574  60.0764862  77.1594641
  91.5293910  59.9570213  77.0872968  92.8246347  59.1887360  77.2420903
  84.8363147  45.9659001  80.9832883  85.3597549  46.2121297  81.7459192
  84.6175481  46.7979036  80.5636020  80.2330428  48.2362675  68.8504008
  79.9043135  47.3560054  68.6679114  80.5869799  48.1810344  69.7380397
  89.4810007  59.8717578  73.3598993  89.3334970  58.9434285  73.5406563
  90.3063501  59.8937669  72.8756069  83.3472252  48.5235645  69.2179486
  83.6868324  49.0521566  68.4958094  83.7944372  48.8616051  69.9938052
  86.0415692  46.9072696  78.6682554  85.7012513  46.1080509  79.0703233
  85.3354699  47.2074407  78.0959387  86.6932164  43.9922008  77.1209877
  87.5158234  43.5182486  76.9988767  86.9370228  44.7712492  77.6208563
  85.3340399  47.0210267  67.4172778  86.0548761  47.3991520  66.9136495
  84.7105703  47.7399144  67.5207756  84.2170743  50.6841129  74.9301855
  84.0715324  50.9981432  75.8226137  83.7395947  51.3026029  74.3772754
  86.0767126  47.6743677  74.9782745  86.0628695  46.7784770  74.6415043
  86.7939554  47.6814341  75.6121031  87.9293257  48.1081017  77.0235872
  87.6711034  49.0298088  77.0220203  87.3978297  47.7111452  77.7136336
  92.8739445  61.2131804  69.8025958  93.0476323  60.6478227  69.0499810
  93.3668337  62.0132699  69.6205448  78.6916405  53.2246473  77.8689516
  78.1469873  54.0006281  78.0009791  79.5695755  53.5717278  77.7108638
  85.4804022  46.5558057  70.2470315  85.6019933  45.6274703  70.4461202
  85.1906064  46.5696743  69.3348630  88.3495212  44.2412968  73.3837035
  88.3716909  44.3052301  72.4289014  88.7663271  43.4017476  73.5777541
  98.7278837  53.9768227  71.4216257  99.1709983  53.2275552  71.0235381
  97.8505347  53.9678364  71.0389989  93.8614618  60.5298569  66.9022856
  94.5565522  61.1505261  67.1210170  94.2037768  59.6793920  67.1775234
  79.4782427  52.3516370  80.7619673  78.7364163  52.4999005  81.3484304
  79.1575171  52.6124635  79.8986423  87.4226090  61.8932348  80.5600063
  87.7313216  61.6481495  81.4322763  88.2201572  62.0978986  80.0718933
  87.4446702  64.0470257  72.7905440  87.0051692  63.5546636  73.4838297
  88.1954819  63.5043225  72.5497515  79.9239041  60.2381798  72.7930068
  80.7497061  59.9385570  72.4128711  79.5733093  59.4689421  73.2419857
  84.8920574  59.5908267  74.8627741  84.2700583  58.9278972  74.5629969
  85.5625441  59.6169398  74.1801389  78.1247646  58.1568125  73.7519001
  77.2879554  57.7290299  73.5703003  78.0971291  58.3500568  74.6889793
  84.9645101  48.0690055  84.4560248  85.0133257  48.9452177  84.0738017
  85.5067616  47.5267448  83.8831891  95.4499947  58.6131178  83.7361385
  94.6595491  58.5955317  83.1965884  95.2133302  59.1519472  84.4910421
  95.5697822  55.4623644  81.0494113  95.6195827  55.2973652  81.9909636
  95.4611745  54.5950903  80.6591994  84.4534081  58.1412190  68.3386202
  84.6022201  58.8247654  67.6852875  85.2600524  58.1217280  68.8535658
  92.8601584  51.4454572  82.3653420  93.7611447  51.3061037  82.0737418
  92.9349559  51.6109027  83.3051597  87.1944390  48.8221427  81.2106606
  86.3247699  49.1154993  80.9389195  87.4303870  49.4061872  81.9313870
  97.0716019  57.8820586  81.2936135  96.7800827  58.2450566  82.1299596
  96.4588150  57.1687594  81.1149467  98.2711701  55.4473466  73.8138705
  99.1058593  55.8863270  73.9776265  98.4070830  54.9712119  72.9946951
  95.3203207  53.0053200  79.7616193  95.7957329  53.1980847  78.9535044
  94.3968773  53.0612386  79.5159576  82.2086714  54.1677368  69.3447271
  81.9632756  53.2639698  69.5427481  82.3782628  54.1694518  68.4026749
  89.8983424  45.0401044  78.7272027  90.4165368  45.7762071  78.4018515
  89.5438556  45.3465037  79.5618786  81.4782361  49.9005725  66.8433432
  80.7851606  49.9750080  66.1873468  81.2334113  49.1366069  67.3654949
  90.1496018  41.4601326  74.2472923  90.4297772  40.7924516  74.8733350
  90.9346625  41.6530422  73.7347587  87.9529486  60.6360320  65.8097949
  87.3803453  61.2550507  65.3568421  88.5262280  61.1859682  66.3437871
  94.0204876  49.8818960  77.9944498  94.9722299  49.9817058  78.0156722
  93.8508327  49.0897229  78.5042583  92.0419256  46.9674544  78.1803899
  91.4469188  47.2479556  77.4850388  91.7568952  47.4568445  78.9520640
  91.1726746  60.9197470  66.9406532  92.1057419  60.8543032  67.1439407
  91.0849959  61.7553737  66.4821064  93.8014763  60.2363341  63.9010479
  93.7228394  59.9023204  64.7946237  94.6224430  60.7285109  63.9001952
  96.4992954  53.1025080  77.1086798  96.4669274  52.1641081  77.2946482
  97.1093578  53.1809117  76.3752623  88.3376285  51.9721133  63.1514002
  89.2835390  51.8427341  63.2202420  87.9590530  51.2335795  63.6283430
  96.6487442  49.8936124  77.1545081  96.1326491  49.1094580  76.9675010
  97.5327391  49.5654840  77.3191601  94.3098169  43.6377139  73.1140894
  94.1122990  43.3292227  73.9984226  94.9197875  44.3638778  73.2438824
 102.3169504  54.1641087  76.2492835 103.0472892  53.9026375  76.8100538
 101.7076449  53.4269809  76.2894903 100.3984801  52.3048950  76.8467286
  99.6717965  52.1704914  76.2383777  99.9832088  52.6125778  77.6524004
  88.2214977  56.0238879  84.6114659  89.1417987  56.2017478  84.8054705
  88.1864560  55.0794925  84.4594358  86.5219202  49.8971109  63.0868887
  85.6150657  49.6004222  63.1631601  86.7995183  49.6000928  62.2203173
  77.4397142  51.2177473  73.5367934  77.1199927  50.3642781  73.2442308
  76.8930571  51.4326051  74.2925901  81.2177050  53.9339914  77.2537440
  81.4363060  54.8657022  77.2725474  81.6302824  53.5747888  78.0392244
  88.1381268  44.4407999  69.2413128  87.3281996  44.0955084  69.6168375
  88.8265685  44.1315543  69.8300740  90.0671816  43.5186046  70.8637425
  90.6202855  43.9381499  71.5227448  90.3041902  42.5921794  70.9060381
  86.0904915  49.5073120  86.6440189  85.9901642  50.4567477  86.5752280
  85.8726457  49.1791359  85.7716259  85.2917987  46.7558045  63.2280866
  86.1537151  47.0812943  63.4876684  85.4768331  45.9689541  62.7153932
  77.3085402  54.8380384  75.5061055  76.6148874  54.4234337  74.9931010
  78.0558393  54.8800921  74.9094474  93.4450623  45.6286571  70.3716089
  92.8649292  46.2871375  69.9894142  93.1786556  44.8063916  69.9603507
  91.8954189  45.0291629  72.5737410  92.3953968  45.1408163  71.7651729
  92.5389797  44.7252682  73.2138218  85.9536185  52.9370258  85.4605251
  85.4703267  53.7370619  85.6669140  86.0397124  52.9478203  84.5072695
  79.2222145  54.7698638  73.3827070  79.1992833  54.8686325  72.4308953
  79.5322781  55.6163789  73.7044236  81.8809523  56.8274793  77.4973684
  82.8352776  56.7958736  77.4303616  81.6822046  56.3665417  78.3123910
  82.4708905  55.3975909  80.0644482  83.2901794  55.8919988  80.0879319
  82.7445713  54.4807877  80.0362050  98.0162596  48.5260802  74.2000717
  98.6107087  48.2856538  73.4894026  98.0889180  47.8067932  74.8274254
  80.2359752  62.3694413  74.5143882  80.1014219  61.6094814  73.9481880
  79.8191814  63.0935313  74.0472671  91.3718715  57.5531336  63.5220458
  92.0754565  57.7581339  64.1378113  90.6481363  58.1208098  63.7869541
  92.2016525  53.3041197  69.6422728  92.1451726  53.7609749  68.8030360
  92.7544867  52.5431882  69.4645571  96.0121331  49.0930929  70.4672847
  95.7558265  48.6927565  71.2981055  95.3874199  49.8074723  70.3422986
 100.3233669  51.8327003  72.9744139  99.7633227  51.9020192  73.7475701
  99.7177172  51.6567987  72.2543635  83.3928877  63.2663730  74.7262325
  83.2761262  64.2109162  74.6241015  82.5721324  62.9637291  75.1148124
  93.2805412  57.9913865  65.5718918  94.1151016  57.5595064  65.3896392
  93.1189755  57.8195879  66.4995812  77.7243819  49.7314043  80.7636679
  78.3702683  49.2212997  81.2523904  77.5160970  50.4682725  81.3380104
  90.2497211  56.7994891  86.2628820  91.1188371  56.9735543  85.9015455
  89.7703963  57.6189307  86.1404549  86.2447430  43.9954088  66.5160575
  86.2326099  44.9395928  66.6728846  87.1370851  43.8124233  66.2220037
  84.4183392  63.9191992  77.9418253  85.3210638  63.9515602  78.2584748
  84.1920762  62.9892443  77.9564589  86.1736994  62.6722978  74.6028332
  85.2232625  62.6724840  74.4892704  86.4769480  61.9255713  74.0864367
  90.0599549  40.5896864  70.7706512  89.2931945  40.0355351  70.9163194
  90.4710254  40.6618733  71.6320664  82.0641310  46.8781660  84.8611693
  82.9272772  46.5218465  85.0715018  81.4906721  46.5395555  85.5487098
 101.9089687  68.5083517  75.6674094 102.5468097  68.3890264  74.9637434
 101.7910530  69.4564360  75.7262047  98.7179393  68.4610945  75.6035619
  98.3797905  68.3452009  74.7156154  99.5869162  68.0602110  75.5836625
  99.1999176  69.6145796  81.5621825  99.1887817  69.2198595  80.6902328
  99.3619816  68.8811869  82.1555596  92.1230641  71.8097613  74.4316730
  92.9151933  71.4688437  74.0163030  92.3627291  71.9192588  75.3518884
 100.1565768  73.9817389  66.9046975  99.5053747  74.5671469  66.5180989
 100.9510131  74.5123584  66.9642012  94.0821395  71.0706526  67.3034109
  94.8552271  70.5235513  67.1646985  94.4346794  71.9350775  67.5148571
  95.9206437  72.3982908  80.5101009  95.6296303  73.3028539  80.3947675
  96.5563422  72.4399436  81.2245078  96.8462644  69.7759757  77.1002368
  97.4426217  69.5515779  76.3859331  96.9037616  69.0344502  77.7027816
  96.4187673  67.2299192  64.9352559  96.6713193  66.7080713  64.1736022
  95.4812232  67.0665337  65.0379243 101.4630956  66.2334970  72.7427302
 102.2494045  65.8154394  72.3917719 101.7269660  67.1381063  72.9108951
 101.6341033  71.6707821  67.4415959 100.9986866  71.7442447  68.1536864
 101.3038439  72.2601420  66.7635038 106.8639383  66.1710204  73.6460281
 107.5964555  65.6009420  73.8798110 106.1078738  65.7831804  74.0866787
  98.4815502  68.5937445  70.8423623  98.1173710  68.0668066  71.5536545
  99.3382618  68.2035914  70.6690109 104.3864803  59.8831778  78.1054890
 104.0548128  60.7527189  77.8816105 103.7910416  59.5668062  78.7848920
 100.8796323  72.0844324  77.5050802 100.5797046  72.9869362  77.3966610
 100.5347382  71.8176507  78.3571955  94.3308804  68.5358121  73.5387507
  93.4059300  68.4034335  73.7465198  94.5793217  69.3152340  74.0357449
 104.2793466  64.6026864  75.1848240 103.3710344  64.5342272  74.8907001
 104.2281062  65.0798809  76.0130065  98.1010210  66.0785002  66.8231639
  97.9809835  66.5242053  67.6617119  97.4062799  66.4270320  66.2645177
  91.6917615  68.1791394  74.3731296  91.8209996  68.4325873  75.2870707
  91.0115066  68.7719102  74.0535951  95.8617102  78.8488644  70.4721770
  95.7841132  79.7996469  70.5510251  95.2578746  78.5034517  71.1296696
  98.3534332  66.0216509  83.1283137  97.5767666  66.5810430  83.1186002
  98.9924895  66.5073292  83.6498007 106.1455113  62.8043302  76.9626114
 105.5029493  63.0975835  76.3165908 105.6410041  62.6896223  77.7679310
 103.7995276  66.5506475  67.6511973 104.7113133  66.7833862  67.4759670
 103.2904923  67.1343520  67.0887051  96.6080704  68.8301963  82.6901104
  97.3495389  69.3687007  82.4135927  95.9017690  69.4568252  82.8472656
 102.0836044  70.9731103  81.2873265 102.4919400  70.5313514  80.5427898
 101.3613306  70.3983731  81.5407458  98.4367114  65.9103710  78.6606822
  99.2828309  66.3343124  78.8041471  98.3765752  65.2537334  79.3545385
 102.4064859  71.5332294  75.0425554 101.7773721  71.6978008  74.3401622
 102.0190521  71.9473903  75.8136518 106.2854091  72.4686732  72.3969918
 105.6005129  72.8485633  71.8466951 106.3697940  73.0782058  73.1301866
 101.5866559  63.5708078  80.3187996 101.3427491  64.3250139  79.7822272
 101.8626490  63.9493426  81.1535243 103.5405022  70.1146691  78.9965262
 103.7521917  70.7578451  78.3199643 103.4934770  69.2809007  78.5287192
 101.1431251  62.7264511  75.9001834 100.2815730  63.0245765  76.1918571
 101.1693686  62.9434910  74.9682866  97.9592821  71.2706702  72.3075639
  98.4231166  71.5494405  71.5180262  97.6949619  70.3690147  72.1248730
  95.3442068  65.9841611  83.4916414  94.7140729  66.6657892  83.7251811
  95.2378156  65.8724693  82.5469552  90.6387041  65.6513407  74.4182338
  89.8486095  65.9070936  73.9422449  91.1298288  66.4661745  74.5234379
 104.6550850  72.9918646  77.1687619 105.4768294  72.5898833  76.8870301
 104.6513253  72.8886880  78.1203735  92.5901786  66.0157986  71.3765815
  91.7932949  66.1276681  71.8949310  92.3627378  66.3544638  70.5106705
  98.4207454  72.5402689  79.3248329  98.4851886  73.0023097  80.1606501
  97.7118377  71.9100054  79.4530639  88.9224744  65.9043897  76.8497329
  89.1732782  66.7890907  77.1154905  89.4584292  65.7248499  76.0772421
 112.7456843  69.3357395  73.5172590 111.9920552  68.7664793  73.3616595
 112.8804384  69.3020059  74.4643225  98.1355471  74.2070797  69.1927310
  98.0001146  75.0522333  69.6212158  98.6765284  74.4090075  68.4293243
  94.6222811  60.2862377  85.8541665  94.2289756  59.7328575  86.5289309
  95.4388951  60.5972955  86.2448182  91.5884869  71.7246235  69.7655235
  92.1009389  72.5189485  69.9160799  92.2407581  71.0272525  69.6988836
  97.5390772  61.7020256  83.4461921  98.2800485  62.3027409  83.3666384
  97.7708695  60.9597894  82.8879964  99.7623948  74.8294363  83.3227652
  99.3187802  74.0430742  83.0048556 100.4241161  75.0173514  82.6571543
 101.8605186  75.1097163  81.3509053 101.8423661  75.9306044  80.8589322
 102.7825106  74.9851239  81.5759194  98.3178240  72.6241293  82.1932561
  98.8506577  71.8629581  81.9631869  97.7892321  72.3314945  82.9356716
 101.4847935  57.7301359  77.7226203 101.1412204  58.6203001  77.6465314
 101.8526897  57.5403017  76.8595788  89.5533785  70.0534889  70.5414805
  90.3909007  70.4631898  70.3248513  89.7312053  69.1134331  70.5114999
 101.4498218  67.7209970  66.2298638 100.9344841  68.4914575  66.4687026
 101.1775526  67.0475106  66.8531700  99.0345329  62.5659671  71.2883877
  98.1786925  62.1766521  71.1089515  99.4472280  62.6451632  70.4283662
 100.5644475  60.1006014  75.6875436 100.0609271  60.0636149  74.8743242
 100.8575082  61.0098757  75.7472093  96.8087361  60.1844744  74.6941618
  97.6740358  59.9887552  74.3347508  96.8764870  59.9555096  75.6210975
 106.4232492  70.4742325  68.1651812 105.6461934  70.1353484  67.7206974
 107.1023973  70.4794948  67.4906777 101.2384521  65.5937062  68.0558419
 100.9334656  65.9083211  68.9068563 102.1914963  65.6718482  68.0985752
  99.6830953  71.7527285  69.7051373  99.1552314  71.0180045  69.3924611
  99.1818455  72.5301962  69.4591342 104.6623799  69.9476306  74.8218420
 104.0047473  70.6375567  74.9098548 105.4664198  70.3372738  75.1652406
 103.4729257  68.3020679  72.8722361 103.9861139  68.9350670  73.3744071
 104.1230481  67.7021874  72.5065722  96.7172348  59.2888201  70.7933054
  96.0636760  58.9737218  70.1689669  96.6752822  58.6663941  71.5192877
  97.8283553  69.5707496  62.7086346  96.9210614  69.3396749  62.9077495
  98.3254585  68.7745115  62.8960328 100.7351632  78.2805003  65.6283033
 100.0613330  78.5836700  66.2367990 101.1217454  79.0834083  65.2788490
  99.9510088  65.7770134  75.1180702  99.0332650  65.9985081  74.9602390
 100.3670232  65.8516445  74.2592409 100.7345136  67.1761550  70.2483382
 101.4816955  67.6882947  69.9390504 101.0036726  66.8545603  71.1087776
  99.0071786  69.6720091  67.2310337  98.0983005  69.3879123  67.3282806
  99.0366870  70.0919169  66.3713643 104.2391054  73.2826680  71.0001504
 103.7853381  72.4417590  71.0566695 103.6085020  73.9188078  71.3376284
 103.1823973  64.2118666  72.2302172 102.4446730  63.6996052  72.5612414
 103.4350747  63.7719048  71.4185448 102.6823993  75.1203177  71.9351322
 102.9746967  75.6808234  71.2163688 103.1922613  75.4131738  72.6904481
 103.2835600  56.9894918  72.8243941 103.5894477  56.1292281  72.5369856
 104.0088205  57.5812538  72.6242935  89.5759957  67.3925605  71.2125539
  89.3784356  66.7994965  70.4876605  89.0206621  67.0877815  71.9301478
  98.7047874  71.2128834  64.5698415  98.2667304  70.4964693  64.1104052
  99.4458315  71.4404949  64.0083507  95.4949040  65.9025771  71.0910511
  94.6816906  66.2019941  71.4975703  95.9908034  65.5081460  71.8084993
  97.6457618  75.8983528  73.0244775  97.6033797  76.1244374  72.0953307
  98.5620317  75.6646902  73.1730577 101.0923252  66.3667595  79.9225405
 101.4472640  66.5939068  80.7819870 101.7395383  66.6985972  79.3002660
 106.8220989  69.4886031  70.6274734 106.6838887  69.6787627  69.6995923
 106.4657208  70.2505414  71.0842785 106.8490368  71.5562558  75.6386005
 107.2826875  71.4637847  76.4869059 107.5621949  71.5320059  75.0006021
  95.7623419  72.7746557  72.8206738  96.5564017  72.2796877  72.6189313
  95.0515111  72.2464420  72.4574444 100.5818263  75.1564652  77.1719106
 100.6355286  75.7255589  77.9396822  99.7133045  75.3266537  76.8073143
  92.0706182  66.9189639  68.8966491  91.1403770  66.8574094  69.1136453
  92.1663654  66.3965591  68.1003132  91.9891731  63.4444451  71.4844733
  92.2498549  64.3589785  71.3753893  92.8108904  62.9768894  71.6341345
  93.4616657  64.8582209  78.6543557  94.1339710  64.6499571  78.0056206
  92.6346443  64.6604295  78.2148789 107.7105918  71.5986259  78.1718891
 107.9041808  72.5032069  78.4178166 107.6106536  71.1393678  79.0057476
  99.3642229  61.4844149  80.6709218  98.7170144  62.1834099  80.5773694
 100.1343244  61.9180293  81.0385466 102.7721027  71.7493002  83.7459771
 102.6206533  71.5203553  82.8289855 102.7625706  72.7063603  83.7591116
  99.5406363  69.3224914  78.7306038 100.4698423  69.4736074  78.5575005
  99.1197393  69.4108935  77.8754684  98.3394695  73.3475579  76.5004575
  98.2005780  72.9794363  77.3730513  97.5509291  73.8623218  76.3288533
  98.9342847  78.4484675  67.8430112  99.1094602  77.9772718  68.6575734
  98.2475635  79.0750441  68.0711373  99.8899910  72.7257181  73.8893413
  99.5549743  72.6857951  74.7851063  99.3903856  72.0601897  73.4163823
  93.8644154  68.1324812  79.4145994  93.7263952  67.4005050  80.0157533
  94.7749077  68.0433712  79.1330182 102.8259102  70.0713216  64.1630473
 102.2088272  69.3460044  64.0663525 102.3575590  70.8322576  63.8197547
 104.4813233  74.7812124  81.8236253 104.4225779  74.0971344  81.1566836
 104.8832752  75.5231114  81.3716879  95.2055389  64.8309989  80.7225313
  94.6692746  64.3800727  81.3746910  94.6172097  64.9655898  79.9795778
  93.5003932  81.5974038  74.6169972  93.7400530  82.2292562  75.2948991
  92.6573129  81.2462078  74.9035331  94.6157648  64.2898640  63.2851777
  93.7387114  64.1687441  62.9214024  95.0915401  63.4984718  63.0330666
 104.4830641  72.7451708  80.0550233 103.5957419  72.4077630  80.1776632
 105.0529192  72.0134739  80.2918998  86.1359788  69.0775800  73.3793284
  86.8230827  68.7637530  72.7914299  85.9807916  69.9817165  73.1060536
  98.0131794  77.4053160  77.0211476  97.9401965  78.2108132  77.5330781
  97.5709187  77.6045126  76.1959497  97.8021574  76.6424930  70.5314298
  97.0189095  77.1846611  70.6252522  98.5014319  77.1598910  70.9308539
 101.1118224  62.4519560  73.1748503 101.6086923  61.6989522  72.8549573
 100.3405205  62.4883877  72.6091712 108.9647981  68.1559925  74.8166794
 108.9537857  69.0384641  74.4460727 108.0965360  67.8031476  74.6221331
 100.4730477  77.3039994  79.1769635 101.1858450  77.9387459  79.1045536
  99.9820506  77.4003860  78.3609636 102.1948004  71.2091247  70.7486926
 101.2604283  71.3292710  70.5791631 102.3724673  70.3063714  70.4846936
 105.5820556  67.0508566  71.2836960 106.0481008  67.8836558  71.2097263
 106.0328056  66.5853548  71.9882219  95.5242391  75.0534438  79.9975205
  96.2251850  75.6870921  80.1504600  95.0537506  75.3949170  79.2370845
 103.6496787  73.3952388  68.2823112 103.9256631  73.2808982  69.1916987
 102.7801286  72.9969873  68.2435286 103.5537218  59.4189153  75.3227862
 102.6400298  59.6493380  75.4910069 103.9830320  59.5027598  76.1741894
 103.3243677  67.6079045  77.8227756 102.6715127  67.8554953  77.1680209
 103.7024057  66.7943184  77.4890233 100.2850851  77.6438739  71.9255926
 100.4673245  76.8260395  72.3883678 101.1083837  77.8606431  71.4880816
 100.6193016  76.5706924  69.1870975 101.1480783  76.0599378  68.5741137
 100.8821236  76.2549454  70.0516508  99.3731250  68.3498856  84.3093793
  98.6971887  68.2492986  84.9796168 100.1958884  68.1938070  84.7729790
  91.1210109  74.5870793  76.9306308  91.7063546  73.8414481  77.0634212
  90.9234947  74.8974750  77.8142972  93.9748764  77.6222040  71.9468751
  93.3059140  78.1068168  71.4632791  93.8361634  77.8691261  72.8612129
  85.7127764  67.1576393  75.6510751  85.7511863  66.6239984  76.4447869
  85.2068057  66.6311599  75.0321728  98.1154033  79.6565784  78.5451409
  98.6672341  79.8197405  79.3100494  98.4560226  80.2470222  77.8731434
  93.0918526  62.0040934  79.1473294  93.1559853  62.8655765  78.7350691
  93.0285646  61.3914935  78.4145652  92.5670799  64.0764066  82.7946328
  93.1942837  63.6941144  83.4083852  91.7098717  63.8578268  83.1602020
 102.9664907  74.4827041  84.4000063 103.5104811  75.0957000  83.9055018
 102.3851752  75.0406620  84.9167076  89.3436341  65.8840495  68.7264683
  89.6389782  64.9751174  68.6731736  88.4424377  65.8628235  68.4045685
 101.2522420  77.6047759  75.5315091 101.1273560  76.8037499  75.0226037
 101.9101511  78.0993953  75.0429061  92.8730588  63.9596492  74.7092231
  92.1517174  64.5732460  74.5699705  93.6623844  64.4954257  74.6308877
 103.3157329  75.4056780  77.1594641 102.3687664  75.2862131  77.0872968
 103.6640102  74.5179278  77.2420903  95.6756902  61.2950918  80.9832883
  96.1991304  61.5413215  81.7459192  95.4569235  62.1270953  80.5636020
  91.0724183  63.5654593  68.8504008  90.7436889  62.6851972  68.6679114
  91.4263554  63.5102262  69.7380397 100.3203762  75.2009496  73.3598993
 100.1728724  74.2726203  73.5406563 101.1457255  75.2229586  72.8756069
  94.1866006  63.8527563  69.2179486  94.5262079  64.3813484  68.4958094
  94.6338127  64.1907969  69.9938052 103.9237884  76.0238054  74.4463866
 104.8484431  75.8180916  74.3088317 103.7553187  75.7754456  75.3553208
  96.8809447  62.2364614  78.6682554  96.5406267  61.4372427  79.0703233
  96.1748453  62.5366324  78.0959387  97.5325919  59.3213926  77.1209877
  98.3551988  58.8474404  76.9988767  97.7763982  60.1004410  77.6208563
  96.1734153  62.3502184  67.4172778  96.8942516  62.7283437  66.9136495
  95.5499457  63.0691061  67.5207756 100.3165276  63.0547333  68.3531111
 100.5328891  63.9371971  68.0519939  99.8359343  62.6633547  67.6236753
  95.0564498  66.0133047  74.9301855  94.9109078  66.3273350  75.8226137
  94.5789701  66.6317947  74.3772754  96.9160880  63.0035595  74.9782745
  96.9022449  62.1076688  74.6415043  97.6333308  63.0106258  75.6121031
  98.7687011  63.4372935  77.0235872  98.5104789  64.3590005  77.0220203
  98.2372051  63.0403369  77.7136336 103.7133200  76.5423722  69.8025958
 103.8870077  75.9770144  69.0499810 104.2062091  77.3424617  69.6205448
  89.5310160  68.5538391  77.8689516  88.9863628  69.3298199  78.0009791
  90.4089510  68.9009195  77.7108638  99.1888967  59.5704885  73.3837035
  99.2110664  59.6344218  72.4289014  99.6057026  58.7309394  73.5777541
 109.5672591  69.3060145  71.4216257 110.0103737  68.5567470  71.0235381
 108.6899101  69.2970281  71.0389989 104.7008372  75.8590486  66.9022856
 105.3959277  76.4797179  67.1210170 105.0431522  75.0085838  67.1775234
  90.3176182  67.6808287  80.7619673  89.5757918  67.8290923  81.3484304
  89.9968926  67.9416553  79.8986423 106.5999795  73.3090192  68.4310187
 107.1251120  73.6477465  67.7059507 106.5122148  72.3737207  68.2473321
  98.2619844  77.2224266  80.5600063  98.5706971  76.9773412  81.4322763
  99.0595326  77.4270904  80.0718933  98.2840456  79.3762175  72.7905440
  97.8445447  78.8838554  73.4838297  99.0348573  78.8335143  72.5497515
  90.7632795  75.5673716  72.7930068  91.5890815  75.2677488  72.4128711
  90.4126847  74.7981338  73.2419857  95.7314328  74.9200184  74.8627741
  95.1094338  74.2570889  74.5629969  96.4019195  74.9461316  74.1801389
  88.9641400  73.4860042  73.7519001  88.1273309  73.0582217  73.5703003
  88.9365046  73.6792486  74.6889793  95.8038856  63.3981972  84.4560248
  95.8527011  64.2744095  84.0738017  96.3461370  62.8559365  83.8831891
 106.2893702  73.9423096  83.7361385 105.4989245  73.9247234  83.1965884
 106.0527056  74.4811389  84.4910421 106.4091577  70.7915562  81.0494113
 106.4589582  70.6265569  81.9909636 106.3005500  69.9242821  80.6591994
 103.6995339  66.7746490  82.3653420 104.6005202  66.6352955  82.0737418
 103.7743313  66.9400945  83.3051597  98.0338144  64.1513345  81.2106606
  97.1641454  64.4446911  80.9389195  98.2697625  64.7353790  81.9313870
 107.9109773  73.2112503  81.2936135 107.6194582  73.5742484  82.1299596
 107.2981905  72.4979512  81.1149467 109.1105456  70.7765383  73.8138705
 109.9452347  71.2155187  73.9776265 109.2464585  70.3004036  72.9946951
 106.1596962  68.3345118  79.7616193 106.6351083  68.5272764  78.9535044
 105.2362527  68.3904304  79.5159576  93.0480468  69.4969285  69.3447271
  92.8026510  68.5931615  69.5427481  93.2176383  69.4986436  68.4026749
 100.7377178  60.3692962  78.7272027 101.2559122  61.1053989  78.4018515
 100.3832311  60.6756955  79.5618786  92.3176116  65.2297643  66.8433432
  91.6245361  65.3041998  66.1873468  92.0727868  64.4657986  67.3654949
 100.9889772  56.7893244  74.2472923 101.2691526  56.1216433  74.8733350
 101.7740379  56.9822340  73.7347587  98.7923241  75.9652238  65.8097949
  98.2197208  76.5842425  65.3568421  99.3656034  76.5151600  66.3437871
 104.8598631  65.2110878  77.9944498 105.8116054  65.3108976  78.0156722
 104.6902081  64.4189147  78.5042583 102.8813010  62.2966461  78.1803899
 102.2862942  62.5771474  77.4850388 102.5962707  62.7860362  78.9520640
 102.0120501  76.2489388  66.9406532 102.9451174  76.1834950  67.1439407
 101.9243713  77.0845655  66.4821064 104.6408517  75.5655258  63.9010479
 104.5622149  75.2315122  64.7946237 105.4618184  76.0577026  63.9001952
 107.3386708  68.4316998  77.1086798 107.3063029  67.4932999  77.2946482
 107.9487332  68.5101035  76.3752623 107.4881197  65.2228041  77.1545081
 106.9720246  64.4386498  76.9675010 108.3721145  64.8946758  77.3191601
 105.1491924  58.9669057  73.1140894 104.9516745  58.6584145  73.9984226
 105.7591629  59.6930696  73.2438824 113.1563258  69.4933005  76.2492835
 113.8866647  69.2318293  76.8100538 112.5470204  68.7561727  76.2894903
 111.2378555  67.6340867  76.8467286 110.5111719  67.4996832  76.2383777
 110.8225842  67.9417696  77.6524004  99.0608732  71.3530797  84.6114659
  99.9811741  71.5309396  84.8054705  99.0258315  70.4086842  84.4594358
  88.2790897  66.5469391  73.5367934  87.9593681  65.6934699  73.2442308
  87.7324325  66.7617969  74.2925901  92.0570804  69.2631832  77.2537440
  92.2756814  70.1948939  77.2725474  92.4696578  68.9039806  78.0392244
  98.9775022  59.7699917  69.2413128  98.1675750  59.4247002  69.6168375
  99.6659439  59.4607461  69.8300740 100.9065570  58.8477964  70.8637425
 101.4596609  59.2673417  71.5227448 101.1435657  57.9213712  70.9060381
  96.9298670  64.8365037  86.6440189  96.8295397  65.7859394  86.5752280
  96.7120212  64.5083276  85.7716259  88.1479157  70.1672302  75.5061055
  87.4542628  69.7526255  74.9931010  88.8952148  70.2092839  74.9094474
 104.2844378  60.9578489  70.3716089 103.7043047  61.6163293  69.9894142
 104.0180310  60.1355833  69.9603507 102.7347944  60.3583547  72.5737410
 103.2347722  60.4700081  71.7651729 103.3783552  60.0544599  73.2138218
  96.7929940  68.2662176  85.4605251  96.3097021  69.0662536  85.6669140
  96.8790879  68.2770121  84.5072695  90.0615899  70.0990556  73.3827070
  90.0386587  70.1978243  72.4308953  90.3716536  70.9455707  73.7044236
  92.7203277  72.1566711  77.4973684  93.6746531  72.1250653  77.4303616
  92.5215801  71.6957335  78.3123910  93.3102659  70.7267827  80.0644482
  94.1295548  71.2211906  80.0879319  93.5839467  69.8099795  80.0362050
 103.0669256  63.1178579  69.4272438 102.1795111  63.4028230  69.2092632
 103.4823245  62.9572343  68.5799715 106.4183792  63.1425100  73.1426777
 107.1944182  63.6321553  73.4151394 105.6931926  63.5683154  73.5998646
 108.8556350  63.8552719  74.2000717 109.4500841  63.6148455  73.4894026
 108.9282934  63.1359850  74.8274254  91.0753506  77.6986330  74.5143882
  90.9407974  76.9386731  73.9481880  90.6585568  78.4227230  74.0472671
 102.2112469  72.8823254  63.5220458 102.9148319  73.0873256  64.1378113
 101.4875118  73.4500016  63.7869541 103.0410279  68.6333115  69.6422728
 102.9845481  69.0901667  68.8030360 103.5938622  67.8723800  69.4645571
 106.8515085  64.4222847  70.4672847 106.5952019  64.0219483  71.2981055
 106.2267953  65.1366641  70.3422986 111.1627423  67.1618920  72.9744139
 110.6026981  67.2312110  73.7475701 110.5570926  66.9859905  72.2543635
 104.1199166  73.3205783  65.5718918 104.9544770  72.8886982  65.3896392
 103.9583509  73.1487797  66.4995812 103.7745059  69.8237896  66.9375257
 103.7193862  69.6582168  65.9963701 103.1491114  70.5313929  67.0937447
  88.5637574  65.0605961  80.7636679  89.2096437  64.5504915  81.2523904
  88.3554725  65.7974642  81.3380104 101.0890966  72.1286808  86.2628820
 101.9582125  72.3027461  85.9015455 100.6097717  72.9481225  86.1404549
  95.2577146  79.2483909  77.9418253  96.1604393  79.2807520  78.2584748
  95.0314516  78.3184360  77.9564589  97.0130748  78.0014896  74.6028332
  96.0626379  78.0016757  74.4892704  97.3163234  77.2547630  74.0864367
 100.8993304  55.9188782  70.7706512 100.1325699  55.3647269  70.9163194
 101.3104009  55.9910651  71.6320664 112.7483442  83.8375434  75.6674094
 113.3861851  83.7182182  74.9637434 112.6304284  84.7856278  75.7262047
 109.5573148  83.7902862  75.6035619 109.2191659  83.6743927  74.7156154
 110.4262916  83.3894027  75.5836625 105.4159964  85.6438339  71.5932510
 104.8524829  85.5528276  70.8248798 105.3012359  84.8238243  72.0735003
 110.0392931  84.9437714  81.5621825 110.0281572  84.5490512  80.6902328
 110.2013570  84.2103787  82.1555596 102.9624395  87.1389530  74.4316730
 103.7545687  86.7980355  74.0163030 103.2021046  87.2484505  75.3518884
 110.9959522  89.3109306  66.9046975 110.3447502  89.8963387  66.5180989
 111.7903885  89.8415501  66.9642012 104.9215149  86.3998444  67.3034109
 105.6946025  85.8527431  67.1646985 105.2740548  87.2642693  67.5148571
 106.7600192  87.7274826  80.5101009 106.4690058  88.6320457  80.3947675
 107.3957176  87.7691353  81.2245078 107.6856399  85.1051674  77.1002368
 108.2819971  84.8807697  76.3859331 107.7431370  84.3636420  77.7027816
 107.2581427  82.5591110  64.9352559 107.5106948  82.0372631  64.1736022
 106.3205986  82.3957255  65.0379243 112.3024710  81.5626888  72.7427302
 113.0887799  81.1446311  72.3917719 112.5663414  82.4672980  72.9108951
 112.4734787  86.9999738  67.4415959 111.8380620  87.0734365  68.1536864
 112.1432194  87.5893337  66.7635038 117.7033137  81.5002121  73.6460281
 118.4358309  80.9301338  73.8798110 116.9472493  81.1123722  74.0866787
 106.9777716  84.4619216  67.1376934 106.8613974  83.7864119  67.8058018
 107.0879976  83.9751590  66.3209087 109.3209257  83.9229363  70.8423623
 108.9567464  83.3959984  71.5536545 110.1776373  83.5327832  70.6690109
 115.2258557  75.2123695  78.1054890 114.8941882  76.0819106  77.8816105
 114.6304171  74.8959979  78.7848920 108.9614744  78.9519262  65.8384972
 109.1289146  79.8199499  66.2055443 108.7711913  79.1146544  64.9146261
 111.7190077  87.4136241  77.5050802 111.4190800  88.3161280  77.3966610
 111.3741137  87.1468425  78.3571955 105.1702559  83.8650038  73.5387507
 104.2453055  83.7326252  73.7465198 105.4186972  84.6444257  74.0357449
 115.1187221  79.9318782  75.1848240 114.2104098  79.8634190  74.8907001
 115.0674817  80.4090726  76.0130065 108.9403965  81.4076920  66.8231639
 108.8203590  81.8533971  67.6617119 108.2456553  81.7562238  66.2645177
 102.5311370  83.5083312  74.3731296 102.6603751  83.7617791  75.2870707
 101.8508821  84.1011020  74.0535951 106.7010857  94.1780562  70.4721770
 106.6234887  95.1288387  70.5510251 106.0972500  93.8326434  71.1296696
 109.1928087  81.3508427  83.1283137 108.4161421  81.9102347  83.1186002
 109.8318650  81.8365210  83.6498007 116.9848867  78.1335220  76.9626114
 116.3423247  78.4267753  76.3165908 116.4803796  78.0188140  77.7679310
 114.6389031  81.8798393  67.6511973 115.5506887  82.1125780  67.4759670
 114.1298678  82.4635437  67.0887051 107.4474459  84.1593880  82.6901104
 108.1889143  84.6978924  82.4135927 106.7411444  84.7860169  82.8472656
 112.9229799  86.3023021  81.2873265 113.3313155  85.8605431  80.5427898
 112.2007060  85.7275648  81.5407458 109.2760869  81.2395628  78.6606822
 110.1222064  81.6635041  78.8041471 109.2159506  80.5829252  79.3545385
 113.2458613  86.8624212  75.0425554 112.6167476  87.0269926  74.3401622
 112.8584275  87.2765821  75.8136518 117.1247845  87.7978649  72.3969918
 116.4398883  88.1777551  71.8466951 117.2091694  88.4073976  73.1301866
 112.4260314  78.8999996  80.3187996 112.1821246  79.6542057  79.7822272
 112.7020244  79.2785344  81.1535243 114.3798777  85.4438608  78.9965262
 114.5915672  86.0870368  78.3199643 114.3328525  84.6100925  78.5287192
 111.9825006  78.0556429  75.9001834 111.1209485  78.3537683  76.1918571
 112.0087440  78.2726828  74.9682866 108.7986575  86.5998620  72.3075639
 109.2624921  86.8786323  71.5180262 108.5343373  85.6982064  72.1248730
 105.6910656  86.1470101  75.2455403 106.2612013  86.5757370  74.6072887
 106.2818768  85.8652686  75.9439588 107.7355461  82.7221772  69.1165204
 108.4379504  83.1742816  69.5839131 107.4036090  82.0805591  69.7445098
 106.1835823  81.3133529  83.4916414 105.5534483  81.9949810  83.7251811
 106.0771911  81.2016610  82.5469552 101.4780795  80.9805325  74.4182338
 100.6879849  81.2362853  73.9422449 101.9692042  81.7953663  74.5234379
 115.4944605  88.3210564  77.1687619 116.3162048  87.9190751  76.8870301
 115.4907008  88.2178798  78.1203735 103.4295540  81.3449904  71.3765815
 102.6326704  81.4568598  71.8949310 103.2021133  81.6836556  70.5106705
 109.2601208  87.8694607  79.3248329 109.3245641  88.3315014  80.1606501
 108.5512132  87.2391972  79.4530639  99.7618498  81.2335815  76.8497329
 100.0126536  82.1182825  77.1154905 100.2978046  81.0540417  76.0772421
 108.9749226  89.5362715  69.1927310 108.8394901  90.3814250  69.6212158
 109.5159038  89.7381992  68.4293243 105.4616565  75.6154295  85.8541665
 105.0683511  75.0620493  86.5289309 106.2782706  75.9264873  86.2448182
 102.4278623  87.0538153  69.7655235 102.9403144  87.8481403  69.9160799
 103.0801336  86.3564443  69.6988836 104.2373508  90.1703909  71.8477988
 104.4140136  91.0921874  71.6598972 105.0330341  89.8562328  72.2772368
 108.3784526  77.0312174  83.4461921 109.1194240  77.6319327  83.3666384
 108.6102449  76.2889811  82.8879964 103.5225864  82.2168541  81.7240151
 103.4079380  81.3153798  82.0247250 102.6670382  82.4632238  81.3724968
 110.6017702  90.1586281  83.3227652 110.1581556  89.3722660  83.0048556
 111.2634916  90.3465432  82.6571543 105.3604823  91.6882083  77.8488330
 105.9112248  91.5599146  77.0765324 104.5216299  91.9876972  77.4983223
 112.6998940  90.4389081  81.3509053 112.6817416  91.2597962  80.8589322
 113.6218860  90.3143156  81.5759194 109.1571994  87.9533211  82.1932561
 109.6900331  87.1921499  81.9631869 108.6286075  87.6606862  82.9356716
 112.3241689  73.0593277  77.7226203 111.9805959  73.9494918  77.6465314
 112.6920652  72.8694934  76.8595788 100.3927540  85.3826807  70.5414805
 101.2302762  85.7923815  70.3248513 100.5705808  84.4426249  70.5114999
 112.2891972  83.0501888  66.2298638 111.7738595  83.8206492  66.4687026
 112.0169280  82.3767024  66.8531700 109.8739083  77.8951588  71.2883877
 109.0180679  77.5058439  71.1089515 110.2866035  77.9743549  70.4283662
 111.4038230  75.4297932  75.6875436 110.9003025  75.3928067  74.8743242
 111.6968837  76.3390674  75.7472093 107.6481116  75.5136661  74.6941618
 108.5134112  75.3179470  74.3347508 107.7158624  75.2847013  75.6210975
 117.2626246  85.8034242  68.1651812 116.4855689  85.4645402  67.7206974
 117.9417727  85.8086865  67.4906777 112.0778275  80.9228980  68.0558419
 111.7728411  81.2375129  68.9068563 113.0308717  81.0010400  68.0985752
 110.5224707  87.0819203  69.7051373 109.9946069  86.3471963  69.3924611
 110.0212210  87.8593879  69.4591342 115.5017553  85.2768224  74.8218420
 114.8441228  85.9667485  74.9098548 116.3057952  85.6664655  75.1652406
 105.2543435  77.7438869  72.0657985 105.8287187  77.5214051  71.3331178
 105.8414417  77.8127564  72.8186586 114.3123012  83.6312596  72.8722361
 114.8254894  84.2642588  73.3744071 114.9624236  83.0313792  72.5065722
 105.5813022  79.7743330  66.0853870 104.7450334  80.1118017  66.4063145
 105.4417791  79.6392310  65.1481007 107.5566102  74.6180118  70.7933054
 106.9030515  74.3029135  70.1689669 107.5146577  73.9955859  71.5192877
 108.6677307  84.8999413  62.7086346 107.7604369  84.6688667  62.9077495
 109.1648339  84.1037033  62.8960328 111.5745386  93.6096921  65.6283033
 110.9007085  93.9128617  66.2367990 111.9611208  94.4126001  65.2788490
 110.7903843  81.1062052  75.1180702 109.8726404  81.3276999  74.9602390
 111.2063986  81.1808362  74.2592409 111.5738890  82.5053467  70.2483382
 112.3210709  83.0174865  69.9390504 111.8430480  82.1837520  71.1087776
 109.8465541  85.0012008  67.2310337 108.9376760  84.7171041  67.3282806
 109.8760624  85.4211087  66.3713643 115.0784808  88.6118598  71.0001504
 114.6247135  87.7709508  71.0566695 114.4478775  89.2479996  71.3376284
 114.0217728  79.5410584  72.2302172 113.2840484  79.0287970  72.5612414
 114.2744501  79.1010965  71.4185448 113.5217747  90.4495094  71.9351322
 113.8140722  91.0100151  71.2163688 114.0316368  90.7423655  72.6904481
 114.1229355  72.3186836  72.8243941 114.4288232  71.4584199  72.5369856
 114.8481960  72.9104456  72.6242935 100.4153711  82.7217522  71.2125539
 100.2178111  82.1286883  70.4876605  99.8600375  82.4169733  71.9301478
 108.3950435  82.6140629  73.3320132 108.4499044  81.6614465  73.2562608
 107.5841637  82.7700068  73.8161430 109.5441628  86.5420752  64.5698415
 109.1061058  85.8256611  64.1104052 110.2852069  86.7696867  64.0083507
 106.3342795  81.2317689  71.0910511 105.5210660  81.5311859  71.4975703
 106.8301789  80.8373377  71.8084993 108.4851373  91.2275445  73.0244775
 108.4427551  91.4536292  72.0953307 109.4014071  90.9938820  73.1730577
 111.9317006  81.6959513  79.9225405 112.2866394  81.9230986  80.7819870
 112.5789138  82.0277890  79.3002660 117.6614743  84.8177949  70.6274734
 117.5232642  85.0079545  69.6995923 117.3050962  85.5797332  71.0842785
 105.8256869  78.8036044  76.7071746 106.4656249  78.6624803  76.0094709
 104.9934400  78.5170557  76.3310348 117.6884123  86.8854476  75.6386005
 118.1220630  86.7929765  76.4869059 118.4015704  86.8611976  75.0006021
 106.6017173  88.1038474  72.8206738 107.3957772  87.6088795  72.6189313
 105.8908866  87.5756338  72.4574444 111.4212018  90.4856570  77.1719106
 111.4749040  91.0547506  77.9396822 110.5526799  90.6558455  76.8073143
 102.9099937  82.2481556  68.8966491 101.9797525  82.1866012  69.1136453
 103.0057409  81.7257509  68.1003132 102.8285486  78.7736369  71.4844733
 103.0892303  79.6881702  71.3753893 103.6502658  78.3060812  71.6341345
 104.3010411  80.1874126  78.6543557 104.9733465  79.9791488  78.0056206
 103.4740198  79.9896212  78.2148789 118.5499672  86.9278177  78.1718891
 118.7435563  87.8323987  78.4178166 118.4500291  86.4685596  79.0057476
 110.2035983  76.8136067  80.6709218 109.5563898  77.5126017  80.5773694
 110.9736999  77.2472211  81.0385466 113.6114781  87.0784919  83.7459771
 113.4600288  86.8495471  82.8289855 113.6019461  88.0355521  83.7591116
 110.3800118  84.6516832  78.7306038 111.3092178  84.8027992  78.5575005
 109.9591148  84.7400853  77.8754684 109.1788449  88.6767496  76.5004575
 109.0399535  88.3086281  77.3730513 108.3903046  89.1915136  76.3288533
 109.7736601  93.7776593  67.8430112 109.9488357  93.3064636  68.6575734
 109.0869389  94.4042359  68.0711373 110.7293664  88.0549099  73.8893413
 110.3943497  88.0149869  74.7851063 110.2297610  87.3893815  73.4163823
 104.7037908  83.4616729  79.4145994 104.5657706  82.7296968  80.0157533
 105.6142832  83.3725629  79.1330182 113.6652856  85.4005134  64.1630473
 113.0482027  84.6751962  64.0663525 113.1969345  86.1614494  63.8197547
 107.3320209  83.1736689  78.9029674 108.0419828  82.5329881  78.8616292
 107.2889517  83.4249583  79.8255855 115.3206988  90.1104042  81.8236253
 115.2619534  89.4263262  81.1566836 115.7226506  90.8523032  81.3716879
 106.0449143  80.1601906  80.7225313 105.5086500  79.7092645  81.3746910
 105.4565851  80.2947815  79.9795778 104.3397687  96.9265956  74.6169972
 104.5794285  97.5584480  75.2948991 103.4966883  96.5753996  74.9035331
 105.4551402  79.6190558  63.2851777 104.5780868  79.4979359  62.9214024
 105.9309155  78.8276636  63.0330666 115.3224395  88.0743626  80.0550233
 114.4351174  87.7369548  80.1776632 115.8922946  87.3426657  80.2918998
  96.9753542  84.4067718  73.3793284  97.6624582  84.0929448  72.7914299
  96.8201671  85.3109082  73.1060536 101.7788264  79.2957914  77.8078308
 101.6946453  78.6883584  77.0728718 100.9570971  79.7866932  77.8087804
 108.8525548  92.7345078  77.0211476 108.7795720  93.5400050  77.5330781
 108.4102942  92.9337044  76.1959497 108.6415328  91.9716848  70.5314298
 107.8582850  92.5138528  70.6252522 109.3408073  92.4890828  70.9308539
 111.9511978  77.7811478  73.1748503 112.4480678  77.0281440  72.8549573
 111.1798960  77.8175794  72.6091712 119.8041736  83.4851843  74.8166794
 119.7931612  84.3676559  74.4460727 118.9359115  83.1323394  74.6221331
 111.3124232  92.6331912  79.1769635 112.0252204  93.2679377  79.1045536
 110.8214261  92.7295778  78.3609636 113.0341759  86.5383165  70.7486926
 112.0998038  86.6584627  70.5791631 113.2118427  85.6355632  70.4846936
 108.5346947  79.9228861  72.9020187 108.1644734  79.3699901  73.5901093
 109.0306039  79.3186994  72.3495188 116.4214310  82.3800484  71.2836960
 116.8874762  83.2128476  71.2097263 116.8721811  81.9145466  71.9882219
 106.3636145  90.3826356  79.9975205 107.0645605  91.0162839  80.1504600
 105.8931260  90.7241087  79.2370845 114.4890541  88.7244305  68.2823112
 114.7650385  88.6100900  69.1916987 113.6195040  88.3261790  68.2435286
 114.3930973  74.7481071  75.3227862 113.4794053  74.9785298  75.4910069
 114.8224074  74.8319515  76.1741894 114.1637431  82.9370963  77.8227756
 113.5108882  83.1846871  77.1680209 114.5417811  82.1235101  77.4890233
 111.1244605  92.9730656  71.9255926 111.3067000  92.1552312  72.3883678
 111.9477591  93.1898349  71.4880816 111.4586771  91.8998841  69.1870975
 111.9874537  91.3891296  68.5741137 111.7214990  91.5841372  70.0516508
 110.2125004  83.6790774  84.3093793 109.5365641  83.5784903  84.9796168
 111.0352638  83.5229988  84.7729790 101.9603864  89.9162711  76.9306308
 102.5457300  89.1706399  77.0634212 101.7628702  90.2266667  77.8142972
 104.8142519  92.9513958  71.9468751 104.1452894  93.4360086  71.4632791
 104.6755388  93.1983179  72.8612129  96.5521518  82.4868311  75.6510751
  96.5905618  81.9531902  76.4447869  96.0461811  81.9603516  75.0321728
 108.9547787  94.9857702  78.5451409 109.5066095  95.1489323  79.3100494
 109.2953981  95.5762139  77.8731434 103.9312281  77.3332851  79.1473294
 103.9953607  78.1947682  78.7350691 103.8679401  76.7206853  78.4145652
 103.4064553  79.4055984  82.7946328 104.0336592  79.0233061  83.4083852
 102.5492472  79.1870186  83.1602020 113.8058662  89.8118959  84.4000063
 114.3498566  90.4248917  83.9055018 113.2245507  90.3698538  84.9167076
 100.1830096  81.2132413  68.7264683 100.4783537  80.3043091  68.6731736
  99.2818132  81.1920152  68.4045685 112.0916175  92.9339677  75.5315091
 111.9667314  92.1329417  75.0226037 112.7495266  93.4285870  75.0429061
 103.7124343  79.2888410  74.7092231 102.9910929  79.9024377  74.5699705
 104.5017599  79.8246174  74.6308877 114.1551083  90.7348697  77.1594641
 113.2081419  90.6154048  77.0872968 114.5033856  89.8471195  77.2420903
 106.5150656  76.6242836  80.9832883 107.0385058  76.8705133  81.7459192
 106.2962990  77.4562871  80.5636020 101.9117937  78.8946511  68.8504008
 101.5830644  78.0143890  68.6679114 102.2657308  78.8394179  69.7380397
 111.1597516  90.5301413  73.3598993 111.0122479  89.6018121  73.5406563
 111.9851010  90.5521504  72.8756069 105.0259761  79.1819481  69.2179486
 105.3655833  79.7105402  68.4958094 105.4731881  79.5199887  69.9938052
 114.7631638  91.3529972  74.4463866 115.6878186  91.1472833  74.3088317
 114.5946942  91.1046373  75.3553208 107.7203201  77.5656531  78.6682554
 107.3800022  76.7664344  79.0703233 107.0142208  77.8658242  78.0959387
 108.3719673  74.6505844  77.1209877 109.1945743  74.1766322  76.9988767
 108.6157737  75.4296327  77.6208563 107.0127908  77.6794102  67.4172778
 107.7336270  78.0575355  66.9136495 106.3893212  78.3982979  67.5207756
 111.1559031  78.3839251  68.3531111 111.3722645  79.2663889  68.0519939
 110.6753098  77.9925464  67.6236753 105.8958252  81.3424964  74.9301855
 105.7502833  81.6565267  75.8226137 105.4183456  81.9609865  74.3772754
 107.7554635  78.3327512  74.9782745 107.7416204  77.4368606  74.6415043
 108.4727063  78.3398176  75.6121031 109.6080766  78.7664852  77.0235872
 109.3498543  79.6881923  77.0220203 109.0765806  78.3695287  77.7136336
 114.5526954  91.8715640  69.8025958 114.7263832  91.3062062  69.0499810
 115.0455846  92.6716534  69.6205448 100.3703914  83.8830309  77.8689516
  99.8257382  84.6590117  78.0009791 101.2483264  84.2301113  77.7108638
 107.1591531  77.2141893  70.2470315 107.2807442  76.2858539  70.4461202
 106.8693573  77.2280579  69.3348630 110.0282721  74.8996803  73.3837035
 110.0504418  74.9636136  72.4289014 110.4450780  74.0601312  73.5777541
 120.4066346  84.6352063  71.4216257 120.8497492  83.8859388  71.0235381
 119.5292856  84.6262199  71.0389989 115.5402127  91.1882404  66.9022856
 116.2353031  91.8089097  67.1210170 115.8825277  90.3377755  67.1775234
 101.1569936  83.0100205  80.7619673 100.4151672  83.1582840  81.3484304
 100.8362680  83.2708471  79.8986423 117.4393550  88.6382110  68.4310187
 117.9644874  88.9769382  67.7059507 117.3515903  87.7029125  68.2473321
 109.1013599  92.5516183  80.5600063 109.4100725  92.3065330  81.4322763
 109.8989081  92.7562822  80.0718933 109.1234211  94.7054093  72.7905440
 108.6839201  94.2130472  73.4838297 109.8742328  94.1627060  72.5497515
 101.6026550  90.8965634  72.7930068 102.4284570  90.5969406  72.4128711
 101.2520602  90.1273256  73.2419857 106.5708083  90.2492102  74.8627741
 105.9488092  89.5862807  74.5629969 107.2412950  90.2753234  74.1801389
  99.8035155  88.8151960  73.7519001  98.9667063  88.3874134  73.5703003
  99.7758800  89.0084403  74.6889793 106.6432610  78.7273890  84.4560248
 106.6920766  79.6036013  84.0738017 107.1855125  78.1851283  83.8831891
 117.1287456  89.2715013  83.7361385 116.3383000  89.2539152  83.1965884
 116.8920811  89.8103307  84.4910421 117.2485331  86.1207480  81.0494113
 117.2983336  85.9557487  81.9909636 117.1399254  85.2534739  80.6591994
 106.1321590  88.7996025  68.3386202 106.2809710  89.4831490  67.6852875
 106.9388033  88.7801115  68.8535658 114.5389093  82.1038408  82.3653420
 115.4398956  81.9644872  82.0737418 114.6137068  82.2692862  83.3051597
 108.8731899  79.4805262  81.2106606 108.0035208  79.7738828  80.9389195
 109.1091379  80.0645707  81.9313870 118.7503528  88.5404421  81.2936135
 118.4588336  88.9034402  82.1299596 118.1375659  87.8271429  81.1149467
 119.9499210  86.1057301  73.8138705 120.7846102  86.5447105  73.9776265
 120.0858339  85.6295954  72.9946951 116.9990716  83.6637036  79.7616193
 117.4744838  83.8564682  78.9535044 116.0756282  83.7196222  79.5159576
 103.8874223  84.8261203  69.3447271 103.6420265  83.9223533  69.5427481
 104.0570137  84.8278353  68.4026749 111.5770933  75.6984879  78.7272027
 112.0952876  76.4345906  78.4018515 111.2226065  76.0048873  79.5618786
 103.1569870  80.5589560  66.8433432 102.4639115  80.6333915  66.1873468
 102.9121622  79.7949904  67.3654949 111.8283527  72.1185162  74.2472923
 112.1085281  71.4508351  74.8733350 112.6134134  72.3114257  73.7347587
 109.6316995  91.2944156  65.8097949 109.0590962  91.9134343  65.3568421
 110.2049789  91.8443517  66.3437871 115.6992385  80.5402796  77.9944498
 116.6509808  80.6400893  78.0156722 115.5295836  79.7481064  78.5042583
 113.7206765  77.6258379  78.1803899 113.1256697  77.9063392  77.4850388
 113.4356461  78.1152280  78.9520640 112.8514255  91.5781306  66.9406532
 113.7844928  91.5126868  67.1439407 112.7637468  92.4137573  66.4821064
 115.4802272  90.8947176  63.9010479 115.4015903  90.5607040  64.7946237
 116.3011939  91.3868944  63.9001952 118.1780463  83.7608915  77.1086798
 118.1456783  82.8224916  77.2946482 118.7881087  83.8392952  76.3752623
 110.0163794  82.6304968  63.1514002 110.9622899  82.5011177  63.2202420
 109.6378039  81.8919630  63.6283430 118.3274951  80.5519959  77.1545081
 117.8114000  79.7678416  76.9675010 119.2114900  80.2238676  77.3191601
 115.9885678  74.2960974  73.1140894 115.7910499  73.9876063  73.9984226
 116.5985384  75.0222613  73.2438824 109.9002486  86.6822715  84.6114659
 110.8205496  86.8601314  84.8054705 109.8652069  85.7378760  84.4594358
 108.2006711  80.5554945  63.0868887 107.2938166  80.2588058  63.1631601
 108.4782692  80.2584763  62.2203173  99.1184651  81.8761308  73.5367934
  98.7987436  81.0226616  73.2442308  98.5718080  82.0909886  74.2925901
 102.8964559  84.5923749  77.2537440 103.1150569  85.5240857  77.2725474
 103.3090333  84.2331724  78.0392244 109.8168777  75.0991835  69.2413128
 109.0069505  74.7538920  69.6168375 110.5053194  74.7899378  69.8300740
 111.7459325  74.1769881  70.8637425 112.2990364  74.5965335  71.5227448
 111.9829411  73.2505629  70.9060381 107.7692424  80.1656955  86.6440189
 107.6689151  81.1151312  86.5752280 107.5513966  79.8375194  85.7716259
 106.9705496  77.4141880  63.2280866 107.8324660  77.7396778  63.4876684
 107.1555840  76.6273376  62.7153932  98.9872911  85.4964220  75.5061055
  98.2936383  85.0818173  74.9931010  99.7345902  85.5384756  74.9094474
 115.1238132  76.2870407  70.3716089 114.5436801  76.9455211  69.9894142
 114.8574065  75.4647751  69.9603507 113.5741698  75.6875464  72.5737410
 114.0741477  75.7991999  71.7651729 114.2177306  75.3836517  73.2138218
 107.6323694  83.5954094  85.4605251 107.1490776  84.3954454  85.6669140
 107.7184633  83.6062039  84.5072695 100.9009654  85.4282474  73.3827070
 100.8780342  85.5270161  72.4308953 101.2110290  86.2747624  73.7044236
 103.5597032  87.4858629  77.4973684 104.5140285  87.4542571  77.4303616
 103.3609555  87.0249252  78.3123910 104.1496414  86.0559745  80.0644482
 104.9689303  86.5503823  80.0879319 104.4233222  85.1391713  80.0362050
 113.9063010  78.4470497  69.4272438 113.0188865  78.7320148  69.2092632
 114.3216999  78.2864260  68.5799715 117.2577546  78.4717018  73.1426777
 118.0337936  78.9613470  73.4151394 116.5325680  78.8975072  73.5998646
 119.6950105  79.1844637  74.2000717 120.2894596  78.9440373  73.4894026
 119.7676689  78.4651768  74.8274254 101.9147261  93.0278248  74.5143882
 101.7801728  92.2678649  73.9481880 101.4979323  93.7519148  74.0472671
 113.0506224  88.2115172  63.5220458 113.7542074  88.4165174  64.1378113
 112.3268872  88.7791933  63.7869541 113.8804034  83.9625033  69.6422728
 113.8239235  84.4193584  68.8030360 114.4332376  83.2015717  69.4645571
 117.6908840  79.7514765  70.4672847 117.4345774  79.3511400  71.2981055
 117.0661708  80.4658559  70.3422986 105.0716386  93.9247565  74.7262325
 104.9548771  94.8692998  74.6241015 104.2508833  93.6221127  75.1148124
 114.9592921  88.6497701  65.5718918 115.7938525  88.2178899  65.3896392
 114.7977264  88.4779714  66.4995812 114.6138813  85.1529814  66.9375257
 114.5587617  84.9874086  65.9963701 113.9884868  85.8605847  67.0937447
  99.4031328  80.3897878  80.7636679 100.0490192  79.8796832  81.2523904
  99.1948479  81.1266560  81.3380104 111.9284720  87.4578726  86.2628820
 112.7975880  87.6319378  85.9015455 111.4491472  88.2773143  86.1404549
 107.9234939  74.6537923  66.5160575 107.9113608  75.5979763  66.6728846
 108.8158360  74.4708068  66.2220037 106.0970901  94.5775827  77.9418253
 106.9998147  94.6099437  78.2584748 105.8708271  93.6476278  77.9564589
 107.8524503  93.3306813  74.6028332 106.9020134  93.3308675  74.4892704
 108.1556989  92.5839548  74.0864367 111.7387058  71.2480700  70.7706512
 110.9719454  70.6939186  70.9163194 112.1497763  71.3202568  71.6320664
 103.7428819  77.5365496  84.8611693 104.6060281  77.1802300  85.0715018
 103.1694230  77.1979390  85.5487098 120.3966902  99.1194780  75.6035619
 120.0585414  99.0035845  74.7156154 121.2656670  98.7185945  75.5836625
 116.2553718 100.9730256  71.5932510 115.6918583 100.8820193  70.8248798
 116.1406113 100.1530161  72.0735003 120.8786685 100.2729632  81.5621825
 120.8675326  99.8782430  80.6902328 121.0407325  99.5395704  82.1555596
 113.8018150 102.4681448  74.4316730 114.5939442 102.1272273  74.0163030
 114.0414800 102.5776423  75.3518884 115.7608904 101.7290361  67.3034109
 116.5339780 101.1819348  67.1646985 116.1134303 102.5934611  67.5148571
 117.5993946 103.0566744  80.5101009 117.3083812 103.9612374  80.3947675
 118.2350931 103.0983271  81.2245078 118.5250153 100.4343592  77.1002368
 119.1213726 100.2099614  76.3859331 118.5825125  99.6928338  77.7027816
 118.0975182  97.8883027  64.9352559 118.3500702  97.3664549  64.1736022
 117.1599741  97.7249173  65.0379243 117.8171470  99.7911133  67.1376934
 117.7007729  99.1156037  67.8058018 117.9273730  99.3043507  66.3209087
 120.1603011  99.2521280  70.8423623 119.7961219  98.7251901  71.5536545
 121.0170127  98.8619749  70.6690109 119.8008498  94.2811180  65.8384972
 119.9682901  95.1491417  66.2055443 119.6105667  94.4438462  64.9146261
 116.0096313  99.1941956  73.5387507 115.0846809  99.0618170  73.7465198
 116.2580726  99.9736175  74.0357449 119.7797719  96.7368838  66.8231639
 119.6597344  97.1825888  67.6617119 119.0850308  97.0854155  66.2645177
 113.3705124  98.8375229  74.3731296 113.4997505  99.0909708  75.2870707
 112.6902575  99.4302937  74.0535951 120.0321841  96.6800345  83.1283137
 119.2555175  97.2394265  83.1186002 120.6712404  97.1657128  83.6498007
 118.2868213  99.4885798  82.6901104 119.0282898 100.0270842  82.4135927
 117.5805199 100.1152087  82.8472656 120.1154623  96.5687545  78.6606822
 120.9615818  96.9926959  78.8041471 120.0553261  95.9121170  79.3545385
 119.6380330 101.9290537  72.3075639 120.1018675 102.2078240  71.5180262
 119.3737128 101.0273982  72.1248730 116.5304411 101.4762019  75.2455403
 117.1005768 101.9049287  74.6072887 117.1212522 101.1944604  75.9439588
 118.5749216  98.0513690  69.1165204 119.2773259  98.5034733  69.5839131
 118.2429844  97.4097509  69.7445098 117.0229577  96.6425446  83.4916414
 116.3928238  97.3241727  83.7251811 116.9165665  96.5308528  82.5469552
 112.3174550  96.3097242  74.4182338 111.5273604  96.5654771  73.9422449
 112.8085797  97.1245580  74.5234379 114.2689295  96.6741822  71.3765815
 113.4720458  96.7860516  71.8949310 114.0414887  97.0128474  70.5106705
 120.0994963 103.1986525  79.3248329 120.1639395 103.6606932  80.1606501
 119.3905886 102.5683890  79.4530639 110.6012253  96.5627733  76.8497329
 110.8520291  97.4474743  77.1154905 111.1371801  96.3832334  76.0772421
 116.3010320  90.9446212  85.8541665 115.9077265  90.3912411  86.5289309
 117.1176460  91.2556791  86.2448182 113.2672378 102.3830070  69.7655235
 113.7796898 103.1773321  69.9160799 113.9195090 101.6856361  69.6988836
 115.0767262 105.4995827  71.8477988 115.2533891 106.4213791  71.6598972
 115.8724096 105.1854246  72.2772368 119.2178281  92.3604091  83.4461921
 119.9587994  92.9611244  83.3666384 119.4496204  91.6181729  82.8879964
 114.3619619  97.5460459  81.7240151 114.2473134  96.6445716  82.0247250
 113.5064137  97.7924155  81.3724968 116.1998578 107.0174000  77.8488330
 116.7506003 106.8891064  77.0765324 115.3610054 107.3168889  77.4983223
 119.9965749 103.2825128  82.1932561 120.5294086 102.5213416  81.9631869
 119.4679830 102.9898780  82.9356716 111.2321294 100.7118725  70.5414805
 112.0696516 101.1215733  70.3248513 111.4099562  99.7718167  70.5114999
 120.7132838  93.2243506  71.2883877 119.8574434  92.8350356  71.1089515
 121.1259789  93.3035467  70.4283662 118.4874870  90.8428579  74.6941618
 119.3527867  90.6471388  74.3347508 118.5552379  90.6138931  75.6210975
 121.3618462 102.4111121  69.7051373 120.8339823 101.6763880  69.3924611
 120.8605964 103.1885797  69.4591342 116.0937189  93.0730787  72.0657985
 116.6680941  92.8505969  71.3331178 116.6808172  93.1419482  72.8186586
 116.4206776  95.1035248  66.0853870 115.5844089  95.4409935  66.4063145
 116.2811546  94.9684228  65.1481007 118.3959857  89.9472036  70.7933054
 117.7424269  89.6321053  70.1689669 118.3540331  89.3247776  71.5192877
 119.5071062 100.2291331  62.7086346 118.5998123  99.9980584  62.9077495
 120.0042094  99.4328950  62.8960328 120.6859295 100.3303926  67.2310337
 119.7770514 100.0462959  67.3282806 120.7154379 100.7503004  66.3713643
 111.2547466  98.0509440  71.2125539 111.0571865  97.4578801  70.4876605
 110.6994130  97.7461650  71.9301478 119.2344189  97.9432546  73.3320132
 119.2892799  96.9906383  73.2562608 118.4235391  98.0991986  73.8161430
 120.3835383 101.8712670  64.5698415 119.9454813 101.1548528  64.1104052
 121.1245824 102.0988784  64.0083507 117.1736549  96.5609606  71.0910511
 116.3604415  96.8603777  71.4975703 117.6695543  96.1665295  71.8084993
 116.6650624  94.1327962  76.7071746 117.3050003  93.9916721  76.0094709
 115.8328154  93.8462475  76.3310348 117.4410928 103.4330392  72.8206738
 118.2351526 102.9380712  72.6189313 116.7302620 102.9048255  72.4574444
 113.7493691  97.5773474  68.8966491 112.8191279  97.5157929  69.1136453
 113.8451163  97.0549427  68.1003132 113.6679240  94.1028287  71.4844733
 113.9286058  95.0173620  71.3753893 114.4896413  93.6352729  71.6341345
 115.1404166  95.5166044  78.6543557 115.8127219  95.3083406  78.0056206
 114.3133952  95.3188130  78.2148789 120.0182204 104.0059414  76.5004575
 119.8793289 103.6378199  77.3730513 119.2296800 104.5207054  76.3288533
 121.5687419 103.3841017  73.8893413 121.2337252 103.3441787  74.7851063
 121.0691365 102.7185733  73.4163823 115.5431663  98.7908647  79.4145994
 115.4051461  98.0588886  80.0157533 116.4536586  98.7017547  79.1330182
 118.1713964  98.5028606  78.9029674 118.8813582  97.8621798  78.8616292
 118.1283272  98.7541501  79.8255855 116.8842898  95.4893824  80.7225313
 116.3480255  95.0384563  81.3746910 116.2959606  95.6239733  79.9795778
 116.2945156  94.9482475  63.2851777 115.4174623  94.8271276  62.9214024
 116.7702910  94.1568554  63.0330666 107.8147297  99.7359635  73.3793284
 108.5018336  99.4221365  72.7914299 107.6595425 100.6401000  73.1060536
 112.6182019  94.6249832  77.8078308 112.5340208  94.0175501  77.0728718
 111.7964725  95.1158850  77.8087804 119.3740701  95.2520778  72.9020187
 119.0038489  94.6991819  73.5901093 119.8699794  94.6478912  72.3495188
 117.2029900 105.7118273  79.9975205 117.9039359 106.3454756  80.1504600
 116.7325015 106.0533005  79.2370845 112.7997618 105.2454628  76.9306308
 113.3851055 104.4998316  77.0634212 112.6022456 105.5558585  77.8142972
 107.3915273  97.8160229  75.6510751 107.4299372  97.2823819  76.4447869
 106.8855566  97.2895434  75.0321728 114.7706035  92.6624769  79.1473294
 114.8347362  93.5239600  78.7350691 114.7073155  92.0498771  78.4145652
 114.2458308  94.7347902  82.7946328 114.8730346  94.3524979  83.4083852
 113.3886226  94.5162104  83.1602020 111.0223850  96.5424331  68.7264683
 111.3177291  95.6335009  68.6731736 110.1211886  96.5212070  68.4045685
 114.5518097  94.6180327  74.7092231 113.8304683  95.2316295  74.5699705
 115.3411353  95.1538092  74.6308877 117.3544411  91.9534754  80.9832883
 117.8778813  92.1997050  81.7459192 117.1356744  92.7854789  80.5636020
 112.7511692  94.2238428  68.8504008 112.4224398  93.3435807  68.6679114
 113.1051063  94.1686097  69.7380397 115.8653515  94.5111398  69.2179486
 116.2049588  95.0397319  68.4958094 116.3125636  94.8491804  69.9938052
 118.5596956  92.8948449  78.6682554 118.2193776  92.0956262  79.0703233
 117.8535962  93.1950160  78.0959387 119.2113428  89.9797761  77.1209877
 120.0339497  89.5058240  76.9988767 119.4551491  90.7588245  77.6208563
 117.8521662  93.0086020  67.4172778 118.5730025  93.3867273  66.9136495
 117.2286966  93.7274897  67.5207756 116.7352006  96.6716882  74.9301855
 116.5896587  96.9857185  75.8226137 116.2577210  97.2901782  74.3772754
 118.5948389  93.6619430  74.9782745 118.5809958  92.7660523  74.6415043
 119.3120817  93.6690094  75.6121031 120.4474520  94.0956770  77.0235872
 120.1892298  95.0173841  77.0220203 119.9159560  93.6987205  77.7136336
 111.2097669  99.2122226  77.8689516 110.6651137  99.9882034  78.0009791
 112.0877019  99.5593031  77.7108638 117.9985285  92.5433810  70.2470315
 118.1201196  91.6150456  70.4461202 117.7087328  92.5572496  69.3348630
 120.8676476  90.2288721  73.3837035 120.8898173  90.2928054  72.4289014
 121.2844535  89.3893229  73.5777541 111.9963691  98.3392123  80.7619673
 111.2545427  98.4874758  81.3484304 111.6756435  98.6000388  79.8986423
 112.4420304 106.2257551  72.7930068 113.2678324 105.9261323  72.4128711
 112.0914356 105.4565174  73.2419857 117.4101837 105.5784020  74.8627741
 116.7881847 104.9154725  74.5629969 118.0806704 105.6045151  74.1801389
 110.6428909 104.1443878  73.7519001 109.8060818 103.7166052  73.5703003
 110.6152555 104.3376321  74.6889793 117.4826365  94.0565808  84.4560248
 117.5314520  94.9327930  84.0738017 118.0248879  93.5143201  83.8831891
 116.9715344 104.1287943  68.3386202 117.1203465 104.8123407  67.6852875
 117.7781788 104.1093033  68.8535658 119.7125653  94.8097180  81.2106606
 118.8428963  95.1030746  80.9389195 119.9485134  95.3937625  81.9313870
 114.7267977 100.1553121  69.3447271 114.4814019  99.2515451  69.5427481
 114.8963892 100.1570271  68.4026749 113.9963625  95.8881478  66.8433432
 113.3032870  95.9625833  66.1873468 113.7515377  95.1241822  67.3654949
 119.0400465  95.8846863  63.0868887 118.1331921  95.5879975  63.1631601
 119.3176446  95.5876681  62.2203173 109.9578406  97.2053226  73.5367934
 109.6381190  96.3518534  73.2442308 109.4111834  97.4201804  74.2925901
 113.7358313  99.9215667  77.2537440 113.9544323 100.8532775  77.2725474
 114.1484087  99.5623641  78.0392244 120.6562531  90.4283752  69.2413128
 119.8463259  90.0830837  69.6168375 121.3446948  90.1191296  69.8300740
 118.6086179  95.4948873  86.6440189 118.5082906  96.4443230  86.5752280
 118.3907721  95.1667112  85.7716259 117.8099250  92.7433798  63.2280866
 118.6718414  93.0688696  63.4876684 117.9949594  91.9565294  62.7153932
 109.8266666 100.8256137  75.5061055 109.1330137 100.4110090  74.9931010
 110.5739657 100.8676674  74.9094474 118.4717449  98.9246012  85.4605251
 117.9884530  99.7246372  85.6669140 118.5578388  98.9353956  84.5072695
 111.7403408 100.7574391  73.3827070 111.7174096 100.8562078  72.4308953
 112.0504045 101.6039542  73.7044236 114.3990786 102.8150546  77.4973684
 115.3534040 102.7834489  77.4303616 114.2003310 102.3541170  78.3123910
 114.9890168 101.3851662  80.0644482 115.8083057 101.8795741  80.0879319
 115.2626976 100.4683630  80.0362050 112.7541015 108.3570166  74.5143882
 112.6195483 107.5970567  73.9481880 112.3373077 109.0811066  74.0472671
 110.2425083  95.7189796  80.7636679 110.8883946  95.2088750  81.2523904
 110.0342234  96.4558478  81.3380104 118.7628693  89.9829841  66.5160575
 118.7507363  90.9271681  66.6728846 119.6552115  89.7999986  66.2220037
 114.5822574  92.8657413  84.8611693 115.4454035  92.5094218  85.0715018
 114.0087984  92.5271308  85.5487098  52.5042086  -5.4616904  57.1967077
  52.4266115  -4.5109079  57.2755557  51.9003729  -5.8071032  57.8542003
  50.1428915  -2.7131510  61.3415279  50.3825514  -2.0812986  62.0194297
  49.2998112  -3.0643470  61.6280638  50.6173748  -6.6883508  58.6714057
  49.9484123  -6.2037380  58.1878097  50.4786617  -6.4414287  59.5857436
  54.7579016  -4.6539764  65.2696716  55.3097324  -4.4908143  66.0345801
  55.0985210  -4.0635326  64.5976740  47.7178489  -6.6119218  61.2389189
  47.5832957  -7.3718817  60.6727187  47.3010552  -5.8878318  60.7717978
  50.8747615  -5.7149901  61.4507632  50.7579999  -4.7704468  61.3486322
  50.0540061  -6.0176339  61.8393431  51.9002129  -5.0621639  64.6663560
  52.8029376  -5.0298029  64.9830055  51.6739499  -5.9921188  64.6809896
  66.1998131  -0.5202686  62.3280926  65.8616643  -0.6361621  61.4401461
  67.0687899  -0.9211521  62.3081932  62.0584947   1.3332791  58.3177817
  61.4949812   1.2422728  57.5494104  61.9437342   0.5132695  58.7980309
  66.6817914   0.6332166  68.2867131  66.6706555   0.2384964  67.4147635
  66.8438554  -0.1001761  68.8800903  59.6049379   2.8283982  61.1562037
  60.3970671   2.4874807  60.7408336  59.8446029   2.9378957  62.0764190
  67.6384506   5.0003758  53.6292282  66.9872485   5.5857839  53.2426295
  68.4328868   5.5309953  53.6887319  61.5640133   2.0892895  54.0279416
  62.3371009   1.5421883  53.8892292  61.9165532   2.9537145  54.2393877
  63.4025175   3.4169278  67.2346315  63.1115041   4.3214909  67.1192982
  64.0382160   3.4585805  67.9490385  64.3281382   0.7946126  63.8247675
  64.9244954   0.5702149  63.1104638  64.3856354   0.0530872  64.4273123
  69.1159771   2.6894190  54.1661266  68.4805604   2.7628817  54.8782171
  68.7857177   3.2787789  53.4880345  63.6202699   0.1513668  53.8622241
  63.5038957  -0.5241429  54.5303325  63.7304959  -0.3353959  53.0454394
  65.9634240  -0.3876185  57.5668930  65.5992447  -0.9145564  58.2781852
  66.8201356  -0.7777716  57.3935415  68.3615060   3.1030693  64.2296109
  68.0615783   4.0055732  64.1211916  68.0166120   2.8362876  65.0817262
  61.8127542  -0.4455510  60.2632813  60.8878038  -0.5779296  60.4710505
  62.0611955   0.3338709  60.7602756  59.1736353  -0.8022236  61.0976602
  59.3028734  -0.5487757  62.0116014  58.4933804  -0.2094528  60.7781257
  63.3435840   9.8675014  57.1967077  63.2659870  10.8182839  57.2755557
  62.7397484   9.5220886  57.8542003  64.0899442  -0.1511668  69.4146411
  64.8314127   0.3873376  69.1381234  63.3836428   0.4754621  69.5717962
  69.5654782   1.9917473  68.0118572  69.9738138   1.5499883  67.2673204
  68.8432043   1.4170100  68.2652765  69.8883596   2.5518663  61.7670861
  69.2592459   2.7164378  61.0646929  69.5009259   2.9660273  62.5381825
  73.7672828   3.4873101  59.1215225  73.0823867   3.8672003  58.5712258
  73.8516678   4.0968428  59.8547172  71.0223760   1.1333060  65.7210568
  71.2340655   1.7764820  65.0444949  70.9753508   0.2995377  65.2532498
  65.4411558   2.2893072  59.0320946  65.9049904   2.5680775  58.2425568
  65.1768356   1.3876516  58.8494037  62.3335639   1.8364553  61.9700709
  62.9036997   2.2651821  61.3318194  62.9243751   1.5547138  62.6684895
  58.1205778  -3.3300223  61.1427645  57.3304832  -3.0742695  60.6667755
  58.6117026  -2.5151886  61.2479685  72.1369588   4.0105016  63.8932926
  72.9587032   3.6085203  63.6115607  72.1331991   3.9073250  64.8449041
  60.0720524  -2.9655644  58.1011121  59.2751687  -2.8536950  58.6194617
  59.8446116  -2.6268992  57.2352012  65.9026191   3.5589059  66.0493636
  65.9670624   4.0209466  66.8851808  65.1937115   2.9286424  66.1775946
  56.4043481  -3.0769733  63.5742635  56.6551520  -2.1922723  63.8400211
  56.9403030  -3.2565131  62.8017727  65.6174209   5.2257167  55.9172616
  65.4819884   6.0708702  56.3457464  66.1584022   5.4276444  55.1538550
  59.0703606   2.7432605  56.4900541  59.5828127   3.5375855  56.6406106
  59.7226319   2.0458895  56.4234143  60.8798491   5.8598361  58.5723295
  61.0565119   6.7816326  58.3844278  61.6755325   5.5456780  59.0017674
  60.1650848  -2.0937007  68.4485458  60.0504363  -2.9951750  68.7492557
  59.3095365  -1.8473310  68.0970274  67.2442685   5.8480733  70.0472958
  66.8006540   5.0617112  69.7293863  67.9059899   6.0359884  69.3816849
  62.0029807   7.3776535  64.5733637  62.5537232   7.2493598  63.8010631
  61.1641283   7.6771424  64.2228530  69.3423923   6.1283533  68.0754360
  69.3242399   6.9492414  67.5834629  70.2643844   6.0037608  68.3004501
  65.7996978   3.6427662  68.9177868  66.3325314   2.8815951  68.6877176
  65.2711059   3.3501314  69.6602023  57.0352523   1.0721259  57.2660112
  57.8727745   1.4818267  57.0493820  57.2130791   0.1320701  57.2360306
  67.1649690   2.7713655  56.4296680  66.6371052   2.0366415  56.1169918
  66.6637193   3.5488331  56.1836648  72.1442536   0.9662675  61.5463726
  71.4866211   1.6561937  61.6343855  72.9482936   1.3559107  61.8897713
  65.3102291   0.5893865  49.4331653  64.4029352   0.3583119  49.6322802
  65.8073323  -0.2068516  49.6205635  68.2170369   9.2991372  52.3528339
  67.5432068   9.6023069  52.9613297  68.6036191  10.1020453  52.0033796
  66.4890524   0.6906460  53.9555643  65.5801743   0.4065493  54.0528113
  66.5185608   1.1105539  53.0958950  71.7209791   4.3013050  57.7246811
  71.2672118   3.4603959  57.7812001  71.0903758   4.9374448  58.0621591
  70.1642731   6.1389546  58.6596629  70.4565705   6.6994603  57.9408995
  70.6741351   6.4318107  59.4149788  57.0578694  -1.5888026  57.9370845
  56.8603094  -2.1818665  57.2121912  56.5025358  -1.8935816  58.6546784
  66.1866612   2.2315204  51.2943722  65.7486042   1.5151063  50.8349359
  66.9277053   2.4591319  50.7328813  65.1276356   6.9169897  59.7490082
  65.0852535   7.1430744  58.8198614  66.0439055   6.6833272  59.8975883
  74.3309106   2.5748928  62.3631312  74.7645613   2.4824217  63.2114366
  75.0440687   2.5506428  61.7251328  63.2442157   3.7932926  59.5452045
  64.0382755   3.2983247  59.3434620  62.5333849   3.2650790  59.1819750
  68.0637001   6.1751022  63.8964412  68.1174023   6.7441958  64.6642128
  67.1951782   6.3452907  63.5318450  59.5524920  -2.0623992  55.6211798
  58.6222508  -2.1239536  55.8381760  59.6482392  -2.5848039  54.8248439
  75.1924656   2.6172628  64.8964197  75.3860546   3.5218439  65.1423472
  75.0925274   2.1580048  65.7302782  70.2539764   2.7679371  70.4705078
  70.1025271   2.5389923  69.5535162  70.2444444   3.7249973  70.4836423
  67.0225101   0.3411284  65.4551344  67.9517161   0.4922444  65.2820312
  66.6016131   0.4295305  64.5999991  65.8213433   4.3661948  63.2249882
  65.6824518   3.9980733  64.0975820  65.0328029   4.8809588  63.0533840
  66.4161585   9.4671045  54.5675418  66.5913340   8.9959088  55.3821041
  65.7294373  10.0936811  54.7956679  67.3718648   3.7443551  60.6138720
  67.0368480   3.7044321  61.5096370  66.8722593   3.0788267  60.1409130
  61.3462892  -0.8488819  66.1391301  61.2082690  -1.5808580  66.7402840
  62.2567815  -0.9379919  65.8575489  70.3077839   1.0899585  50.8875779
  69.6907010   0.3646414  50.7908832  69.8394328   1.8508946  50.5442854
  63.9745192  -1.1368860  65.6274981  64.6844811  -1.7775667  65.5861599
  63.9314501  -0.8855965  66.5501161  71.9631971   5.7998494  68.5481560
  71.9044517   5.1157714  67.8812143  72.3651489   6.5417484  68.0962186
  60.9822670  12.6160408  61.3415279  61.2219268  13.2478932  62.0194297
  60.1391866  12.2648448  61.6280638  71.9649378   3.7638078  66.7795539
  71.0776157   3.4263999  66.9021938  72.5347929   3.0321109  67.0164305
  53.6178525   0.0962169  60.1038591  54.3049565  -0.2176101  59.5159606
  53.4626654   1.0003534  59.8305842  65.4950532   8.4239530  63.7456783
  65.4220703   9.2294502  64.2576087  65.0527925   8.6231496  62.9204804
  65.2840311   7.6611300  57.2559604  64.5007833   8.2032980  57.3497829
  65.9833057   8.1785280  57.6553845  67.9549215   8.3226364  65.9014941
  68.6677187   8.9573829  65.8290843  67.4639244   8.4190230  65.0854943
  69.6766742   2.2277617  57.4732233  68.7423021   2.3479079  57.3036937
  69.8543411   1.3250084  57.2092243  63.0061129   6.0720808  66.7220512
  63.7070588   6.7057290  66.8749906  62.5356244   6.4135539  65.9616151
  71.1315525   4.4138757  55.0068419  71.4075368   4.2995352  55.9162293
  70.2620023   4.0156242  54.9680592  67.7669589   8.6625108  58.6501233
  67.9491983   7.8446764  59.1128985  68.5902575   8.8792800  58.2126123
  68.1011754   7.5893293  55.9116281  68.6299521   7.0785748  55.2986443
  68.3639974   7.2735823  56.7761814  66.8549988  -0.6314774  71.0339100
  66.1790625  -0.7320645  71.7041475  67.6777622  -0.7875560  71.4975097
  58.6028847   5.6057163  63.6551615  59.1882284   4.8600850  63.7879519
  58.4053685   5.9161119  64.5388279  61.4567502   8.6408410  58.6714057
  60.7877877   9.1254538  58.1878097  61.3180372   8.8877630  59.5857436
  53.1946502  -1.8237237  62.3756058  53.2330601  -2.3573647  63.1693176
  52.6886794  -2.3502032  61.7567035  65.5972771  10.6752153  65.2696716
  66.1491079  10.8383775  66.0345801  65.9378964  11.2656591  64.5976740
  70.4483645   5.5013411  71.1245370  70.9923549   6.1143369  70.6300325
  69.8670490   6.0592989  71.6412383  56.8255079  -3.0973135  55.4509989
  57.1208520  -4.0062457  55.3977043  55.9243115  -3.1185396  55.1290992
  68.7341158   8.6234129  62.2560398  68.6092297   7.8223869  61.7471343
  69.3920249   9.1180322  61.7674368  70.7976066   6.4243149  63.8839948
  69.8506402   6.3048500  63.8118274  71.1458839   5.5365647  63.9666209
  67.8022500   6.2195865  60.0844300  67.6547462   5.2912573  60.2651870
  68.6275993   6.2415956  59.6001375  71.4056621   7.0424424  61.1709173
  72.3303169   6.8367285  61.0333624  71.2371925   6.7940825  62.0798514
  71.1951938   7.5610091  56.5271264  71.3688815   6.9956514  55.7745117
  71.6880829   8.3610986  56.3450754  57.0128897  -0.4275239  64.5934823
  56.4682366   0.3484569  64.7255097  57.8908247  -0.0804435  64.4353944
  72.1827110   6.8776856  53.6268162  72.8778015   7.4983549  53.8455477
  72.5250260   6.0272207  53.9020540  57.7994919  -1.3005343  67.4864980
  57.0576655  -1.1522708  68.0729610  57.4787664  -1.0397078  66.6231729
  74.0818533   4.3276561  55.1555493  74.6069857   4.6663834  54.4304813
  73.9940886   3.3923577  54.9718628  65.7438582   8.2410635  67.2845370
  66.0525708   7.9959782  68.1568069  66.5414064   8.4457274  66.7964240
  65.7659194  10.3948545  59.5150746  65.3264184   9.9024923  60.2083603
  66.5167311   9.8521512  59.2742822  58.2451533   6.5860086  59.5175374
  59.0709553   6.2863857  59.1374018  57.8945585   5.8167708  59.9665163
  63.2133066   5.9386554  61.5873048  62.5913075   5.2757259  61.2875276
  63.8837933   5.9647686  60.9046696  56.4460138   4.5046412  60.4764308
  55.6092046   4.0768586  60.2948309  56.4183783   4.6978855  61.4135099
  73.7712439   4.9609465  70.4606691  72.9807983   4.9433604  69.9211191
  73.5345794   5.4997759  71.2155728  62.7746573   4.4890477  55.0631509
  62.9234693   5.1725942  54.4098181  63.5813017   4.4695567  55.5780964
  75.3928511   4.2298873  68.0181441  75.1013320   4.5928854  68.8544902
  74.7800642   3.5165881  67.8394773  60.5299206   0.5155655  56.0692578
  60.2845248  -0.3882015  56.2672788  60.6995121   0.5172805  55.1272056
  66.2741979   6.9838608  52.5343256  65.7015946   7.6028795  52.0813728
  66.8474772   7.5337969  53.0683178  69.4939238   7.2675758  53.6651838
  70.4269912   7.2021319  53.8684714  69.4062451   8.1032025  53.2066371
  72.1227255   6.5841628  50.6255786  72.0440887   6.2501492  51.5191544
  72.9436922   7.0763396  50.6247258  66.5427470   2.3717166  71.3359966
  67.4630479   2.5495765  71.5300012  66.5077053   1.4273212  71.1839665
  55.7609635  -2.4344240  60.2613240  55.4412419  -3.2878932  59.9687614
  55.2143063  -2.2195662  61.0171208  59.5389542   0.2818201  63.9782747
  59.7575552   1.2135309  63.9970781  59.9515316  -0.0773824  64.7637551
  55.6297895   1.1858672  62.2306362  54.9361366   0.7712624  61.7176316
  56.3770886   1.2279208  61.6339781  64.2748678  -0.7151454  72.1850557
  63.7915759   0.0848906  72.3914446  64.3609617  -0.7043509  71.2318001
  57.5434637   1.1176925  60.1072377  57.5205325   1.2164613  59.1554260
  57.8535274   1.9642076  60.4289543  60.2022015   3.1753080  64.2218991
  61.1565269   3.1437023  64.1548923  60.0034539   2.7143704  65.0369217
  60.7921397   1.7454196  66.7889789  61.6114286   2.2398275  66.8124626
  61.0658205   0.8286165  66.7607356  58.5572244   8.7172700  61.2389189
  58.4226712   7.9573101  60.6727187  58.1404306   9.4413600  60.7717978
  69.6931207   3.9009623  50.2465764  70.3967057   4.1059626  50.8623420
  68.9693856   4.4686385  50.5114848  61.7141370   9.6142017  61.4507632
  61.5973754  10.5587449  61.3486322  60.8933816   9.3115578  61.8393431
  71.6017904   4.3392153  52.2964224  72.4363508   3.9073351  52.1141699
  71.4402247   4.1674166  53.2241119  71.2563796   0.8424266  53.6620564
  71.2012600   0.6768537  52.7209008  70.6309852   1.5500299  53.8182753
  56.0456311  -3.9207670  67.4881986  56.6915175  -4.4308716  67.9769211
  55.8373463  -3.1838988  68.0625411  68.5709704   3.1473178  72.9874126
  69.4400863   3.3213830  72.6260761  68.0916455   3.9667595  72.8649856
  62.7395884  10.2670279  64.6663560  63.6423131  10.2993889  64.9830055
  62.5133254   9.3370730  64.6809896  64.4949486   9.0201265  61.3273639
  63.5445117   9.0203127  61.2138011  64.7981972   8.2734000  60.8109673
  80.2302179  14.8561804  62.3919401  80.8680589  14.7368551  61.6882741
  80.1123022  15.8042648  62.4507353  77.0391886  14.8089232  62.3280926
  76.7010397  14.6930297  61.4401461  77.9081654  14.4080397  62.3081932
  72.8978701  16.6624708  58.3177817  72.3343566  16.5714645  57.5494104
  72.7831096  15.8424613  58.7980309  77.5211669  15.9624084  68.2867131
  77.5100309  15.5676882  67.4147635  77.6832308  15.2290156  68.8800903
  70.4443133  18.1575900  61.1562037  71.2364425  17.8166725  60.7408336
  70.6839783  18.2670875  62.0764190  78.4778260  20.3295676  53.6292282
  77.8266240  20.9149756  53.2426295  79.2722623  20.8601871  53.6887319
  72.4033887  17.4184813  54.0279416  73.1764763  16.8713800  53.8892292
  72.7559286  18.2829062  54.2393877  74.2418930  18.7461195  67.2346315
  73.9508796  19.6506826  67.1192982  74.8775914  18.7877723  67.9490385
  75.1675137  16.1238044  63.8247675  75.7638709  15.8994066  63.1104638
  75.2250108  15.3822789  64.4273123  74.7400165  13.5777479  51.6597866
  74.9925686  13.0559001  50.8981329  73.8024724  13.4143625  51.7624549
  79.7843448  12.5813258  59.4672609  80.5706537  12.1632681  59.1163026
  80.0482152  13.4859350  59.6354257  79.9553525  18.0186108  54.1661266
  79.3199358  18.0920734  54.8782171  79.6250932  18.6079707  53.4880345
  85.1851875  12.5188491  60.3705588  85.9177047  11.9487708  60.6043417
  84.4291231  12.1310091  60.8112093  74.4596454  15.4805585  53.8622241
  74.3432712  14.8050489  54.5303325  74.5698714  14.9937959  53.0454394
  76.8027995  14.9415732  57.5668930  76.4386202  14.4146353  58.2781852
  77.6595111  14.5514201  57.3935415  82.7077295   6.2310065  64.8300196
  82.3760620   7.1005476  64.6061411  82.1122909   5.9146349  65.5094227
  76.4433482   9.9705632  52.5630279  76.6107884  10.8385868  52.9300750
  76.2530651  10.1332914  51.6391568  79.2008815  18.4322611  64.2296109
  78.9009538  19.3347650  64.1211916  78.8559874  18.1654794  65.0817262
  72.6521296  14.8836408  60.2632813  71.7271793  14.7512622  60.4710505
  72.9005710  15.6630627  60.7602756  82.6005959  10.9505151  61.9093546
  81.6922836  10.8820560  61.6152307  82.5493554  11.4277096  62.7375372
  76.4222703  12.4263290  53.5476945  76.3022328  12.8720340  54.3862426
  75.7275291  12.7748607  52.9890484  70.0130107  14.5269681  61.0976602
  70.1422489  14.7804160  62.0116014  69.3327559  15.1197389  60.7781257
  74.1829595  25.1966931  57.1967077  74.1053624  26.1474756  57.2755557
  73.5791238  24.8512804  57.8542003  76.6746824  12.3694797  69.8528444
  75.8980158  12.9288717  69.8431308  77.3137387  12.8551580  70.3743314
  84.4667605   9.1521590  63.6871420  83.8241985   9.4454123  63.0411215
  83.9622534   9.0374510  64.4924617  82.1207769  12.8984763  54.3757279
  83.0325625  13.1312149  54.2004977  81.6117416  13.4821807  53.8132358
  74.9293197  15.1780250  69.4146411  75.6707881  15.7165294  69.1381234
  74.2230182  15.8046539  69.5717962  80.4048536  17.3209391  68.0118572
  80.8131892  16.8791801  67.2673204  79.6825798  16.7462018  68.2652765
  76.7579606  12.2581997  65.3852129  77.6040802  12.6821411  65.5286778
  76.6978244  11.6015622  66.0790692  80.7277351  17.8810581  61.7670861
  80.0986213  18.0456295  61.0646929  80.3403013  18.2952191  62.5381825
  84.6066583  18.8165019  59.1215225  83.9217621  19.1963920  58.5712258
  84.6910432  19.4260346  59.8547172  79.9079052   9.9186366  67.0433303
  79.6639984  10.6728426  66.5067578  80.1838982  10.2971713  67.8780550
  81.8617514  16.4624978  65.7210568  82.0734410  17.1056738  65.0444949
  81.8147263  15.6287295  65.2532498  79.4643743   9.0742799  62.6247140
  78.6028222   9.3724052  62.9163878  79.4906178   9.2913198  61.6928173
  76.2805313  17.6184989  59.0320946  76.7443658  17.8972692  58.2425568
  76.0162111  16.7168434  58.8494037  73.1729394  17.1656471  61.9700709
  73.7430751  17.5943739  61.3318194  73.7637506  16.8839055  62.6684895
  75.2174199  13.7408142  55.8410511  75.9198242  14.1929185  56.3084437
  74.8854827  13.0991960  56.4690404  73.6654560  12.3319898  70.2161721
  73.0353221  13.0136179  70.4497117  73.5590648  12.2202980  69.2714859
  68.9599533  11.9991694  61.1427645  68.1698587  12.2549223  60.6667755
  69.4510780  12.8140032  61.2479685  82.9763342  19.3396933  63.8932926
  83.7980786  18.9377121  63.6115607  82.9725745  19.2365168  64.8449041
  70.9114278  12.3636274  58.1011121  70.1145442  12.4754968  58.6194617
  70.6839870  12.7022926  57.2352012  76.7419946  18.8880977  66.0493636
  76.8064378  19.3501384  66.8851808  76.0330870  18.2578342  66.1775946
  67.2437236  12.2522185  63.5742635  67.4945274  13.1369195  63.8400211
  67.7796784  12.0726786  62.8017727  91.0669335  15.6835682  60.2417897
  90.3133044  15.1143080  60.0861901  91.2016877  15.6498346  61.1888532
  76.4567964  20.5549084  55.9172616  76.3213638  21.4000620  56.3457464
  76.9977776  20.7568362  55.1538550  72.9435303   6.6340664  72.5786972
  72.5502249   6.0806863  73.2534616  73.7601443   6.9451243  72.9693489
  69.9097361  18.0724522  56.4900541  70.4221881  18.8667773  56.6406106
  70.5620074  17.3750813  56.4234143  71.7192246  21.1890279  58.5723295
  71.8958874  22.1108243  58.3844278  72.5149079  20.8748698  59.0017674
  75.8603264   8.0498543  70.1707228  76.6012978   8.6505696  70.0911691
  76.0921187   7.3076181  69.6125271  71.0044602  13.2354910  68.4485458
  70.8898117  12.3340168  68.7492557  70.1489120  13.4818607  68.0970274
  78.0836440  21.1772651  70.0472958  77.6400294  20.3909029  69.7293863
  78.7453653  21.3651801  69.3816849  72.8423561  22.7068452  64.5733637
  73.3930986  22.5785516  63.8010631  72.0035037  23.0063341  64.2228530
  80.1817678  21.4575451  68.0754360  80.1636153  22.2784332  67.5834629
  81.1037598  21.3329526  68.3004501  76.6390732  18.9719580  68.9177868
  77.1719069  18.2107868  68.6877176  76.1104813  18.6793232  69.6602023
  79.8060427   4.0779646  64.4471510  79.4624696   4.9681288  64.3710620
  80.1739390   3.8881304  63.5841095  67.8746278  16.4013177  57.2660112
  68.7121500  16.8110185  57.0493820  68.0524545  15.4612619  57.2360306
  79.7710710  14.0688257  52.9543945  79.2557333  14.8392862  53.1932332
  79.4988018  13.3953393  53.5777006  77.3557821   8.9137958  58.0129183
  76.4999417   8.5244808  57.8334822  77.7684773   8.9929919  57.1528969
  78.8856967   6.4484301  62.4120743  78.3821763   6.4114436  61.5988548
  79.1787574   7.3577044  62.4717400  75.1299853   6.5323031  61.4186925
  75.9952850   6.3365840  61.0592814  75.1977362   6.3033383  62.3456282
  84.7444984  16.8220612  54.8897118  83.9674427  16.4831771  54.4452280
  85.4236465  16.8273235  54.2152083  79.5597013  11.9415349  54.7803726
  79.2547149  12.2561498  55.6313869  80.5127455  12.0196769  54.8231059
  78.0043445  18.1005573  56.4296680  77.4764806  17.3658332  56.1169918
  77.5030948  18.8780249  56.1836648  82.9836291  16.2954593  61.5463726
  82.3259965  16.9853855  61.6343855  83.7876690  16.6851025  61.8897713
  72.7362172   8.7625239  58.7903292  73.3105924   8.5400420  58.0576485
  73.3233155   8.8313933  59.5431893  81.7941750  14.6498966  59.5967668
  82.3073631  15.2828958  60.0989378  82.4442974  14.0500161  59.2311028
  73.0631760  10.7929700  52.8099177  72.2269072  11.1304386  53.1308452
  72.9236529  10.6578680  51.8726314  75.0384840   5.6366488  57.5178361
  74.3849253   5.3215505  56.8934976  74.9965314   5.0142228  58.2438184
  76.1496045  15.9185783  49.4331653  75.2423107  15.6875036  49.6322802
  76.6467077  15.1223402  49.6205635  79.0564124  24.6283290  52.3528339
  78.3825823  24.9314987  52.9613297  79.4429946  25.4312370  52.0033796
  78.2722581  12.1248421  61.8426009  77.3545142  12.3463368  61.6847697
  78.6882724  12.1994732  60.9837716  79.0557628  13.5239837  56.9728689
  79.8029447  14.0361234  56.6635811  79.3249218  13.2023890  57.8333082
  77.3284278  16.0198378  53.9555643  76.4195498  15.7357411  54.0528113
  77.3579362  16.4397456  53.0958950  82.5603546  19.6304967  57.7246811
  82.1065873  18.7895877  57.7812001  81.9297513  20.2666366  58.0621591
  81.5036465  10.5596953  58.9547478  80.7659222  10.0474339  59.2857721
  81.7563239  10.1197335  58.1430755  81.0036485  21.4681464  58.6596629
  81.2959459  22.0286521  57.9408995  81.5135106  21.7610025  59.4149788
  67.8972449  13.7403892  57.9370845  67.6996849  13.1473253  57.2121912
  67.3419113  13.4356102  58.6546784  75.8769173  13.6326998  60.0565439
  75.9317782  12.6800835  59.9807915  75.0660375  13.7886437  60.5406737
  77.0260366  17.5607121  51.2943722  76.5879796  16.8442980  50.8349359
  77.7670807  17.7883236  50.7328813  73.8161532  12.2504058  57.8155817
  73.0029398  12.5498229  58.2221010  74.3120527  11.8559747  58.5330300
  75.9670110  22.2461815  59.7490082  75.9246289  22.4722661  58.8198614
  76.8832809  22.0125190  59.8975883  79.4135744  12.7145883  66.6470711
  79.7685132  12.9417356  67.5065177  80.0607875  13.0464259  66.0247967
  85.1433481  15.8364318  57.3520040  85.0051380  16.0265914  56.4241230
  84.7869700  16.5983701  57.8088091  73.3075607   9.8222414  63.4317052
  73.9474987   9.6811173  62.7340016  72.4753138   9.5356927  63.0555654
  85.1702861  17.9040845  62.3631312  85.6039367  17.8116135  63.2114366
  85.8834441  17.8798346  61.7251328  74.0835911  19.1224844  59.5452045
  74.8776510  18.6275164  59.3434620  73.3727603  18.5942707  59.1819750
  78.9030756  21.5042940  63.8964412  78.9567778  22.0733876  64.6642128
  78.0345537  21.6744825  63.5318450  70.3918675  13.2667926  55.6211798
  69.4616263  13.2052381  55.8381760  70.4876147  12.7443879  54.8248439
  70.3104224   9.7922739  58.2090039  70.5711041  10.7068072  58.0999200
  71.1321396   9.3247181  58.3586652  71.7829149  11.2060496  65.3788864
  72.4552202  10.9977858  64.7301513  70.9558935  11.0082582  64.9394096
  86.0318410  17.9464546  64.8964197  86.2254300  18.8510357  65.1423472
  85.9319028  17.4871965  65.7302782  77.6854721   7.8322437  67.3954525
  77.0382636   8.5312386  67.3019001  78.4555736   8.2658581  67.7630773
  81.0933519  18.0971289  70.4705078  80.9419025  17.8681841  69.5535162
  81.0838198  19.0541890  70.4836423  77.8618855  15.6703202  65.4551344
  78.7910915  15.8214361  65.2820312  77.4409885  15.7587222  64.5999991
  76.6607187  19.6953866  63.2249882  76.5218273  19.3272650  64.0975820
  75.8721783  20.2101505  63.0533840  77.2555339  24.7962962  54.5675418
  77.4307095  24.3251006  55.3821041  76.5688127  25.4228729  54.7956679
  78.2112402  19.0735469  60.6138720  77.8762235  19.0336239  61.5096370
  77.7116348  18.4080185  60.1409130  72.1856646  14.4803099  66.1391301
  72.0476444  13.7483338  66.7402840  73.0961570  14.3911999  65.8575489
  81.1471594  16.4191503  50.8875779  80.5300765  15.6938331  50.7908832
  80.6788082  17.1800863  50.5442854  74.8138947  14.1923058  65.6274981
  75.5238565  13.5516250  65.5861599  74.7708255  14.4435953  66.5501161
  82.8025726  21.1290411  68.5481560  82.7438272  20.4449632  67.8812143
  83.2045244  21.8709401  68.0962186  73.5267881  11.1788276  67.4470620
  72.9905238  10.7279014  68.0992216  72.9384589  11.3134185  66.7041084
  71.8216424  27.9452325  61.3415279  72.0613023  28.5770849  62.0194297
  70.9785621  27.5940365  61.6280638  72.9370140  10.6376927  50.0097084
  72.0599606  10.5165728  49.6459330  73.4127893   9.8463006  49.7575972
  82.8043133  19.0929995  66.7795539  81.9169912  18.7555917  66.9021938
  83.3741684  18.3613027  67.0164305  64.4572280  15.4254087  60.1038591
  65.1443320  15.1115817  59.5159606  64.3020409  16.3295452  59.8305842
  69.2607002  10.3144284  64.5323614  69.1765191   9.7069953  63.7974024
  68.4389708  10.8053302  64.5333111  76.3344286  23.7531448  63.7456783
  76.2614458  24.5586419  64.2576087  75.8921679  23.9523414  62.9204804
  76.1234066  22.9903218  57.2559604  75.3401588  23.5324898  57.3497829
  76.8226811  23.5077197  57.6553845  79.4330716   8.7997847  59.8993810
  79.9299415   8.0467810  59.5794880  78.6617697   8.8362164  59.3337019
  87.2860473  14.5038213  61.5412101  87.2750350  15.3862928  61.1706034
  86.4177853  14.1509764  61.3466638  78.7942970  23.6518282  65.9014941
  79.5070942  24.2865747  65.8290843  78.3032998  23.7482148  65.0854943
  80.5160497  17.5569534  57.4732233  79.5816775  17.6770997  57.3036937
  80.6937165  16.6542001  57.2092243  76.0165685  10.9415230  59.6265494
  75.6463472  10.3886271  60.3146400  76.5124777  10.3373364  59.0740494
  83.9033048  13.3986854  58.0082267  84.3693500  14.2314845  57.9342570
  84.3540548  12.9331835  58.7127526  73.8454883  21.4012725  66.7220512
  74.5464343  22.0349208  66.8749906  73.3749998  21.7427457  65.9616151
  81.9709279  19.7430675  55.0068419  82.2469123  19.6287270  55.9162293
  81.1013778  19.3448160  54.9680592  81.8749711   5.7667441  62.0473168
  80.9612791   5.9971668  62.2155375  82.3042812   5.8505885  62.8987201
  81.6456169  13.9557333  64.5473062  80.9927619  14.2033240  63.8925515
  82.0236549  13.1421471  64.2135540  78.6063343  23.9917026  58.6501233
  78.7885738  23.1738682  59.1128985  79.4296329  24.2084718  58.2126123
  78.9405509  22.9185211  55.9116281  79.4693275  22.4077666  55.2986443
  79.2033728  22.6027741  56.7761814  77.6943742  14.6977144  71.0339100
  77.0184379  14.5971273  71.7041475  78.5171376  14.5416357  71.4975097
  69.4422601  20.9349080  63.6551615  70.0276038  20.1892768  63.7879519
  69.2447440  21.2453037  64.5388279  72.2961257  23.9700328  58.6714057
  71.6271632  24.4546455  58.1878097  72.1574126  24.2169548  59.5857436
  64.0340256  13.5054680  62.3756058  64.0724356  12.9718271  63.1693176
  63.5280549  12.9789886  61.7567035  76.4366525  26.0044071  65.2696716
  76.9884833  26.1675693  66.0345801  76.7772719  26.5948509  64.5976740
  71.4131018   8.3519221  65.8718600  71.4772345   9.2134052  65.4595998
  71.3498139   7.7393223  65.1390959  70.8883291  10.4242354  69.5191634
  71.5155330  10.0419431  70.1329159  70.0311210  10.2056555  69.8847327
  81.2877399  20.8305329  71.1245370  81.8317303  21.4435287  70.6300325
  80.7064244  21.3884907  71.6412383  67.6648834  12.2318783  55.4509989
  67.9602275  11.3229461  55.3977043  66.7636869  12.2106522  55.1290992
  79.5734912  23.9526047  62.2560398  79.4486052  23.1515787  61.7471343
  80.2314004  24.4472240  61.7674368  71.1943081  10.3074779  61.4337538
  70.4729666  10.9210747  61.2945011  71.9836336  10.8432544  61.3554184
  81.6369821  21.7535067  63.8839948  80.6900156  21.6340418  63.8118274
  81.9852594  20.8657565  63.9666209  73.9969394   7.6429206  67.7078190
  74.5203796   7.8891502  68.4704499  73.7781727   8.4749241  67.2881327
  69.3936675   9.9132880  55.5749314  69.0649381   9.0330259  55.3924420
  69.7476046   9.8580549  56.4625704  78.6416254  21.5487783  60.0844300
  78.4941217  20.6204490  60.2651870  79.4669748  21.5707874  59.6001375
  72.5078498  10.2005850  55.9424792  72.8474571  10.7291771  55.2203400
  72.9550619  10.5386256  56.7183359  82.2450376  22.3716342  61.1709173
  83.1696923  22.1659203  61.0333624  82.0765679  22.1232743  62.0798514
  75.2021939   8.5842901  65.3927860  74.8618760   7.7850714  65.7948540
  74.4960945   8.8844612  64.8204693  75.8538411   5.6692213  63.8455183
  76.6764480   5.1952691  63.7234074  76.0976475   6.4482697  64.3453870
  74.4946646   8.6980472  54.1418085  75.2155008   9.0761724  53.6381802
  73.8711950   9.4169348  54.2453063  78.6377768   9.4025621  55.0776417
  78.8541383  10.2850259  54.7765245  78.1571836   9.0111834  54.3482059
  73.3776990  12.3611334  61.6547162  73.2321570  12.6751637  62.5471443
  72.9002193  12.9796234  61.1018060  75.2373373   9.3513882  61.7028051
  75.2234941   8.4554975  61.3660349  75.9545801   9.3584546  62.3366337
  77.0899503   9.7851222  63.7481179  76.8317281  10.7068293  63.7465509
  76.5584544   9.3881657  64.4381643  82.0345692  22.8902009  56.5271264
  82.2082570  22.3248432  55.7745117  82.5274583  23.6902904  56.3450754
  67.8522652  14.9016678  64.5934823  67.3076120  15.6776486  64.7255097
  68.7302002  15.2487483  64.4353944  74.6410269   8.2328262  56.9715622
  74.7626180   7.3044908  57.1706509  74.3512311   8.2466948  56.0593937
  77.5101459   5.9183173  60.1082341  77.5323156   5.9822506  59.1534321
  77.9269518   5.0787681  60.3022848  87.8885083  15.6538432  58.1461564
  88.3316229  14.9045757  57.7480687  87.0111594  15.6448568  57.7635296
  83.0220865  22.2068774  53.6268162  83.7171769  22.8275466  53.8455477
  83.3644015  21.3564125  53.9020540  68.6388674  14.0286575  67.4864980
  67.8970410  14.1769210  68.0729610  68.3181418  14.2894840  66.6231729
  84.9212288  19.6568479  55.1555493  85.4463612  19.9955752  54.4304813
  84.8334640  18.7215494  54.9718628  76.5832336  23.5702553  67.2845370
  76.8919463  23.3251700  68.1568069  77.3807818  23.7749191  66.7964240
  76.6052948  25.7240462  59.5150746  76.1657939  25.2316841  60.2083603
  77.3561065  25.1813430  59.2742822  69.0845287  21.9152003  59.5175374
  69.9103307  21.6155775  59.1374018  68.7339339  21.1459626  59.9665163
  74.0526821  21.2678471  61.5873048  73.4306830  20.6049176  61.2875276
  74.7231688  21.2939603  60.9046696  67.2853893  19.8338330  60.4764308
  66.4485801  19.4060504  60.2948309  67.2577538  20.0270773  61.4135099
  74.1251348   9.7460259  71.1805554  74.1739504  10.6222382  70.7983324
  74.6673862   9.2037653  70.6077197  84.6106194  20.2901383  70.4606691
  83.8201738  20.2725522  69.9211191  84.3739548  20.8289676  71.2155728
  84.7304069  17.1393849  67.7739420  84.7802074  16.9743857  68.7154943
  84.6217992  16.2721108  67.3837301  73.6140328  19.8182395  55.0631509
  73.7628448  20.5017859  54.4098181  74.4206771  19.7987485  55.5780964
  82.0207831  13.1224777  69.0898726  82.9217694  12.9831242  68.7982724
  82.0955806  13.2879232  70.0296904  76.3550637  10.4991632  67.9351913
  75.4853946  10.7925198  67.6634501  76.5910117  11.0832077  68.6559176
  86.2322266  19.5590791  68.0181441  85.9407074  19.9220771  68.8544902
  85.6194397  18.8457799  67.8394773  87.4317948  17.1243670  60.5384012
  88.2664839  17.5633474  60.7021572  87.5677077  16.6482324  59.7192257
  84.4809454  14.6823405  66.4861499  84.9563576  14.8751052  65.6780351
  83.5575019  14.7382591  66.2404883  71.3692961  15.8447572  56.0692578
  71.1239002  14.9409902  56.2672788  71.5388875  15.8464723  55.1272056
  79.0589670   6.7171249  65.4517333  79.5771614   7.4532276  65.1263822
  78.7044803   7.0235242  66.2864092  70.6388608  11.5775930  53.5678739
  69.9457853  11.6520285  52.9118775  70.3940360  10.8136274  54.0900256
  77.1135733  22.3130525  52.5343256  76.5409700  22.9320712  52.0813728
  77.6868527  22.8629887  53.0683178  83.1811123  11.5589165  64.7189805
  84.1328546  11.6587263  64.7402029  83.0114573  10.7667434  65.2287889
  81.2025502   8.6444749  64.9049206  80.6075435   8.9249761  64.2095694
  80.9175199   9.1338649  65.6765947  80.3332993  22.5967675  53.6651838
  81.2663666  22.5313237  53.8684714  80.2456206  23.4323942  53.2066371
  82.9621010  21.9133546  50.6255786  82.8834641  21.5793409  51.5191544
  83.7830676  22.4055314  50.6247258  85.6599201  14.7795285  63.8332105
  85.6275521  13.8411286  64.0191788  86.2699824  14.8579322  63.0997929
  77.4982532  13.6491338  49.8759309  78.4441636  13.5197546  49.9447727
  77.1196777  12.9106000  50.3528737  85.8093689  11.5706328  63.8790388
  85.2932738  10.7864785  63.6920317  86.6933638  11.2425045  64.0436907
  83.4704416   5.3147344  59.8386200  83.2729237   5.0062432  60.7229532
  84.0804122   6.0408983  59.9684130  91.4775751  15.8411292  62.9738141
  92.2079139  15.5796580  63.5345845  90.8682696  15.1040014  63.0140209
  89.5591048  13.9819154  63.5712593  88.8324211  13.8475119  62.9629084
  89.1438335  14.2895983  64.3769311  77.3821224  17.7009084  71.3359966
  78.3024234  17.8787683  71.5300012  77.3470807  16.7565130  71.1839665
  75.6825449  11.5741314  49.8114194  74.7756904  11.2774427  49.8876907
  75.9601430  11.2771132  48.9448480  66.6003389  12.8947678  60.2613240
  66.2806173  12.0412986  59.9687614  66.0536817  13.1096256  61.0171208
  70.3783297  15.6110119  63.9782747  70.5969306  16.5427227  63.9970781
  70.7909070  15.2518093  64.7637551  77.2987514   6.1178204  55.9658435
  76.4888243   5.7725289  56.3413681  77.9871931   5.8085748  56.5546047
  79.2278063   5.1956251  57.5882732  79.7809101   5.6151704  58.2472755
  79.4648149   4.2691999  57.6305688  75.2511162  11.1843325  73.3685496
  75.1507889  12.1337682  73.2997587  75.0332704  10.8561563  72.4961566
  74.4524233   8.4328250  49.9526173  75.3143397   8.7583148  50.2121990
  74.6374578   7.6459746  49.4399239  66.4691649  16.5150589  62.2306362
  65.7755121  16.1004542  61.7176316  67.2164640  16.5571126  61.6339781
  82.6056870   7.3056776  57.0961396  82.0255539   7.9641580  56.7139448
  82.3392803   6.4834121  56.6848813  81.0560436   6.7061834  59.2982716
  81.5560215   6.8178368  58.4897035  81.6996044   6.4022887  59.9383525
  75.1142432  14.6140463  72.1850557  74.6309514  15.4140824  72.3914446
  75.2003371  14.6248408  71.2318001  68.3828392  16.4468843  60.1072377
  68.3599080  16.5456530  59.1554260  68.6929028  17.2933994  60.4289543
  71.0415770  18.5044998  64.2218991  71.9959023  18.4728940  64.1548923
  70.8428293  18.0435622  65.0369217  71.6315152  17.0746114  66.7889789
  72.4508041  17.5690193  66.8124626  71.9051959  16.1578082  66.7607356
  81.3881748   9.4656866  56.1517744  80.5007603   9.7506517  55.9337939
  81.8035737   9.3050630  55.3045021  84.7396284   9.4903387  59.8672083
  85.5156674   9.9799840  60.1396700  84.0144418   9.9161442  60.3243953
  87.1768843  10.2031007  60.9246024  87.7713333   9.9626743  60.2139332
  87.2495426   9.4838137  61.5519560  69.3965998  24.0464618  61.2389189
  69.2620466  23.2865018  60.6727187  68.9798061  24.7705517  60.7717978
  80.5324961  19.2301541  50.2465764  81.2360811  19.4351544  50.8623420
  79.8087610  19.7978303  50.5114848  81.3622772  14.9811402  56.3668034
  81.3057973  15.4379954  55.5275667  81.9151114  14.2202087  56.1890877
  85.1727578  10.7701134  57.1918154  84.9164512  10.3697770  58.0226362
  84.5480446  11.4844928  57.0668293  89.4839915  13.5097208  59.6989445
  88.9239473  13.5790397  60.4721007  88.8783419  13.3338192  58.9788942
  72.5535124  24.9433935  61.4507632  72.4367508  25.8879367  61.3486322
  71.7327570  24.6407496  61.8393431  82.4411659  19.6684070  52.2964224
  83.2757263  19.2365269  52.1141699  82.2796002  19.4966084  53.2241119
  82.0957551  16.1716184  53.6620564  82.0406355  16.0060455  52.7209008
  81.4703606  16.8792217  53.8182753  66.8850066  11.4084248  67.4881986
  67.5308929  10.8983202  67.9769211  66.6767217  12.1452930  68.0625411
  79.4103458  18.4765096  72.9874126  80.2794618  18.6505748  72.6260761
  78.9310210  19.2959512  72.8649856  75.4053676   5.6724293  53.2405882
  75.3932346   6.6166133  53.3974153  76.2977098   5.4894438  52.9465343
  73.5789638  25.5962197  64.6663560  74.4816885  25.6285807  64.9830055
  73.3527008  24.6662647  64.6809896  75.3343240  24.3493183  61.3273639
  74.3838871  24.3495045  61.2138011  75.6375726  23.6025918  60.8109673
  71.2247557   8.5551865  71.5857000  72.0879018   8.1988670  71.7960325
  70.6512968   8.2165760  72.2732404  91.0695934  30.1853721  62.3919401
  91.7074344  30.0660469  61.6882741  90.9516777  31.1334565  62.4507353
  87.8785640  30.1381150  62.3280926  87.5404152  30.0222214  61.4401461
  88.7475408  29.7372315  62.3081932  88.3605423  31.2916001  68.2867131
  88.3494064  30.8968800  67.4147635  88.5226063  30.5582074  68.8800903
  85.0812684  34.0753113  67.2346315  84.7902550  34.9798744  67.1192982
  85.7169669  34.1169641  67.9490385  86.0068891  31.4529962  63.8247675
  86.6032463  31.2285984  63.1104638  86.0643863  30.7114707  64.4273123
  96.0245629  27.8480408  60.3705588  96.7570801  27.2779625  60.6043417
  95.2684985  27.4602009  60.8112093  93.5471050  21.5601983  64.8300196
  93.2154375  22.4297394  64.6061411  92.9516663  21.2438267  65.5094227
  90.0402569  33.7614529  64.2296109  89.7403292  34.6639567  64.1211916
  89.6953629  33.4946712  65.0817262  93.4399713  26.2797069  61.9093546
  92.5316590  26.2112477  61.6152307  93.3887309  26.7569014  62.7375372
  80.8523862  29.8561599  61.0976602  80.9816243  30.1096078  62.0116014
  80.1721313  30.4489307  60.7781257  87.5140579  27.6986714  69.8528444
  86.7373913  28.2580635  69.8431308  88.1531142  28.1843497  70.3743314
  95.3061360  24.4813507  63.6871420  94.6635740  24.7746040  63.0411215
  94.8016288  24.3666428  64.4924617  85.7686951  30.5072168  69.4146411
  86.5101636  31.0457212  69.1381234  85.0623937  31.1338456  69.5717962
  91.2442291  32.6501308  68.0118572  91.6525647  32.2083719  67.2673204
  90.5219552  32.0753936  68.2652765  87.5973361  27.5873915  65.3852129
  88.4434556  28.0113329  65.5286778  87.5371999  26.9307539  66.0790692
  90.7472806  25.2478283  67.0433303  90.5033738  26.0020344  66.5067578
  91.0232737  25.6263631  67.8780550  92.7011269  31.7916896  65.7210568
  92.9128164  32.4348656  65.0444949  92.6541017  30.9579212  65.2532498
  90.3037498  24.4034716  62.6247140  89.4421977  24.7015970  62.9163878
  90.3299933  24.6205115  61.6928173  84.0123148  32.4948388  61.9700709
  84.5824505  32.9235657  61.3318194  84.6031260  32.2130973  62.6684895
  84.5048315  27.6611816  70.2161721  83.8746976  28.3428097  70.4497117
  84.3984403  27.5494898  69.2714859  79.7993287  27.3283612  61.1427645
  79.0092341  27.5841140  60.6667755  80.2904535  28.1431950  61.2479685
  93.8157097  34.6688851  63.8932926  94.6374541  34.2669038  63.6115607
  93.8119500  34.5657085  64.8449041  81.7508033  27.6928191  58.1011121
  80.9539196  27.8046885  58.6194617  81.5233625  28.0314843  57.2352012
  87.5813700  34.2172894  66.0493636  87.6458133  34.6793302  66.8851808
  86.8724624  33.5870259  66.1775946  78.0830990  27.5814102  63.5742635
  78.3339029  28.4661112  63.8400211  78.6190539  27.4018704  62.8017727
 101.9063090  31.0127600  60.2417897 101.1526798  30.4434998  60.0861901
 102.0410631  30.9790264  61.1888532  83.7829058  21.9632582  72.5786972
  83.3896003  21.4098780  73.2534616  84.5995198  22.2743160  72.9693489
  86.6997019  23.3790461  70.1707228  87.4406732  23.9797614  70.0911691
  86.9314941  22.6368099  69.6125271  81.8438357  28.5646828  68.4485458
  81.7291872  27.6632085  68.7492557  80.9882874  28.8110525  68.0970274
  88.9230194  36.5064568  70.0472958  88.4794049  35.7200947  69.7293863
  89.5847408  36.6943719  69.3816849  83.6817316  38.0360370  64.5733637
  84.2324741  37.9077433  63.8010631  82.8428791  38.3355259  64.2228530
  91.0211432  36.7867368  68.0754360  91.0029908  37.6076249  67.5834629
  91.9431353  36.6621444  68.3004501  87.4784487  34.3011498  68.9177868
  88.0112823  33.5399786  68.6877176  86.9498568  34.0085150  69.6602023
  90.6454182  19.4071564  64.4471510  90.3018451  20.2973205  64.3710620
  91.0133144  19.2173221  63.5841095  89.7250722  21.7776219  62.4120743
  89.2215518  21.7406354  61.5988548  90.0181329  22.6868962  62.4717400
  85.9693608  21.8614949  61.4186925  86.8346605  21.6657757  61.0592814
  86.0371117  21.6325300  62.3456282  83.5755927  24.0917157  58.7903292
  84.1499679  23.8692338  58.0576485  84.1626909  24.1605851  59.5431893
  85.8778595  20.9658405  57.5178361  85.2243007  20.6507423  56.8934976
  85.8359069  20.3434146  58.2438184  89.1116335  27.4540339  61.8426009
  88.1938896  27.6755286  61.6847697  89.5276479  27.5286650  60.9837716
  92.4441847  18.6665123  59.5489247  92.7500724  17.8062486  59.2615163
  93.1694452  19.2582743  59.3488241  78.7366203  29.0695810  57.9370845
  78.5390603  28.4765170  57.2121912  78.1812867  28.7648020  58.6546784
  90.2529499  28.0437800  66.6470711  90.6078886  28.2709273  67.5065177
  90.9001630  28.3756177  66.0247967  84.1469362  25.1514331  63.4317052
  84.7868741  25.0103090  62.7340016  83.3146892  24.8648845  63.0555654
  89.7424510  36.8334857  63.8964412  89.7961532  37.4025794  64.6642128
  88.8739291  37.0036742  63.5318450  81.1497978  25.1214656  58.2090039
  81.4104795  26.0359990  58.0999200  81.9715150  24.6539099  58.3586652
  82.6222903  26.5352413  65.3788864  83.2945957  26.3269776  64.7301513
  81.7952690  26.3374499  64.9394096  96.8712165  33.2756464  64.8964197
  97.0648055  34.1802274  65.1423472  96.7712783  32.8163883  65.7302782
  88.5248475  23.1614354  67.3954525  87.8776390  23.8604304  67.3019001
  89.2949491  23.5950498  67.7630773  91.9327273  33.4263207  70.4705078
  91.7812780  33.1973758  69.5535162  91.9231953  34.3833808  70.4836423
  88.7012610  30.9995119  65.4551344  89.6304670  31.1506279  65.2820312
  88.2803640  31.0879140  64.5999991  87.5000942  35.0245784  63.2249882
  87.3612027  34.6564568  64.0975820  86.7115538  35.5393423  63.0533840
  83.0250401  29.8095016  66.1391301  82.8870199  29.0775255  66.7402840
  83.9355324  29.7203917  65.8575489  85.6532701  29.5214976  65.6274981
  86.3632320  28.8808168  65.5861599  85.6102010  29.7727871  66.5501161
  93.6419480  36.4582329  68.5481560  93.5832026  35.7741549  67.8812143
  94.0438998  37.2001319  68.0962186  84.3661635  26.5080194  67.4470620
  83.8298992  26.0570932  68.0992216  83.7778344  26.6426102  66.7041084
  82.6610179  43.2744243  61.3415279  82.9006777  43.9062767  62.0194297
  81.8179375  42.9232283  61.6280638  93.6436887  34.4221913  66.7795539
  92.7563666  34.0847835  66.9021938  94.2135438  33.6904944  67.0164305
  75.2966034  30.7546005  60.1038591  75.9837074  30.4407735  59.5159606
  75.1414163  31.6587369  59.8305842  80.1000757  25.6436201  64.5323614
  80.0158945  25.0361871  63.7974024  79.2783463  26.1345220  64.5333111
  87.1738041  39.0823365  63.7456783  87.1008212  39.8878337  64.2576087
  86.7315434  39.2815331  62.9204804  90.2724470  24.1289765  59.8993810
  90.7693170  23.3759727  59.5794880  89.5011452  24.1654082  59.3337019
  98.1254228  29.8330130  61.5412101  98.1144104  30.7154846  61.1706034
  97.2571607  29.4801681  61.3466638  89.6336724  38.9810199  65.9014941
  90.3464696  39.6157664  65.8290843  89.1426753  39.0774065  65.0854943
  84.6848638  36.7304643  66.7220512  85.3858097  37.3641126  66.8749906
  84.2143753  37.0719374  65.9616151  92.7143465  21.0959358  62.0473168
  91.8006545  21.3263585  62.2155375  93.1436567  21.1797802  62.8987201
  92.4849924  29.2849250  64.5473062  91.8321374  29.5325158  63.8925515
  92.8630304  28.4713389  64.2135540  88.5337497  30.0269061  71.0339100
  87.8578134  29.9263191  71.7041475  89.3565131  29.8708275  71.4975097
  80.2816356  36.2640998  63.6551615  80.8669793  35.5184686  63.7879519
  80.0841194  36.5744955  64.5388279  74.8734011  28.8346598  62.3756058
  74.9118110  28.3010189  63.1693176  74.3674303  28.3081804  61.7567035
  87.2760280  41.3335989  65.2696716  87.8278588  41.4967610  66.0345801
  87.6166473  41.9240427  64.5976740  82.2524773  23.6811139  65.8718600
  82.3166099  24.5425970  65.4595998  82.1891893  23.0685140  65.1390959
  81.7277045  25.7534271  69.5191634  82.3549084  25.3711349  70.1329159
  80.8704964  25.5348473  69.8847327  92.1271154  36.1597246  71.1245370
  92.6711058  36.7727205  70.6300325  91.5457999  36.7176825  71.6412383
  78.5042588  27.5610700  55.4509989  78.7996029  26.6521379  55.3977043
  77.6030624  27.5398440  55.1290992  90.4128667  39.2817964  62.2560398
  90.2879806  38.4807704  61.7471343  91.0707758  39.7764158  61.7674368
  82.0336835  25.6366697  61.4337538  81.3123421  26.2502665  61.2945011
  82.8230091  26.1724462  61.3554184  92.4763575  37.0826984  63.8839948
  91.5293911  36.9632336  63.8118274  92.8246348  36.1949482  63.9666209
  84.8363149  22.9721123  67.7078190  85.3597550  23.2183420  68.4704499
  84.6175482  23.8041158  67.2881327  86.0415694  23.9134818  65.3927860
  85.7012514  23.1142632  65.7948540  85.3354700  24.2136529  64.8204693
  86.6932166  20.9984131  63.8455183  87.5158235  20.5244609  63.7234074
  86.9370229  21.7774615  64.3453870  84.2170744  27.6903252  61.6547162
  84.0715325  28.0043555  62.5471443  83.7395948  28.3088152  61.1018060
  86.0767127  24.6805800  61.7028051  86.0628696  23.7846893  61.3660349
  86.7939555  24.6876463  62.3366337  87.9293258  25.1143140  63.7481179
  87.6711036  26.0360210  63.7465509  87.3978298  24.7173574  64.4381643
  78.6916406  30.2308596  64.5934823  78.1469875  31.0068404  64.7255097
  79.5695756  30.5779400  64.4353944  85.4804023  23.5620180  56.9715622
  85.6019934  22.6336826  57.1706509  85.1906065  23.5758866  56.0593937
  88.3495213  21.2475090  60.1082341  88.3716910  21.3114423  59.1534321
  88.7663272  20.4079599  60.3022848  79.4782428  29.3578492  67.4864980
  78.7364164  29.5061128  68.0729610  79.1575173  29.6186758  66.6231729
  87.4226091  38.8994470  67.2845370  87.7313217  38.6543617  68.1568069
  88.2201573  39.1041109  66.7964240  78.1247647  35.1630247  60.4764308
  77.2879555  34.7352422  60.2948309  78.0971292  35.3562691  61.4135099
  84.9645103  25.0752177  71.1805554  85.0133258  25.9514300  70.7983324
  85.5067617  24.5329570  70.6077197  95.4499948  35.6193300  70.4606691
  94.6595492  35.6017439  69.9211191  95.2133303  36.1581594  71.2155728
  95.5697823  32.4685767  67.7739420  95.6195828  32.3035774  68.7154943
  95.4611747  31.6013026  67.3837301  92.8601586  28.4516695  69.0898726
  93.7611448  28.3123160  68.7982724  92.9349560  28.6171150  70.0296904
  87.1944391  25.8283550  67.9351913  86.3247700  26.1217116  67.6634501
  87.4303871  26.4123995  68.6559176  97.0716020  34.8882708  68.0181441
  96.7800828  35.2512689  68.8544902  96.4588151  34.1749717  67.8394773
  95.3203208  30.0115323  66.4861499  95.7957330  30.2042969  65.6780351
  94.3968774  30.0674509  66.2404883  89.8983425  22.0463167  65.4517333
  90.4165369  22.7824193  65.1263822  89.5438558  22.3527160  66.2864092
  90.1496019  18.4663449  60.9718230  90.4297773  17.7986638  61.5978656
  90.9346626  18.6592545  60.4592894  94.0204877  26.8881083  64.7189805
  94.9722300  26.9879181  64.7402029  93.8508328  26.0959352  65.2287889
  92.0419257  23.9736666  64.9049206  91.4469189  24.2541679  64.2095694
  91.7568954  24.4630567  65.6765947  96.4992955  30.1087203  63.8332105
  96.4669275  29.1703203  64.0191788  97.1093579  30.1871239  63.0997929
  96.6487444  26.8998246  63.8790388  96.1326492  26.1156703  63.6920317
  97.5327392  26.5716963  64.0436907  94.3098171  20.6439262  59.8386200
  94.1122992  20.3354350  60.7229532  94.9197876  21.3700901  59.9684130
 102.3169505  31.1703210  62.9738141 103.0472894  30.9088498  63.5345845
 101.7076451  30.4331932  63.0140209 100.3984802  29.3111072  63.5712593
  99.6717966  29.1767037  62.9629084  99.9832089  29.6187901  64.3769311
  88.2214979  33.0301002  71.3359966  89.1417988  33.2079601  71.5300012
  88.1864562  32.0857047  71.1839665  77.4397144  28.2239595  60.2613240
  77.1199928  27.3704904  59.9687614  76.8930572  28.4388174  61.0171208
  81.2177051  30.9402036  63.9782747  81.4363061  31.8719144  63.9970781
  81.6302825  30.5810011  64.7637551  88.1381269  21.4470122  55.9658435
  87.3281997  21.1017207  56.3413681  88.8265686  21.1377666  56.5546047
  90.0671817  20.5248169  57.5882732  90.6202856  20.9443622  58.2472755
  90.3041904  19.5983917  57.6305688  86.0904916  26.5135242  73.3685496
  85.9901643  27.4629599  73.2997587  85.8726459  26.1853481  72.4961566
  77.3085404  31.8442507  62.2306362  76.6148875  31.4296460  61.7176316
  78.0558395  31.8863043  61.6339781  93.4450624  22.6348694  57.0961396
  92.8649293  23.2933498  56.7139448  93.1786557  21.8126038  56.6848813
  91.8954191  22.0353751  59.2982716  92.3953969  22.1470286  58.4897035
  92.5389799  21.7314804  59.9383525  85.9536187  29.9432381  72.1850557
  85.4703268  30.7432741  72.3914446  86.0397126  29.9540326  71.2318001
  79.2222146  31.7760761  60.1072377  79.1992834  31.8748448  59.1554260
  79.5322783  32.6225912  60.4289543  81.8809524  33.8336916  64.2218991
  82.8352778  33.8020858  64.1548923  81.6822048  33.3727540  65.0369217
  82.4708906  32.4038032  66.7889789  83.2901795  32.8982111  66.8124626
  82.7445714  31.4870000  66.7607356  95.5790038  24.8195305  59.8672083
  96.3550429  25.3091758  60.1396700  94.8538173  25.2453359  60.3243953
  98.0162597  25.5322924  60.9246024  98.6107088  25.2918660  60.2139332
  98.0889181  24.8130055  61.5519560  80.2359753  39.3756535  61.2389189
  80.1014221  38.6156936  60.6727187  79.8191815  40.0997435  60.7717978
  96.0121332  26.0993052  57.1918154  95.7558266  25.6989688  58.0226362
  95.3874200  26.8136846  57.0668293 100.3233670  28.8389125  59.6989445
  99.7633228  28.9082315  60.4721007  99.7177173  28.6630110  58.9788942
  83.3928879  40.2725852  61.4507632  83.2761263  41.2171285  61.3486322
  82.5721325  39.9699414  61.8393431  77.7243820  26.7376166  67.4881986
  78.3702684  26.2275120  67.9769211  77.5160971  27.4744847  68.0625411
  90.2497213  33.8057013  72.9874126  91.1188372  33.9797665  72.6260761
  89.7703964  34.6251430  72.8649856  86.2447431  21.0016210  53.2405882
  86.2326101  21.9458050  53.3974153  87.1370853  20.8186356  52.9465343
  84.4183393  40.9254114  64.6663560  85.3210640  40.9577724  64.9830055
  84.1920763  39.9954565  64.6809896  90.0599550  17.5958987  57.4951819
  89.2931946  17.0417474  57.6408501  90.4710255  17.6680856  58.3565970
  82.0641311  23.8843783  71.5857000  82.9272773  23.5280588  71.7960325
  81.4906722  23.5457678  72.2732404 101.9089688  45.5145639  62.3919401
 102.5468098  45.3952386  61.6882741 101.7910531  46.4626483  62.4507353
  98.7179395  45.4673067  62.3280926  98.3797906  45.3514132  61.4401461
  99.5869163  45.0664232  62.3081932  94.5766210  47.3208544  58.3177817
  94.0131075  47.2298481  57.5494104  94.4618605  46.5008448  58.7980309
  99.1999178  46.6207919  68.2867131  99.1887818  46.2260717  67.4147635
  99.3619817  45.8873992  68.8800903  92.1230642  48.8159735  61.1562037
  92.9151934  48.4750560  60.7408336  92.3627292  48.9254710  62.0764190
 100.1565769  50.9879511  53.6292282  99.5053749  51.5733592  53.2426295
 100.9510132  51.5185706  53.6887319  94.0821396  48.0768648  54.0279416
  94.8552272  47.5297636  53.8892292  94.4346795  48.9412898  54.2393877
  95.9206439  49.4045031  67.2346315  95.6296305  50.3090662  67.1192982
  96.5563423  49.4461558  67.9490385  96.8462646  46.7821879  63.8247675
  97.4426218  46.5577902  63.1104638  96.9037617  46.0406625  64.4273123
  96.4187674  44.2361315  51.6597866  96.6713195  43.7142836  50.8981329
  95.4812233  44.0727460  51.7624549 101.4630957  43.2397093  59.4672609
 102.2494046  42.8216516  59.1163026 101.7269661  44.1443185  59.6354257
 101.6341034  48.6769943  54.1661266 100.9986867  48.7504570  54.8782171
 101.3038441  49.2663542  53.4880345 106.8639384  43.1772326  60.3705588
 107.5964556  42.6071543  60.6043417 106.1078740  42.7893927  60.8112093
  96.1383963  46.1389421  53.8622241  96.0220221  45.4634324  54.5303325
  96.2486223  45.6521794  53.0454394  98.4815504  45.5999568  57.5668930
  98.1173711  45.0730189  58.2781852  99.3382620  45.2098037  57.3935415
 104.3864804  36.8893900  64.8300196 104.0548129  37.7589311  64.6061411
 103.7910418  36.5730184  65.5094227 100.8796324  49.0906446  64.2296109
 100.5797047  49.9931485  64.1211916 100.5347383  48.8238629  65.0817262
  94.3308805  45.5420243  60.2632813  93.4059302  45.4096457  60.4710505
  94.5793218  46.3214462  60.7602756 104.2793468  41.6088986  61.9093546
 103.3710345  41.5404395  61.6152307 104.2281063  42.0860931  62.7375372
  98.1010211  43.0847125  53.5476945  97.9809837  43.5304176  54.3862426
  97.4062800  43.4332443  52.9890484  91.6917616  45.1853517  61.0976602
  91.8209997  45.4387996  62.0116014  91.0115068  45.7781225  60.7781257
  95.8617104  55.8550767  57.1967077  95.7841133  56.8058592  57.2755557
  95.2578747  55.5096639  57.8542003  98.3534333  43.0278632  69.8528444
  97.5767667  43.5872552  69.8431308  98.9924896  43.5135415  70.3743314
 106.1455114  39.8105425  63.6871420 105.5029494  40.1037958  63.0411215
 105.6410043  39.6958345  64.4924617 103.7995278  43.5568598  54.3757279
 104.7113134  43.7895985  54.2004977 103.2904925  44.1405642  53.8132358
  96.6080706  45.8364085  69.4146411  97.3495390  46.3749129  69.1381234
  95.9017691  46.4630374  69.5717962  98.4367115  42.9165833  65.3852129
  99.2828311  43.3405246  65.5286778  98.3765753  42.2599457  66.0790692
 102.4064860  48.5394416  61.7670861 101.7773722  48.7040131  61.0646929
 102.0190522  48.9536026  62.5381825 106.2854092  49.4748854  59.1215225
 105.6005130  49.8547756  58.5712258 106.3697941  50.0844181  59.8547172
 101.5866561  40.5770201  67.0433303 101.3427493  41.3312262  66.5067578
 101.8626491  40.9555549  67.8780550 103.5405023  47.1208813  65.7210568
 103.7521919  47.7640573  65.0444949 103.4934772  46.2871130  65.2532498
 101.1431252  39.7326634  62.6247140 100.2815731  40.0307888  62.9163878
 101.1693687  39.9497033  61.6928173  97.9592822  48.2768825  59.0320946
  98.4231167  48.5556528  58.2425568  97.6949620  47.3752269  58.8494037
  94.8516903  47.8240306  61.9700709  95.4218260  48.2527574  61.3318194
  95.4425015  47.5422891  62.6684895  95.3442069  42.9903734  70.2161721
  94.7140730  43.6720014  70.4497117  95.2378157  42.8786815  69.2714859
  90.6387042  42.6575530  61.1427645  89.8486096  42.9133058  60.6667755
  91.1298289  43.4723867  61.2479685 104.6550851  49.9980769  63.8932926
 105.4768295  49.5960956  63.6115607 104.6513254  49.8949003  64.8449041
  98.4207455  49.5464812  66.0493636  98.4851887  50.0085219  66.8851808
  97.7118379  48.9162177  66.1775946  88.9224745  42.9106020  63.5742635
  89.1732783  43.7953030  63.8400211  89.4584293  42.7310622  62.8017727
 112.7456844  46.3419517  60.2417897 111.9920553  45.7726915  60.0861901
 112.8804386  46.3082182  61.1888532  98.1355473  51.2132920  55.9172616
  98.0001147  52.0584455  56.3457464  98.6765285  51.4152197  55.1538550
  94.6222812  37.2924499  72.5786972  94.2289758  36.7390698  73.2534616
  95.4388952  37.6035078  72.9693489  91.5884870  48.7308358  56.4900541
  92.1009390  49.5251608  56.6406106  92.2407583  48.0334648  56.4234143
  93.3979755  51.8474114  58.5723295  93.5746383  52.7692079  58.3844278
  94.1936588  51.5332533  59.0017674  97.5390773  38.7082379  70.1707228
  98.2800487  39.3089532  70.0911691  97.7708696  37.9660016  69.6125271
  92.6832111  43.8938746  68.4485458  92.5685626  42.9924003  68.7492557
  91.8276629  44.1402443  68.0970274  99.7623949  51.8356486  70.0472958
  99.3187803  51.0492865  69.7293863 100.4241162  52.0235637  69.3816849
  94.5211070  53.3652288  64.5733637  95.0718495  53.2369351  63.8010631
  93.6822546  53.6647177  64.2228530 101.8605187  52.1159286  68.0754360
 101.8423662  52.9368167  67.5834629 102.7825107  51.9913361  68.3004501
  98.3178241  49.6303416  68.9177868  98.8506578  48.8691704  68.6877176
  97.7892322  49.3377067  69.6602023 101.4847936  34.7363481  64.4471510
 101.1412205  35.6265123  64.3710620 101.8526899  34.5465139  63.5841095
  89.5533787  47.0597012  57.2660112  90.3909009  47.4694020  57.0493820
  89.7312054  46.1196454  57.2360306 101.4498219  44.7272093  52.9543945
 100.9344842  45.4976697  53.1932332 101.1775527  44.0537229  53.5777006
 100.5644476  37.1068137  62.4120743 100.0609272  37.0698272  61.5988548
 100.8575083  38.0160879  62.4717400 106.4232493  47.4804447  54.8897118
 105.6461936  47.1415607  54.4452280 107.1023974  47.4857070  54.2152083
  99.6830954  48.7589408  56.4296680  99.1552315  48.0242168  56.1169918
  99.1818457  49.5364084  56.1836648 104.6623800  46.9538428  61.5463726
 104.0047474  47.6437690  61.6343855 105.4664199  47.3434860  61.8897713
 103.4729259  45.3082801  59.5967668 103.9861140  45.9412793  60.0989378
 104.1230483  44.7083997  59.2311028  97.8283554  46.5769618  49.4331653
  96.9210616  46.3458872  49.6322802  98.3254586  45.7807237  49.6205635
 100.7351633  55.2867125  52.3528339 100.0613332  55.5898822  52.9613297
 101.1217455  56.0896206  52.0033796  99.9510090  42.7832257  61.8426009
  99.0332651  43.0047204  61.6847697 100.3670233  42.8578567  60.9837716
  99.0071787  46.6782213  53.9555643  98.0983007  46.3941246  54.0528113
  99.0366871  47.0981292  53.0958950 104.2391055  50.2888803  57.7246811
 103.7853382  49.4479712  57.7812001 103.6085022  50.9250201  58.0621591
 103.1823974  41.2180789  58.9547478 102.4446731  40.7058175  59.2857721
 103.4350748  40.7781170  58.1430755 102.6823994  52.1265299  58.6596629
 102.9746968  52.6870356  57.9408995 103.1922615  52.4193860  59.4149788
 103.2835602  33.9957041  59.5489247 103.5894479  33.1354404  59.2615163
 104.0088207  34.5874661  59.3488241  97.5556681  44.2910834  60.0565439
  97.6105291  43.3384670  59.9807915  96.7447884  44.4470273  60.5406737
  98.7047875  48.2190957  51.2943722  98.2667305  47.5026816  50.8349359
  99.4458316  48.4467072  50.7328813  97.6457619  52.9045650  59.7490082
  97.6033798  53.1306497  58.8198614  98.5620318  52.6709025  59.8975883
 101.0923253  43.3729718  66.6470711 101.4472641  43.6001191  67.5065177
 101.7395384  43.7048095  66.0247967 106.8220990  46.4948154  57.3520040
 106.6838889  46.6849750  56.4241230 106.4657209  47.2567537  57.8088091
  94.9863116  40.4806249  63.4317052  95.6262495  40.3395008  62.7340016
  94.1540647  40.1940762  63.0555654 106.8490370  48.5624681  62.3631312
 107.2826876  48.4699970  63.2114366 107.5621950  48.5382181  61.7251328
  95.7623420  49.7808679  59.5452045  96.5564019  49.2859000  59.3434620
  95.0515112  49.2526543  59.1819750 100.5818265  52.1626775  63.8964412
 100.6355287  52.7317711  64.6642128  99.7133046  52.3328660  63.5318450
  93.4616658  41.8644331  65.3788864  94.1339711  41.6561693  64.7301513
  92.6346444  41.6666417  64.9394096 107.7105919  48.6048381  64.8964197
 107.9041809  49.5094192  65.1423472 107.6106537  48.1455801  65.7302782
  99.3642230  38.4906272  67.3954525  98.7170145  39.1896222  67.3019001
 100.1343245  38.9242416  67.7630773 102.7721028  48.7555124  70.4705078
 102.6206534  48.5265676  69.5535162 102.7625707  49.7125726  70.4836423
  99.5406364  46.3287037  65.4551344 100.4698424  46.4798197  65.2820312
  99.1197394  46.4171058  64.5999991  98.3394696  50.3537701  63.2249882
  98.2005782  49.9856486  64.0975820  97.5509292  50.8685341  63.0533840
  98.9342848  55.4546798  54.5675418  99.1094604  54.9834841  55.3821041
  98.2475636  56.0812564  54.7956679  99.8899911  49.7319304  60.6138720
  99.5549744  49.6920074  61.5096370  99.3903857  49.0664020  60.1409130
  93.8644155  45.1386934  66.1391301  93.7263953  44.4067173  66.7402840
  94.7749079  45.0495834  65.8575489 102.8259103  47.0775338  50.8875779
 102.2088273  46.3522167  50.7908832 102.3575591  47.8384699  50.5442854
  96.4926456  44.8506893  65.6274981  97.2026074  44.2100086  65.5861599
  96.4495764  45.1019788  66.5501161 104.4813235  51.7874247  68.5481560
 104.4225781  51.1033467  67.8812143 104.8832753  52.5293237  68.0962186
  95.2055390  41.8372111  67.4470620  94.6692747  41.3862850  68.0992216
  94.6172098  41.9718020  66.7041084 104.4830642  49.7513831  66.7795539
 103.5957421  49.4139753  66.9021938 105.0529193  49.0196862  67.0164305
  86.1359789  46.0837922  60.1038591  86.8230829  45.7699652  59.5159606
  85.9807918  46.9879287  59.8305842  90.9394511  40.9728119  64.5323614
  90.8552700  40.3653789  63.7974024  90.1177217  41.4637137  64.5333111
  98.0131795  54.4115283  63.7456783  97.9401967  55.2170255  64.2576087
  97.5709188  54.6107249  62.9204804  97.8021575  53.6487053  57.2559604
  97.0189097  54.1908733  57.3497829  98.5014320  54.1661033  57.6553845
 108.9647982  45.1622048  61.5412101 108.9537859  46.0446764  61.1706034
 108.0965362  44.8093599  61.3466638 100.4730479  54.3102117  65.9014941
 101.1858451  54.9449582  65.8290843  99.9820507  54.4065983  65.0854943
 102.1948006  48.2153370  57.4732233 101.2604284  48.3354832  57.3036937
 102.3724674  47.3125837  57.2092243 105.5820557  44.0570689  58.0082267
 106.0481009  44.8898681  57.9342570 106.0328057  43.5915671  58.7127526
  95.5242392  52.0596561  66.7220512  96.2251852  52.6933044  66.8749906
  95.0537507  52.4011292  65.9616151 103.6496788  50.4014510  55.0068419
 103.9256632  50.2871105  55.9162293 102.7801287  50.0031995  54.9680592
 103.5537220  36.4251276  62.0473168 102.6400299  36.6555503  62.2155375
 103.9830321  36.5089720  62.8987201 103.3243678  44.6141168  64.5473062
 102.6715128  44.8617075  63.8925515 103.7024058  43.8005306  64.2135540
 100.2850852  54.6500861  58.6501233 100.4673247  53.8322517  59.1128985
 101.1083838  54.8668553  58.2126123 100.6193018  53.5769046  55.9116281
 101.1480784  53.0661501  55.2986443 100.8821237  53.2611577  56.7761814
  99.3731251  45.3560979  71.0339100  98.6971888  45.2555108  71.7041475
 100.1958885  45.2000193  71.4975097  91.1210110  51.5932916  63.6551615
  91.7063547  50.8476604  63.7879519  90.9234949  51.9036872  64.5388279
  93.9748766  54.6284163  58.6714057  93.3059141  55.1130291  58.1878097
  93.8361635  54.8753383  59.5857436  85.7127765  44.1638516  62.3756058
  85.7511865  43.6302107  63.1693176  85.2068058  43.6373721  61.7567035
  98.1154034  56.6627907  65.2696716  98.6672342  56.8259528  66.0345801
  98.4560228  57.2532344  64.5976740  93.0918527  39.0103056  65.8718600
  93.1559854  39.8717887  65.4595998  93.0285648  38.3977058  65.1390959
  92.5670800  41.0826189  69.5191634  93.1942839  40.7003266  70.1329159
  91.7098719  40.8640391  69.8847327 102.9664908  51.4889164  71.1245370
 103.5104812  52.1019122  70.6300325 102.3851753  52.0468742  71.6412383
 101.2522421  54.6109882  62.2560398 101.1273561  53.8099622  61.7471343
 101.9101512  55.1056075  61.7674368  92.8730590  40.9658615  61.4337538
  92.1517175  41.5794582  61.2945011  93.6623845  41.5016379  61.3554184
 103.3157330  52.4118902  63.8839948 102.3687665  52.2924253  63.8118274
 103.6640103  51.5241400  63.9666209  95.6756903  38.3013041  67.7078190
  96.1991305  38.5475338  68.4704499  95.4569236  39.1333076  67.2881327
 100.3203763  52.2071618  60.0844300 100.1728725  51.2788326  60.2651870
 101.1457257  52.2291709  59.6001375 103.9237885  53.0300177  61.1709173
 104.8484432  52.8243038  61.0333624 103.7553188  52.7816578  62.0798514
  96.8809448  39.2426736  65.3927860  96.5406269  38.4434549  65.7948540
  96.1748454  39.5428447  64.8204693  97.5325920  36.3276049  63.8455183
  98.3551989  35.8536527  63.7234074  97.7763984  37.1066532  64.3453870
  95.0564499  43.0195169  61.6547162  94.9109079  43.3335472  62.5471443
  94.5789702  43.6380070  61.1018060  96.9160882  40.0097717  61.7028051
  96.9022450  39.1138811  61.3660349  97.6333310  40.0168381  62.3366337
  98.7687012  40.4435057  63.7481179  98.5104790  41.3652128  63.7465509
  98.2372053  40.0465492  64.4381643 103.7133201  53.5485845  56.5271264
 103.8870079  52.9832267  55.7745117 104.2062092  54.3486739  56.3450754
  89.5310161  45.5600514  64.5934823  88.9863629  46.3360322  64.7255097
  90.4089511  45.9071318  64.4353944 109.5672592  46.3122267  58.1461564
 110.0103738  45.5629593  57.7480687 108.6899103  46.3032404  57.7635296
 104.7008374  52.8652609  53.6268162 105.3959278  53.4859302  53.8455477
 105.0431524  52.0147960  53.9020540  90.3176183  44.6870410  67.4864980
  89.5757919  44.8353045  68.0729610  89.9968927  44.9478675  66.6231729
 106.5999797  50.3152314  55.1555493 107.1251121  50.6539587  54.4304813
 106.5122149  49.3799330  54.9718628  98.2619845  54.2286388  67.2845370
  98.5706972  53.9835535  68.1568069  99.0595327  54.4333027  66.7964240
  98.2840457  56.3824298  59.5150746  97.8445448  55.8900676  60.2083603
  99.0348574  55.8397265  59.2742822  90.7632796  52.5735839  59.5175374
  91.5890816  52.2739610  59.1374018  90.4126848  51.8043461  59.9665163
  95.7314330  51.9262307  61.5873048  95.1094339  51.2633012  61.2875276
  96.4019197  51.9523439  60.9046696  88.9641402  50.4922165  60.4764308
  88.1273310  50.0644339  60.2948309  88.9365047  50.6854608  61.4135099
  95.8038857  40.4044095  71.1805554  95.8527013  41.2806218  70.7983324
  96.3461371  39.8621488  70.6077197 106.2893703  50.9485218  70.4606691
 105.4989246  50.9309357  69.9211191 106.0527057  51.4873512  71.2155728
  95.2927837  50.4766230  55.0631509  95.4415957  51.1601695  54.4098181
  96.0994280  50.4571320  55.5780964 103.6995340  43.7808612  69.0898726
 104.6005203  43.6415077  68.7982724 103.7743315  43.9463067  70.0296904
  98.0338146  41.1575467  67.9351913  97.1641455  41.4509033  67.6634501
  98.2697626  41.7415912  68.6559176 107.9109775  50.2174626  68.0181441
 107.6194583  50.5804607  68.8544902 107.2981906  49.5041634  67.8394773
 109.1105457  47.7827506  60.5384012 109.9452348  48.2217310  60.7021572
 109.2464586  47.3066159  59.7192257 106.1596963  45.3407241  66.4861499
 106.6351085  45.5334887  65.6780351 105.2362528  45.3966426  66.2404883
  93.0480470  46.5031408  56.0692578  92.8026511  45.5993738  56.2672788
  93.2176384  46.5048558  55.1272056 100.7377179  37.3755084  65.4517333
 101.2559123  38.1116111  65.1263822 100.3832312  37.6819077  66.2864092
 100.9889774  33.7955367  60.9718230 101.2691527  33.1278556  61.5978656
 101.7740380  33.9884462  60.4592894  98.7923242  52.9714361  52.5343256
  98.2197209  53.5904548  52.0813728  99.3656036  53.5213722  53.0683178
 104.8598632  42.2173001  64.7189805 105.8116055  42.3171098  64.7402029
 104.6902082  41.4251269  65.2287889 102.8813011  39.3028584  64.9049206
 102.2862943  39.5833597  64.2095694 102.5962708  39.7922485  65.6765947
 102.0120502  53.2551511  53.6651838 102.9451175  53.1897072  53.8684714
 101.9243715  54.0907778  53.2066371 104.6408519  52.5717381  50.6255786
 104.5622150  52.2377245  51.5191544 105.4618185  53.0639149  50.6247258
 107.3386710  45.4379120  63.8332105 107.3063030  44.4995121  64.0191788
 107.9487333  45.5163157  63.0997929 107.4881198  42.2290164  63.8790388
 106.9720247  41.4448620  63.6920317 108.3721147  41.9008880  64.0436907
 105.1491925  35.9731179  59.8386200 104.9516746  35.6646268  60.7229532
 105.7591631  36.6992818  59.9684130 113.1563260  46.4995127  62.9738141
 113.8866648  46.2380415  63.5345845 112.5470205  45.7623849  63.0140209
  88.2790898  43.5531513  60.2613240  87.9593682  42.6996821  59.9687614
  87.7324326  43.7680091  61.0171208  92.0570806  46.2693954  63.9782747
  92.2756815  47.2011062  63.9970781  92.4696579  45.9101929  64.7637551
 100.9065572  35.8540086  57.5882732 101.4596610  36.2735540  58.2472755
 101.1435658  34.9275834  57.6305688  96.9298671  41.8427160  73.3685496
  96.8295398  42.7921517  73.2997587  96.7120213  41.5145399  72.4961566
  88.1479158  47.1734425  62.2306362  87.4542630  46.7588377  61.7176316
  88.8952149  47.2154961  61.6339781 104.2844379  37.9640611  57.0961396
 103.7043048  38.6225415  56.7139448 104.0180311  37.1417956  56.6848813
 102.7347945  37.3645669  59.2982716 103.2347724  37.4762204  58.4897035
 103.3783553  37.0606722  59.9383525  96.7929941  45.2724299  72.1850557
  96.3097023  46.0724659  72.3914446  96.8790880  45.2832244  71.2318001
  90.0615901  47.1052678  60.1072377  90.0386589  47.2040366  59.1554260
  90.3716537  47.9517829  60.4289543  92.7203278  49.1628833  64.2218991
  93.6746532  49.1312776  64.1548923  92.5215802  48.7019457  65.0369217
  93.3102661  47.7329950  66.7889789  94.1295550  48.2274028  66.8124626
  93.5839468  46.8161918  66.7607356 106.4183793  40.1487223  59.8672083
 107.1944183  40.6383675  60.1396700 105.6931927  40.5745277  60.3243953
 108.8556352  40.8614842  60.9246024 109.4500842  40.6210578  60.2139332
 108.9282935  40.1421973  61.5519560  91.0753507  54.7048453  61.2389189
  90.9407975  53.9448854  60.6727187  90.6585570  55.4289353  60.7717978
 102.2112470  49.8885376  50.2465764 102.9148320  50.0935379  50.8623420
 101.4875119  50.4562138  50.5114848 103.0410281  45.6395238  56.3668034
 102.9845482  46.0963789  55.5275667 103.5938623  44.8785922  56.1890877
 106.8515086  41.4284970  57.1918154 106.5952021  41.0281605  58.0226362
 106.2267955  42.1428764  57.0668293 111.1627424  44.1681043  59.6989445
 110.6026982  44.2374232  60.4721007 110.5570928  43.9922027  58.9788942
  94.2322633  55.6017770  61.4507632  94.1155017  56.5463202  61.3486322
  93.4115079  55.2991332  61.8393431 104.1199168  50.3267906  52.2964224
 104.9544772  49.8949104  52.1141699 103.9583511  50.1549919  53.2241119
 103.7745060  46.8300019  53.6620564 103.7193864  46.6644290  52.7209008
 103.1491115  47.5376052  53.8182753  88.5637575  42.0668083  67.4881986
  89.2096438  41.5567037  67.9769211  88.3554726  42.8036765  68.0625411
 101.0890967  49.1348931  72.9874126 101.9582127  49.3089583  72.6260761
 100.6097719  49.9543348  72.8649856  97.0130749  55.0077018  61.3273639
  96.0626380  55.0078880  61.2138011  97.3163235  54.2609753  60.8109673
 100.8993305  32.9250905  57.4951819 100.1325701  32.3709391  57.6408501
 101.3104010  32.9972773  58.3565970  92.9035066  39.2135700  71.5857000
  93.7666527  38.8572505  71.7960325  92.3300477  38.8749595  72.2732404
 112.7483443  60.8437557  62.3919401 113.3861853  60.7244304  61.6882741
 112.6304286  61.7918401  62.4507353 109.5573149  60.7964985  62.3280926
 109.2191661  60.6806050  61.4401461 110.4262917  60.3956150  62.3081932
 105.4159965  62.6500461  58.3177817 104.8524830  62.5590398  57.5494104
 105.3012360  61.8300366  58.7980309 110.0392932  61.9499837  68.2867131
 110.0281573  61.5552635  67.4147635 110.2013572  61.2165909  68.8800903
 102.9624397  64.1451653  61.1562037 103.7545689  63.8042478  60.7408336
 103.2021047  64.2546628  62.0764190 110.9959523  66.3171429  53.6292282
 110.3447503  66.9025509  53.2426295 111.7903886  66.8477624  53.6887319
 104.9215151  63.4060566  54.0279416 105.6946027  62.8589553  53.8892292
 105.2740550  64.2704815  54.2393877 106.7600193  64.7336948  67.2346315
 106.4690059  65.6382579  67.1192982 107.3957178  64.7753476  67.9490385
 107.6856400  62.1113797  63.8247675 108.2819972  61.8869819  63.1104638
 107.7431372  61.3698542  64.4273123 107.2581428  59.5653232  51.6597866
 107.5106949  59.0434754  50.8981329 106.3205988  59.4019378  51.7624549
 112.3024711  58.5689011  59.4672609 113.0887801  58.1508434  59.1163026
 112.5663416  59.4735103  59.6354257 112.4734789  64.0061861  54.1661266
 111.8380622  64.0796487  54.8782171 112.1432195  64.5955460  53.4880345
 117.7033138  58.5064244  60.3705588 118.4358310  57.9363461  60.6043417
 116.9472494  58.1185844  60.8112093 106.9777717  61.4681338  53.8622241
 106.8613975  60.7926242  54.5303325 107.0879977  60.9813712  53.0454394
 109.3209258  60.9291485  57.5668930 108.9567465  60.4022106  58.2781852
 110.1776374  60.5389954  57.3935415 115.2258559  52.2185818  64.8300196
 114.8941884  53.0881229  64.6061411 114.6304172  51.9022102  65.5094227
 108.9614745  55.9581385  52.5630279 109.1289147  56.8261621  52.9300750
 108.7711914  56.1208667  51.6391568 111.7190078  64.4198364  64.2296109
 111.4190801  65.3223403  64.1211916 111.3741138  64.1530547  65.0817262
 105.1702560  60.8712161  60.2632813 104.2453056  60.7388375  60.4710505
 105.4186973  61.6506380  60.7602756 115.1187222  56.9380904  61.9093546
 114.2104099  56.8696313  61.6152307 115.0674818  57.4152849  62.7375372
 108.9403966  58.4139043  53.5476945 108.8203591  58.8596093  54.3862426
 108.2456554  58.7624360  52.9890484 102.5311371  60.5145434  61.0976602
 102.6603752  60.7679913  62.0116014 101.8508822  61.1073142  60.7781257
 106.7010858  71.1842684  57.1967077 106.6234888  72.1350509  57.2755557
 106.0972502  70.8388557  57.8542003 109.1928088  58.3570550  69.8528444
 108.4161422  58.9164470  69.8431308 109.8318651  58.8427333  70.3743314
 116.9848868  55.1397343  63.6871420 116.3423249  55.4329876  63.0411215
 116.4803797  55.0250263  64.4924617 114.6389032  58.8860516  54.3757279
 115.5506888  59.1187902  54.2004977 114.1298679  59.4697560  53.8132358
 107.4474460  61.1656003  69.4146411 108.1889145  61.7041047  69.1381234
 106.7411446  61.7922292  69.5717962 112.9229800  63.3085144  68.0118572
 113.3313156  62.8667554  67.2673204 112.2007061  62.7337771  68.2652765
 109.2760870  58.2457750  65.3852129 110.1222065  58.6697164  65.5286778
 109.2159508  57.5891375  66.0790692 113.2458614  63.8686334  61.7670861
 112.6167477  64.0332048  61.0646929 112.8584277  64.2827944  62.5381825
 117.1247846  64.8040772  59.1215225 116.4398885  65.1839673  58.5712258
 117.2091696  65.4136099  59.8547172 112.4260315  55.9062119  67.0433303
 112.1821247  56.6604179  66.5067578 112.7020246  56.2847466  67.8780550
 114.3798778  62.4500731  65.7210568 114.5915673  63.0932491  65.0444949
 114.3328526  61.6163048  65.2532498 111.9825007  55.0618552  62.6247140
 111.1209486  55.3599805  62.9163878 112.0087442  55.2788951  61.6928173
 108.7986576  63.6060742  59.0320946 109.2624922  63.8848445  58.2425568
 108.5343374  62.7044187  58.8494037 105.6910657  63.1532224  61.9700709
 106.2612014  63.5819492  61.3318194 106.2818769  62.8714809  62.6684895
 107.7355462  59.7283895  55.8410511 108.4379506  60.1804938  56.3084437
 107.4036091  59.0867713  56.4690404 106.1835824  58.3195651  70.2161721
 105.5534484  59.0011932  70.4497117 106.0771912  58.2078733  69.2714859
 101.4780796  57.9867447  61.1427645 100.6879850  58.2424976  60.6667755
 101.9692044  58.8015785  61.2479685 115.4944606  65.3272686  63.8932926
 116.3162050  64.9252874  63.6115607 115.4907009  65.2240921  64.8449041
 103.4295542  58.3512027  58.1011121 102.6326705  58.4630721  58.6194617
 103.2021134  58.6898679  57.2352012 109.2601209  64.8756730  66.0493636
 109.3245642  65.3377137  66.8851808 108.5512133  64.2454095  66.1775946
  99.7618499  58.2397938  63.5742635 100.0126538  59.1244948  63.8400211
 100.2978048  58.0602539  62.8017727 108.9749227  66.5424837  55.9172616
 108.8394902  67.3876373  56.3457464 109.5159040  66.7444115  55.1538550
 105.4616567  52.6216417  72.5786972 105.0683512  52.0682616  73.2534616
 106.2782707  52.9326996  72.9693489 102.4278624  64.0600275  56.4900541
 102.9403145  64.8543526  56.6406106 103.0801337  63.3626566  56.4234143
 104.2373509  67.1766032  58.5723295 104.4140137  68.0983996  58.3844278
 105.0330343  66.8624451  59.0017674 108.3784528  54.0374296  70.1707228
 109.1194241  54.6381449  70.0911691 108.6102450  53.2951934  69.6125271
 103.5225866  59.2230663  68.4485458 103.4079381  58.3215921  68.7492557
 102.6670383  59.4694360  68.0970274 110.6017703  67.1648404  70.0472958
 110.1581558  66.3784782  69.7293863 111.2634917  67.3527554  69.3816849
 105.3604825  68.6944205  64.5733637 105.9112250  68.5661269  63.8010631
 104.5216300  68.9939094  64.2228530 112.6998941  67.4451204  68.0754360
 112.6817417  68.2660085  67.5834629 113.6218862  67.3205279  68.3004501
 109.1571996  64.9595333  68.9177868 109.6900332  64.1983621  68.6877176
 108.6286077  64.6668985  69.6602023 112.3241691  50.0655399  64.4471510
 111.9805960  50.9557041  64.3710620 112.6920653  49.8757057  63.5841095
 100.3927541  62.3888930  57.2660112 101.2302763  62.7985938  57.0493820
 100.5705809  61.4488372  57.2360306 112.2891973  60.0564010  52.9543945
 111.7738597  60.8268615  53.1932332 112.0169282  59.3829146  53.5777006
 109.8739084  54.9013711  58.0129183 109.0180681  54.5120561  57.8334822
 110.2866036  54.9805672  57.1528969 111.4038231  52.4360054  62.4120743
 110.9003027  52.3990189  61.5988548 111.6968838  53.3452797  62.4717400
 107.6481117  52.5198784  61.4186925 108.5134114  52.3241593  61.0592814
 107.7158626  52.2909136  62.3456282 117.2626247  62.8096365  54.8897118
 116.4855690  62.4707524  54.4452280 117.9417728  62.8148988  54.2152083
 112.0778276  57.9291102  54.7803726 111.7728412  58.2437252  55.6313869
 113.0308719  58.0072522  54.8231059 110.5224708  64.0881326  56.4296680
 109.9946070  63.3534085  56.1169918 110.0212211  64.8656002  56.1836648
 115.5017554  62.2830346  61.5463726 114.8441229  62.9729608  61.6343855
 116.3057954  62.6726778  61.8897713 105.2543436  54.7500992  58.7903292
 105.8287188  54.5276173  58.0576485 105.8414418  54.8189686  59.5431893
 114.3123013  60.6374719  59.5967668 114.8254895  61.2704711  60.0989378
 114.9624237  60.0375914  59.2311028 105.5813023  56.7805453  52.8099177
 104.7450335  57.1180140  53.1308452 105.4417793  56.6454433  51.8726314
 107.5566104  51.6242241  57.5178361 106.9030516  51.3091258  56.8934976
 107.5146578  51.0017981  58.2438184 108.6677308  61.9061536  49.4331653
 107.7604370  61.6750789  49.6322802 109.1648340  61.1099155  49.6205635
 111.5745387  70.6159043  52.3528339 110.9007086  70.9190740  52.9613297
 111.9611209  71.4188123  52.0033796 110.7903844  58.1124174  61.8426009
 109.8726405  58.3339121  61.6847697 111.2063988  58.1870485  60.9837716
 111.5738892  59.5115590  56.9728689 112.3210711  60.0236987  56.6635811
 111.8430481  59.1899643  57.8333082 109.8465542  62.0074131  53.9555643
 108.9376761  61.7233164  54.0528113 109.8760626  62.4273209  53.0958950
 115.0784809  65.6180720  57.7246811 114.6247136  64.7771630  57.7812001
 114.4478776  66.2542119  58.0621591 114.0217729  56.5472706  58.9547478
 113.2840486  56.0350093  59.2857721 114.2744502  56.1073088  58.1430755
 113.5217749  67.4557217  58.6596629 113.8140723  68.0162274  57.9408995
 114.0316369  67.7485778  59.4149788 114.1229356  49.3248958  59.5489247
 114.4288233  48.4646322  59.2615163 114.8481961  49.9166579  59.3488241
 100.4153712  59.7279645  57.9370845 100.2178112  59.1349006  57.2121912
  99.8600376  59.4231855  58.6546784 108.3950436  59.6202751  60.0565439
 108.4499046  58.6676588  59.9807915 107.5841638  59.7762190  60.5406737
 109.5441630  63.5482874  51.2943722 109.1061060  62.8318733  50.8349359
 110.2852071  63.7758989  50.7328813 106.3342796  58.2379811  57.8155817
 105.5210661  58.5373982  58.2221010 106.8301790  57.8435500  58.5330300
 108.4851374  68.2337568  59.7490082 108.4427553  68.4598414  58.8198614
 109.4014073  68.0000943  59.8975883 111.9317008  58.7021636  66.6470711
 112.2866395  58.9293109  67.5065177 112.5789139  59.0340012  66.0247967
 117.6614745  61.8240071  57.3520040 117.5232643  62.0141667  56.4241230
 117.3050963  62.5859454  57.8088091 105.8256871  55.8098167  63.4317052
 106.4656250  55.6686926  62.7340016 104.9934401  55.5232680  63.0555654
 117.6884124  63.8916598  62.3631312 118.1220631  63.7991888  63.2114366
 118.4015705  63.8674099  61.7251328 106.6017175  65.1100597  59.5452045
 107.3957773  64.6150917  59.3434620 105.8908867  64.5818460  59.1819750
 111.4212019  67.4918693  63.8964412 111.4749041  68.0609629  64.6642128
 110.5526800  67.6620578  63.5318450 102.9099938  59.2543679  55.6211798
 101.9797526  59.1928134  55.8381760 103.0057410  58.7319632  54.8248439
 102.8285487  55.7798492  58.2090039 103.0892304  56.6943825  58.0999200
 103.6502659  55.3122934  58.3586652 104.3010412  57.1936249  65.3788864
 104.9733466  56.9853611  64.7301513 103.4740199  56.9958335  64.9394096
 118.5499674  63.9340299  64.8964197 118.7435564  64.8386110  65.1423472
 118.4500292  63.4747718  65.7302782 110.2035984  53.8198190  67.3954525
 109.5563899  54.5188139  67.3019001 110.9737000  54.2534334  67.7630773
 113.6114782  64.0847042  70.4705078 113.4600289  63.8557594  69.5535162
 113.6019462  65.0417643  70.4836423 110.3800119  61.6578955  65.4551344
 111.3092179  61.8090114  65.2820312 109.9591149  61.7462975  64.5999991
 109.1788451  65.6829619  63.2249882 109.0399536  65.3148403  64.0975820
 108.3903047  66.1977258  63.0533840 109.7736603  70.7838716  54.5675418
 109.9488358  70.3126759  55.3821041 109.0869391  71.4104482  54.7956679
 110.7293666  65.0611222  60.6138720 110.3943498  65.0211992  61.5096370
 110.2297611  64.3955938  60.1409130 104.7037910  60.4678852  66.1391301
 104.5657708  59.7359091  66.7402840 105.6142833  60.3787752  65.8575489
 113.6652857  62.4067256  50.8875779 113.0482028  61.6814084  50.7908832
 113.1969346  63.1676616  50.5442854 107.3320210  60.1798811  65.6274981
 108.0419829  59.5392003  65.5861599 107.2889518  60.4311706  66.5501161
 115.3206989  67.1166164  68.5481560 115.2619535  66.4325385  67.8812143
 115.7226507  67.8585154  68.0962186 106.0449144  57.1664029  67.4470620
 105.5086501  56.7154767  68.0992216 105.4565853  57.3009938  66.7041084
 104.3397688  73.9328078  61.3415279 104.5794286  74.5646602  62.0194297
 103.4966884  73.5816118  61.6280638 105.4551403  56.6252680  50.0097084
 104.5780870  56.5041481  49.6459330 105.9309156  55.8338759  49.7575972
 115.3224396  65.0805748  66.7795539 114.4351175  64.7431670  66.9021938
 115.8922947  64.3488780  67.0164305  96.9753543  61.4129840  60.1038591
  97.6624583  61.0991570  59.5159606  96.8201672  62.3171205  59.8305842
 101.7788266  56.3020037  64.5323614 101.6946454  55.6945706  63.7974024
 100.9570972  56.7929055  64.5333111 108.8525550  69.7407201  63.7456783
 108.7795721  70.5462172  64.2576087 108.4102943  69.9399167  62.9204804
 108.6415329  68.9778971  57.2559604 107.8582851  69.5200651  57.3497829
 109.3408074  69.4952950  57.6553845 111.9511979  54.7873600  59.8993810
 112.4480679  54.0343563  59.5794880 111.1798961  54.8237917  59.3337019
 119.8041737  60.4913966  61.5412101 119.7931613  61.3738681  61.1706034
 118.9359116  60.1385517  61.3466638 111.3124233  69.6394035  65.9014941
 112.0252205  70.2741500  65.8290843 110.8214262  69.7357901  65.0854943
 113.0341760  63.5445287  57.4732233 112.0998039  63.6646750  57.3036937
 113.2118429  62.6417754  57.2092243 108.5346948  56.9290983  59.6265494
 108.1644736  56.3762024  60.3146400 109.0306041  56.3249117  59.0740494
 116.4214311  59.3862607  58.0082267 116.8874764  60.2190598  57.9342570
 116.8721812  58.9207588  58.7127526 106.3636147  67.3888478  66.7220512
 107.0645606  68.0224961  66.8749906 105.8931262  67.7303210  65.9616151
 114.4890543  65.7306428  55.0068419 114.7650386  65.6163023  55.9162293
 113.6195041  65.3323913  54.9680592 114.3930974  51.7543194  62.0473168
 113.4794054  51.9847421  62.2155375 114.8224076  51.8381638  62.8987201
 114.1637433  59.9433086  64.5473062 113.5108883  60.1908993  63.8925515
 114.5417813  59.1297224  64.2135540 111.1244607  69.9792779  58.6501233
 111.3067001  69.1614435  59.1128985 111.9477593  70.1960471  58.2126123
 111.4586772  68.9060964  55.9116281 111.9874538  68.3953419  55.2986443
 111.7214992  68.5903494  56.7761814 110.2125006  60.6852897  71.0339100
 109.5365643  60.5847026  71.7041475 111.0352640  60.5292110  71.4975097
 101.9603865  66.9224833  63.6551615 102.5457302  66.1768521  63.7879519
 101.7628703  67.2328790  64.5388279 104.8142520  69.9576081  58.6714057
 104.1452895  70.4422208  58.1878097 104.6755390  70.2045301  59.5857436
  96.5521520  59.4930433  62.3756058  96.5905619  58.9594024  63.1693176
  96.0461812  58.9665639  61.7567035 108.9547789  71.9919824  65.2696716
 109.5066097  72.1551446  66.0345801 109.2953982  72.5824262  64.5976740
 103.9312282  54.3394974  65.8718600 103.9953608  55.2009805  65.4595998
 103.8679402  53.7268976  65.1390959 103.4064554  56.4118107  69.5191634
 104.0336593  56.0295184  70.1329159 102.5492473  56.1932308  69.8847327
 113.8058663  66.8181082  71.1245370 114.3498567  67.4311040  70.6300325
 113.2245508  67.3760660  71.6412383 100.1830097  58.2194536  55.4509989
 100.4783538  57.3105214  55.3977043  99.2818133  58.1982275  55.1290992
 112.0916176  69.9401800  62.2560398 111.9667315  69.1391540  61.7471343
 112.7495267  70.4347993  61.7674368 103.7124344  56.2950532  61.4337538
 102.9910930  56.9086500  61.2945011 104.5017600  56.8308297  61.3554184
 114.1551084  67.7410820  63.8839948 113.2081420  67.6216171  63.8118274
 114.5033857  66.8533318  63.9666209 106.5150658  53.6304959  67.7078190
 107.0385059  53.8767255  68.4704499 106.2962991  54.4624994  67.2881327
 101.9117939  55.9008633  55.5749314 101.5830645  55.0206012  55.3924420
 102.2657309  55.8456302  56.4625704 111.1597518  67.5363536  60.0844300
 111.0122480  66.6080243  60.2651870 111.9851011  67.5583627  59.6001375
 105.0259762  56.1881603  55.9424792 105.3655834  56.7167524  55.2203400
 105.4731882  56.5262009  56.7183359 114.7631639  68.3592095  61.1709173
 115.6878187  68.1534956  61.0333624 114.5946943  68.1108496  62.0798514
 107.7203203  54.5718654  65.3927860 107.3800023  53.7726467  65.7948540
 107.0142209  54.8720365  64.8204693 108.3719674  51.6567966  63.8455183
 109.1945744  51.1828444  63.7234074 108.6157738  52.4358450  64.3453870
 107.0127909  54.6856225  54.1418085 107.7336271  55.0637477  53.6381802
 106.3893213  55.4045102  54.2453063 111.1559032  55.3901374  55.0776417
 111.3722646  56.2726012  54.7765245 110.6753099  54.9987587  54.3482059
 105.8958253  58.3487087  61.6547162 105.7502834  58.6627390  62.5471443
 105.4183457  58.9671987  61.1018060 107.7554636  55.3389635  61.7028051
 107.7416205  54.4430728  61.3660349 108.4727064  55.3460299  62.3366337
 109.6080767  55.7726975  63.7481179 109.3498545  56.6944046  63.7465509
 109.0765807  55.3757410  64.4381643 114.5526956  68.8777762  56.5271264
 114.7263833  68.3124185  55.7745117 115.0455847  69.6778657  56.3450754
 100.3703915  60.8892431  64.5934823  99.8257383  61.6652239  64.7255097
 101.2483265  61.2363236  64.4353944 107.1591532  54.2204015  56.9715622
 107.2807443  53.2920661  57.1706509 106.8693574  54.2342701  56.0593937
 110.0282722  51.9058926  60.1082341 110.0504419  51.9698259  59.1534321
 110.4450781  51.0663434  60.3022848 120.4066347  61.6414185  58.1461564
 120.8497493  60.8921510  57.7480687 119.5292857  61.6324322  57.7635296
 115.5402128  68.1944527  53.6268162 116.2353033  68.8151219  53.8455477
 115.8825278  67.3439878  53.9020540 101.1569937  60.0162328  67.4864980
 100.4151673  60.1644963  68.0729610 100.8362682  60.2770593  66.6231729
 117.4393551  65.6444232  55.1555493 117.9644875  65.9831505  54.4304813
 117.3515904  64.7091247  54.9718628 109.1013600  69.5578306  67.2845370
 109.4100726  69.3127453  68.1568069 109.8989082  69.7624944  66.7964240
 109.1234212  71.7116215  59.5150746 108.6839202  71.2192594  60.2083603
 109.8742329  71.1689183  59.2742822 101.6026551  67.9027756  59.5175374
 102.4284571  67.6031528  59.1374018 101.2520603  67.1335379  59.9665163
 106.5708084  67.2554225  61.5873048 105.9488093  66.5924930  61.2875276
 107.2412951  67.2815356  60.9046696  99.8035156  65.8214083  60.4764308
  98.9667064  65.3936257  60.2948309  99.7758801  66.0146526  61.4135099
 106.6432612  55.7336013  71.1805554 106.6920767  56.6098135  70.7983324
 107.1855126  55.1913406  70.6077197 117.1287457  66.2777136  70.4606691
 116.3383001  66.2601275  69.9211191 116.8920812  66.8165429  71.2155728
 117.2485332  63.1269602  67.7739420 117.2983337  62.9619610  68.7154943
 117.1399256  62.2596861  67.3837301 106.1321591  65.8058148  55.0631509
 106.2809711  66.4893612  54.4098181 106.9388034  65.7863238  55.5780964
 114.5389095  59.1100530  69.0898726 115.4398957  58.9706995  68.7982724
 114.6137069  59.2754985  70.0296904 108.8731900  56.4867385  67.9351913
 108.0035209  56.7800951  67.6634501 109.1091380  57.0707830  68.6559176
 118.7503529  65.5466544  68.0181441 118.4588337  65.9096524  68.8544902
 118.1375660  64.8333552  67.8394773 119.9499211  63.1119423  60.5384012
 120.7846103  63.5509228  60.7021572 120.0858340  62.6358077  59.7192257
 116.9990717  60.6699158  66.4861499 117.4744839  60.8626805  65.6780351
 116.0756283  60.7258344  66.2404883 103.8874224  61.8323325  56.0692578
 103.6420266  60.9285655  56.2672788 104.0570139  61.8340476  55.1272056
 111.5770934  52.7047002  65.4517333 112.0952878  53.4408029  65.1263822
 111.2226067  53.0110995  66.2864092 103.1569872  57.5651683  53.5678739
 102.4639116  57.6396038  52.9118775 102.9121623  56.8012027  54.0900256
 111.8283528  49.1247284  60.9718230 112.1085282  48.4570473  61.5978656
 112.6134135  49.3176380  60.4592894 109.6316997  68.3006278  52.5343256
 109.0590964  68.9196465  52.0813728 110.2049790  68.8505640  53.0683178
 115.6992386  57.5464918  64.7189805 116.6509809  57.6463016  64.7402029
 115.5295837  56.7543187  65.2287889 113.7206766  54.6320502  64.9049206
 113.1256698  54.9125514  64.2095694 113.4356463  55.1214403  65.6765947
 112.8514256  68.5843428  53.6651838 113.7844929  68.5188990  53.8684714
 112.7637469  69.4199695  53.2066371 115.4802273  67.9009299  50.6255786
 115.4015905  67.5669162  51.5191544 116.3011940  68.3931067  50.6247258
 118.1780464  60.7671038  63.8332105 118.1456784  59.8287039  64.0191788
 118.7881088  60.8455075  63.0997929 110.0163795  59.6367091  49.8759309
 110.9622900  59.5073299  49.9447727 109.6378040  58.8981753  50.3528737
 118.3274953  57.5582081  63.8790388 117.8114001  56.7740538  63.6920317
 119.2114901  57.2300798  64.0436907 115.9885680  51.3023097  59.8386200
 115.7910501  50.9938185  60.7229532 116.5985385  52.0284736  59.9684130
 109.9002488  63.6884837  71.3359966 110.8205497  63.8663436  71.5300012
 109.8652071  62.7440883  71.1839665 108.2006712  57.5617067  49.8114194
 107.2938168  57.2650180  49.8876907 108.4782693  57.2646886  48.9448480
  99.1184653  58.8823431  60.2613240  98.7987437  58.0288739  59.9687614
  98.5718081  59.0972009  61.0171208 102.8964560  61.5985872  63.9782747
 103.1150570  62.5302980  63.9970781 103.3090334  61.2393846  64.7637551
 109.8168778  52.1053957  55.9658435 109.0069506  51.7601042  56.3413681
 110.5053195  51.7961501  56.5546047 111.7459326  51.1832004  57.5882732
 112.2990365  51.6027457  58.2472755 111.9829413  50.2567752  57.6305688
 107.7692425  57.1719078  73.3685496 107.6689152  58.1213435  73.2997587
 107.5513967  56.8437316  72.4961566 106.9705497  54.4204003  49.9526173
 107.8324661  54.7458901  50.2121990 107.1555841  53.6335499  49.4399239
  98.9872913  62.5026342  62.2306362  98.2936384  62.0880295  61.7176316
  99.7345904  62.5446879  61.6339781 115.1238133  53.2932529  57.0961396
 114.5436802  53.9517333  56.7139448 114.8574066  52.4709874  56.6848813
 113.5741700  52.6937587  59.2982716 114.0741478  52.8054121  58.4897035
 114.2177308  52.3898640  59.9383525 107.6323696  60.6016216  72.1850557
 107.1490777  61.4016577  72.3914446 107.7184635  60.6124161  71.2318001
 100.9009655  62.4344596  60.1072377 100.8780343  62.5332283  59.1554260
 101.2110292  63.2809747  60.4289543 103.5597033  64.4920751  64.2218991
 104.5140287  64.4604693  64.1548923 103.3609557  64.0311375  65.0369217
 104.1496415  63.0621867  66.7889789 104.9689304  63.5565946  66.8124626
 104.4233223  62.1453835  66.7607356 113.9063011  55.4532619  56.1517744
 113.0188866  55.7382270  55.9337939 114.3217000  55.2926383  55.3045021
 117.2577547  55.4779140  59.8672083 118.0337938  55.9675593  60.1396700
 116.5325682  55.9037195  60.3243953 119.6950106  56.1906760  60.9246024
 120.2894597  55.9502496  60.2139332 119.7676690  55.4713890  61.5519560
 101.9147262  70.0340371  61.2389189 101.7801730  69.2740772  60.6727187
 101.4979324  70.7581270  60.7717978 113.0506225  65.2177294  50.2465764
 113.7542075  65.4227297  50.8623420 112.3268874  65.7854056  50.5114848
 113.8804035  60.9687155  56.3668034 113.8239236  61.4255707  55.5275667
 114.4332378  60.2077840  56.1890877 117.6908841  56.7576887  57.1918154
 117.4345775  56.3573523  58.0226362 117.0661709  57.4720681  57.0668293
 105.0716388  70.9309688  61.4507632 104.9548772  71.8755120  61.3486322
 104.2508834  70.6283249  61.8393431 114.9592922  65.6559823  52.2964224
 115.7938526  65.2241022  52.1141699 114.7977265  65.4841837  53.2241119
 114.6138814  62.1591937  53.6620564 114.5587618  61.9936208  52.7209008
 113.9884870  62.8667970  53.8182753  99.4031329  57.3960001  67.4881986
 100.0490193  56.8858955  67.9769211  99.1948480  58.1328683  68.0625411
 111.9284722  64.4640849  72.9874126 112.7975881  64.6381501  72.6260761
 111.4491473  65.2835265  72.8649856 107.9234940  51.6600046  53.2405882
 107.9113610  52.6041886  53.3974153 108.8158362  51.4770191  52.9465343
 106.0970902  71.5837950  64.6663560 106.9998148  71.6161560  64.9830055
 105.8708272  70.6538400  64.6809896 107.8524504  70.3368936  61.3273639
 106.9020135  70.3370798  61.2138011 108.1556990  69.5901671  60.8109673
 111.7387059  48.2542822  57.4951819 110.9719455  47.7001309  57.6408501
 112.1497764  48.3264691  58.3565970 103.7428820  54.5427618  71.5857000
 104.6060282  54.1864423  71.7960325 103.1694231  54.2041513  72.2732404
 120.3966904  76.1256903  62.3280926 120.0585415  76.0097967  61.4401461
 121.2656672  75.7248068  62.3081932 116.2553719  77.9792379  58.3177817
 115.6918584  77.8882316  57.5494104 116.1406114  77.1592283  58.7980309
 120.8786687  77.2791754  68.2867131 120.8675327  76.8844553  67.4147635
 121.0407326  76.5457827  68.8800903 113.8018151  79.4743571  61.1562037
 114.5939443  79.1334395  60.7408336 114.0414801  79.5838546  62.0764190
 115.7608905  78.7352484  54.0279416 116.5339781  78.1881471  53.8892292
 116.1134304  79.5996733  54.2393877 117.5993948  80.0628866  67.2346315
 117.3083814  80.9674497  67.1192982 118.2350932  80.1045394  67.9490385
 118.5250155  77.4405715  63.8247675 119.1213727  77.2161737  63.1104638
 118.5825126  76.6990460  64.4273123 118.0975183  74.8945150  51.6597866
 118.3500704  74.3726671  50.8981329 117.1599742  74.7311295  51.7624549
 117.8171472  76.7973256  53.8622241 117.7007730  76.1218159  54.5303325
 117.9273732  76.3105630  53.0454394 120.1603013  76.2583403  57.5668930
 119.7961220  75.7314024  58.2781852 121.0170129  75.8681872  57.3935415
 119.8008500  71.2873303  52.5630279 119.9682902  72.1553539  52.9300750
 119.6105669  71.4500584  51.6391568 116.0096314  76.2004078  60.2632813
 115.0846811  76.0680293  60.4710505 116.2580727  76.9798298  60.7602756
 119.7797720  73.7430960  53.5476945 119.6597346  74.1888011  54.3862426
 119.0850309  74.0916278  52.9890484 113.3705125  75.8437352  61.0976602
 113.4997506  76.0971831  62.0116014 112.6902577  76.4365060  60.7781257
 117.5404613  86.5134602  57.1967077 117.4628642  87.4642427  57.2755557
 116.9366256  86.1680474  57.8542003 120.0321842  73.6862467  69.8528444
 119.2555176  74.2456388  69.8431308 120.6712405  74.1719250  70.3743314
 118.2868215  76.4947921  69.4146411 119.0282899  77.0332965  69.1381234
 117.5805200  77.1214210  69.5717962 120.1154624  73.5749668  65.3852129
 120.9615820  73.9989082  65.5286778 120.0553262  72.9183292  66.0790692
 119.6380331  78.9352660  59.0320946 120.1018676  79.2140363  58.2425568
 119.3737129  78.0336105  58.8494037 116.5304412  78.4824141  61.9700709
 117.1005769  78.9111410  61.3318194 117.1212524  78.2006726  62.6684895
 118.5749217  75.0575812  55.8410511 119.2773260  75.5096856  56.3084437
 118.2429845  74.4159631  56.4690404 117.0229578  73.6487569  70.2161721
 116.3928239  74.3303850  70.4497117 116.9165666  73.5370651  69.2714859
 112.3174551  73.3159365  61.1427645 111.5273605  73.5716894  60.6667755
 112.8085798  74.1307703  61.2479685 114.2689296  73.6803944  58.1011121
 113.4720459  73.7922638  58.6194617 114.0414888  74.0190596  57.2352012
 120.0994964  80.2048647  66.0493636 120.1639396  80.6669055  66.8851808
 119.3905888  79.5746012  66.1775946 110.6012254  73.5689855  63.5742635
 110.8520292  74.4536865  63.8400211 111.1371802  73.3894457  62.8017727
 119.8142981  81.8716755  55.9172616 119.6788656  82.7168291  56.3457464
 120.3552794  82.0736033  55.1538550 116.3010321  67.9508335  72.5786972
 115.9077267  67.3974533  73.2534616 117.1176461  68.2618913  72.9693489
 113.2672379  79.3892193  56.4900541 113.7796899  80.1835443  56.6406106
 113.9195092  78.6918483  56.4234143 115.0767264  82.5057949  58.5723295
 115.2533892  83.4275914  58.3844278 115.8724097  82.1916368  59.0017674
 119.2178282  69.3666214  70.1707228 119.9587995  69.9673367  70.0911691
 119.4496205  68.6243852  69.6125271 114.3619620  74.5522581  68.4485458
 114.2473135  73.6507838  68.7492557 113.5064138  74.7986278  68.0970274
 116.1998579  84.0236123  64.5733637 116.7506004  83.8953186  63.8010631
 115.3610055  84.3231012  64.2228530 119.9965750  80.2887251  68.9177868
 120.5294087  79.5275539  68.6877176 119.4679831  79.9960903  69.6602023
 111.2321296  77.7180847  57.2660112 112.0696518  78.1277856  57.0493820
 111.4099563  76.7780289  57.2360306 120.7132839  70.2305629  58.0129183
 119.8574435  69.8412479  57.8334822 121.1259791  70.3097590  57.1528969
 118.4874871  67.8490702  61.4186925 119.3527868  67.6533510  61.0592814
 118.5552380  67.6201053  62.3456282 121.3618463  79.4173243  56.4296680
 120.8339824  78.6826003  56.1169918 120.8605966  80.1947920  56.1836648
 116.0937190  70.0792910  58.7903292 116.6680942  69.8568091  58.0576485
 116.6808173  70.1481604  59.5431893 116.4206778  72.1097371  52.8099177
 115.5844090  72.4472057  53.1308452 116.2811547  71.9746350  51.8726314
 118.3959858  66.9534159  57.5178361 117.7424270  66.6383176  56.8934976
 118.3540332  66.3309899  58.2438184 119.5071063  77.2353454  49.4331653
 118.5998125  77.0042707  49.6322802 120.0042095  76.4391073  49.6205635
 120.6859296  77.3366048  53.9555643 119.7770516  77.0525081  54.0528113
 120.7154380  77.7565127  53.0958950 111.2547467  75.0571563  57.9370845
 111.0571867  74.4640923  57.2121912 110.6994131  74.7523773  58.6546784
 119.2344190  74.9494669  60.0565439 119.2892800  73.9968505  59.9807915
 118.4235392  75.1054108  60.5406737 120.3835384  78.8774792  51.2943722
 119.9454814  78.1610651  50.8349359 121.1245825  79.1050907  50.7328813
 117.1736550  73.5671729  57.8155817 116.3604416  73.8665899  58.2221010
 117.6695545  73.1727418  58.5330300 119.3245128  83.5629486  59.7490082
 119.2821307  83.7890332  58.8198614 120.2407827  83.3292860  59.8975883
 116.6650625  71.1390084  63.4317052 117.3050004  70.9978843  62.7340016
 115.8328156  70.8524598  63.0555654 117.4410929  80.4392515  59.5452045
 118.2351528  79.9442835  59.3434620 116.7302621  79.9110378  59.1819750
 113.7493693  74.5835596  55.6211798 112.8191281  74.5220052  55.8381760
 113.8451164  74.0611549  54.8248439 113.6679242  71.1090409  58.2090039
 113.9286059  72.0235743  58.0999200 114.4896414  70.6414852  58.3586652
 115.1404167  72.5228166  65.3788864 115.8127220  72.3145529  64.7301513
 114.3133953  72.3250252  64.9394096 120.0182205  81.0121537  63.2249882
 119.8793291  80.6440321  64.0975820 119.2296801  81.5269176  63.0533840
 120.6130357  86.1130633  54.5675418 120.7882113  85.6418676  55.3821041
 119.9263145  86.7396399  54.7956679 121.5687420  80.3903139  60.6138720
 121.2337253  80.3503909  61.5096370 121.0691366  79.7247855  60.1409130
 115.5431664  75.7970769  66.1391301 115.4051462  75.0651008  66.7402840
 116.4536588  75.7079670  65.8575489 118.1713965  75.5090729  65.6274981
 118.8813583  74.8683921  65.5861599 118.1283273  75.7603624  66.5501161
 116.8842899  72.4955947  67.4470620 116.3480256  72.0446685  68.0992216
 116.2959607  72.6301856  66.7041084 115.1791442  89.2619996  61.3415279
 115.4188041  89.8938520  62.0194297 114.3360639  88.9108036  61.6280638
 116.2945158  71.9544598  50.0097084 115.4174624  71.8333399  49.6459330
 116.7702911  71.1630676  49.7575972 107.8147298  76.7421758  60.1038591
 108.5018338  76.4283488  59.5159606 107.6595427  77.6463122  59.8305842
 112.6182020  71.6311954  64.5323614 112.5340209  71.0237624  63.7974024
 111.7964726  72.1220973  64.5333111 119.6919304  85.0699118  63.7456783
 119.6189476  85.8754090  64.2576087 119.2496697  85.2691084  62.9204804
 119.4809084  84.3070888  57.2559604 118.6976606  84.8492569  57.3497829
 120.1801829  84.8244868  57.6553845 119.3740703  72.2582901  59.6265494
 119.0038490  71.7053941  60.3146400 119.8699795  71.6541034  59.0740494
 117.2029901  82.7180396  66.7220512 117.9039361  83.3516879  66.8749906
 116.7325016  83.0595127  65.9616151 112.7997619  82.2516751  63.6551615
 113.3851056  81.5060439  63.7879519 112.6022458  82.5620708  64.5388279
 115.6536274  85.2867998  58.6714057 114.9846650  85.7714126  58.1878097
 115.5149144  85.5337219  59.5857436 107.3915274  74.8222351  62.3756058
 107.4299374  74.2885942  63.1693176 106.8855567  74.2957557  61.7567035
 119.7941543  87.3211742  65.2696716 120.3459851  87.4843363  66.0345801
 120.1347737  87.9116180  64.5976740 114.7706036  69.6686892  65.8718600
 114.8347363  70.5301723  65.4595998 114.7073157  69.0560893  65.1390959
 114.2458309  71.7410024  69.5191634 114.8730348  71.3587102  70.1329159
 113.3886228  71.5224226  69.8847327 111.0223852  73.5486453  55.4509989
 111.3177293  72.6397132  55.3977043 110.1211887  73.5274193  55.1290992
 114.5518099  71.6242450  61.4337538 113.8304684  72.2378418  61.2945011
 115.3411354  72.1600215  61.3554184 117.3544412  68.9596876  67.7078190
 117.8778814  69.2059173  68.4704499 117.1356745  69.7916911  67.2881327
 112.7511693  71.2300551  55.5749314 112.4224399  70.3497930  55.3924420
 113.1051064  71.1748220  56.4625704 115.8653516  71.5173521  55.9424792
 116.2049589  72.0459442  55.2203400 116.3125637  71.8553927  56.7183359
 118.5596957  69.9010572  65.3927860 118.2193778  69.1018385  65.7948540
 117.8535963  70.2012282  64.8204693 119.2113429  66.9859884  63.8455183
 120.0339498  66.5120362  63.7234074 119.4551493  67.7650368  64.3453870
 117.8521663  70.0148142  54.1418085 118.5730026  70.3929395  53.6381802
 117.2286968  70.7337019  54.2453063 116.7352008  73.6779005  61.6547162
 116.5896588  73.9919308  62.5471443 116.2577211  74.2963905  61.1018060
 118.5948391  70.6681553  61.7028051 118.5809959  69.7722646  61.3660349
 119.3120819  70.6752216  62.3366337 120.4474521  71.1018893  63.7481179
 120.1892299  72.0235963  63.7465509 119.9159562  70.7049327  64.4381643
 111.2097670  76.2184349  64.5934823 110.6651138  76.9944157  64.7255097
 112.0877020  76.5655153  64.4353944 117.9985287  69.5495933  56.9715622
 118.1201198  68.6212579  57.1706509 117.7087329  69.5634619  56.0593937
 120.8676477  67.2350843  60.1082341 120.8898174  67.2990176  59.1534321
 121.2844536  66.3955352  60.3022848 111.9963692  75.3454245  67.4864980
 111.2545428  75.4936881  68.0729610 111.6756436  75.6062511  66.6231729
 119.9407354  84.8870223  67.2845370 120.2494481  84.6419370  68.1568069
 120.7382836  85.0916862  66.7964240 119.9627966  87.0408133  59.5150746
 119.5232957  86.5484512  60.2083603 120.7136083  86.4981101  59.2742822
 112.4420305  83.2319674  59.5175374 113.2678325  82.9323446  59.1374018
 112.0914357  82.4627296  59.9665163 117.4101839  82.5846142  61.5873048
 116.7881848  81.9216847  61.2875276 118.0806706  82.6107274  60.9046696
 110.6428910  81.1506000  60.4764308 109.8060819  80.7228175  60.2948309
 110.6152556  81.3438444  61.4135099 117.4826366  71.0627930  71.1805554
 117.5314522  71.9390053  70.7983324 118.0248880  70.5205323  70.6077197
 116.9715346  81.1350066  55.0631509 117.1203466  81.8185530  54.4098181
 117.7781789  81.1155156  55.5780964 119.7125655  71.8159303  67.9351913
 118.8428964  72.1092869  67.6634501 119.9485135  72.3999748  68.6559176
 114.7267978  77.1615243  56.0692578 114.4814020  76.2577573  56.2672788
 114.8963893  77.1632394  55.1272056 113.9963626  72.8943601  53.5678739
 113.3032871  72.9687956  52.9118775 113.7515378  72.1303944  54.0900256
 120.4710751  83.6298196  52.5343256 119.8984718  84.2488383  52.0813728
 121.0443545  84.1797558  53.0683178 119.0400467  72.8908985  49.8114194
 118.1331922  72.5942098  49.8876907 119.3176448  72.5938803  48.9448480
 109.9578407  74.2115349  60.2613240 109.6381191  73.3580657  59.9687614
 109.4111835  74.4263927  61.0171208 113.7358315  76.9277790  63.9782747
 113.9544324  77.8594897  63.9970781 114.1484088  76.5685764  64.7637551
 120.6562532  67.4345875  55.9658435 119.8463261  67.0892960  56.3413681
 121.3446949  67.1253419  56.5546047 118.6086180  72.5010995  73.3685496
 118.5082907  73.4505352  73.2997587 118.3907722  72.1729234  72.4961566
 117.8099251  69.7495920  49.9526173 118.6718415  70.0750819  50.2121990
 117.9949595  68.9627416  49.4399239 109.8266667  77.8318260  62.2306362
 109.1330139  77.4172213  61.7176316 110.5739658  77.8738797  61.6339781
 118.4717450  75.9308134  72.1850557 117.9884532  76.7308494  72.3914446
 118.5578389  75.9416079  71.2318001 111.7403410  77.7636514  60.1072377
 111.7174098  77.8624201  59.1554260 112.0504046  78.6101665  60.4289543
 114.3990787  79.8212669  64.2218991 115.3534041  79.7896611  64.1548923
 114.2003311  79.3603293  65.0369217 114.9890170  78.3913785  66.7889789
 115.8083059  78.8857864  66.8124626 115.2626977  77.4745753  66.7607356
 112.7541016  85.3632288  61.2389189 112.6195484  84.6032689  60.6727187
 112.3373079  86.0873188  60.7717978 115.9110142  86.2601605  61.4507632
 115.7942526  87.2047038  61.3486322 115.0902588  85.9575167  61.8393431
 110.2425084  72.7251919  67.4881986 110.8883947  72.2150873  67.9769211
 110.0342235  73.4620600  68.0625411 118.7628694  66.9891963  53.2405882
 118.7507364  67.9333803  53.3974153 119.6552116  66.8062109  52.9465343
 116.9364656  86.9129867  64.6663560 117.8391903  86.9453477  64.9830055
 116.7102026  85.9830318  64.6809896 118.6918258  85.6660854  61.3273639
 117.7413889  85.6662715  61.2138011 118.9950744  84.9193588  60.8109673
 114.5822575  69.8719536  71.5857000 115.4454036  69.5156341  71.7960325
 114.0087985  69.5333431  72.2732404 118.6541052  92.0713675  60.1038591
 119.3412092  91.7575406  59.5159606 118.4989181  92.9755040  59.8305842
 118.2309028  90.1514269  62.3756058 118.2693128  89.6177860  63.1693176
 117.7249321  89.6249474  61.7567035 121.4822665  96.4797918  60.4764308
 120.6454573  96.0520092  60.2948309 121.4546310  96.6730361  61.4135099
 120.7972162  89.5407266  60.2613240 120.4774946  88.6872574  59.9687614
 120.2505590  89.7555844  61.0171208 120.6660422  93.1610178  62.2306362
 119.9723893  92.7464130  61.7176316 121.4133413  93.2030714  61.6339781
  74.1829596   2.2029054  43.9212383  74.1053626   3.1536879  44.0000864
  73.5791239   1.8574926  44.5787310  71.8216426   4.9514448  48.0660585
  72.0613024   5.5832972  48.7439604  70.9785622   4.6002488  48.3525945
  72.2961258   0.9762450  45.3959364  71.6271633   1.4608578  44.9123404
  72.1574127   1.2231671  46.3102742  76.4366526   3.0106194  51.9942022
  76.9884834   3.1737815  52.7591107  76.7772720   3.6010632  51.3222047
  69.3966000   1.0526740  47.9634496  69.2620467   0.2927141  47.3972494
  68.9798062   1.7767640  47.4963284  72.5535125   1.9496057  48.1752938
  72.4367510   2.8941490  48.0731628  71.7327572   1.6469619  48.5638737
  73.5789640   2.6024319  51.3908867  74.4816886   2.6347929  51.7075362
  73.3527010   1.6724770  51.4055202  87.8785641   7.1443272  49.0526232
  87.5404153   7.0284337  48.1646767  88.7475410   6.7434437  49.0327238
  83.7372457   8.9978749  45.0423123  83.1737322   8.9068686  44.2739411
  83.6224852   8.1778653  45.5225616  88.3605424   8.2978124  55.0112438
  88.3494065   7.9030922  54.1392942  88.5226064   7.5644196  55.6046209
  81.2836889  10.4929940  47.8807344  82.0758181  10.1520765  47.4653643
  81.5233539  10.6024915  48.8009497  89.3172016  12.6649716  40.3537588
  88.6659996  13.2503797  39.9671602  90.1116379  13.1955911  40.4132626
  83.2427643   9.7538853  40.7524723  84.0158519   9.2067840  40.6137598
  83.5953042  10.6183103  40.9639184  85.0812685  11.0815236  53.9591622
  84.7902551  11.9860867  53.8438288  85.7169670  11.1231763  54.6735691
  86.0068892   8.4592084  50.5492982  86.6032465   8.2348107  49.8349944
  86.0643864   7.7176830  51.1518429  90.7947281  10.3540148  40.8906573
  90.1593114  10.4274775  41.6027477  90.4644687  10.9433747  40.2125652
  85.2990209   7.8159625  40.5867547  85.1826468   7.1404529  41.2548632
  85.4092469   7.3291999  39.7699700  87.6421750   7.2769773  44.2914237
  87.2779958   6.7500394  45.0027158  88.4988866   6.8868242  44.1180722
  90.0402571  10.7676651  50.9541416  89.7403294  11.6701690  50.8457223
  89.6953630  10.5008834  51.8062568  83.4915052   7.2190448  46.9878120
  82.5665549   7.0866662  47.1955812  83.7399465   7.9984667  47.4848062
  80.8523863   6.8623722  47.8221909  80.9816244   7.1158201  48.7361321
  80.1721314   7.4551430  47.5026564  85.0223350  17.5320972  43.9212383
  84.9447380  18.4828797  44.0000864  84.4184994  17.1866844  44.5787310
  85.7686952   7.5134290  56.1391717  86.5101637   8.0519334  55.8626541
  85.0623938   8.1400579  56.2963269  91.2442292   9.6563431  54.7363879
  91.6525648   9.2145841  53.9918511  90.5219554   9.0816058  54.9898072
  91.5671107  10.2164621  48.4916168  90.9379969  10.3810336  47.7892235
  91.1796769  10.6306231  49.2627132  95.4460339  11.1519059  45.8460531
  94.7611377  11.5317961  45.2957565  95.5304188  11.7614386  46.5792479
  92.7011270   8.7979018  52.4455875  92.9128165   9.4410778  51.7690256
  92.6541018   7.9641335  51.9777805  87.1199069   9.9539030  45.7566253
  87.5837414  10.2326732  44.9670875  86.8555867   9.0522474  45.5739343
  84.0123150   9.5010511  48.6946016  84.5824507   9.9297779  48.0563500
  84.6031262   9.2193096  49.3930202  79.7993289   4.3345735  47.8672951
  79.0092343   4.5903263  47.3913062  80.2904536   5.1494072  47.9724992
  93.8157098  11.6750974  50.6178232  94.6374542  11.2731161  50.3360914
  93.8119501  11.5719208  51.5694348  81.7508034   4.6990314  44.8256428
  80.9539197   4.8109008  45.3439924  81.5233626   5.0376966  43.9597319
  87.5813702  11.2235017  52.7738943  87.6458134  11.6855424  53.6097114
  86.8724626  10.5932382  52.9021252  78.0830992   4.5876225  50.2987942
  78.3339030   5.4723235  50.5645518  78.6190540   4.4080827  49.5263034
  87.2961719  12.8903125  42.6417923  87.1607394  13.7354660  43.0702771
  87.8371532  13.0922402  41.8783857  80.7491117  10.4078563  43.2145848
  81.2615637  11.2021813  43.3651413  81.4013830   9.7104853  43.1479450
  82.5586001  13.5244319  45.2968601  82.7352630  14.4462284  45.1089585
  83.3542835  13.2102738  45.7262981  81.8438358   5.5708951  55.1730764
  81.7291873   4.6694208  55.4737863  80.9882876   5.8172647  54.8215581
  88.9230196  13.5126691  56.7718265  88.4794050  12.7263070  56.4539170
  89.5847409  13.7005842  56.1062156  83.6817317  15.0422493  51.2978944
  84.2324742  14.9139556  50.5255938  82.8428793  15.3417382  50.9473836
  91.0211434  13.7929491  54.7999666  91.0029909  14.6138372  54.3079935
  91.9431354  13.6683566  55.0249807  87.4784488  11.3073620  55.6423175
  88.0112825  10.5461909  55.4122483  86.9498569  11.0147272  56.3847329
  78.7140033   8.7367217  43.9905419  79.5515255   9.1464225  43.7739126
  78.8918301   7.7966659  43.9605612  88.8437201  10.4359613  43.1541987
  88.3158562   9.7012372  42.8415224  88.3424703  11.2134289  42.9081955
  93.8230047   8.6308633  48.2709033  93.1653721   9.3207895  48.3589162
  94.6270446   9.0205065  48.6143019  86.9889801   8.2539823  36.1576960
  86.0816863   8.0229077  36.3568109  87.4860833   7.4577442  36.3450941
  89.8957880  16.9637330  39.0773646  89.2219578  17.2669027  39.6858604
  90.2823702  17.7666411  38.7279103  88.1678034   8.3552418  40.6800950
  87.2589253   8.0711451  40.7773420  88.1973118   8.7751497  39.8204257
  93.3997302  11.9659008  44.4492117  92.9459629  11.1249917  44.5057308
  92.7691268  12.6020406  44.7866898  91.8430241  13.8035504  45.3841936
  92.1353215  14.3640561  44.6654301  92.3528861  14.0964065  46.1395095
  78.7366205   6.0757932  44.6616152  78.5390604   5.4827293  43.9367219
  78.1812869   5.7710142  45.3792091  87.8654122   9.8961162  38.0189028
  87.4273552   9.1797021  37.5594666  88.6064563  10.1237277  37.4574120
  86.8063866  14.5815855  46.4735389  86.7640045  14.8076702  45.5443921
  87.7226565  14.3479230  46.6221190  96.0096616  10.2394886  49.0876618
  96.4433123  10.1470175  49.9359673  96.7228197  10.2152386  48.4496634
  84.9229667  11.4578884  46.2697351  85.7170265  10.9629204  46.0679926
  84.2121359  10.9296747  45.9065057  89.7424511  13.8396980  50.6209719
  89.7961534  14.4087916  51.3887435  88.8739293  14.0098865  50.2563756
  81.2312430   5.6021966  42.3457104  80.3010018   5.5406422  42.5627066
  81.3269902   5.0797919  41.5493745  96.8712166  10.2818586  51.6209504
  97.0648056  11.1864397  51.8668779  96.7712784   9.8226005  52.4548089
  91.9327275  10.4325329  57.1950384  91.7812781  10.2035881  56.2780468
  91.9231954  11.3895931  57.2081730  88.7012611   8.0057242  52.1796651
  89.6304671   8.1568402  52.0065618  88.2803641   8.0941263  51.3245297
  87.5000943  12.0307906  49.9495189  87.3612029  11.6626691  50.8221127
  86.7115539  12.5455546  49.7779146  88.0949095  17.1317003  41.2920725
  88.2700850  16.6605046  42.1066348  87.4081883  17.7582769  41.5201986
  89.0506158  11.4089509  47.3384026  88.7155991  11.3690279  48.2341676
  88.5510104  10.7434225  46.8654437  83.0250402   6.8157139  52.8636608
  82.8870200   6.0837378  53.4648147  83.9355325   6.7266039  52.5820795
  91.9865350   8.7545543  37.6121086  91.3694520   8.0292372  37.5154139
  91.5181838   9.5154904  37.2688160  85.6532703   6.5277098  52.3520287
  86.3632321   5.8870291  52.3106906  85.6102011   6.7789993  53.2746468
  93.6419481  13.4644452  55.2726866  93.5832027  12.7803672  54.6057449
  94.0439000  14.2063442  54.8207492  82.6610180  20.2806366  48.0660585
  82.9006778  20.9124890  48.7439604  81.8179377  19.9294406  48.3525945
  93.6436889  11.4284036  53.5040846  92.7563667  11.0909957  53.6267245
  94.2135440  10.6967067  53.7409611  75.2966036   7.7608127  46.8283897
  75.9837076   7.4469857  46.2404913  75.1414164   8.6649492  46.5551149
  87.1738042  16.0885488  50.4702089  87.1008213  16.8940459  50.9821394
  86.7315435  16.2877454  49.6450111  86.9627822  15.3257258  43.9804911
  86.1795343  15.8678938  44.0743135  87.6620567  15.8431238  44.3799152
  89.6336725  15.9872322  52.6260248  90.3464698  16.6219787  52.5536149
  89.1426754  16.0836188  51.8100250  91.3554252   9.8923575  44.1977540
  90.4210531  10.0125037  44.0282244  91.5330921   8.9896041  43.9337549
  84.6848639  13.7366765  53.4465819  85.3858098  14.3703248  53.5995213
  84.2143754  14.0781497  52.6861458  92.8103035  12.0784715  41.7313726
  93.0862879  11.9641310  42.6407600  91.9407534  11.6802200  41.6925899
  89.4457099  16.3271066  45.3746539  89.6279493  15.5092722  45.8374292
  90.2690085  16.5438758  44.9371429  89.7799264  15.2539251  42.6361588
  90.3087031  14.7431706  42.0231750  90.0427484  14.9381781  43.5007121
  88.5337498   7.0331184  57.7584406  87.8578135   6.9325313  58.4286781
  89.3565132   6.8770398  58.2220403  80.2816357  13.2703121  50.3796921
  80.8669794  12.5246808  50.5124826  80.0841196  13.5807077  51.2633585
  83.1355012  16.3054368  45.3959364  82.4665388  16.7900496  44.9123404
  82.9967882  16.5523588  46.3102742  74.8734012   5.8408721  49.1001365
  74.9118111   5.3072311  49.8938483  74.3674305   5.3143926  48.4812342
  87.2760281  18.3398111  51.9942022  87.8278589  18.5029733  52.7591107
  87.6166474  18.9302549  51.3222047  92.1271155  13.1659369  57.8490677
  92.6711059  13.7789327  57.3545631  91.5458000  13.7238947  58.3657690
  78.5042589   4.5672823  42.1755296  78.7996030   3.6583501  42.1222350
  77.6030625   4.5460562  41.8536298  90.4128668  16.2880087  48.9805704
  90.2879808  15.4869827  48.4716650  91.0707759  16.7826280  48.4919674
  92.4763577  14.0889107  50.6085254  91.5293912  13.9694458  50.5363581
  92.8246350  13.2011605  50.6911516  89.4810010  13.8841823  46.8089607
  89.3334972  12.9558531  46.9897177  90.3063503  13.9061914  46.3246682
  93.0844132  14.7070382  47.8954479  94.0090679  14.5013243  47.7578931
  92.9159435  14.4586783  48.8043821  92.8739448  15.2256049  43.2516571
  93.0476325  14.6602472  42.4990423  93.3668339  16.0256944  43.0696061
  78.6916408   7.2370719  51.3180130  78.1469876   8.0130526  51.4500404
  79.5695758   7.5841523  51.1599251  93.8614620  14.5422814  40.3513469
  94.5565525  15.1629507  40.5700784  94.2037771  13.6918165  40.6265847
  79.4782430   6.3640615  54.2110287  78.7364166   6.5123250  54.7974917
  79.1575174   6.6248880  53.3477036  95.7606043  11.9922519  41.8800800
  96.2857368  12.3309792  41.1550120  95.6728396  11.0569535  41.6963935
  87.4226092  15.9056593  54.0090677  87.7313219  15.6605740  54.8813376
  88.2201574  16.1103231  53.5209547  87.4446704  18.0594503  46.2396053
  87.0051695  17.5670881  46.9328910  88.1954821  17.5167470  45.9988128
  79.9239043  14.2506044  46.2420681  80.7497063  13.9509815  45.8619325
  79.5733095  13.4813666  46.6910470  84.8920576  13.6032512  48.3118355
  84.2700586  12.9403217  48.0120583  85.5625443  13.6293644  47.6292003
  78.1247648  12.1692370  47.2009615  77.2879557  11.7414544  47.0193616
  78.0971294  12.3624813  48.1380406  95.4499950  12.6255423  57.1851998
  94.6595493  12.6079562  56.6456497  95.2133304  13.1643717  57.9401034
  84.4534083  12.1536435  41.7876815  84.6022204  12.8371899  41.1343488
  85.2600527  12.1341525  42.3026271  97.0716021  11.8944831  54.7426748
  96.7800830  12.2574811  55.5790209  96.4588153  11.1811839  54.5640080
  82.2086716   8.1801613  42.7937884  81.9632758   7.2763943  42.9918094
  82.3782631   8.1818763  41.8517362  87.9529489  14.6484566  39.2588563
  87.3803456  15.2674753  38.8059035  88.5262282  15.1983927  39.7928485
  91.1726749  14.9321716  40.3897145  92.1057422  14.8667277  40.5930020
  91.0849961  15.7677983  39.9311678  93.8014765  14.2487586  37.3501093
  93.7228397  13.9147450  38.2436850  94.6224432  14.7409354  37.3492565
  88.2214980  10.0363124  58.0605272  89.1417989  10.2141723  58.2545319
  88.1864563   9.0919170  57.9084971  77.4397145   5.2301718  46.9858547
  77.1199929   4.3767026  46.6932921  76.8930573   5.4450296  47.7416514
  81.2177052   7.9464159  50.7028053  81.4363062   8.8781267  50.7216087
  81.6302826   7.5872133  51.4882857  77.3085405   8.8504630  48.9551668
  76.6148876   8.4358582  48.4421623  78.0558396   8.8925166  48.3585087
  85.9536188   6.9494504  58.9095864  85.4703269   7.7494864  59.1159753
  86.0397127   6.9602449  57.9563308  79.2222147   8.7822883  46.8317683
  79.1992835   8.8810571  45.8799566  79.5322784   9.6288034  47.1534849
  81.8809525  10.8399038  50.9464298  82.8352779  10.8082981  50.8794229
  81.6822049  10.3789662  51.7614524  82.4708907   9.4100154  53.5135095
  83.2901796   9.9044233  53.5369933  82.7445715   8.4932123  53.4852663
  80.2359754  16.3818658  47.9634496  80.1014222  15.6219059  47.3972494
  79.8191816  17.1059558  47.4963284  91.3718717  11.5655581  36.9711071
  92.0754567  11.7705584  37.5868726  90.6481366  12.1332343  37.2360154
  83.3928880  17.2787975  48.1752938  83.2761264  18.2233407  48.0731628
  82.5721326  16.9761536  48.5638737  93.2805414  12.0038111  39.0209531
  94.1151018  11.5719309  38.8387006  93.1189757  11.8320124  39.9486425
  92.9351307   8.5070224  40.3865870  92.8800110   8.3414495  39.4454314
  92.3097362   9.2146257  40.5428060  77.7243822   3.7438288  54.2127292
  78.3702685   3.2337242  54.7014518  77.5160973   4.4806970  54.7870718
  90.2497214  10.8119136  59.7119433  91.1188373  10.9859788  59.3506068
  89.7703965  11.6313553  59.5895162  84.4183394  17.9316237  51.3908867
  85.3210641  17.9639847  51.7075362  84.1920764  17.0016688  51.4055202
  86.1736996  16.6847223  48.0518945  85.2232627  16.6849085  47.9383318
  86.4769482  15.9379958  47.5354980 101.9089690  22.5207762  49.1164708
 102.5468100  22.4014509  48.4128048 101.7910532  23.4688606  49.1752660
  98.7179396  22.4735190  49.0526232  98.3797907  22.3576255  48.1646767
  99.5869164  22.0726355  49.0327238  99.1999179  23.6270042  55.0112438
  99.1887820  23.2322840  54.1392942  99.3619818  22.8936114  55.6046209
  96.4187675  21.2423437  38.3843172  96.6713196  20.7204958  37.6226635
  95.4812234  21.0789583  38.4869856 101.4630958  20.2459216  46.1917916
 102.2494047  19.8278639  45.8408333 101.7269662  21.1505308  46.3599564
 101.6341035  25.6832066  40.8906573 100.9986868  25.7566692  41.6027477
 101.3038442  26.2725665  40.2125652 106.8639385  20.1834449  47.0950894
 107.5964557  19.6133666  47.3288724 106.1078741  19.7956049  47.5357400
  96.1383964  23.1451543  40.5867547  96.0220222  22.4696447  41.2548632
  96.2486224  22.6583917  39.7699700  98.4815505  22.6061690  44.2914237
  98.1173712  22.0792311  45.0027158  99.3382621  22.2160159  44.1180722
 104.3864806  13.8956023  51.5545503 104.0548130  14.7651434  51.3306718
 103.7910419  13.5792307  52.2339533  98.1220992  17.6351590  39.2875585
  98.2895394  18.5031826  39.6546056  97.9318161  17.7978872  38.3636874
 100.8796325  26.0968569  50.9541416 100.5797048  26.9993608  50.8457223
 100.5347385  25.8300752  51.8062568  94.3308807  22.5482366  46.9878120
  93.4059303  22.4158580  47.1955812  94.5793220  23.3276585  47.4848062
 104.2793469  18.6151109  48.6338853 103.3710346  18.5466517  48.3397614
 104.2281065  19.0923054  49.4620678  98.1010213  20.0909247  40.2722252
  97.9809838  20.5366298  41.1107732  97.4062801  20.4394565  39.7135790
  91.6917618  22.1915639  47.8221909  91.8209999  22.4450118  48.7361321
  91.0115069  22.7843347  47.5026564  98.3534335  20.0340755  56.5773750
  97.5767669  20.5934675  56.5676615  98.9924898  20.5197538  57.0988620
 106.1455115  16.8167547  50.4116727 105.5029495  17.1100081  49.7656521
 105.6410044  16.7020468  51.2169923 103.7995279  20.5630721  41.1002586
 104.7113135  20.7958107  40.9250284 103.2904926  21.1467765  40.5377665
  96.6080707  22.8426208  56.1391717  97.3495391  23.3811252  55.8626541
  95.9017692  23.4692497  56.2963269 102.0836047  24.9855348  54.7363879
 102.4919403  24.5437759  53.9918511 101.3613308  24.4107976  54.9898072
  98.4367117  19.9227955  52.1097436  99.2828312  20.3467369  52.2532085
  98.3765754  19.2661580  52.8035999 102.4064861  25.5456539  48.4916168
 101.7773724  25.7102253  47.7892235 102.0190523  25.9598149  49.2627132
 106.2854093  26.4810977  45.8460531 105.6005131  26.8609878  45.2957565
 106.3697942  27.0906304  46.5792479 101.5866562  17.5832324  53.7678609
 101.3427494  18.3374384  53.2312885 101.8626492  17.9617671  54.6025856
 103.5405025  24.1270936  52.4455875 103.7521920  24.7702696  51.7690256
 103.4934773  23.2933253  51.9777805 101.1431254  16.7388757  49.3492447
 100.2815733  17.0370010  49.6409185 101.1693688  16.9559156  48.4173480
  96.8961709  21.4054100  42.5655818  97.5985752  21.8575143  43.0329744
  96.5642338  20.7637918  43.1935711  95.3442071  19.9965856  56.9407027
  94.7140731  20.6782137  57.1742424  95.2378159  19.8848938  55.9960165
  90.6387043  19.6637652  47.8672951  89.8486097  19.9195181  47.3913062
  91.1298290  20.4785990  47.9724992 104.6550853  27.0042891  50.6178232
 105.4768296  26.6023079  50.3360914 104.6513256  26.9011126  51.5694348
  92.5901788  20.0282231  44.8256428  91.7932952  20.1400926  45.3439924
  92.3627381  20.3668884  43.9597319  98.4207456  26.5526935  52.7738943
  98.4851889  27.0147342  53.6097114  97.7118380  25.9224300  52.9021252
  88.9224746  19.9168143  50.2987942  89.1732785  20.8015153  50.5645518
  89.4584294  19.7372744  49.5263034 112.7456846  23.3481640  46.9663204
 111.9920554  22.7789038  46.8107208 112.8804387  23.3144304  47.9133838
  94.6222813  14.2986622  59.3032278  94.2289759  13.7452821  59.9779922
  95.4388954  14.6097200  59.6938796  97.5390774  15.7144501  56.8952535
  98.2800488  16.3151654  56.8156997  97.7708697  14.9722139  56.3370577
  92.6832112  20.9000868  55.1730764  92.5685628  19.9986126  55.4737863
  91.8276630  21.1464565  54.8215581  99.7623950  28.8418609  56.7718265
  99.3187804  28.0554987  56.4539170 100.4241164  29.0297759  56.1062156
 101.8605188  29.1221409  54.7999666 101.8423664  29.9430290  54.3079935
 102.7825108  28.9975484  55.0249807  98.3178242  26.6365538  55.6423175
  98.8506579  25.8753826  55.4122483  97.7892323  26.3439190  56.3847329
 101.4847937  11.7425604  51.1716816 101.1412207  12.6327246  51.0955927
 101.8526900  11.5527262  50.3086401 101.4498220  21.7334215  39.6789252
 100.9344843  22.5038820  39.9177639 101.1775529  21.0599351  40.3022313
  99.0345331  16.5783916  44.7374490  98.1786927  16.1890766  44.5580129
  99.4472283  16.6575877  43.8774275 100.5644478  14.1130259  49.1366050
 100.0609273  14.0760394  48.3233855 100.8575085  15.0223002  49.1962706
  96.8087364  14.1968989  48.1432231  97.6740360  14.0011798  47.7838121
  96.8764873  13.9679341  49.0701588 106.4232494  24.4866570  41.6142425
 105.6461937  24.1477729  41.1697587 107.1023975  24.4919193  40.9397390
 101.2384523  19.6061307  41.5049033 100.9334659  19.9207456  42.3559176
 102.1914965  19.6842727  41.5476366 104.6623801  23.9600551  48.2709033
 104.0047476  24.6499812  48.3589162 105.4664200  24.3496983  48.6143019
  94.4149683  16.4271197  45.5148598  94.9893435  16.2046378  44.7821791
  95.0020665  16.4959891  46.2677200 103.4729260  22.3144924  46.3212975
 103.9861142  22.9474916  46.8234684 104.1230484  21.7146119  45.9556335
  94.7419270  18.4575658  39.5344483  93.9056582  18.7950344  39.8553758
  94.6024039  18.3224638  38.5971620  96.7172350  13.3012446  44.2423668
  96.0636763  12.9861463  43.6180282  96.6752825  12.6788186  44.9683491
  97.8283555  23.5831741  36.1576960  96.9210617  23.3520994  36.3568109
  98.3254587  22.7869360  36.3450941  99.9510091  19.7894379  48.5671315
  99.0332652  20.0109326  48.4093003 100.3670234  19.8640690  47.7083023
 100.7345139  21.1885795  43.6973996 101.4816957  21.7007192  43.3881118
 101.0036728  20.8669848  44.5578389  99.0071789  23.6844336  40.6800950
  98.0983008  23.4003369  40.7773420  99.0366873  24.1043414  39.8204257
 104.2391056  27.2950925  44.4492117 103.7853383  26.4541835  44.5057308
 103.6085023  27.9312324  44.7866898 103.1823976  18.2242911  45.6792785
 102.4446732  17.7120297  46.0103027 103.4350749  17.7843293  44.8676062
  97.5556683  21.2972956  46.7810745  97.6105293  20.3446793  46.7053222
  96.7447885  21.4532395  47.2652044  98.7047877  25.2253079  38.0189028
  98.2667306  24.5088938  37.5594666  99.4458317  25.4529194  37.4574120
  95.4949043  19.9150016  44.5401124  94.6816908  20.2144187  44.9466316
  95.9908037  19.5205705  45.2575606 101.0923254  20.3791841  53.3716018
 101.4472642  20.6063314  54.2310484 101.7395386  20.7110217  52.7493273
 106.8220991  23.5010276  44.0765347 106.6838890  23.6911872  43.1486536
 106.4657210  24.2629659  44.5333398  94.9863117  17.4868372  50.1562359
  95.6262497  17.3457131  49.4585322  94.1540648  17.2002885  49.7800961
 106.8490371  25.5686803  49.0876618 107.2826878  25.4762093  49.9359673
 107.5621952  25.5444304  48.4496634 100.5818266  29.1688898  50.6209719
 100.6355288  29.7379834  51.3887435  99.7133047  29.3390783  50.2563756
  91.9891734  17.4568697  44.9335346  92.2498551  18.3714030  44.8244506
  92.8108906  16.9893139  45.0831959  93.4616659  18.8706454  52.1034170
  94.1339713  18.6623816  51.4546819  92.6346446  18.6728540  51.6639403
 107.7105920  25.6110504  51.6209504 107.9041811  26.5156315  51.8668779
 107.6106539  25.1517923  52.4548089  99.3642231  15.4968395  54.1199831
  98.7170146  16.1958344  54.0264308 100.1343247  15.9304539  54.4876079
 102.7721029  25.7617247  57.1950384 102.6206536  25.5327799  56.2780468
 102.7625709  26.7187848  57.2081730  99.5406366  23.3349160  52.1796651
 100.4698426  23.4860319  52.0065618  99.1197396  23.4233180  51.3245297
  98.3394697  27.3599824  49.9495189  98.2005783  26.9918608  50.8221127
  97.5509294  27.8747463  49.7779146 102.8259104  24.0837461  37.6121086
 102.2088275  23.3584289  37.5154139 102.3575593  24.8446821  37.2688160
  96.4926457  21.8569016  52.3520287  97.2026076  21.2162208  52.3106906
  96.4495765  22.1081911  53.2746468 104.4813236  28.7936369  55.2726866
 104.4225782  28.1095590  54.6057449 104.8832754  29.5355359  54.8207492
  95.2055391  18.8434234  54.1715927  94.6692748  18.3924972  54.8237523
  94.6172100  18.9780143  53.4286391  94.6157650  18.3022885  36.7342390
  93.7387116  18.1811686  36.3704637  95.0915403  17.5108964  36.4821279
 104.4830643  26.7575953  53.5040846 103.5957422  26.4201875  53.6267245
 105.0529194  26.0258985  53.7409611  90.9394512  17.9790242  51.2568921
  90.8552701  17.3715911  50.5219331  90.1177219  18.4699260  51.2578417
 101.1118226  16.4643805  46.6239116 101.6086926  15.7113767  46.3040186
 100.3405208  16.5008122  46.0582325 108.9647984  22.1684171  48.2657408
 108.9537860  23.0508886  47.8951341 108.0965363  21.8155722  48.0711945
 100.4730480  31.3164240  52.6260248 101.1858452  31.9511705  52.5536149
  99.9820509  31.4128106  51.8100250 102.1948007  25.2215492  44.1977540
 101.2604286  25.3416955  44.0282244 102.3724675  24.3187959  43.9337549
  97.6953195  18.6061188  46.3510801  97.3250982  18.0532229  47.0391706
  98.1912287  18.0019322  45.7985801 105.5820558  21.0632812  44.7327574
 106.0481010  21.8960803  44.6587876 106.0328059  20.5977793  45.4372832
 103.6496789  27.4076633  41.7313726 103.9256633  27.2933228  42.6407600
 102.7801288  27.0094118  41.6925899 103.5537221  13.4313399  48.7718475
 102.6400301  13.6617625  48.9400682 103.9830322  13.5151843  49.6232507
 103.3243679  21.6203291  51.2718369 102.6715130  21.8679198  50.6170822
 103.7024059  20.8067429  50.9380846  99.3731252  22.3623102  57.7584406
  98.6971890  22.2617231  58.4286781 100.1958886  22.2062315  58.2220403
  85.7127766  21.1700638  49.1001365  85.7511866  20.6364229  49.8938483
  85.2068059  20.6435844  48.4812342  93.0918529  16.0165179  52.5963907
  93.1559855  16.8780010  52.1841305  93.0285649  15.4039181  51.8636265
  92.5670801  18.0888311  56.2436941  93.1942840  17.7065389  56.8574465
  91.7098720  17.8702513  56.6092634 102.9664910  28.4951287  57.8490677
 103.5104814  29.1081245  57.3545631 102.3851755  29.0530865  58.3657690
  89.3436344  19.8964741  42.1755296  89.6389785  18.9875419  42.1222350
  88.4424380  19.8752480  41.8536298 101.2522423  31.6172005  48.9805704
 101.1273562  30.8161744  48.4716650 101.9101514  32.1118198  48.4919674
  92.8730591  17.9720737  48.1582845  92.1517177  18.5856705  48.0190318
  93.6623847  18.5078502  48.0799490 103.3157331  29.4181025  50.6085254
 102.3687667  29.2986376  50.5363581 103.6640104  28.5303523  50.6911516
  95.6756904  15.3075164  54.4323496  96.1991306  15.5537460  55.1949806
  95.4569238  16.1395198  54.0126634  91.0724185  17.5778838  42.2994621
  90.7436892  16.6976217  42.1169727  91.4263556  17.5226507  43.1871010
  94.1866009  17.8651808  42.6670099  94.5262081  18.3937729  41.9448707
  94.6338129  18.2032214  43.4428665 103.9237886  30.0362300  47.8954479
 104.8484434  29.8305161  47.7578931 103.7553190  29.7878701  48.8043821
  96.8809449  16.2488859  52.1173167  96.5406270  15.4496672  52.5193847
  96.1748456  16.5490570  51.5450000  97.5325921  13.3338171  50.5700490
  98.3551991  12.8598649  50.4479380  97.7763985  14.1128655  51.0699176
  96.1734156  16.3626430  40.8663392  96.8942518  16.7407682  40.3627108
  95.5499460  17.0815306  40.9698369 100.3165279  17.0671579  41.8021724
 100.5328893  17.9496216  41.5010552  99.8359346  16.6757792  41.0727366
  95.0564500  20.0257292  48.3792468  94.9109081  20.3397595  49.2716750
  94.5789704  20.6442192  47.8263367  96.9160883  17.0159840  48.4273358
  96.9022452  16.1200933  48.0905656  97.6333311  17.0230504  49.0611644
  98.7687014  17.4497180  50.4726485  98.5104791  18.3714251  50.4710816
  98.2372054  17.0527615  51.1626950  96.3197779  15.8974220  43.6960928
  96.4413690  14.9690866  43.8951816  96.0299821  15.9112906  42.7839244
  99.1888969  13.5829131  46.8327648  99.2110666  13.6468464  45.8779628
  99.6057028  12.7433639  47.0268154 109.5672594  23.3184390  44.8706871
 110.0103740  22.5691715  44.4725994 108.6899104  23.3094526  44.4880603
 104.7008375  29.8714732  40.3513469 105.3959279  30.4921424  40.5700784
 105.0431525  29.0210083  40.6265847  90.3176184  21.6932532  54.2110287
  89.5757920  21.8415168  54.7974917  89.9968928  21.9540798  53.3477036
 106.5999798  27.3214437  41.8800800 107.1251122  27.6601710  41.1550120
 106.5122151  26.3861452  41.6963935  95.8038858  17.4106217  57.9050861
  95.8527014  18.2868340  57.5228630  96.3461373  16.8683610  57.3322504
 106.2893704  27.9547341  57.1851998 105.4989248  27.9371480  56.6456497
 106.0527059  28.4935634  57.9401034 106.4091579  24.8039807  54.4984726
 106.4589584  24.6389815  55.4400249 106.3005502  23.9367066  54.1082607
 103.6995341  20.7870735  55.8144033 104.6005204  20.6477200  55.5228031
 103.7743316  20.9525190  56.7542211  98.0338147  18.1637590  54.6597219
  97.1641456  18.4571156  54.3879808  98.2697627  18.7478035  55.3804483
 107.9109776  27.2236749  54.7426748 107.6194584  27.5866729  55.5790209
 107.2981907  26.5103757  54.5640080 109.1105458  24.7889628  47.2629318
 109.9452350  25.2279432  47.4266879 109.2464587  24.3128282  46.4437564
 106.1596964  22.3469363  53.2106806 106.6351086  22.5397010  52.4025657
 105.2362530  22.4028549  52.9650190 100.7377181  14.3817207  52.1762640
 101.2559125  15.1178234  51.8509128 100.3832313  14.6881200  53.0109399
 104.8598633  19.2235123  51.4435112 105.8116056  19.3233221  51.4647336
 104.6902084  18.4313392  51.9533196 102.8813013  16.3090707  51.6294512
 102.2862945  16.5895719  50.9341001 102.5962709  16.7984607  52.4011254
 104.6408520  29.5779504  37.3501093 104.5622151  29.2439367  38.2436850
 105.4618187  30.0701272  37.3492565 107.3386711  22.4441243  50.5577411
 107.3063031  21.5057244  50.7437095 107.9487335  22.5225280  49.8243236
  99.1770042  21.3137296  36.6004615 100.1229147  21.1843504  36.6693033
  98.7984287  20.5751958  37.0774043 107.4881199  19.2352286  50.6035694
 106.9720248  18.4510743  50.4165623 108.3721148  18.9071003  50.7682214
 105.1491926  12.9793302  46.5631507 104.9516747  12.6708390  47.4474839
 105.7591632  13.7054941  46.6929437 113.1563261  23.5057250  49.6983448
 113.8866649  23.2442538  50.2591151 112.5470206  22.7685972  49.7385516
 111.2378558  21.6465112  50.2957899 110.5111722  21.5121077  49.6874391
 110.8225845  21.9541941  51.1014617  99.0608734  25.3655042  58.0605272
  99.9811744  25.5433641  58.2545319  99.0258317  24.4211087  57.9084971
  97.3612959  19.2387272  36.5359500  96.4544414  18.9420385  36.6122214
  97.6388940  18.9417090  35.6693787  98.9775025  13.7824162  42.6903742
  98.1675753  13.4371247  43.0658988  99.6659442  13.4731706  43.2791353
 100.9065573  12.8602209  44.3128038 101.4596612  13.2797662  44.9718061
 101.1435659  11.9337957  44.3550994  96.9298672  18.8489283  60.0930802
  96.8295399  19.7983639  60.0242893  96.7120214  18.5207521  59.2206872
  96.1311744  16.0974208  36.6771480  96.9930908  16.4229106  36.9367297
  96.3162088  15.3105703  36.1644545 104.2844380  14.9702734  43.8206703
 103.7043049  15.6287538  43.4384755 104.0180313  14.1480079  43.4094120
 102.7347946  14.3707792  46.0228023 103.2347725  14.4824326  45.2142342
 103.3783554  14.0668845  46.6628831  96.7929942  22.2786421  58.9095864
  96.3097024  23.0786781  59.1159753  96.8790881  22.2894366  57.9563308
 103.0669258  17.1302824  42.8763051 102.1795113  17.4152475  42.6583246
 103.4823247  16.9696588  42.0290328 106.4183794  17.1549345  46.5917390
 107.1944184  17.6445798  46.8642007 105.6931928  17.5807400  47.0489260
 108.8556353  17.8676965  47.6491331 109.4500844  17.6272701  46.9384639
 108.9282937  17.1484095  48.2764867 102.2112472  26.8947499  36.9711071
 102.9148322  27.0997502  37.5868726 101.4875120  27.4624261  37.2360154
 103.0410282  22.6457360  43.0913341 102.9845483  23.1025912  42.2520973
 103.5938624  21.8848045  42.9136184 106.8515088  18.4347092  43.9163461
 106.5952022  18.0343728  44.7471668 106.2267956  19.1490886  43.7913600
 111.1627426  21.1743165  46.4234752 110.6026984  21.2436355  47.1966314
 110.5570929  20.9984150  45.7034248 104.1199169  27.3330028  39.0209531
 104.9544773  26.9011227  38.8387006 103.9583512  27.1612042  39.9486425
 103.7745061  23.8362142  40.3865870 103.7193865  23.6706413  39.4454314
 103.1491116  24.5438175  40.5428060  88.5637576  19.0730206  54.2127292
  89.2096440  18.5629160  54.7014518  88.3554727  19.8098888  54.7870718
 101.0890968  26.1411053  59.7119433 101.9582128  26.3151706  59.3506068
 100.6097720  26.9605470  59.5895162  97.0841187  13.3370251  39.9651189
  97.0719856  14.2812091  40.1219459  97.9764608  13.1540396  39.6710650
  92.9035067  16.2197823  58.3102307  93.7666529  15.8634628  58.5205631
  92.3300478  15.8811718  58.9977711 112.7483444  37.8499679  49.1164708
 113.3861854  37.7306427  48.4128048 112.6304287  38.7980523  49.1752660
 109.5573150  37.8027108  49.0526232 109.2191662  37.6868172  48.1646767
 110.4262919  37.4018273  49.0327238 105.4159966  39.6562584  45.0423123
 104.8524831  39.5652521  44.2739411 105.3012361  38.8362488  45.5225616
 110.0392933  38.9561959  55.0112438 110.0281574  38.5614758  54.1392942
 110.2013573  38.2228032  55.6046209 102.9624398  41.1513776  47.8807344
 103.7545690  40.8104600  47.4653643 103.2021048  41.2608751  48.8009497
 110.9959525  43.3233552  40.3537588 110.3447505  43.9087632  39.9671602
 111.7903888  43.8539747  40.4132626 104.9215152  40.4122689  40.7524723
 105.6946028  39.8651676  40.6137598 105.2740551  41.2766938  40.9639184
 106.7600194  41.7399071  53.9591622 106.4690060  42.6444702  53.8438288
 107.3957179  41.7815599  54.6735691 107.6856401  39.1175920  50.5492982
 108.2819974  38.8931942  49.8349944 107.7431373  38.3760665  51.1518429
 107.2581430  36.5715355  38.3843172 107.5106950  36.0496876  37.6226635
 106.3205989  36.4081500  38.4869856 112.3024713  35.5751133  46.1917916
 113.0887802  35.1570556  45.8408333 112.5663417  36.4797225  46.3599564
 112.4734790  41.0123984  40.8906573 111.8380623  41.0858610  41.6027477
 112.1432196  41.6017582  40.2125652 117.7033140  35.5126366  47.0950894
 118.4358312  34.9425583  47.3288724 116.9472495  35.1247967  47.5357400
 106.9777718  38.4743461  40.5867547 106.8613977  37.7988364  41.2548632
 107.0879978  37.9875835  39.7699700 109.3209259  37.9353608  44.2914237
 108.9567467  37.4084229  45.0027158 110.1776375  37.5452077  44.1180722
 115.2258560  29.2247941  51.5545503 114.8941885  30.0943352  51.3306718
 114.6304173  28.9084225  52.2339533 108.9614746  32.9643508  39.2875585
 109.1289149  33.8323744  39.6546056 108.7711915  33.1270789  38.3636874
 111.7190080  41.4260487  50.9541416 111.4190803  42.3285525  50.8457223
 111.3741139  41.1592670  51.8062568 105.1702561  37.8774283  46.9878120
 104.2453058  37.7450497  47.1955812 105.4186974  38.6568503  47.4848062
 115.1187223  33.9443027  48.6338853 114.2104101  33.8758435  48.3397614
 115.0674819  34.4214972  49.4620678 108.9403967  35.4201165  40.2722252
 108.8203592  35.8658216  41.1107732 108.2456556  35.7686483  39.7135790
 102.5311372  37.5207557  47.8221909 102.6603753  37.7742036  48.7361321
 101.8508823  38.1135265  47.5026564 106.7010859  48.1904807  43.9212383
 106.6234889  49.1412632  44.0000864 106.0972503  47.8450679  44.5787310
 109.1928089  35.3632672  56.5773750 108.4161423  35.9226592  56.5676615
 109.8318652  35.8489455  57.0988620 116.9848870  32.1459465  50.4116727
 116.3423250  32.4391998  49.7656521 116.4803798  32.0312385  51.2169923
 114.6389033  35.8922638  41.1002586 115.5506890  36.1250025  40.9250284
 114.1298680  36.4759683  40.5377665 107.4474461  38.1718126  56.1391717
 108.1889146  38.7103170  55.8626541 106.7411447  38.7984414  56.2963269
 112.9229801  40.3147266  54.7363879 113.3313157  39.8729677  53.9918511
 112.2007063  39.7399894  54.9898072 109.2760871  35.2519873  52.1097436
 110.1222066  35.6759286  52.2532085 109.2159509  34.5953497  52.8035999
 113.2458616  40.8748457  48.4916168 112.6167478  41.0394171  47.7892235
 112.8584278  41.2890066  49.2627132 117.1247848  41.8102895  45.8460531
 116.4398886  42.1901796  45.2957565 117.2091697  42.4198221  46.5792479
 112.4260316  32.9124241  53.7678609 112.1821248  33.6666302  53.2312885
 112.7020247  33.2909589  54.6025856 114.3798779  39.4562854  52.4455875
 114.5915674  40.0994614  51.7690256 114.3328527  38.6225170  51.9777805
 111.9825008  32.0680674  49.3492447 111.1209487  32.3661928  49.6409185
 112.0087443  32.2851073  48.4173480 108.7986578  40.6122865  45.7566253
 109.2624923  40.8910568  44.9670875 108.5343376  39.7106309  45.5739343
 105.6910659  40.1594346  48.6946016 106.2612016  40.5881615  48.0563500
 106.2818770  39.8776931  49.3930202 107.7355464  36.7346017  42.5655818
 108.4379507  37.1867061  43.0329744 107.4036092  36.0929836  43.1935711
 106.1835825  35.3257774  56.9407027 105.5534486  36.0074055  57.1742424
 106.0771913  35.2140855  55.9960165 115.4944607  42.3334809  50.6178232
 116.3162051  41.9314996  50.3360914 115.4907010  42.2303043  51.5694348
 109.2601211  41.8818852  52.7738943 109.3245643  42.3439260  53.6097114
 108.5512134  41.2516217  52.9021252 108.9749228  43.5486960  42.6417923
 108.8394903  44.3938496  43.0702771 109.5159041  43.7506237  41.8783857
 105.4616568  29.6278540  59.3032278 105.0683513  29.0744738  59.9779922
 106.2782708  29.9389118  59.6938796 104.2373510  44.1828154  45.2968601
 104.4140139  45.1046119  45.1089585 105.0330344  43.8686573  45.7262981
 108.3784529  31.0436419  56.8952535 109.1194242  31.6443572  56.8156997
 108.6102452  30.3014057  56.3370577 103.5225867  36.2292786  55.1730764
 103.4079382  35.3278043  55.4737863 102.6670385  36.4756483  54.8215581
 110.6017705  44.1710526  56.7718265 110.1581559  43.3846905  56.4539170
 111.2634918  44.3589677  56.1062156 105.3604826  45.7006328  51.2978944
 105.9112251  45.5723391  50.5255938 104.5216302  46.0001217  50.9473836
 112.6998943  44.4513326  54.7999666 112.6817418  45.2722207  54.3079935
 113.6218863  44.3267402  55.0249807 109.1571997  41.9657456  55.6423175
 109.6900334  41.2045744  55.4122483 108.6286078  41.6731108  56.3847329
 112.3241692  27.0717522  51.1716816 111.9805961  27.9619163  51.0955927
 112.6920654  26.8819179  50.3086401 112.2891975  37.0626133  39.6789252
 111.7738598  37.8330737  39.9177639 112.0169283  36.3891269  40.3022313
 109.8739086  31.9075834  44.7374490 109.0180682  31.5182684  44.5580129
 110.2866037  31.9867794  43.8774275 111.4038232  29.4422177  49.1366050
 110.9003028  29.4052312  48.3233855 111.6968839  30.3514920  49.1962706
 107.6481118  29.5260907  48.1432231 108.5134115  29.3303715  47.7838121
 107.7158627  29.2971258  49.0701588 117.2626249  39.8158487  41.6142425
 116.4855691  39.4769647  41.1697587 117.9417730  39.8211111  40.9397390
 112.0778278  34.9353225  41.5049033 111.7728413  35.2499374  42.3559176
 113.0308720  35.0134645  41.5476366 110.5224710  41.0943448  43.1541987
 109.9946071  40.3596208  42.8415224 110.0212212  41.8718125  42.9081955
 115.5017556  39.2892469  48.2709033 114.8441230  39.9791730  48.3589162
 116.3057955  39.6788901  48.6143019 105.2543437  31.7563115  45.5148598
 105.8287189  31.5338296  44.7821791 105.8414420  31.8251809  46.2677200
 114.3123014  37.6436841  46.3212975 114.8254896  38.2766833  46.8234684
 114.9624238  37.0438037  45.9556335 105.5813024  33.7867576  39.5344483
 104.7450337  34.1242262  39.8553758 105.4417794  33.6516555  38.5971620
 107.5566105  28.6304363  44.2423668 106.9030517  28.3153381  43.6180282
 107.5146579  28.0080104  44.9683491 108.6677310  38.9123659  36.1576960
 107.7604371  38.6812912  36.3568109 109.1648342  38.1161278  36.3450941
 111.5745389  47.6221166  39.0773646 110.9007087  47.9252862  39.6858604
 111.9611211  48.4250246  38.7279103 110.7903845  35.1186297  48.5671315
 109.8726407  35.3401244  48.4093003 111.2063989  35.1932607  47.7083023
 111.5738893  36.5177713  43.6973996 112.3210712  37.0299110  43.3881118
 111.8430483  36.1961765  44.5578389 109.8465543  39.0136253  40.6800950
 108.9376762  38.7295286  40.7773420 109.8760627  39.4335332  39.8204257
 115.0784811  42.6242843  44.4492117 114.6247138  41.7833753  44.5057308
 114.4478777  43.2604241  44.7866898 114.0217730  33.5534829  45.6792785
 113.2840487  33.0412215  46.0103027 114.2744504  33.1135211  44.8676062
 113.5217750  44.4619340  45.3841936 113.8140724  45.0224397  44.6654301
 114.0316370  44.7547901  46.1395095 114.1229357  26.3311081  46.2734554
 114.4288234  25.4708444  45.9860469 114.8481962  26.9228701  46.0733548
 108.3950437  36.6264874  46.7810745 108.4499047  35.6738710  46.7053222
 107.5841639  36.7824313  47.2652044 109.5441631  40.5544997  38.0189028
 109.1061061  39.8380856  37.5594666 110.2852072  40.7821112  37.4574120
 106.3342797  35.2441934  44.5401124 105.5210663  35.5436104  44.9466316
 106.8301791  34.8497623  45.2575606 108.4851375  45.2399691  46.4735389
 108.4427554  45.4660537  45.5443921 109.4014074  45.0063065  46.6221190
 111.9317009  35.7083758  53.3716018 112.2866397  35.9355231  54.2310484
 112.5789140  36.0402135  52.7493273 117.6614746  38.8302194  44.0765347
 117.5232644  39.0203790  43.1486536 117.3050965  39.5921577  44.5333398
 105.8256872  32.8160289  50.1562359 106.4656251  32.6749048  49.4585322
 104.9934402  32.5294803  49.7800961 117.6884125  40.8978721  49.0876618
 118.1220632  40.8054010  49.9359673 118.4015706  40.8736222  48.4496634
 106.6017176  42.1162720  46.2697351 107.3957774  41.6213040  46.0679926
 105.8908868  41.5880583  45.9065057 111.4212020  44.4980815  50.6209719
 111.4749043  45.0671752  51.3887435 110.5526802  44.6682700  50.2563756
 104.3010414  34.1998371  52.1034170 104.9733467  33.9915734  51.4546819
 103.4740200  34.0020457  51.6639403 118.5499675  40.9402422  51.6209504
 118.7435565  41.8448232  51.8668779 118.4500293  40.4809841  52.4548089
 110.2035986  30.8260312  54.1199831 109.5563901  31.5250262  54.0264308
 110.9737001  31.2596456  54.4876079 113.6114784  41.0909165  57.1950384
 113.4600290  40.8619716  56.2780468 113.6019463  42.0479766  57.2081730
 110.3800120  38.6641077  52.1796651 111.3092180  38.8152237  52.0065618
 109.9591150  38.7525098  51.3245297 109.1788452  42.6891742  49.9495189
 109.0399538  42.3210526  50.8221127 108.3903048  43.2039381  49.7779146
 109.7736604  47.7900838  41.2920725 109.9488359  47.3188881  42.1066348
 109.0869392  48.4166604  41.5201986 110.7293667  42.0673344  47.3384026
 110.3943500  42.0274114  48.2341676 110.2297613  41.4018060  46.8654437
 104.7037911  37.4740974  52.8636608 104.5657709  36.7421213  53.4648147
 105.6142834  37.3849874  52.5820795 113.6652859  39.4129379  37.6121086
 113.0482029  38.6876207  37.5154139 113.1969347  40.1738739  37.2688160
 107.3320212  37.1860934  52.3520287 108.0419830  36.5454126  52.3106906
 107.2889520  37.4373829  53.2746468 115.3206990  44.1228287  55.2726866
 115.2619536  43.4387507  54.6057449 115.7226509  44.8647277  54.8207492
 106.0449146  34.1726152  54.1715927 105.5086503  33.7216890  54.8237523
 105.4565854  34.3072060  53.4286391 104.3397689  50.9390201  48.0660585
 104.5794287  51.5708725  48.7439604 103.4966886  50.5878241  48.3525945
 105.4551405  33.6314803  36.7342390 104.5780871  33.5103604  36.3704637
 105.9309158  32.8400881  36.4821279 115.3224398  42.0867871  53.5040846
 114.4351176  41.7493793  53.6267245 115.8922949  41.3550902  53.7409611
 101.7788267  33.3082159  51.2568921 101.6946456  32.7007829  50.5219331
 100.9570973  33.7991178  51.2578417 108.8525551  46.7469323  50.4702089
 108.7795722  47.5524295  50.9821394 108.4102944  46.9461289  49.6450111
 108.6415331  45.9841093  43.9804911 107.8582852  46.5262774  44.0743135
 109.3408076  46.5015073  44.3799152 111.9511981  31.7935723  46.6239116
 112.4480680  31.0405685  46.3040186 111.1798962  31.8300039  46.0582325
 119.8041738  37.4976088  48.2657408 119.7931614  38.3800804  47.8951341
 118.9359118  37.1447639  48.0711945 111.3124234  46.6456157  52.6260248
 112.0252207  47.2803622  52.5536149 110.8214263  46.7420023  51.8100250
 113.0341761  40.5507410  44.1977540 112.0998040  40.6708873  44.0282244
 113.2118430  39.6479877  43.9337549 108.5346949  33.9353106  46.3510801
 108.1644737  33.3824146  47.0391706 109.0306042  33.3311239  45.7985801
 116.4214313  36.3924729  44.7327574 116.8874765  37.2252721  44.6587876
 116.8721813  35.9269711  45.4372832 106.3636148  44.3950601  53.4465819
 107.0645607  45.0287084  53.5995213 105.8931263  44.7365332  52.6861458
 114.4890544  42.7368551  41.7313726 114.7650388  42.6225145  42.6407600
 113.6195043  42.3386035  41.6925899 114.3930975  28.7605316  48.7718475
 113.4794055  28.9909543  48.9400682 114.8224077  28.8443760  49.6232507
 114.1637434  36.9495208  51.2718369 113.5108884  37.1971116  50.6170822
 114.5417814  36.1359346  50.9380846 111.1244608  46.9854901  45.3746539
 111.3067002  46.1676557  45.8374292 111.9477594  47.2022594  44.9371429
 111.4586773  45.9123087  42.6361588 111.9874540  45.4015541  42.0231750
 111.7214993  45.5965617  43.5007121 110.2125007  37.6915019  57.7584406
 109.5365644  37.5909149  58.4286781 111.0352641  37.5354233  58.2220403
 101.9603866  43.9286956  50.3796921 102.5457303  43.1830644  50.5124826
 101.7628704  44.2390913  51.2633585 104.8142521  46.9638203  45.3959364
 104.1452897  47.4484331  44.9123404 104.6755391  47.2107424  46.3102742
 108.9547790  48.9981947  51.9942022 109.5066098  49.1613568  52.7591107
 109.2953983  49.5886385  51.3222047 103.9312283  31.3457097  52.5963907
 103.9953610  32.2071927  52.1841305 103.8679403  30.7331098  51.8636265
 103.4064556  33.4180229  56.2436941 104.0336594  33.0357306  56.8574465
 102.5492474  33.1994431  56.6092634 113.8058664  43.8243204  57.8490677
 114.3498568  44.4373163  57.3545631 113.2245509  44.3822783  58.3657690
 112.0916177  46.9463922  48.9805704 111.9667317  46.1453662  48.4716650
 112.7495268  47.4410116  48.4919674 103.7124345  33.3012655  48.1582845
 102.9910931  33.9148623  48.0190318 104.5017601  33.8370420  48.0799490
 114.1551086  44.7472942  50.6085254 113.2081421  44.6278294  50.5363581
 114.5033859  43.8595440  50.6911516 106.5150659  30.6367081  54.4323496
 107.0385061  30.8829378  55.1949806 106.2962992  31.4687116  54.0126634
 111.1597519  44.5425659  46.8089607 111.0122481  43.6142366  46.9897177
 111.9851012  44.5645749  46.3246682 105.0259763  33.1943726  42.6670099
 105.3655836  33.7229647  41.9448707 105.4731884  33.5324132  43.4428665
 114.7631641  45.3654217  47.8954479 115.6878188  45.1597079  47.7578931
 114.5946944  45.1170619  48.8043821 107.7203204  31.5780776  52.1173167
 107.3800024  30.7788589  52.5193847 107.0142210  31.8782487  51.5450000
 108.3719676  28.6630089  50.5700490 109.1945745  28.1890567  50.4479380
 108.6157739  29.4420573  51.0699176 107.0127910  31.6918347  40.8663392
 107.7336273  32.0699600  40.3627108 106.3893214  32.4107224  40.9698369
 111.1559033  32.3963496  41.8021724 111.3722648  33.2788134  41.5010552
 110.6753100  32.0049710  41.0727366 105.8958255  35.3549209  48.3792468
 105.7502835  35.6689513  49.2716750 105.4183458  35.9734110  47.8263367
 107.7554637  32.3451757  48.4273358 107.7416206  31.4492851  48.0905656
 108.4727066  32.3522421  49.0611644 109.6080768  32.7789098  50.4726485
 109.3498546  33.7006168  50.4710816 109.0765808  32.3819532  51.1626950
 114.5526957  45.8839885  43.2516571 114.7263834  45.3186307  42.4990423
 115.0455848  46.6840780  43.0696061 107.1591533  31.2266138  43.6960928
 107.2807445  30.2982784  43.8951816 106.8693576  31.2404824  42.7839244
 110.0282724  28.9121048  46.8327648 110.0504421  28.9760381  45.8779628
 110.4450783  28.0725557  47.0268154 120.4066348  38.6476308  44.8706871
 120.8497494  37.8983633  44.4725994 119.5292858  38.6386444  44.4880603
 115.5402129  45.2006649  40.3513469 116.2353034  45.8213342  40.5700784
 115.8825279  44.3502000  40.6265847 101.1569939  37.0224450  54.2110287
 100.4151675  37.1707086  54.7974917 100.8362683  37.2832716  53.3477036
 117.4393552  42.6506355  41.8800800 117.9644877  42.9893627  41.1550120
 117.3515905  41.7153370  41.6963935 109.1013601  46.5640428  54.0090677
 109.4100728  46.3189575  54.8813376 109.8989083  46.7687067  53.5209547
 109.1234213  48.7178338  46.2396053 108.6839204  48.2254717  46.9328910
 109.8742330  48.1751306  45.9988128 101.6026552  44.9089879  46.2420681
 102.4284572  44.6093651  45.8619325 101.2520604  44.1397501  46.6910470
 106.5708085  44.2616347  48.3118355 105.9488095  43.5987052  48.0120583
 107.2412952  44.2877479  47.6292003 106.6432613  32.7398135  57.9050861
 106.6920768  33.6160258  57.5228630 107.1855127  32.1975528  57.3322504
 117.1287459  43.2839258  57.1851998 116.3383002  43.2663397  56.6456497
 116.8920813  43.8227552  57.9401034 117.2485334  40.1331725  54.4984726
 117.2983339  39.9681732  55.4400249 117.1399257  39.2658984  54.1082607
 106.1321592  42.8120270  41.7876815 106.2809713  43.4955735  41.1343488
 106.9388036  42.7925360  42.3026271 114.5389096  36.1162653  55.8144033
 115.4398959  35.9769118  55.5228031 114.6137070  36.2817108  56.7542211
 108.8731901  33.4929508  54.6597219 108.0035211  33.7863074  54.3879808
 109.1091382  34.0769953  55.3804483 118.7503530  42.5528666  54.7426748
 118.4588339  42.9158647  55.5790209 118.1375662  41.8395675  54.5640080
 119.9499213  40.1181546  47.2629318 120.7846104  40.5571350  47.4266879
 120.0858342  39.6420199  46.4437564 116.9990719  37.6761281  53.2106806
 117.4744840  37.8688927  52.4025657 116.0756284  37.7320467  52.9650190
 111.5770935  29.7109124  52.1762640 112.0952879  30.4470151  51.8509128
 111.2226068  30.0173118  53.0109399 111.8283529  26.1309407  47.6963536
 112.1085283  25.4632596  48.3223963 112.6134136  26.3238503  47.1838200
 109.6316998  45.3068401  39.2588563 109.0590965  45.9258588  38.8059035
 110.2049791  45.8567763  39.7928485 115.6992388  34.5527041  51.4435112
 116.6509811  34.6525139  51.4647336 115.5295838  33.7605310  51.9533196
 113.7206767  31.6382624  51.6294512 113.1256699  31.9187637  50.9341001
 113.4356464  32.1276525  52.4011254 112.8514258  45.5905551  40.3897145
 113.7844931  45.5251113  40.5930020 112.7637470  46.4261818  39.9311678
 115.4802274  44.9071421  37.3501093 115.4015906  44.5731285  38.2436850
 116.3011941  45.3993189  37.3492565 118.1780465  37.7733161  50.5577411
 118.1456786  36.8349161  50.7437095 118.7881089  37.8517197  49.8243236
 110.0163796  36.6429214  36.6004615 110.9622901  36.5135422  36.6693033
 109.6378041  35.9043876  37.0774043 118.3274954  34.5644204  50.6035694
 117.8114003  33.7802661  50.4165623 119.2114902  34.2362921  50.7682214
 115.9885681  28.3085220  46.5631507 115.7910502  28.0000308  47.4474839
 116.5985386  29.0346859  46.6929437 109.9002489  40.6946960  58.0605272
 110.8205498  40.8725559  58.2545319 109.8652072  39.7503005  57.9084971
 108.2006713  34.5679190  36.5359500 107.2938169  34.2712303  36.6122214
 108.4782694  34.2709008  35.6693787 102.8964561  38.6047994  50.7028053
 103.1150571  39.5365102  50.7216087 103.3090335  38.2455969  51.4882857
 109.8168779  29.1116080  42.6903742 109.0069508  28.7663165  43.0658988
 110.5053196  28.8023623  43.2791353 111.7459327  28.1894127  44.3128038
 112.2990366  28.6089580  44.9718061 111.9829414  27.2629875  44.3550994
 107.7692427  34.1781200  60.0930802 107.6689154  35.1275557  60.0242893
 107.5513969  33.8499439  59.2206872 106.9705498  31.4266125  36.6771480
 107.8324662  31.7521024  36.9367297 107.1555842  30.6397621  36.1644545
 115.1238135  30.2994652  43.8206703 114.5436804  30.9579456  43.4384755
 114.8574067  29.4771996  43.4094120 113.5741701  29.6999709  46.0228023
 114.0741479  29.8116244  45.2142342 114.2177309  29.3960762  46.6628831
 107.6323697  37.6078339  58.9095864 107.1490778  38.4078699  59.1159753
 107.7184636  37.6186284  57.9563308 103.5597034  41.4982874  50.9464298
 104.5140288  41.4666816  50.8794229 103.3609558  41.0373497  51.7614524
 104.1496416  40.0683990  53.5135095 104.9689305  40.5628068  53.5369933
 104.4233224  39.1515958  53.4852663 113.9063013  32.4594742  42.8763051
 113.0188868  32.7444393  42.6583246 114.3217002  32.2988505  42.0290328
 117.2577549  32.4841263  46.5917390 118.0337939  32.9737716  46.8642007
 116.5325683  32.9099317  47.0489260 119.6950107  33.1968882  47.6491331
 120.2894598  32.9564618  46.9384639 119.7676691  32.4776013  48.2764867
 101.9147263  47.0402493  47.9634496 101.7801731  46.2802894  47.3972494
 101.4979325  47.7643393  47.4963284 113.0506226  42.2239417  36.9711071
 113.7542076  42.4289419  37.5868726 112.3268875  42.7916179  37.2360154
 113.8804036  37.9749278  43.0913341 113.8239238  38.4317829  42.2520973
 114.4332379  37.2139963  42.9136184 117.6908842  33.7639010  43.9163461
 117.4345776  33.3635646  44.7471668 117.0661710  34.4782804  43.7913600
 105.0716389  47.9371810  48.1752938 104.9548773  48.8817243  48.0731628
 104.2508835  47.6345372  48.5638737 114.9592923  42.6621946  39.0209531
 115.7938527  42.2303144  38.8387006 114.7977266  42.4903960  39.9486425
 114.6138816  39.1654059  40.3865870 114.5587619  38.9998331  39.4454314
 113.9884871  39.8730092  40.5428060 107.9234941  28.6662168  39.9651189
 107.9113611  29.6104008  40.1219459 108.8158363  28.4832314  39.6710650
 106.0970903  48.5900072  51.3908867 106.9998150  48.6223682  51.7075362
 105.8708273  47.6600523  51.4055202 107.8524505  47.3431059  48.0518945
 106.9020136  47.3432920  47.9383318 108.1556991  46.5963793  47.5354980
 111.7387061  25.2604945  44.2197125 110.9719456  24.7063432  44.3653808
 112.1497766  25.3326814  45.0811277 103.7428822  31.5489741  58.3102307
 104.6060283  31.1926546  58.5205631 103.1694232  31.2103636  58.9977711
 120.3966905  53.1319025  49.0526232 120.0585416  53.0160090  48.1646767
 121.2656673  52.7310190  49.0327238 116.2553721  54.9854502  45.0423123
 115.6918586  54.8944439  44.2739411 116.1406116  54.1654406  45.5225616
 120.8786688  54.2853877  55.0112438 120.8675329  53.8906675  54.1392942
 121.0407327  53.5519950  55.6046209 113.8018152  56.4805693  47.8807344
 114.5939444  56.1396518  47.4653643 114.0414803  56.5900668  48.8009497
 115.7608906  55.7414606  40.7524723 116.5339782  55.1943594  40.6137598
 116.1134305  56.6058856  40.9639184 117.5993949  57.0690989  53.9591622
 117.3083815  57.9736620  53.8438288 118.2350933  57.1107516  54.6735691
 118.5250156  54.4467837  50.5492982 119.1213728  54.2223860  49.8349944
 118.5825127  53.7052583  51.1518429 118.0975184  51.9007273  38.3843172
 118.3500705  51.3788794  37.6226635 117.1599743  51.7373418  38.4869856
 117.8171473  53.8035379  40.5867547 117.7007731  53.1280282  41.2548632
 117.9273733  53.3167752  39.7699700 120.1603014  53.2645526  44.2914237
 119.7961221  52.7376147  45.0027158 121.0170130  52.8743995  44.1180722
 119.8008501  48.2935425  39.2875585 119.9682903  49.1615662  39.6546056
 119.6105670  48.4562707  38.3636874 116.0096316  53.2066201  46.9878120
 115.0846812  53.0742415  47.1955812 116.2580729  53.9860420  47.4848062
 119.7797722  50.7493083  40.2722252 119.6597347  51.1950134  41.1107732
 119.0850310  51.0978400  39.7135790 113.3705127  52.8499475  47.8221909
 113.4997508  53.1033954  48.7361321 112.6902578  53.4427183  47.5026564
 117.5404614  63.5196725  43.9212383 117.4628644  64.4704550  44.0000864
 116.9366257  63.1742597  44.5787310 120.0321844  50.6924590  56.5773750
 119.2555178  51.2518510  56.5676615 120.6712407  51.1781373  57.0988620
 118.2868216  53.5010043  56.1391717 119.0282900  54.0395087  55.8626541
 117.5805201  54.1276332  56.2963269 120.1154626  50.5811791  52.1097436
 120.9615821  51.0051204  52.2532085 120.0553263  49.9245415  52.8035999
 119.6380332  55.9414783  45.7566253 120.1018678  56.2202486  44.9670875
 119.3737130  55.0398227  45.5739343 116.5304413  55.4886264  48.6946016
 117.1005770  55.9173532  48.0563500 117.1212525  55.2068849  49.3930202
 118.5749218  52.0637935  42.5655818 119.2773261  52.5158979  43.0329744
 118.2429847  51.4221754  43.1935711 117.0229580  50.6549692  56.9407027
 116.3928240  51.3365972  57.1742424 116.9165668  50.5432773  55.9960165
 112.3174552  50.3221488  47.8672951 111.5273606  50.5779016  47.3913062
 112.8085799  51.1369825  47.9724992 114.2689297  50.6866067  44.8256428
 113.4720461  50.7984761  45.3439924 114.0414890  51.0252719  43.9597319
 120.0994965  57.2110770  52.7738943 120.1639398  57.6731177  53.6097114
 119.3905889  56.5808135  52.9021252 110.6012255  50.5751978  50.2987942
 110.8520293  51.4598988  50.5645518 111.1371803  50.3956580  49.5263034
 119.8142983  58.8778878  42.6417923 119.6788658  59.7230413  43.0702771
 120.3552795  59.0798155  41.8783857 116.3010322  44.9570457  59.3032278
 115.9077268  44.4036656  59.9779922 117.1176463  45.2681036  59.6938796
 113.2672380  56.3954316  43.2145848 113.7796901  57.1897566  43.3651413
 113.9195093  55.6980606  43.1479450 115.0767265  59.5120072  45.2968601
 115.2533893  60.4338037  45.1089585 115.8724098  59.1978491  45.7262981
 119.2178283  46.3728336  56.8952535 119.9587997  46.9735490  56.8156997
 119.4496206  45.6305974  56.3370577 114.3619621  51.5584704  55.1730764
 114.2473137  50.6569961  55.4737863 113.5064139  51.8048400  54.8215581
 116.1998580  61.0298246  51.2978944 116.7506005  60.9015309  50.5255938
 115.3610056  61.3293135  50.9473836 119.9965751  57.2949373  55.6423175
 120.5294088  56.5337662  55.4122483 119.4679832  57.0023025  56.3847329
 111.2321297  54.7242970  43.9905419 112.0696519  55.1339978  43.7739126
 111.4099565  53.7842412  43.9605612 120.7132840  47.2367751  44.7374490
 119.8574436  46.8474602  44.5580129 121.1259792  47.3159712  43.8774275
 118.4874873  44.8552824  48.1432231 119.3527869  44.6595633  47.7838121
 118.5552381  44.6263176  49.0701588 121.3618464  56.4235366  43.1541987
 120.8339826  55.6888126  42.8415224 120.8605967  57.2010042  42.9081955
 116.0937192  47.0855032  45.5148598 116.6680944  46.8630214  44.7821791
 116.6808174  47.1543727  46.2677200 116.4206779  49.1159493  39.5344483
 115.5844091  49.4534180  39.8553758 116.2811548  48.9808473  38.5971620
 118.3959859  43.9596281  44.2423668 117.7424272  43.6445298  43.6180282
 118.3540334  43.3372022  44.9683491 119.5071064  54.2415576  36.1576960
 118.5998126  54.0104830  36.3568109 120.0042096  53.4453195  36.3450941
 120.6859298  54.3428171  40.6800950 119.7770517  54.0587204  40.7773420
 120.7154381  54.7627250  39.8204257 111.2547468  52.0633685  44.6616152
 111.0571868  51.4703046  43.9367219 110.6994132  51.7585895  45.3792091
 119.2344192  51.9556792  46.7810745 119.2892801  51.0030628  46.7053222
 118.4235394  52.1116231  47.2652044 120.3835385  55.8836915  38.0189028
 119.9454815  55.1672774  37.5594666 121.1245826  56.1113030  37.4574120
 117.1736552  50.5733851  44.5401124 116.3604417  50.8728022  44.9466316
 117.6695546  50.1789540  45.2575606 119.3245130  60.5691608  46.4735389
 119.2821308  60.7952455  45.5443921 120.2407828  60.3354983  46.6221190
 116.6650626  48.1452207  50.1562359 117.3050006  48.0040966  49.4585322
 115.8328157  47.8586720  49.7800961 117.4410930  57.4454637  46.2697351
 118.2351529  56.9504957  46.0679926 116.7302623  56.9172500  45.9065057
 113.7493694  51.5897719  42.3457104 112.8191282  51.5282175  42.5627066
 113.8451166  51.0673672  41.5493745 113.6679243  48.1152532  44.9335346
 113.9286060  49.0297865  44.8244506 114.4896415  47.6476974  45.0831959
 115.1404168  49.5290289  52.1034170 115.8127222  49.3207651  51.4546819
 114.3133955  49.3312375  51.6639403 120.0182206  58.0183659  49.9495189
 119.8793292  57.6502444  50.8221127 119.2296803  58.5331299  49.7779146
 120.6130358  63.1192756  41.2920725 120.7882114  62.6480799  42.1066348
 119.9263146  63.7458522  41.5201986 121.5687421  57.3965262  47.3384026
 121.2337254  57.3566032  48.2341676 121.0691367  56.7309978  46.8654437
 115.5431665  52.8032892  52.8636608 115.4051463  52.0713131  53.4648147
 116.4536589  52.7141792  52.5820795 118.1713966  52.5152851  52.3520287
 118.8813585  51.8746044  52.3106906 118.1283274  52.7665746  53.2746468
 116.8842900  49.5018069  54.1715927 116.3480257  49.0508808  54.8237523
 116.2959609  49.6363978  53.4286391 115.1791444  66.2682119  48.0660585
 115.4188042  66.9000643  48.7439604 114.3360640  65.9170159  48.3525945
 116.2945159  48.9606721  36.7342390 115.4174625  48.8395521  36.3704637
 116.7702912  48.1692799  36.4821279 107.8147299  53.7483880  46.8283897
 108.5018339  53.4345610  46.2404913 107.6595428  54.6525245  46.5551149
 112.6182021  48.6374077  51.2568921 112.5340210  48.0299747  50.5219331
 111.7964728  49.1283095  51.2578417 119.6919305  62.0761241  50.4702089
 119.6189477  62.8816213  50.9821394 119.2496699  62.2753207  49.6450111
 119.4809085  61.3133011  43.9804911 118.6976607  61.8554691  44.0743135
 120.1801830  61.8306991  44.3799152 119.3740704  49.2645023  46.3510801
 119.0038491  48.7116064  47.0391706 119.8699796  48.6603157  45.7985801
 117.2029902  59.7242519  53.4465819 117.9039362  60.3579001  53.5995213
 116.7325017  60.0657250  52.6861458 112.7997621  59.2578874  50.3796921
 113.3851057  58.5122561  50.5124826 112.6022459  59.5682830  51.2633585
 115.6536276  62.2930121  45.3959364 114.9846651  62.7776249  44.9123404
 115.5149145  62.5399341  46.3102742 107.3915275  51.8284474  49.1001365
 107.4299375  51.2948064  49.8938483 106.8855568  51.3019679  48.4812342
 119.7941544  64.3273864  51.9942022 120.3459852  64.4905486  52.7591107
 120.1347738  64.9178302  51.3222047 114.7706038  46.6749014  52.5963907
 114.8347364  47.5363845  52.1841305 114.7073158  46.0623016  51.8636265
 114.2458310  48.7472147  56.2436941 114.8730349  48.3649224  56.8574465
 113.3886229  48.5286349  56.6092634 111.0223853  50.5548576  42.1755296
 111.3177294  49.6459254  42.1222350 110.1211889  50.5336315  41.8536298
 114.5518100  48.6304572  48.1582845 113.8304686  49.2440540  48.0190318
 115.3411356  49.1662337  48.0799490 117.3544413  45.9658999  54.4323496
 117.8778815  46.2121296  55.1949806 117.1356747  46.7979034  54.0126634
 112.7511694  48.2362674  42.2994621 112.4224401  47.3560052  42.1169727
 113.1051065  48.1810342  43.1871010 115.8653518  48.5235643  42.6670099
 116.2049590  49.0521565  41.9448707 116.3125638  48.8616049  43.4428665
 118.5596958  46.9072694  52.1173167 118.2193779  46.1080507  52.5193847
 117.8535965  47.2074405  51.5450000 119.2113430  43.9922007  50.5700490
 120.0339500  43.5182485  50.4479380 119.4551494  44.7712490  51.0699176
 117.8521665  47.0210265  40.8663392 118.5730027  47.3991518  40.3627108
 117.2286969  47.7399142  40.9698369 116.7352009  50.6841127  48.3792468
 116.5896590  50.9981430  49.2716750 116.2577213  51.3026027  47.8263367
 118.5948392  47.6743675  48.4273358 118.5809961  46.7784768  48.0905656
 119.3120820  47.6814339  49.0611644 120.4474523  48.1081015  50.4726485
 120.1892300  49.0298086  50.4710816 119.9159563  47.7111450  51.1626950
 111.2097671  53.2246472  51.3180130 110.6651139  54.0006280  51.4500404
 112.0877021  53.5717276  51.1599251 117.9985288  46.5558055  43.6960928
 118.1201199  45.6274702  43.8951816 117.7087330  46.5696741  42.7839244
 120.8676478  44.2412966  46.8327648 120.8898175  44.3052299  45.8779628
 121.2844537  43.4017475  47.0268154 111.9963693  52.3516368  54.2110287
 111.2545429  52.4999003  54.7974917 111.6756437  52.6124633  53.3477036
 119.9407356  61.8932346  54.0090677 120.2494482  61.6481493  54.8813376
 120.7382838  62.0978985  53.5209547 119.9627968  64.0470256  46.2396053
 119.5232958  63.5546634  46.9328910 120.7136085  63.5043223  45.9988128
 112.4420307  60.2381797  46.2420681 113.2678327  59.9385568  45.8619325
 112.0914359  59.4689419  46.6910470 117.4101840  59.5908265  48.3118355
 116.7881849  58.9278970  48.0120583 118.0806707  59.6169397  47.6292003
 110.6428912  58.1568123  47.2009615 109.8060820  57.7290297  47.0193616
 110.6152557  58.3500566  48.1380406 117.4826367  48.0690053  57.9050861
 117.5314523  48.9452176  57.5228630 118.0248882  47.5267446  57.3322504
 116.9715347  58.1412188  41.7876815 117.1203467  58.8247653  41.1343488
 117.7781790  58.1217278  42.3026271 119.7125656  48.8221425  54.6597219
 118.8428965  49.1154991  54.3879808 119.9485136  49.4061870  55.3804483
 114.7267980  54.1677366  42.7937884 114.4814022  53.2639696  42.9918094
 114.8963894  54.1694516  41.8517362 113.9963627  49.9005723  40.2924046
 113.3032872  49.9750078  39.6364082 113.7515379  49.1366067  40.8145563
 120.4710752  60.6360319  39.2588563 119.8984719  61.2550506  38.8059035
 121.0443546  61.1859680  39.7928485 119.0400468  49.8971108  36.5359500
 118.1331923  49.6004220  36.6122214 119.3176449  49.6000926  35.6693787
 109.9578408  51.2177471  46.9858547 109.6381193  50.3642779  46.6932921
 109.4111837  51.4326049  47.7416514 113.7358316  53.9339912  50.7028053
 113.9544326  54.8657020  50.7216087 114.1484090  53.5747887  51.4882857
 120.6562534  44.4407997  42.6903742 119.8463262  44.0955082  43.0658988
 121.3446951  44.1315541  43.2791353 118.6086181  49.5073118  60.0930802
 118.5082908  50.4567475  60.0242893 118.3907723  49.1791357  59.2206872
 117.8099253  46.7558043  36.6771480 118.6718417  47.0812941  36.9367297
 117.9949597  45.9689539  36.1644545 109.8266668  54.8380383  48.9551668
 109.1330140  54.4234335  48.4421623 110.5739659  54.8800919  48.3585087
 118.4717451  52.9370257  58.9095864 117.9884533  53.7370617  59.1159753
 118.5578390  52.9478202  57.9563308 111.7403411  54.7698636  46.8317683
 111.7174099  54.8686324  45.8799566 112.0504047  55.6163787  47.1534849
 114.3990789  56.8274791  50.9464298 115.3534042  56.7958734  50.8794229
 114.2003312  56.3665415  51.7614524 114.9890171  55.3975907  53.5135095
 115.8083060  55.8919986  53.5369933 115.2626979  54.4807876  53.4852663
 112.7541018  62.3694411  47.9634496 112.6195485  61.6094812  47.3972494
 112.3373080  63.0935311  47.4963284 115.9110143  63.2663728  48.1752938
 115.7942528  64.2109160  48.0731628 115.0902590  62.9637289  48.5638737
 110.2425085  49.7314041  54.2127292 110.8883949  49.2212995  54.7014518
 110.0342236  50.4682723  54.7870718 118.7628696  43.9954086  39.9651189
 118.7507365  44.9395926  40.1219459 119.6552117  43.8124231  39.6710650
 116.9364658  63.9191990  51.3908867 117.8391904  63.9515600  51.7075362
 116.7102028  62.9892441  51.4055202 118.6918260  62.6722976  48.0518945
 117.7413891  62.6724838  47.9383318 118.9950746  61.9255711  47.5354980
 114.5822576  46.8781658  58.3102307 115.4454038  46.5218463  58.5205631
 114.0087987  46.5395553  58.9977711 118.6541054  69.0775798  46.8283897
 119.3412093  68.7637528  46.2404913 118.4989182  69.9817163  46.5551149
 118.2309030  67.1576391  49.1001365 118.2693129  66.6239982  49.8938483
 117.7249323  66.6311597  48.4812342 121.4822666  73.4860041  47.2009615
 120.6454575  73.0582215  47.0193616 121.4546312  73.6792484  48.1380406
 120.7972163  66.5469389  46.9858547 120.4774947  65.6934697  46.6932921
 120.2505591  66.7617967  47.7416514 120.6660423  70.1672300  48.9551668
 119.9723894  69.7526253  48.4421623 121.4133414  70.2092837  48.3585087
  95.8617106   9.8675012  30.6457690  95.7841136  10.8182837  30.7246170
  95.2578750   9.5220884  31.3032616  93.5003936  12.6160406  34.7905892
  93.7400534  13.2478930  35.4684910  92.6573132  12.2648446  35.0771251
  93.9748768   8.6408408  32.1204670  93.3059143   9.1254536  31.6368710
  93.8361638   8.8877629  33.0348049  98.1154037  10.6752152  38.7187329
  98.6672345  10.8383773  39.4836414  98.4560230  11.2656590  38.0467354
  91.0753510   8.7172698  34.6879802  90.9407978   7.9573099  34.1217800
  90.6585572   9.4413598  34.2208591  94.2322636   9.6142015  34.8998245
  94.1155020  10.5587448  34.7976935  93.4115082   9.3115577  35.2884044
  95.2577150  10.2670277  38.1154173  96.1604397  10.2993887  38.4320668
  95.0314520   9.3370728  38.1300509 109.5573152  14.8089230  35.7771539
 109.2191663  14.6930295  34.8892074 110.4262920  14.4080395  35.7572545
 105.4159967  16.6624707  31.7668430 104.8524832  16.5714643  30.9984718
 105.3012362  15.8424611  32.2470922 110.0392935  15.9624082  41.7357745
 110.0281575  15.5676880  40.8638248 110.2013574  15.2290154  42.3291516
 102.9624399  18.1575898  34.6052650 103.7545691  17.8166723  34.1898950
 103.2021049  18.2670873  35.5254804 110.9959526  20.3295674  27.0782895
 110.3447506  20.9149755  26.6916909 111.7903889  20.8601869  27.1377932
 104.9215153  17.4184811  27.4770029 105.6946029  16.8713798  27.3382905
 105.2740552  18.2829061  27.6884491 106.7600196  18.7461194  40.6836928
 106.4690062  19.6506824  40.5683595 107.3957180  18.7877721  41.3980998
 107.6856403  16.1238042  37.2738288 108.2819975  15.8994065  36.5595251
 107.7431374  15.3822788  37.8763736 106.9777720  15.4805583  27.3112854
 106.8613978  14.8050487  27.9793938 107.0879980  14.9937957  26.4945007
 109.3209261  14.9415731  31.0159543 108.9567468  14.4146352  31.7272465
 110.1776377  14.5514200  30.8426029 111.7190081  18.4322609  37.6786722
 111.4190804  19.3347648  37.5702529 111.3741140  18.1654792  38.5307875
 105.1702562  14.8836406  33.7123427 104.2453059  14.7512620  33.9201118
 105.4186975  15.6630625  34.2093369 102.5311373  14.5269680  34.5467216
 102.6603754  14.7804158  35.4606627 101.8508825  15.1197388  34.2271871
 106.7010861  25.1966929  30.6457690 106.6234890  26.1474755  30.7246170
 106.0972504  24.8512802  31.3032616 107.4474463  15.1780248  42.8637024
 108.1889147  15.7165292  42.5871847 106.7411448  15.8046537  43.0208576
 112.9229802  17.3209389  41.4609185 113.3313158  16.8791799  40.7163818
 112.2007064  16.7462016  41.7143378 113.2458617  17.8810579  35.2161474
 112.6167479  18.0456293  34.5137542 112.8584279  18.2952189  35.9872438
 117.1247849  18.8165017  32.5705838 116.4398887  19.1963919  32.0202871
 117.2091698  19.4260344  33.3037786 114.3798780  16.4624976  39.1701181
 114.5915676  17.1056736  38.4935563 114.3328529  15.6287293  38.7023112
 108.7986579  17.6184987  32.4811559 109.2624924  17.8972690  31.6916182
 108.5343377  16.7168432  32.2984650 105.6910660  17.1656469  35.4191323
 106.2612017  17.5943737  34.7808807 106.2818772  16.8839054  36.1175508
 101.4780799  11.9991692  34.5918258 100.6879853  12.2549221  34.1158369
 101.9692046  12.8140030  34.6970298 115.4944608  19.3396932  37.3423539
 116.3162052  18.9377119  37.0606220 115.4907011  19.2365166  38.2939655
 103.4295544  12.3636272  31.5501735 102.6326708  12.4754966  32.0685230
 103.2021136  12.7022924  30.6842625 109.2601212  18.8880975  39.4984249
 109.3245644  19.3501382  40.3342421 108.5512136  18.2578340  39.6266559
  99.7618502  12.2522183  37.0233249 100.0126540  13.1369193  37.2890825
 100.2978050  12.0726784  36.2508341 108.9749230  20.5549082  29.3663230
 108.8394904  21.4000618  29.7948077 109.5159042  20.7568360  28.6029163
 102.4278627  18.0724520  29.9391155 102.9403147  18.8667771  30.0896719
 103.0801340  17.3750811  29.8724756 104.2373512  21.1890277  32.0213908
 104.4140140  22.1108241  31.8334892 105.0330345  20.8748696  32.4508288
 103.5225868  13.2354909  41.8976071 103.4079383  12.3340166  42.1983170
 102.6670386  13.4818605  41.5460888 110.6017706  21.1772649  43.4963572
 110.1581560  20.3909028  43.1784476 111.2634919  21.3651799  42.8307462
 105.3604827  22.7068451  38.0224250 105.9112252  22.5785514  37.2501244
 104.5216303  23.0063340  37.6719143 112.6998944  21.4575449  41.5244973
 112.6817419  22.2784330  41.0325242 113.6218864  21.3329524  41.7495114
 109.1571998  18.9719578  42.3668481 109.6900335  18.2107867  42.1367789
 108.6286079  18.6793230  43.1092636 100.3927544  16.4013175  30.7150725
 101.2302766  16.8110183  30.4984433 100.5705811  15.4612617  30.6850919
 110.5224711  18.1005571  29.8787293 109.9946072  17.3658330  29.5660531
 110.0212214  18.8780247  29.6327262 115.5017557  16.2954591  34.9954340
 114.8441231  16.9853853  35.0834468 116.3057956  16.6851023  35.3388326
 111.5745390  24.6283288  25.8018953 110.9007089  24.9314985  26.4103910
 111.9611212  25.4312369  25.4524410 115.0784812  19.6304965  31.1737424
 114.6247139  18.7895875  31.2302615 114.4478779  20.2666364  31.5112204
 113.5217751  21.4681462  32.1087242 113.8140725  22.0286519  31.3899608
 114.0316372  21.7610023  32.8640401 100.4153715  13.7403890  31.3861459
 100.2178115  13.1473251  30.6612525  99.8600379  13.4356100  32.1037397
 108.4851376  22.2461813  33.1980695 108.4427555  22.4722660  32.2689227
 109.4014075  22.0125188  33.3466497 117.6884127  17.9040844  35.8121925
 118.1220633  17.8116133  36.6604979 118.4015707  17.8798344  35.1741941
 106.6017177  19.1224842  32.9942658 107.3957776  18.6275162  32.7925233
 105.8908869  18.5942705  32.6310364 111.4212022  21.5042938  37.3455026
 111.4749044  22.0733874  38.1132742 110.5526803  21.6744823  36.9809063
 102.9099941  13.2667924  29.0702411 101.9797529  13.2052379  29.2872373
 103.0057413  12.7443877  28.2739052 118.5499676  17.9464544  38.3454811
 118.7435566  18.8510355  38.5914085 118.4500294  17.4871963  39.1793396
 113.6114785  18.0971287  43.9195691 113.4600291  17.8681839  43.0025775
 113.6019464  19.0541889  43.9327036 110.3800121  15.6703200  38.9041958
 111.3092181  15.8214359  38.7310925 109.9591151  15.7587221  38.0490604
 109.1788453  19.6953864  36.6740495 109.0399539  19.3272649  37.5466433
 108.3903049  20.2101504  36.5024453 109.7736605  24.7962961  28.0166032
 109.9488361  24.3251004  28.8311654 109.0869393  25.4228727  28.2447292
 110.7293668  19.0735467  34.0629333 110.3943501  19.0336237  34.9586983
 110.2297614  18.4080183  33.5899743 104.7037912  14.4803097  39.5881914
 104.5657710  13.7483336  40.1893453 105.6142836  14.3911997  39.3066102
 107.3320213  14.1923056  39.0765594 108.0419831  13.5516249  39.0352212
 107.2889521  14.4435951  39.9991775 115.3206992  21.1290410  41.9972173
 115.2619538  20.4449630  41.3302756 115.7226510  21.8709400  41.5452799
 104.3397690  27.9452323  34.7905892 104.5794289  28.5770848  35.4684910
 103.4966887  27.5940364  35.0771251 115.3224399  19.0929994  40.2286153
 114.4351178  18.7555915  40.3512552 115.8922950  18.3613025  40.4654918
  96.9753546  15.4254085  33.5529204  97.6624586  15.1115815  32.9650219
  96.8201675  16.3295450  33.2796455 108.8525552  23.7531446  37.1947396
 108.7795724  24.5586417  37.7066700 108.4102945  23.9523412  36.3695417
 108.6415332  22.9903216  30.7050217 107.8582854  23.5324896  30.7988442
 109.3408077  23.5077196  31.1044459 111.3124236  23.6518280  39.3505555
 112.0252208  24.2865745  39.2781456 110.8214264  23.7482146  38.5345556
 113.0341763  17.5569533  30.9222846 112.0998041  17.6770995  30.7527551
 113.2118431  16.6541999  30.6582856 106.3636149  21.4012723  40.1711125
 107.0645609  22.0349206  40.3240520 105.8931264  21.7427455  39.4106765
 111.1244609  23.9917024  32.0991846 111.3067004  23.1738680  32.5619598
 111.9477595  24.2084716  31.6616736 111.4586775  22.9185209  29.3606894
 111.9874541  22.4077664  28.7477057 111.7214994  22.6027739  30.2252428
 110.2125008  14.6977142  44.4829713 109.5365645  14.5971271  45.1532088
 111.0352642  14.5416356  44.9465710 101.9603867  20.9349078  37.1042228
 102.5457304  20.1892766  37.2370132 101.7628706  21.2453035  37.9878892
 104.8142523  23.9700326  32.1204670 104.1452898  24.4546453  31.6368710
 104.6755392  24.2169546  33.0348049  96.5521522  13.5054679  35.8246671
  96.5905622  12.9718269  36.6183789  96.0461815  12.9789884  35.2057648
 108.9547791  26.0044069  38.7187329 109.5066099  26.1675691  39.4836414
 109.2953985  26.5948507  38.0467354 113.8058665  20.8305327  44.5735983
 114.3498569  21.4435285  44.0790938 113.2245510  21.3884905  45.0902996
 100.1830100  12.2318781  28.9000603 100.4783541  11.3229459  28.8467656
  99.2818135  12.2106520  28.5781605 112.0916178  23.9526045  35.7051011
 111.9667318  23.1515785  35.1961956 112.7495269  24.4472238  35.2164981
 114.1551087  21.7535065  37.3330561 113.2081422  21.6340416  37.2608888
 114.5033860  20.8657563  37.4156822 111.1597520  21.5487781  33.5334913
 111.0122482  20.6204489  33.7142483 111.9851014  21.5707872  33.0491988
 114.7631642  22.3716340  34.6199786 115.6878189  22.1659201  34.4824237
 114.5946945  22.1232741  35.5289128 114.5526958  22.8902007  29.9761877
 114.7263836  22.3248430  29.2235730 115.0455849  23.6902902  29.7941367
 100.3703918  14.9016676  38.0425436  99.8257386  15.6776484  38.1745711
 101.2483268  15.2487481  37.8844558 101.1569940  14.0286573  40.9355593
 100.4151676  14.1769208  41.5220224 100.8362684  14.2894838  40.0722343
 109.1013602  23.5702551  40.7335983 109.4100729  23.3251698  41.6058683
 109.8989084  23.7749189  40.2454853 109.1234214  25.7240461  32.9641360
 108.6839205  25.2316839  33.6574216 109.8742331  25.1813428  32.7233435
 101.6026553  21.9152001  32.9665988 102.4284573  21.6155773  32.5864631
 101.2520605  21.1459624  33.4155776 106.5708087  21.2678470  35.0363661
 105.9488096  20.6049175  34.7365889 107.2412954  21.2939602  34.3537309
  99.8035159  19.8338328  33.9254921  98.9667067  19.4060502  33.7438923
  99.7758804  20.0270771  34.8625713 117.1287460  20.2901381  43.9097304
 116.3383004  20.2725520  43.3701804 116.8920814  20.8289675  44.6646341
 106.1321594  19.8182393  28.5122122 106.2809714  20.5017857  27.8588795
 106.9388037  19.7987483  29.0271578 118.7503532  19.5590789  41.4672055
 118.4588340  19.9220769  42.3035516 118.1375663  18.8457797  41.2885387
 103.8874227  15.8447571  29.5183191 103.6420268  14.9409901  29.7163401
 104.0570141  15.8464721  28.5762669 109.6316999  22.3130523  25.9833869
 109.0590966  22.9320711  25.5304341 110.2049793  22.8629885  26.5173791
 109.9002490  17.7009082  44.7850579 110.8205500  17.8787681  44.9790625
 109.8652073  16.7565128  44.6330278  99.1184655  12.8947676  33.7103853
  98.7987439  12.0412984  33.4178227  98.5718083  13.1096254  34.4661821
 102.8964563  15.6110117  37.4273360 103.1150572  16.5427225  37.4461394
 103.3090336  15.2518091  38.2128164  98.9872915  16.5150588  35.6796975
  98.2936387  16.1004540  35.1666929  99.7345906  16.5571124  35.0830394
 107.6323698  14.6140462  45.6341171 107.1490780  15.4140822  45.8405060
 107.7184637  14.6248406  44.6808615 100.9009658  16.4468841  33.5562990
 100.8780346  16.5456529  32.6044873 101.2110294  17.2933992  33.8780156
 103.5597036  18.5044996  37.6709604 104.5140289  18.4728939  37.6039536
 103.3609559  18.0435620  38.4859830 104.1496418  17.0746112  40.2380402
 104.9689307  17.5690191  40.2615239 104.4233225  16.1578081  40.2097970
 101.9147264  24.0464616  34.6879802 101.7801732  23.2865017  34.1217800
 101.4979327  24.7705516  34.2208591 105.0716390  24.9433933  34.8998245
 104.9548774  25.8879365  34.7976935 104.2508836  24.6407494  35.2884044
  99.4031332  11.4084246  40.9372599 100.0490195  10.8983200  41.4259824
  99.1948483  12.1452928  41.5116024 111.9284724  18.4765094  46.4364740
 112.7975884  18.6505746  46.0751375 111.4491476  19.2959511  46.3140469
 106.0970904  25.5962195  38.1154173 106.9998151  25.6285805  38.4320668
 105.8708274  24.6662646  38.1300509 107.8524506  24.3493181  34.7764252
 106.9020137  24.3495043  34.6628624 108.1556992  23.6025916  34.2600287
 120.3966906  30.1381148  35.7771539 120.0585418  30.0222212  34.8892074
 121.2656674  29.7372313  35.7572545 116.2553722  31.9916624  31.7668430
 115.6918587  31.9006561  30.9984718 116.1406117  31.1716529  32.2470922
 120.8786689  31.2915999  41.7357745 120.8675330  30.8968798  40.8638248
 121.0407329  30.5582072  42.3291516 113.8018154  33.4867816  34.6052650
 114.5939446  33.1458640  34.1898950 114.0414804  33.5962791  35.5254804
 115.7608908  32.7476729  27.4770029 116.5339784  32.2005716  27.3382905
 116.1134307  33.6120978  27.6884491 117.5993950  34.0753111  40.6836928
 117.3083816  34.9798742  40.5683595 118.2350935  34.1169639  41.3980998
 118.5250157  31.4529960  37.2738288 119.1213729  31.2285982  36.5595251
 118.5825129  30.7114705  37.8763736 117.8171474  30.8097501  27.3112854
 117.7007732  30.1342404  27.9793938 117.9273734  30.3229875  26.4945007
 120.1603015  30.2707648  31.0159543 119.7961222  29.7438269  31.7272465
 121.0170131  29.8806117  30.8426029 116.0096317  30.2128324  33.7123427
 115.0846813  30.0804538  33.9201118 116.2580730  30.9922543  34.2093369
 113.3705128  29.8561597  34.5467216 113.4997509  30.1096076  35.4606627
 112.6902579  30.4489305  34.2271871 117.5404615  40.5258847  30.6457690
 117.4628645  41.4766672  30.7246170 116.9366259  40.1804720  31.3032616
 120.0321845  27.6986713  43.3019057 119.2555179  28.2580633  43.2921921
 120.6712408  28.1843496  43.8233927 118.2868217  30.5072166  42.8637024
 119.0282902  31.0457210  42.5871847 117.5805203  31.1338455  43.0208576
 120.1154627  27.5873913  38.8342742 120.9615822  28.0113327  38.9777391
 120.0553265  26.9307538  39.5281305 119.6380333  32.9476905  32.4811559
 120.1018679  33.2264608  31.6916182 119.3737131  32.0460350  32.2984650
 116.5304414  32.4948387  35.4191323 117.1005771  32.9235655  34.7808807
 117.1212526  32.2130971  36.1175508 118.5749219  29.0700058  29.2901124
 119.2773263  29.5221101  29.7575051 118.2429848  28.4283876  29.9181018
 117.0229581  27.6611814  43.6652334 116.3928241  28.3428095  43.8987731
 116.9165669  27.5494896  42.7205472 112.3174553  27.3283610  34.5918258
 111.5273607  27.5841139  34.1158369 112.8085801  28.1431948  34.6970298
 114.2689299  27.6928189  31.5501735 113.4720462  27.8046884  32.0685230
 114.0414891  28.0314842  30.6842625 120.0994966  34.2172893  39.4984249
 120.1639399  34.6793300  40.3342421 119.3905890  33.5870258  39.6266559
 110.6012256  27.5814101  37.0233249 110.8520295  28.4661111  37.2890825
 111.1371805  27.4018702  36.2508341 119.8142984  35.8841000  29.3663230
 119.6788659  36.7292536  29.7948077 120.3552797  36.0860278  28.6029163
 116.3010324  21.9632580  46.0277585 115.9077269  21.4098779  46.7025229
 117.1176464  22.2743158  46.4184102 113.2672381  33.4016438  29.9391155
 113.7796902  34.1959688  30.0896719 113.9195094  32.7042729  29.8724756
 115.0767266  36.5182194  32.0213908 115.2533894  37.4400159  31.8334892
 115.8724100  36.2040614  32.4508288 119.2178285  23.3790459  43.6197841
 119.9587998  23.9797612  43.5402304 119.4496207  22.6368097  43.0615884
 114.3619623  28.5646826  41.8976071 114.2473138  27.6632084  42.1983170
 113.5064140  28.8110523  41.5460888 116.1998582  38.0360368  38.0224250
 116.7506007  37.9077432  37.2501244 115.3610057  38.3355257  37.6719143
 119.9965753  34.3011496  42.3668481 120.5294089  33.5399784  42.1367789
 119.4679834  34.0085148  43.1092636 111.2321298  31.7305092  30.7150725
 112.0696520  32.1402101  30.4984433 111.4099566  30.7904535  30.6850919
 118.4874874  21.8614947  34.8677538 119.3527871  21.6657756  34.5083428
 118.5552383  21.6325299  35.7946895 121.3618465  33.4297489  29.8787293
 120.8339827  32.6950248  29.5660531 120.8605968  34.2072165  29.6327262
 116.0937193  24.0917155  32.2393905 116.6680945  23.8692336  31.5067098
 116.6808175  24.1605849  32.9922506 111.2547469  29.0695808  31.3861459
 111.0571869  28.4765168  30.6612525 110.6994133  28.7648018  32.1037397
 119.2344193  28.9618914  33.5056052 119.2892803  28.0092751  33.4298528
 118.4235395  29.1178353  33.9897350 117.1736553  27.5795974  31.2646431
 116.3604418  27.8790145  31.6711623 117.6695547  27.1851663  31.9820913
 119.3245131  37.5753731  33.1980695 119.2821310  37.8014577  32.2689227
 120.2407830  37.3417106  33.3466497 116.6650628  25.1514330  36.8807666
 117.3050007  25.0103089  36.1830629 115.8328158  24.8648843  36.5046268
 117.4410932  34.4516760  32.9942658 118.2351530  33.9567080  32.7925233
 116.7302624  33.9234623  32.6310364 113.7493695  28.5959842  29.0702411
 112.8191283  28.5344297  29.2872373 113.8451167  28.0735794  28.2739052
 113.6679244  25.1214655  31.6580652 113.9286061  26.0359988  31.5489813
 114.4896416  24.6539097  31.8077265 115.1404169  26.5352412  38.8279477
 115.8127223  26.3269774  38.1792126 114.3133956  26.3374498  38.3884709
 120.0182208  35.0245782  36.6740495 119.8793293  34.6564566  37.5466433
 119.2296804  35.5393421  36.5024453 120.6130360  40.1254878  28.0166032
 120.7882115  39.6542922  28.8311654 119.9263148  40.7520645  28.2447292
 121.5687423  34.4027385  34.0629333 121.2337255  34.3628155  34.9586983
 121.0691368  33.7372101  33.5899743 115.5431667  29.8095015  39.5881914
 115.4051465  29.0775253  40.1893453 116.4536590  29.7203915  39.3066102
 118.1713967  29.5214974  39.0765594 118.8813586  28.8808166  39.0352212
 118.1283275  29.7727869  39.9991775 116.8842901  26.5080192  40.8961233
 116.3480258  26.0570930  41.5482830 116.2959610  26.6426101  40.1531698
 115.1791445  43.2744241  34.7905892 115.4188043  43.9062765  35.4684910
 114.3360641  42.9232281  35.0771251 107.8147300  30.7546003  33.5529204
 108.5018340  30.4407733  32.9650219 107.6595429  31.6587368  33.2796455
 112.6182023  25.6436200  37.9814228 112.5340211  25.0361869  37.2464638
 111.7964729  26.1345218  37.9823724 119.6919307  39.0823364  37.1947396
 119.6189478  39.8878335  37.7066700 119.2496700  39.2815329  36.3695417
 119.4809086  38.3195134  30.7050217 118.6976608  38.8616814  30.7988442
 120.1801831  38.8369113  31.1044459 119.3740705  26.2707146  33.0756107
 119.0038493  25.7178186  33.7637013 119.8699798  25.6665280  32.5231107
 117.2029904  36.7304641  40.1711125 117.9039363  37.3641124  40.3240520
 116.7325019  37.0719373  39.4106765 112.7997622  36.2640996  37.1042228
 113.3851059  35.5184684  37.2370132 112.6022460  36.5744953  37.9878892
 115.6536277  39.2992244  32.1204670 114.9846652  39.7838371  31.6368710
 115.5149147  39.5461464  33.0348049 107.3915277  28.8346596  35.8246671
 107.4299376  28.3010187  36.6183789 106.8855569  28.3081802  35.2057648
 119.7941546  41.3335987  38.7187329 120.3459854  41.4967609  39.4836414
 120.1347739  41.9240425  38.0467354 114.7706039  23.6811137  39.3209213
 114.8347365  24.5425968  38.9086611 114.7073159  23.0685139  38.5881572
 114.2458311  25.7534269  42.9682248 114.8730350  25.3711347  43.5819772
 113.3886230  25.5348471  43.3337940 111.0223854  27.5610699  28.9000603
 111.3177295  26.6521377  28.8467656 110.1211890  27.5398438  28.5781605
 114.5518101  25.6366695  34.8828151 113.8304687  26.2502663  34.7435624
 115.3411357  26.1724460  34.8044797 117.3544415  22.9721122  41.1568803
 117.8778816  23.2183418  41.9195112 117.1356748  23.8041156  40.7371940
 112.7511696  25.2424796  29.0239928 112.4224402  24.3622175  28.8415034
 113.1051066  25.1872465  29.9116317 115.8653519  25.5297766  29.3915405
 116.2049591  26.0583687  28.6694014 116.3125639  25.8678172  30.1673972
 118.5596960  23.9134817  38.8418473 118.2193780  23.1142630  39.2439153
 117.8535966  24.2136528  38.2695307 119.2113431  20.9984129  37.2945796
 120.0339501  20.5244607  37.1724687 119.4551495  21.7774613  37.7944483
 116.7352010  27.6903250  35.1037775 116.5896591  28.0043553  35.9962057
 116.2577214  28.3088150  34.5508674 118.5948393  24.6805798  35.1518665
 118.5809962  23.7846891  34.8150963 119.3120821  24.6876461  35.7856951
 120.4474524  25.1143138  37.1971792 120.1892302  26.0360209  37.1956123
 119.9159564  24.7173572  37.8872256 111.2097672  30.2308594  38.0425436
 110.6651140  31.0068402  38.1745711 112.0877022  30.5779399  37.8844558
 111.9963694  29.3578490  40.9355593 111.2545430  29.5061126  41.5220224
 111.6756439  29.6186756  40.0722343 119.9407357  38.8994469  40.7335983
 120.2494483  38.6543615  41.6058683 120.7382839  39.1041107  40.2454853
 119.9627969  41.0532378  32.9641360 119.5232959  40.5608757  33.6574216
 120.7136086  40.5105346  32.7233435 112.4420308  37.2443919  32.9665988
 113.2678328  36.9447691  32.5864631 112.0914360  36.4751542  33.4155776
 117.4101841  36.5970387  35.0363661 116.7881850  35.9341092  34.7365889
 118.0806708  36.6231519  34.3537309 110.6428913  35.1630246  33.9254921
 109.8060821  34.7352420  33.7438923 110.6152558  35.3562689  34.8625713
 117.4826369  25.0752175  44.6296167 117.5314524  25.9514298  44.2473937
 118.0248883  24.5329568  44.0567811 116.9715348  35.1474311  28.5122122
 117.1203468  35.8309775  27.8588795 117.7781791  35.1279401  29.0271578
 119.7125657  25.8283548  41.3842526 118.8428966  26.1217114  41.1125115
 119.9485137  26.4123993  42.1049790 114.7267981  31.1739488  29.5183191
 114.4814023  30.2701818  29.7163401 114.8963896  31.1756639  28.5762669
 113.9963629  26.9067846  27.0169352 113.3032873  26.9812201  26.3609388
 113.7515380  26.1428190  27.5390869 120.4710754  37.6422441  25.9833869
 119.8984721  38.2612628  25.5304341 121.0443547  38.1921803  26.5173791
 109.9578410  28.2239594  33.7103853 109.6381194  27.3704902  33.4178227
 109.4111838  28.4388172  34.4661821 113.7358317  30.9402035  37.4273360
 113.9544327  31.8719143  37.4461394 114.1484091  30.5810009  38.2128164
 118.6086182  26.5135240  46.8176109 118.5082909  27.4629597  46.7488200
 118.3907724  26.1853479  45.9452179 109.8266670  31.8442505  35.6796975
 109.1330141  31.4296458  35.1666929 110.5739661  31.8863042  35.0830394
 118.4717453  29.9432379  45.6341171 117.9884534  30.7432739  45.8405060
 118.5578392  29.9540324  44.6808615 111.7403412  31.7760759  33.5562990
 111.7174100  31.8748446  32.6044873 112.0504049  32.6225910  33.8780156
 114.3990790  33.8336914  37.6709604 115.3534044  33.8020856  37.6039536
 114.2003314  33.3727538  38.4859830 114.9890172  32.4038030  40.2380402
 115.8083061  32.8982109  40.2615239 115.2626980  31.4869998  40.2097970
 112.7541019  39.3756534  34.6879802 112.6195487  38.6156934  34.1217800
 112.3373081  40.0997433  34.2208591 115.9110145  40.2725851  34.8998245
 115.7942529  41.2171283  34.7976935 115.0902591  39.9699412  35.2884044
 110.2425086  26.7376164  40.9372599 110.8883950  26.2275118  41.4259824
 110.0342237  27.4744846  41.5116024 116.9364659  40.9254112  38.1154173
 117.8391905  40.9577723  38.4320668 116.7102029  39.9954563  38.1300509
 118.6918261  39.6785099  34.7764252 117.7413892  39.6786961  34.6628624
 118.9950747  38.9317834  34.2600287 114.5822577  23.8843781  45.0347613
 115.4454039  23.5280586  45.2450938 114.0087988  23.5457676  45.7223018
 118.6541055  46.0837921  33.5529204 119.3412095  45.7699651  32.9650219
 118.4989184  46.9879285  33.2796455 118.2309031  44.1638514  35.8246671
 118.2693131  43.6302105  36.6183789 117.7249324  43.6373720  35.2057648
 121.4822667  50.4922163  33.9254921 120.6454576  50.0644338  33.7438923
 121.4546313  50.6854607  34.8625713 120.7972164  43.5531511  33.7103853
 120.4774948  42.6996820  33.4178227 120.2505592  43.7680090  34.4661821
 120.6660424  47.1734423  35.6796975 119.9723896  46.7588376  35.1666929
 121.4133415  47.2154959  35.0830394   3.1807837  55.2867129 105.4547110
   2.5069536  55.5898826 106.0632067   3.5673659  56.0896209 105.1052567
   7.1464578  52.8652612 106.7286933   7.8415483  53.4859305 106.9474247
   7.4887728  52.0147964 107.0039311   1.2379447  52.9714364 105.6362026
   0.6653414  53.5904551 105.1832498   1.8112240  53.5213726 106.1701948
   4.4576706  53.2551514 106.7670609   5.3907380  53.1897076 106.9703484
   4.3699919  54.0907781 106.3085141   7.0864723  52.5717385 103.7274556
   7.0078355  52.2377248 104.6210314   7.9074390  53.0639153 103.7266029
   4.6568675  49.8885380 103.3484535   5.3604525  50.0935383 103.9642190
   3.9331324  50.4562142 103.6133618   6.5655372  50.3267909 105.3982995
   7.4000976  49.8949108 105.2160469   6.4039715  50.1549923 106.3259889
  15.1939647  60.8437560 115.4938171  15.8318057  60.7244308 114.7901511
  15.0760490  61.7918404 115.5526124   7.8616169  62.6500465 111.4196587
   7.2981034  62.5590402 110.6512875   7.7468564  61.8300369 111.8999080
  13.4415728  66.3171433 106.7311052  12.7903708  66.9025513 106.3445066
  14.2360091  66.8477627 106.7906089   7.3671355  63.4060570 107.1298186
   8.1402231  62.8589557 106.9911062   7.7196754  64.2704819 107.3412648
   9.7037633  59.5653236 104.7616636   9.9563154  59.0434757 104.0000099
   8.7662192  59.4019381 104.8643320  14.7480916  58.5689014 112.5691379
  15.5344005  58.1508437 112.2181796  15.0119620  59.4735106 112.7373028
  14.9190993  64.0061865 107.2680036  14.2836826  64.0796491 107.9800941
  14.5888400  64.5955463 106.5899116  20.1489343  58.5064247 113.4724358
  20.8814515  57.9363464 113.7062187  19.3928699  58.1185848 113.9130864
   9.4233922  61.4681342 106.9641011   9.3070180  60.7926245 107.6322095
   9.5336182  60.9813716 106.1473164  11.7665463  60.9291489 110.6687700
  11.4023670  60.4022110 111.3800622  12.6232579  60.5389958 110.4954186
  11.4070950  55.9581389 105.6649049  11.5745352  56.8261625 106.0319520
  11.2168119  56.1208670 104.7410338  11.3860171  58.4139046 106.6495716
  11.2659796  58.8596097 107.4881196  10.6912759  58.7624364 106.0909254
   9.1467063  71.1842688 110.2985847   9.0691092  72.1350513 110.3774328
   8.5428706  70.8388560 110.9560773  17.0845237  58.8860519 107.4776050
  17.9963093  59.1187906 107.3023747  16.5754884  59.4697563 106.9151128
  15.6914819  63.8686338 114.8689631  15.0623681  64.0332052 114.1665699
  15.3040481  64.2827947 115.6400595  19.5704051  64.8040776 112.2233995
  18.8855089  65.1839677 111.6731028  19.6547900  65.4136102 112.9565943
  11.2442781  63.6060746 112.1339716  11.7081126  63.8848449 111.3444339
  10.9799579  62.7044190 111.9512807  10.1811667  59.7283898 108.9429281
  10.8835710  60.1804942 109.4103208   9.8492295  59.0867717 109.5709175
  17.9400810  65.3272690 116.9951696  18.7618254  64.9252877 116.7134378
  17.9363213  65.2240924 117.9467812  26.0306804  61.6711439 113.3436667
  25.2770512  61.1018837 113.1880672  26.1654345  61.6374103 114.2907302
  11.4205432  66.5424841 109.0191387  11.2851106  67.3876377 109.4476235
  11.9615244  66.7444118 108.2557321   4.8734829  64.0600279 109.5919312
   5.3859350  64.8543529 109.7424876   5.5257542  63.3626569 109.5252913
   6.6829714  67.1766035 111.6742065   6.8596342  68.0984000 111.4863049
   7.4786547  66.8624454 112.1036445   2.8383746  62.3888933 110.3678882
   3.6758968  62.7985942 110.1512590   3.0162013  61.4488375 110.3379076
  14.7348178  60.0564014 106.0562715  14.2194801  60.8268618 106.2951103
  14.4625486  59.3829150 106.6795777  12.3195289  54.9013715 111.1147954
  11.4636885  54.5120565 110.9353592  12.7322241  54.9805675 110.2547739
  19.7082452  62.8096368 107.9915889  18.9311895  62.4707528 107.5471051
  20.3873933  62.8148992 107.3170854  14.5234481  57.9291106 107.8822496
  14.2184617  58.2437255 108.7332640  15.4764923  58.0072526 107.9249829
  12.9680913  64.0881329 109.5315450  12.4402274  63.3534089 109.2188688
  12.4668416  64.8656006 109.2855419  17.9473759  62.2830350 114.6482497
  17.2897433  62.9729611 114.7362625  18.7514158  62.6726782 114.9916483
  16.7579218  60.6374722 112.6986438  17.2711099  61.2704714 113.2008148
  17.4080442  60.0375918 112.3329799   8.0269228  56.7805457 105.9117947
   7.1906540  57.1180143 106.2327222   7.8873997  56.6454436 104.9745084
  11.1133513  61.9061539 102.5350423  10.2060575  61.6750793 102.7341572
  11.6104545  61.1099159 102.7224405  14.0201592  70.6159047 105.4547110
  13.3463291  70.9190743 106.0632067  14.4067414  71.4188127 105.1052567
  14.0195096  59.5115594 110.0747459  14.7666915  60.0236991 109.7654581
  14.2886686  59.1899646 110.9351853  12.2921746  62.0074134 107.0574414
  11.3832966  61.7233167 107.1546883  12.3216830  62.4273213 106.1977720
  17.5241014  65.6180724 110.8265581  17.0703341  64.7771634 110.8830772
  16.8934981  66.2542122 111.1640361  16.4673933  56.5472710 112.0566249
  15.7296690  56.0350096 112.3876491  16.7200707  56.1073091 111.2449525
  15.9673953  67.4557221 111.7615399  16.2596928  68.0162278 111.0427765
  16.4772574  67.7485782 112.5168558  10.8406641  59.6202755 113.1584209
  10.8955250  58.6676591 113.0826686  10.0297843  59.7762194 113.6425507
  11.9897834  63.5482878 104.3962492  11.5517264  62.8318737 103.9368129
  12.7308275  63.7758993 103.8347584   8.7799000  58.2379815 110.9174588
   7.9666866  58.5373985 111.3239780   9.2757995  57.8435503 111.6349070
  10.9307578  68.2337572 112.8508852  10.8883757  68.4598418 111.9217384
  11.8470277  68.0000946 112.9994654  20.1070949  61.8240075 110.4538811
  19.9688848  62.0141671 109.5260000  19.7507168  62.5859458 110.9106862
  20.1340329  63.8916602 115.4650082  20.5676835  63.7991891 116.3133136
  20.8471909  63.8674103 114.8270098   9.0473379  65.1100601 112.6470815
   9.8413978  64.6150921 112.4453390   8.3365072  64.5818464 112.2838521
   5.3556143  59.2543682 108.7230568   4.4253731  59.1928138 108.9400530
   5.4513615  58.7319635 107.9267209  20.9955878  63.9340303 117.9982968
  21.1891768  64.8386113 118.2442243  20.8956496  63.4747722 118.8321553
  12.2192807  70.7838719 107.6694189  12.3944563  70.3126762 108.4839812
  11.5325595  71.4104485 107.8975450  13.1749870  65.0611225 113.7157490
  12.8399703  65.0211995 114.6115140  12.6753816  64.3955941 113.2427900
  16.1109062  62.4067260 103.9894550  15.4938233  61.6814088 103.8927602
  15.6425550  63.1676620 103.6461624   7.9007608  56.6252684 103.1115854
   7.0237074  56.5041485 102.7478101   8.3765361  55.8338762 102.8594743
  11.0871534  68.9778974 110.3578375  10.3039056  69.5200655 110.4516599
  11.7864279  69.4952954 110.7572616  22.2497941  60.4913969 114.6430871
  22.2387818  61.3738685 114.2724805  21.3815321  60.1385520 114.4485408
  15.4797965  63.5445291 110.5751003  14.5454243  63.6646753 110.4055708
  15.6574633  62.6417758 110.3111013  18.8670516  59.3862610 111.1101037
  19.3330968  60.2190602 111.0361340  19.3178017  58.9207592 111.8146296
  16.9346747  65.7306432 108.1087189  17.2106591  65.6163026 109.0181064
  16.0651246  65.3323916 108.0699363  13.5700811  69.9792782 111.7520003
  13.7523206  69.1614438 112.2147755  14.3933797  70.1960475 111.3144893
  13.9042977  68.9060968 109.0135052  14.4330743  68.3953422 108.4005214
  14.1671196  68.5903498 109.8780585   2.6286302  58.2194539 108.5528760
   2.9239743  57.3105218 108.4995813   1.7274337  58.1982279 108.2309762
  14.5372380  69.9401803 115.3579168  14.4123520  69.1391543 114.8490114
  15.1951472  70.4347997 114.8693138  16.6007289  67.7410823 116.9858718
  15.6537624  67.6216175 116.9137045  16.9490062  66.8533321 117.0684980
  13.6053722  67.5363540 113.1863070  13.4578685  66.6080247 113.3670640
  14.4307216  67.5583630 112.7020146   7.4715966  56.1881607 109.0443563
   7.8112039  56.7167528 108.3222171   7.9188087  56.5262013 109.8202129
  17.2087844  68.3592098 114.2727943  18.1334391  68.1534960 114.1352394
  17.0403147  68.1108499 115.1817285   9.4584114  54.6856228 107.2436855
  10.1792476  55.0637481 106.7400572   8.8349418  55.4045105 107.3471833
  13.6015236  55.3901377 108.1795188  13.8178851  56.2726015 107.8784016
  13.1209304  54.9987591 107.4500830  16.9983160  68.8777766 109.6290035
  17.1720038  68.3124188 108.8763887  17.4912051  69.6778661 109.4469525
  22.8522551  61.6414189 111.2480334  23.2953697  60.8921514 110.8499458
  21.9749062  61.6324325 110.8654066  17.9858333  68.1944530 106.7286933
  18.6809237  68.8151223 106.9474247  18.3281483  67.3439881 107.0039311
  19.8849756  65.6444236 108.2574264  20.4101080  65.9831508 107.5323584
  19.7972108  64.7091251 108.0737398   8.5777796  65.8058151 108.1650279
   8.7265916  66.4893616 107.5116952   9.3844239  65.7863241 108.6799735
  22.3955416  63.1119427 113.6402782  23.2302307  63.5509231 113.8040342
  22.5314545  62.6358080 112.8211028   6.3330429  61.8323329 109.1711348
   6.0876471  60.9285659 109.3691558   6.5026343  61.8340479 108.2290826
   5.6026076  57.5651687 106.6697509   4.9095321  57.6396042 106.0137545
   5.3577828  56.8012030 107.1919026  12.0773201  68.3006282 105.6362026
  11.5047168  68.9196469 105.1832498  12.6505995  68.8505644 106.1701948
  15.2970461  68.5843432 106.7670609  16.2301134  68.5188994 106.9703484
  15.2093674  69.4199699 106.3085141  17.9258478  67.9009302 103.7274556
  17.8472109  67.5669166 104.6210314  18.7468144  68.3931070 103.7266029
  20.6236669  60.7671042 116.9350875  20.5912989  59.8287042 117.1210559
  21.2337292  60.8455078 116.2016700  12.4620000  59.6367095 102.9778079
  13.4079104  59.5073303 103.0466497  12.0834245  58.8981757 103.4547507
  26.4413219  61.8287048 116.0756912  27.1716607  61.5672337 116.6364615
  25.8320164  61.0915770 116.1158980  24.5228516  59.9694911 116.6731363
  23.7961679  59.8350876 116.0647854  24.1075803  60.2771740 117.4788081
  10.6462917  57.5617071 102.9132964   9.7394372  57.2650184 102.9895678
  10.9238898  57.2646889 102.0467250  12.2624982  52.1053961 109.0677205
  11.4525711  51.7601046 109.4432452  12.9509399  51.7961504 109.6564817
   9.4161701  54.4204006 103.0544943  10.2780865  54.7458905 103.3140761
   9.6012046  53.6335502 102.5418009  17.5694338  53.2932533 110.1980166
  16.9893007  53.9517337 109.8158219  17.3030271  52.4709877 109.7867584
  16.3519216  55.4532623 109.2536515  15.4645071  55.7382274 109.0356709
  16.7673205  55.2926386 108.4063792  19.7033752  55.4779144 112.9690854
  20.4794142  55.9675596 113.2415471  18.9781886  55.9037198 113.4262723
  22.1406311  56.1906763 114.0264794  22.7350801  55.9502499 113.3158103
  22.2132894  55.4713894 114.6538331  15.4962429  65.2177298 103.3484535
  16.1998279  65.4227300 103.9642190  14.7725078  65.7854060 103.6133618
  16.3260240  60.9687159 109.4686805  16.2695441  61.4255710 108.6294437
  16.8788582  60.2077844 109.2909648  20.1365046  56.7576891 110.2936924
  19.8801980  56.3573527 111.1245132  19.5117914  57.4720685 110.1687063
  24.4477383  59.4972964 112.8008216  23.8876941  59.5666153 113.5739778
  23.8420887  59.3213949 112.0807712  17.4049127  65.6559827 105.3982995
  18.2394731  65.2241025 105.2160469  17.2433470  65.4841841 106.3259889
  17.0595019  62.1591940 106.7639334  17.0043823  61.9936212 105.8227778
  16.4341074  62.8667973 106.9201524  10.3691144  51.6600049 106.3424652
  10.3569814  52.6041889 106.4992923  11.2614566  51.4770195 106.0484114
  26.0333402  76.1729478 115.4938171  26.6711812  76.0536225 114.7901511
  25.9154245  77.1210322 115.5526124  22.8423108  76.1256906 115.4299696
  22.5041620  76.0097971 114.5420231  23.7112876  75.7248071 115.4100702
  18.7009924  77.9792383 111.4196587  18.1374789  77.8882319 110.6512875
  18.5862319  77.1592287 111.8999080  24.2809483  81.6463350 106.7311052
  23.6297462  82.2317431 106.3445066  25.0753845  82.1769545 106.7906089
  18.2065110  78.7352487 107.1298186  18.9795986  78.1881474 106.9911062
  18.5590509  79.5996737 107.3412648  20.9706359  77.4405718 116.9266445
  21.5669931  77.2161741 116.2123408  21.0281331  76.6990464 117.5291893
  20.5431388  74.8945154 104.7616636  20.7956908  74.3726675 104.0000099
  19.6055947  74.7311299 104.8643320  25.5874670  73.8980932 112.5691379
  26.3737760  73.4800355 112.2181796  25.8513375  74.8027024 112.7373028
  25.7584748  79.3353782 107.2680036  25.1230581  79.4088409 107.9800941
  25.4282154  79.9247381 106.5899116  30.9883097  73.8356165 113.4724358
  31.7208269  73.2655382 113.7062187  30.2322453  73.4477766 113.9130864
  20.2627676  76.7973259 106.9641011  20.1463934  76.1218163 107.6322095
  20.3729936  76.3105633 106.1473164  22.6059217  76.2583407 110.6687700
  22.2417424  75.7314028 111.3800622  23.4626333  75.8681876 110.4954186
  28.5108518  67.5477739 117.9318967  28.1791843  68.4173150 117.7080182
  27.9154131  67.2314023 118.6112997  22.2464704  71.2873306 105.6649049
  22.4139107  72.1553543 106.0319520  22.0561873  71.4500588 104.7410338
  25.0040037  79.7490285 117.3314879  24.7040760  80.6515324 117.2230687
  24.6591097  79.4822468 118.1836032  18.4552519  76.2004082 113.3651584
  17.5303015  76.0680296 113.5729275  18.7036932  76.9798301 113.8621526
  28.4037181  72.2672825 115.0112317  27.4954058  72.1988234 114.7171078
  28.3524777  72.7444770 115.8394142  22.2253925  73.7430964 106.6495716
  22.1053550  74.1888015 107.4881196  21.5306513  74.0916281 106.0909254
  19.9860817  86.5134606 110.2985847  19.9084847  87.4642431 110.3774328
  19.3822461  86.1680478 110.9560773  30.2698828  70.4689264 116.7890191
  29.6273208  70.7621797 116.1429985  29.7653756  70.3542184 117.5943387
  27.9238991  74.2152437 107.4776050  28.8356847  74.4479824 107.3023747
  27.4148638  74.7989481 106.9151128  22.5610829  73.5749672 118.4870899
  23.4072024  73.9989085 118.6305548  22.5009467  72.9183296 119.1809462
  26.5308574  79.1978255 114.8689631  25.9017436  79.3623970 114.1665699
  26.1434236  79.6119865 115.6400595  30.4097805  80.1332693 112.2233995
  29.7248844  80.5131595 111.6731028  30.4941655  80.7428020 112.9565943
  25.7110274  71.2354040 120.1452073  25.4671206  71.9896100 119.6086349
  25.9870205  71.6139388 120.9799320  27.6648737  77.7792652 118.8229339
  27.8765632  78.4224412 118.1463720  27.6178485  76.9454969 118.3551269
  25.2674966  70.3910473 115.7265911  24.4059445  70.6891726 116.0182648
  25.2937401  70.6080872 114.7946943  22.0836535  78.9352663 112.1339716
  22.5474881  79.2140366 111.3444339  21.8193333  78.0336108 111.9512807
  18.9760616  78.4824145 115.0719480  19.5461974  78.9111413 114.4336964
  19.5668728  78.2006730 115.7703665  21.0205421  75.0575816 108.9429281
  21.7229465  75.5096860 109.4103208  20.6886050  74.4159635 109.5709175
  14.7630755  73.3159369 114.2446415  13.9729809  73.5716897 113.7686526
  15.2542003  74.1307706 114.3498456  28.7794565  80.6564608 116.9951696
  29.6012009  80.2544795 116.7134378  28.7756968  80.5532842 117.9467812
  16.7145501  73.6803948 111.2029892  15.9176664  73.7922642 111.7213387
  16.4871093  74.0190600 110.3370782  36.8700558  77.0003356 113.3436667
  36.1164266  76.4310754 113.1880672  37.0048099  76.9666021 114.2907302
  22.2599186  81.8716758 109.0191387  22.1244861  82.7168294 109.4476235
  22.8008999  82.0736036 108.2557321  15.7128583  79.3892197 109.5919312
  16.2253104  80.1835447 109.7424876  16.3651296  78.6918487 109.5252913
  17.5223468  82.5057953 111.6742065  17.6990096  83.4275918 111.4863049
  18.3180302  82.1916372 112.1036445  25.6091650  65.3947320 117.5490280
  25.2655919  66.2848962 117.4729391  25.9770612  65.2048978 116.6859865
  13.6777500  77.7180851 110.3678882  14.5152722  78.1277859 110.1512590
  13.8555768  76.7780293 110.3379076  25.5741932  75.3855931 106.0562715
  25.0588556  76.1560536 106.2951103  25.3019241  74.7121068 106.6795777
  23.1589043  70.2305632 111.1147954  22.3030640  69.8412483 110.9353592
  23.5715995  70.3097593 110.2547739  24.6888190  67.7651976 115.5139513
  24.1852986  67.7282111 114.7007319  24.9818797  68.6744718 115.5736170
  20.9331076  67.8490705 114.5205695  21.7984073  67.6533514 114.1611585
  21.0008585  67.6201057 115.4475052  30.5476206  78.1388286 107.9915889
  29.7705649  77.7999446 107.5471051  31.2267687  78.1440909 107.3170854
  25.3628236  73.2583024 107.8822496  25.0578371  73.5729173 108.7332640
  26.3158678  73.3364443 107.9249829  23.8074667  79.4173247 109.5315450
  23.2796029  78.6826006 109.2188688  23.3062170  80.1947923 109.2855419
  28.7867513  77.6122267 114.6482497  28.1291188  78.3021529 114.7362625
  29.5907913  78.0018699 114.9916483  18.5393395  70.0792913 111.8922062
  19.1137147  69.8568095 111.1595255  19.1264377  70.1481608 112.6450663
  27.5972972  75.9666640 112.6986438  28.1104854  76.5996632 113.2008148
  28.2474196  75.3667836 112.3329799  18.8662982  72.1097374 105.9117947
  18.0300294  72.4472061 106.2327222  18.7267752  71.9746354 104.9745084
  20.8416063  66.9534162 110.6197131  20.1880475  66.6383179 109.9953746
  20.7996537  66.3309903 111.3456954  21.9527268  77.2353457 102.5350423
  21.0454329  77.0042711 102.7341572  22.4498300  76.4391076 102.7224405
  24.8595346  85.9450964 105.4547110  24.1857045  86.2482661 106.0632067
  25.2461168  86.7480045 105.1052567  24.0753803  73.4416096 114.9444779
  23.1576364  73.6631043 114.7866467  24.4913947  73.5162406 114.0856486
  24.8588851  74.8407511 110.0747459  25.6060670  75.3528909 109.7654581
  25.1280440  74.5191564 110.9351853  23.1315501  77.3366052 107.0574414
  22.2226720  77.0525085 107.1546883  23.1610585  77.7565131 106.1977720
  28.3634768  80.9472642 110.8265581  27.9097095  80.1063551 110.8830772
  27.7328735  81.5834040 111.1640361  27.3067688  71.8764628 112.0566249
  26.5690445  71.3642014 112.3876491  27.5594461  71.4365009 111.2449525
  26.8067708  82.7849138 111.7615399  27.0990682  83.3454195 111.0427765
  27.3166328  83.0777699 112.5168558  27.4079315  64.6540880 112.6508018
  27.7138192  63.7938243 112.3633933  28.1331920  65.2458500 112.4507012
  13.7003671  75.0571566 111.0389616  13.5028071  74.4640927 110.3140682
  13.1450335  74.7523776 111.7565555  21.6800395  74.9494673 113.1584209
  21.7349005  73.9968509 113.0826686  20.8691597  75.1054112 113.6425507
  22.8291589  78.8774796 104.3962492  22.3911019  78.1610655 103.9368129
  23.5702030  79.1050911 103.8347584  19.6192755  73.5671732 110.9174588
  18.8060620  73.8665903 111.3239780  20.1151749  73.1727421 111.6349070
  21.7701333  83.5629489 112.8508852  21.7277512  83.7890336 111.9217384
  22.6864032  83.3292864 112.9994654  25.2166967  74.0313557 119.7489482
  25.5716354  74.2585030 120.6083947  25.8639098  74.3631934 119.1266737
  30.9464704  77.1531993 110.4538811  30.8082602  77.3433589 109.5260000
  30.5900922  77.9151376 110.9106862  19.1106830  71.1390088 116.5335823
  19.7506209  70.9978847 115.8358786  18.2784360  70.8524601 116.1574425
  30.9734083  79.2208520 115.4650082  31.4070590  79.1283809 116.3133136
  31.6865664  79.1966020 114.8270098  19.8867134  80.4392518 112.6470815
  20.6807732  79.9442838 112.4453390  19.1758826  79.9110381 112.2838521
  16.1949897  74.5835600 108.7230568  15.2647485  74.5220056 108.9400530
  16.2907369  74.0611553 107.9267209  16.1135446  71.1090413 111.3108810
  16.3742263  72.0235746 111.2017970  16.9352618  70.6414855 111.4605422
  31.8349633  79.2632220 117.9982968  32.0285523  80.1678031 118.2442243
  31.7350251  78.8039639 118.8321553  23.4885943  69.1490111 120.4973295
  22.8413859  69.8480061 120.4037771  24.2586959  69.5826255 120.8649543
  23.6650078  76.9870876 118.5570115  24.5942138  77.1382035 118.3839082
  23.2441108  77.0754897 117.7018761  23.0586562  86.1130637 107.6694189
  23.2338317  85.6418680 108.4839812  22.3719350  86.7396403 107.8975450
  24.0143625  80.3903143 113.7157490  23.6793457  80.3503913 114.6115140
  23.5147570  79.7247859 113.2427900  26.9502816  77.7359177 103.9894550
  26.3331987  77.0106005 103.8927602  26.4819305  78.4968538 103.6461624
  18.7401362  71.9544602 103.1115854  17.8630829  71.8333402 102.7478101
  19.2159115  71.1630680 102.8594743  28.6074355  80.4097670 119.8814310
  27.7201134  80.0723591 120.0040709  29.1772906  79.6780701 120.1183075
  21.9265288  84.3070892 110.3578375  21.1432810  84.8492572 110.4516599
  22.6258034  84.8244872 110.7572616  25.2361938  70.1165521 113.0012580
  25.7330638  69.3635484 112.6813650  24.4648920  70.1529838 112.4355789
  33.0891696  75.8205887 114.6430871  33.0781572  76.7030602 114.2724805
  32.2209075  75.4677438 114.4485408  26.3191719  78.8737209 110.5751003
  25.3847998  78.9938671 110.4055708  26.4968388  77.9709675 110.3111013
  21.8196907  72.2582904 112.7284264  21.4494695  71.7053945 113.4165170
  22.3156000  71.6541038 112.1759265  29.7064270  74.7154528 111.1101037
  30.1724723  75.5482520 111.0361340  30.1571771  74.2499510 111.8146296
  27.7740502  81.0598349 108.1087189  28.0500346  80.9454944 109.0181064
  26.9045000  80.6615834 108.0699363  27.6780933  67.0835115 115.1491939
  26.7644013  67.3139342 115.3174146  28.1074035  67.1673559 116.0005971
  27.4487392  75.2725007 117.6491833  26.7958842  75.5200914 116.9944286
  27.8267772  74.4589145 117.3154310  24.4094566  85.3084700 111.7520003
  24.5916960  84.4906356 112.2147755  25.2327552  85.5252392 111.3144893
  24.7436731  84.2352885 109.0135052  25.2724498  83.7245340 108.4005214
  25.0064951  83.9195415 109.8780585  17.2162241  69.6686895 118.9737371
  17.2803567  70.5301726 118.5614768  17.1529361  69.0560897 118.2409729
  13.4680056  73.5486457 108.5528760  13.7633497  72.6397135 108.4995813
  12.5668092  73.5274196 108.2309762  25.3766135  85.2693721 115.3579168
  25.2517274  84.4683461 114.8490114  26.0345226  85.7639914 114.8693138
  16.9974303  71.6242453 114.5356308  16.2760889  72.2378421 114.3963782
  17.7867559  72.1600218 114.4572954  27.4401043  83.0702741 116.9858718
  26.4931379  82.9508092 116.9137045  27.7883816  82.1825239 117.0684980
  19.8000617  68.9596880 120.8096960  20.3235018  69.2059176 121.5723269
  19.5812950  69.7916915 120.3900097  15.1967898  71.2300555 108.6768085
  14.8680604  70.3497933 108.4943191  15.5507268  71.1748223 109.5644474
  24.4447477  82.8655457 113.1863070  24.2972439  81.9372165 113.3670640
  25.2700970  82.8875548 112.7020146  18.3109721  71.5173524 109.0443563
  18.6505793  72.0459446 108.3222171  18.7581841  71.8553930 109.8202129
  28.0481598  83.6884016 114.2727943  28.9728146  83.4826877 114.1352394
  27.8796902  83.4400417 115.1817285  21.0053162  69.9010575 118.4946631
  20.6649982  69.1018388 118.8967310  20.2992168  70.2012286 117.9223464
  21.6569634  66.9859887 116.9473954  22.4795703  66.5120366 116.8252844
  21.9007697  67.7650371 117.4472640  20.2977868  70.0148146 107.2436855
  21.0186231  70.3929399 106.7400572  19.6743172  70.7337023 107.3471833
  24.4408991  70.7193295 108.1795188  24.6572605  71.6017933 107.8784016
  23.9603058  70.3279508 107.4500830  19.1808212  73.6779008 114.7565932
  19.0352793  73.9919311 115.6490214  18.7033416  74.2963908 114.2036831
  21.0404595  70.6681556 114.8046822  21.0266164  69.7722649 114.4679120
  21.7577023  70.6752220 115.4385108  22.8930726  71.1018896 116.8499949
  22.6348504  72.0235967 116.8484280  22.3615766  70.7049331 117.5400413
  27.8376915  84.2069683 109.6290035  28.0113792  83.6416106 108.8763887
  28.3305806  85.0070578 109.4469525  20.4441491  69.5495936 110.0734392
  20.5657402  68.6212583 110.2725279  20.1543533  69.5634622 109.1612707
  23.3132682  67.2350847 113.2101112  23.3354378  67.2990180 112.2553091
  23.7300741  66.3955355 113.4041618  33.6916306  76.9706106 111.2480334
  34.1347452  76.2213432 110.8499458  32.8142816  76.9616243 110.8654066
  28.8252087  83.5236448 106.7286933  29.5202992  84.1443141 106.9474247
  29.1675237  82.6731799 107.0039311  30.7243510  80.9736153 108.2574264
  31.2494834  81.3123426 107.5323584  30.6365863  80.0383169 108.0737398
  30.5335291  78.4561523 120.8758190  30.5833296  78.2911531 121.8173713
  30.4249215  77.5888782 120.4856071  19.4171550  81.1350069 108.1650279
  19.5659670  81.8185533 107.5116952  20.2237994  81.1155159 108.6799735
  27.8239054  74.4392451 122.1917497  28.7248917  74.2998916 121.9001495
  27.8987028  74.6046906 123.1315674  22.1581859  71.8159306 121.0370683
  21.2885169  72.1092872 120.7653272  22.3941339  72.3999751 121.7577947
  32.0353488  80.8758465 121.1200212  31.7438297  81.2388445 121.9563673
  31.4225619  80.1625473 120.9413544  33.2349171  78.4411345 113.6402782
  34.0696062  78.8801149 113.8040342  33.3708299  77.9649998 112.8211028
  30.2840676  75.9991080 119.5880270  30.7594798  76.1918726 118.7799121
  29.3606242  76.0550265 119.3423653  17.1724183  77.1615247 109.1711348
  16.9270225  76.2577577 109.3691558  17.3420098  77.1632397 108.2290826
  24.8620893  68.0338923 118.5536104  25.3802837  68.7699950 118.2282592
  24.5076026  68.3402916 119.3882863  16.4419831  72.8943604 106.6697509
  15.7489076  72.9687959 106.0137545  16.1971582  72.1303948 107.1919026
  25.1133487  64.4539206 114.0737000  25.3935241  63.7862395 114.6997427
  25.8984094  64.6468301 113.5611664  22.9166956  83.6298200 105.6362026
  22.3440923  84.2488387 105.1832498  23.4899749  84.1797561 106.1701948
  28.9842345  72.8756840 117.8208575  29.9359768  72.9754937 117.8420799
  28.8145796  72.0835108 118.3306660  27.0056725  69.9612423 118.0067976
  26.4106657  70.2417436 117.3114465  26.7206422  70.4506324 118.7784717
  26.1364215  83.9135350 106.7670609  27.0694889  83.8480911 106.9703484
  26.0487428  84.7491617 106.3085141  28.7652232  83.2301220 103.7274556
  28.6865864  82.8961084 104.6210314  29.5861899  83.7222988 103.7266029
  31.4630423  76.0962959 116.9350875  31.4306743  75.1578960 117.1210559
  32.0731047  76.1746996 116.2016700  23.3013754  74.9659012 102.9778079
  24.2472859  74.8365220 103.0466497  22.9227999  74.2273674 103.4547507
  31.6124912  72.8874003 116.9809158  31.0963960  72.1032459 116.7939087
  32.4964860  72.5592719 117.1455678  29.2735639  66.6315018 112.9404971
  29.0760460  66.3230106 113.8248303  29.8835344  67.3576657 113.0702901
  37.2806973  77.1578966 116.0756912  38.0110362  76.8964254 116.6364615
  36.6713919  76.4207688 116.1158980  35.3622270  75.2986829 116.6731363
  34.6355434  75.1642794 116.0647854  34.9469557  75.6063657 117.4788081
  21.4856671  72.8908989 102.9132964  20.5788127  72.5942101 102.9895678
  21.7632652  72.5938807 102.0467250  23.1018737  67.4345878 109.0677205
  22.2919465  67.0892963 109.4432452  23.7903154  67.1253422 109.6564817
  25.0309285  66.5123925 110.6901502  25.5840324  66.9319379 111.3491525
  25.2679372  65.5859673 110.7324458  20.2555456  69.7495924 103.0544943
  21.1174620  70.0750822 103.3140761  20.4405800  68.9627420 102.5418009
  28.4088092  68.6224450 110.1980166  27.8286761  69.2809254 109.8158219
  28.1424025  67.8001795 109.7867584  26.8591659  68.0229508 112.4001487
  27.3591437  68.1346043 111.5915806  27.5027267  67.7190561 113.0402295
  27.1912970  70.7824541 109.2536515  26.3038825  71.0674191 109.0356709
  27.6066959  70.6218304 108.4063792  30.5427507  70.8071062 112.9690854
  31.3187897  71.2967514 113.2415471  29.8175641  71.2329116 113.4262723
  32.9800065  71.5198681 114.0264794  33.5744556  71.2794417 113.3158103
  33.0526649  70.8005811 114.6538331  26.3356184  80.5469215 103.3484535
  27.0392034  80.7519218 103.9642190  25.6118833  81.1145977 103.6133618
  27.1653994  76.2979077 109.4686805  27.1089196  76.7547628 108.6294437
  27.7182337  75.5369761 109.2909648  30.9758800  72.0868809 110.2936924
  30.7195734  71.6865444 111.1245132  30.3511668  72.8012602 110.1687063
  35.2871138  74.8264882 112.8008216  34.7270696  74.8958071 113.5739778
  34.6814641  74.6505866 112.0807712  28.2442881  80.9851745 105.3982995
  29.0788485  80.5532943 105.2160469  28.0827224  80.8133758 106.3259889
  27.8988773  77.4883858 106.7639334  27.8437577  77.3228129 105.8227778
  27.2734829  78.1959891 106.9201524  21.2084899  66.9891967 106.3424652
  21.1963569  67.9333807 106.4992923  22.1008321  66.8062112 106.0484114
  25.0237018  63.5834744 110.5970589  24.2569414  63.0293230 110.7427272
  25.4347723  63.6556612 111.4584741  36.8727156  91.5021396 115.4938171
  37.5105566  91.3828143 114.7901511  36.7547999  92.4502240 115.5526124
  33.6816863  91.4548824 115.4299696  33.3435374  91.3389889 114.5420231
  34.5506631  91.0539989 115.4100702  29.5403678  93.3084300 111.4196587
  28.9768543  93.2174237 110.6512875  29.4256073  92.4884205 111.8999080
  35.1203237  96.9755268 106.7311052  34.4691217  97.5609348 106.3445066
  35.9147600  97.5061463 106.7906089  29.0458864  94.0644405 107.1298186
  29.8189740  93.5173392 106.9911062  29.3984263  94.9288654 107.3412648
  31.8100114  92.7697636 116.9266445  32.4063686  92.5453658 116.2123408
  31.8675085  92.0282381 117.5291893  31.3825142  90.2237071 104.7616636
  31.6350663  89.7018592 104.0000099  30.4449701  90.0603217 104.8643320
  36.4268425  89.2272850 112.5691379  37.2131514  88.8092273 112.2181796
  36.6907129  90.1318942 112.7373028  36.5978502  94.6645700 107.2680036
  35.9624335  94.7380326 107.9800941  36.2675909  95.2539299 106.5899116
  41.8276852  89.1648083 113.4724358  42.5602024  88.5947300 113.7062187
  41.0716208  88.7769683 113.9130864  31.1021431  92.1265177 106.9641011
  30.9857689  91.4510081 107.6322095  31.2123691  91.6397551 106.1473164
  33.4452972  91.5875324 110.6687700  33.0811179  91.0605945 111.3800622
  34.3020088  91.1973793 110.4954186  39.3502272  82.8769657 117.9318967
  39.0185597  83.7465068 117.7080182  38.7547886  82.5605941 118.6112997
  33.0858459  86.6165224 105.6649049  33.2532861  87.4845460 106.0319520
  32.8955628  86.7792506 104.7410338  35.8433792  95.0782203 117.3314879
  35.5434515  95.9807242 117.2230687  35.4984851  94.8114386 118.1836032
  29.2946273  91.5296000 113.3651584  28.3696770  91.3972214 113.5729275
  29.5430687  92.3090219 113.8621526  39.2430936  87.5964743 115.0112317
  38.3347813  87.5280151 114.7171078  39.1918531  88.0736688 115.8394142
  33.0647680  89.0722881 106.6495716  32.9447305  89.5179932 107.4881196
  32.3700268  89.4208199 106.0909254  30.8254572 101.8426523 110.2985847
  30.7478601 102.7934348 110.3774328  30.2216215 101.4972396 110.9560773
  41.1092582  85.7981181 116.7890191  40.4666962  86.0913715 116.1429985
  40.6047511  85.6834102 117.5943387  38.7632746  89.5444355 107.4776050
  39.6750602  89.7771741 107.3023747  38.2542393  90.1281399 106.9151128
  33.4004583  88.9041589 118.4870899  34.2465779  89.3281003 118.6305548
  33.3403221  88.2475214 119.1809462  37.3702328  94.5270173 114.8689631
  36.7411190  94.6915887 114.1665699  36.9827990  94.9411783 115.6400595
  41.2491560  95.4624611 112.2233995  40.5642598  95.8423512 111.6731028
  41.3335409  96.0719938 112.9565943  36.5504029  86.5645958 120.1452073
  36.3064961  87.3188018 119.6086349  36.8263959  86.9431305 120.9799320
  38.5042491  93.1084570 118.8229339  38.7159387  93.7516330 118.1463720
  38.4572240  92.2746887 118.3551269  36.1068720  85.7202391 115.7265911
  35.2453199  86.0183644 116.0182648  36.1331155  85.9372790 114.7946943
  32.9230290  94.2644581 112.1339716  33.3868635  94.5432284 111.3444339
  32.6587088  93.3628026 111.9512807  29.8154371  93.8116063 115.0719480
  30.3855728  94.2403331 114.4336964  30.4062483  93.5298647 115.7703665
  31.8599176  90.3867734 108.9429281  32.5623219  90.8388777 109.4103208
  31.5279804  89.7451552 109.5709175  25.6024510  88.6451286 114.2446415
  24.8123564  88.9008815 113.7686526  26.0935757  89.4599624 114.3498456
  39.6188319  95.9856525 116.9951696  40.4405763  95.5836713 116.7134378
  39.6150722  95.8824760 117.9467812  27.5539255  89.0095865 111.2029892
  26.7570419  89.1214560 111.7213387  27.3264847  89.3482518 110.3370782
  47.7094312  92.3295274 113.3436667  46.9558021  91.7602672 113.1880672
  47.8441854  92.2957938 114.2907302  33.0992941  97.2008676 109.0191387
  32.9638615  98.0460212 109.4476235  33.6402753  97.4027954 108.2557321
  26.5522338  94.7184114 109.5919312  27.0646859  95.5127364 109.7424876
  27.2045051  94.0210405 109.5252913  28.3617223  97.8349870 111.6742065
  28.5383851  98.7567835 111.4863049  29.1574056  97.5208290 112.1036445
  36.4485404  80.7239238 117.5490280  36.1049674  81.6140880 117.4729391
  36.8164367  80.5340896 116.6859865  24.5171255  93.0472769 110.3678882
  25.3546477  93.4569777 110.1512590  24.6949522  92.1072211 110.3379076
  36.4135687  90.7147849 106.0562715  35.8982310  91.4852454 106.2951103
  36.1412995  90.0412985 106.6795777  33.9982798  85.5597550 111.1147954
  33.1424394  85.1704400 110.9353592  34.4109750  85.6389511 110.2547739
  35.5281945  83.0943893 115.5139513  35.0246740  83.0574028 114.7007319
  35.8212551  84.0036636 115.5736170  31.7724830  83.1782623 114.5205695
  32.6377827  82.9825432 114.1611585  31.8402339  82.9492975 115.4475052
  41.3869961  93.4680204 107.9915889  40.6099404  93.1291363 107.5471051
  42.0661442  93.4732827 107.3170854  36.2021990  88.5874941 107.8822496
  35.8972126  88.9021090 108.7332640  37.1552432  88.6656361 107.9249829
  34.6468422  94.7465165 109.5315450  34.1189783  94.0117924 109.2188688
  34.1455925  95.5239841 109.2855419  39.6261268  92.9414185 114.6482497
  38.9684942  93.6313446 114.7362625  40.4301667  93.3310617 114.9916483
  29.3787149  85.4084831 111.8922062  29.9530901  85.1860012 111.1595255
  29.9658132  85.4773525 112.6450663  38.4366727  91.2958558 112.6986438
  38.9498608  91.9288550 113.2008148  39.0867951  90.6959753 112.3329799
  29.7056737  87.4389292 105.9117947  28.8694049  87.7763978 106.2327222
  29.5661506  87.3038272 104.9745084  31.6809817  82.2826080 110.6197131
  31.0274230  81.9675097 109.9953746  31.6390291  81.6601820 111.3456954
  32.7921022  92.5645375 102.5350423  31.8848084  92.3334628 102.7341572
  33.2892054  91.7682994 102.7224405  35.6989101 101.2742882 105.4547110
  35.0250800 101.5774579 106.0632067  36.0854923 102.0771962 105.1052567
  34.9147558  88.7708013 114.9444779  33.9970119  88.9922960 114.7866467
  35.3307701  88.8454324 114.0856486  35.6982605  90.1699429 110.0747459
  36.4454424  90.6820826 109.7654581  35.9674195  89.8483482 110.9351853
  33.9709255  92.6657970 107.0574414  33.0620475  92.3817003 107.1546883
  34.0004339  93.0857048 106.1977720  39.2028523  96.2764559 110.8265581
  38.7490850  95.4355469 110.8830772  38.5722490  96.9125958 111.1640361
  38.1461442  87.2056545 112.0566249  37.4084199  86.6933931 112.3876491
  38.3988216  86.7656927 111.2449525  37.6461462  98.1141056 111.7615399
  37.9384437  98.6746113 111.0427765  38.1560083  98.4069617 112.5168558
  38.2473070  79.9832797 112.6508018  38.5531947  79.1230161 112.3633933
  38.9725675  80.5750417 112.4507012  24.5397426  90.3863484 111.0389616
  24.3421826  89.7932845 110.3140682  23.9844090  90.0815694 111.7565555
  32.5194150  90.2786590 113.1584209  32.5742759  89.3260427 113.0826686
  31.7085352  90.4346029 113.6425507  33.6685343  94.2066713 104.3962492
  33.2304773  93.4902572 103.9368129  34.4095784  94.4342828 103.8347584
  30.4586509  88.8963650 110.9174588  29.6454375  89.1957821 111.3239780
  30.9545504  88.5019339 111.6349070  32.6095087  98.8921407 112.8508852
  32.5671266  99.1182253 111.9217384  33.5257786  98.6584782 112.9994654
  36.0560721  89.3605475 119.7489482  36.4110109  89.5876948 120.6083947
  36.7032852  89.6923851 119.1266737  41.7858458  92.4823910 110.4538811
  41.6476357  92.6725506 109.5260000  41.4294677  93.2443293 110.9106862
  29.9500584  86.4682006 116.5335823  30.5899964  86.3270765 115.8358786
  29.1178115  86.1816519 116.1574425  41.8127838  94.5500437 115.4650082
  42.2464344  94.4575727 116.3133136  42.5259418  94.5257938 114.8270098
  30.7260888  95.7684436 112.6470815  31.5201487  95.2734756 112.4453390
  30.0152580  95.2402299 112.2838521  27.0343652  89.9127518 108.7230568
  26.1041240  89.8511973 108.9400530  27.1301124  89.3903470 107.9267209
  26.9529201  86.4382331 111.3108810  27.2136018  87.3527664 111.2017970
  27.7746373  85.9706773 111.4605422  42.6743387  94.5924138 117.9982968
  42.8679277  95.4969949 118.2442243  42.5744005  94.1331557 118.8321553
  34.3279698  84.4782029 120.4973295  33.6807613  85.1771978 120.4037771
  35.0980713  84.9118173 120.8649543  34.5043832  92.3162794 118.5570115
  35.4335892  92.4673953 118.3839082  34.0834862  92.4046814 117.7018761
  33.8980316 101.4422554 107.6694189  34.0732072 100.9710598 108.4839812
  33.2113104 102.0688321 107.8975450  34.8537379  95.7195061 113.7157490
  34.5187212  95.6795831 114.6115140  34.3541325  95.0539777 113.2427900
  37.7896571  93.0651095 103.9894550  37.1725742  92.3397923 103.8927602
  37.3213059  93.8260455 103.6461624  29.5795117  87.2836519 103.1115854
  28.7024583  87.1625320 102.7478101  30.0552870  86.4922598 102.8594743
  39.4468110  95.7389587 119.8814310  38.5594889  95.4015509 120.0040709
  40.0166661  95.0072619 120.1183075  32.7659043  99.6362810 110.3578375
  31.9826565 100.1784490 110.4516599  33.4651788 100.1536789 110.7572616
  36.0755693  85.4457439 113.0012580  36.5724392  84.6927401 112.6813650
  35.3042674  85.4821756 112.4355789  43.9285450  91.1497805 114.6430871
  43.9175327  92.0322520 114.2724805  43.0602830  90.7969355 114.4485408
  37.1585474  94.2029126 110.5751003  36.2241752  94.3230589 110.4055708
  37.3362142  93.3001593 110.3111013  32.6590662  87.5874822 112.7284264
  32.2888449  87.0345863 113.4165170  33.1549754  86.9832956 112.1759265
  40.5458025  90.0446446 111.1101037  41.0118477  90.8774437 111.0361340
  40.9965525  89.5791427 111.8146296  38.6134256  96.3890267 108.1087189
  38.8894100  96.2746862 109.0181064  37.7438755  95.9907752 108.0699363
  38.5174688  82.4127033 115.1491939  37.6037768  82.6431259 115.3174146
  38.9467789  82.4965477 116.0005971  38.2881146  90.6016925 117.6491833
  37.6352596  90.8492832 116.9944286  38.6661526  89.7881063 117.3154310
  35.2488320 100.6376618 111.7520003  35.4310715  99.8198274 112.2147755
  36.0721306 100.8544310 111.3144893  35.5830486  99.5644803 109.0135052
  36.1118252  99.0537257 108.4005214  35.8458705  99.2487333 109.8780585
  28.0555995  84.9978813 118.9737371  28.1197322  85.8593644 118.5614768
  27.9923116  84.3852815 118.2409729  24.3073811  88.8778375 108.5528760
  24.6027252  87.9689053 108.4995813  23.4061846  88.8566114 108.2309762
  36.2159889 100.5985639 115.3579168  36.0911029  99.7975378 114.8490114
  36.8738981 101.0931832 114.8693138  27.8368058  86.9534371 114.5356308
  27.1154643  87.5670339 114.3963782  28.6261313  87.4892136 114.4572954
  38.2794798  98.3994659 116.9858718  37.3325133  98.2800010 116.9137045
  38.6277571  97.5117157 117.0684980  30.6394371  84.2888798 120.8096960
  31.1628773  84.5351094 121.5723269  30.4206704  85.1208832 120.3900097
  26.0361652  86.5592472 108.6768085  25.7074358  85.6789851 108.4943191
  26.3901023  86.5040141 109.5644474  35.2841231  98.1947375 113.1863070
  35.1366194  97.2664082 113.3670640  36.1094725  98.2167466 112.7020146
  29.1503475  86.8465442 109.0443563  29.4899548  87.3751363 108.3222171
  29.5975596  87.1845848 109.8202129  38.8875353  99.0175934 114.2727943
  39.8121900  98.8118795 114.1352394  38.7190656  98.7692335 115.1817285
  31.8446916  85.2302493 118.4946631  31.5043737  84.4310306 118.8967310
  31.1385922  85.5304204 117.9223464  32.4963388  82.3151805 116.9473954
  33.3189457  81.8412283 116.8252844  32.7401452  83.0942289 117.4472640
  31.1371623  85.3440064 107.2436855  31.8579985  85.7221316 106.7400572
  30.5136927  86.0628940 107.3471833  35.2802745  86.0485213 108.1795188
  35.4966360  86.9309850 107.8784016  34.7996813  85.6571426 107.4500830
  30.0201967  89.0070926 114.7565932  29.8746548  89.3211229 115.6490214
  29.5427170  89.6255826 114.2036831  31.8798350  85.9973474 114.8046822
  31.8659918  85.1014567 114.4679120  32.5970778  86.0044138 115.4385108
  33.7324480  86.4310814 116.8499949  33.4742258  87.3527885 116.8484280
  33.2009521  86.0341249 117.5400413  38.6770669  99.5361601 109.6290035
  38.8507547  98.9708024 108.8763887  39.1699560 100.3362496 109.4469525
  31.2835246  84.8787854 110.0734392  31.4051157  83.9504500 110.2725279
  30.9937288  84.8926540 109.1612707  34.1526436  82.5642765 113.2101112
  34.1748133  82.6282098 112.2553091  34.5694495  81.7247273 113.4041618
  44.5310060  92.2998024 111.2480334  44.9741206  91.5505349 110.8499458
  43.6536571  92.2908160 110.8654066  39.6645842  98.8528366 106.7286933
  40.3596746  99.4735058 106.9474247  40.0068992  98.0023717 107.0039311
  41.5637265  96.3028071 108.2574264  42.0888589  96.6415344 107.5323584
  41.4759617  95.3675086 108.0737398  41.3729046  93.7853441 120.8758190
  41.4227051  93.6203449 121.8173713  41.2642969  92.9180700 120.4856071
  30.2565305  96.4641987 108.1650279  30.4053425  97.1477451 107.5116952
  31.0631748  96.4447077 108.6799735  38.6632808  89.7684369 122.1917497
  39.5642671  89.6290834 121.9001495  38.7380783  89.9338824 123.1315674
  32.9975614  87.1451224 121.0370683  32.1278923  87.4384790 120.7653272
  33.2335094  87.7291669 121.7577947  42.8747243  96.2050383 121.1200212
  42.5832051  96.5680363 121.9563673  42.2619374  95.4917391 120.9413544
  44.0742925  93.7703262 113.6402782  44.9089816  94.2093066 113.8040342
  44.2102054  93.2941916 112.8211028  41.1234431  91.3282997 119.5880270
  41.5988553  91.5210644 118.7799121  40.1999996  91.3842183 119.3423653
  28.0117938  92.4907164 109.1711348  27.7663979  91.5869494 109.3691558
  28.1813852  92.4924315 108.2290826  35.7014647  83.3630841 118.5536104
  36.2196591  84.0991868 118.2282592  35.3469780  83.6694834 119.3882863
  27.2813585  88.2235522 106.6697509  26.5882830  88.2979877 106.0137545
  27.0365337  87.4595866 107.1919026  35.9527242  79.7831123 114.0737000
  36.2328995  79.1154312 114.6997427  36.7377849  79.9760219 113.5611664
  33.7560710  98.9590117 105.6362026  33.1834677  99.5780304 105.1832498
  34.3293504  99.5089479 106.1701948  39.8236100  88.2048757 117.8208575
  40.7753523  88.3046855 117.8420799  39.6539550  87.4127026 118.3306660
  37.8450479  85.2904341 118.0067976  37.2500412  85.5709353 117.3114465
  37.5600176  85.7798241 118.7784717  36.9757970  99.2427267 106.7670609
  37.9088643  99.1772829 106.9703484  36.8881183 100.0783534 106.3085141
  39.6045987  98.5593138 103.7274556  39.5259618  98.2253001 104.6210314
  40.4255653  99.0514906 103.7266029  42.3024178  91.4254877 116.9350875
  42.2700498  90.4870878 117.1210559  42.9124801  91.5038914 116.2016700
  34.1407509  90.2950930 102.9778079  35.0866613  90.1657138 103.0466497
  33.7621754  89.5565592 103.4547507  42.4518666  88.2165920 116.9809158
  41.9357715  87.4324377 116.7939087  43.3358615  87.8884637 117.1455678
  40.1129393  81.9606936 112.9404971  39.9154214  81.6522024 113.8248303
  40.7229099  82.6868575 113.0702901  48.1200728  92.4870884 116.0756912
  48.8504116  92.2256172 116.6364615  47.5107673  91.7499606 116.1158980
  46.2016025  90.6278746 116.6731363  45.4749188  90.4934711 116.0647854
  45.7863312  90.9355575 117.4788081  32.3250426  88.2200906 102.9132964
  31.4181881  87.9234019 102.9895678  32.6026407  87.9230724 102.0467250
  33.9412491  82.7637796 109.0677205  33.1313220  82.4184881 109.4432452
  34.6296908  82.4545340 109.6564817  35.8703040  81.8415843 110.6901502
  36.4234078  82.2611296 111.3491525  36.1073126  80.9151591 110.7324458
  31.0949210  85.0787842 103.0544943  31.9568374  85.4042740 103.3140761
  31.2799555  84.2919337 102.5418009  39.2481847  83.9516368 110.1980166
  38.6680516  84.6101172 109.8158219  38.9817780  83.1293713 109.7867584
  37.6985413  83.3521426 112.4001487  38.1985192  83.4637960 111.5915806
  38.3421021  83.0482479 113.0402295  38.0306725  86.1116458 109.2536515
  37.1432580  86.3966109 109.0356709  38.4460714  85.9510222 108.4063792
  41.3821261  86.1362979 112.9690854  42.1581651  86.6259432 113.2415471
  40.6569395  86.5621034 113.4262723  43.8193820  86.8490599 114.0264794
  44.4138310  86.6086335 113.3158103  43.8920403  86.1297729 114.6538331
  37.1749938  95.8761133 103.3484535  37.8785788  96.0811136 103.9642190
  36.4512587  96.4437895 103.6133618  38.0047749  91.6270994 109.4686805
  37.9482950  92.0839546 108.6294437  38.5576091  90.8661679 109.2909648
  41.8152555  87.4160726 110.2936924  41.5589489  87.0157362 111.1245132
  41.1905423  88.1304520 110.1687063  46.1264892  90.1556799 112.8008216
  45.5664450  90.2249989 113.5739778  45.5208396  89.9797784 112.0807712
  39.0836636  96.3143662 105.3982995  39.9182240  95.8824861 105.2160469
  38.9220979  96.1425676 106.3259889  38.7382528  92.8175776 106.7639334
  38.6831332  92.6520047 105.8227778  38.1128583  93.5251808 106.9201524
  32.0478653  82.3183885 106.3424652  32.0357323  83.2625725 106.4992923
  32.9402075  82.1354030 106.0484114  35.8630773  78.9126661 110.5970589
  35.0963169  78.3585148 110.7427272  36.2741478  78.9848530 111.4584741
  40.3797433 108.6376218 111.4196587  39.8162298 108.5466155 110.6512875
  40.2649828 107.8176122 111.8999080  45.9596992 112.3047186 106.7311052
  45.3084971 112.8901266 106.3445066  46.7541354 112.8353381 106.7906089
  39.8852619 109.3936323 107.1298186  40.6583495 108.8465310 106.9911062
  40.2378018 110.2580572 107.3412648  42.2218897 105.5528989 104.7616636
  42.4744417 105.0310510 104.0000099  41.2843456 105.3895134 104.8643320
  47.2662179 104.5564767 112.5691379  48.0525269 104.1384190 112.2181796
  47.5300884 105.4610859 112.7373028  47.4372257 109.9937618 107.2680036
  46.8018090 110.0672244 107.9800941  47.1069663 110.5831216 106.5899116
  41.9415185 107.4557095 106.9641011  41.8251443 106.7801998 107.6322095
  42.0517445 106.9689469 106.1473164  44.2846726 106.9167242 110.6687700
  43.9204933 106.3897863 111.3800622  45.1413842 106.5265711 110.4954186
  43.9252213 101.9457142 105.6649049  44.0926615 102.8137378 106.0319520
  43.7349382 102.1084423 104.7410338  40.1340028 106.8587917 113.3651584
  39.2090524 106.7264131 113.5729275  40.3824441 107.6382137 113.8621526
  43.9041434 104.4014799 106.6495716  43.7841059 104.8471850 107.4881196
  43.2094022 104.7500117 106.0909254  49.6026500 104.8736272 107.4776050
  50.5144356 105.1063659 107.3023747  49.0936147 105.4573317 106.9151128
  46.9462475 101.0494308 115.7265911  46.0846954 101.3475562 116.0182648
  46.9724910 101.2664707 114.7946943  43.7624044 109.5936499 112.1339716
  44.2262390 109.8724202 111.3444339  43.4980842 108.6919943 111.9512807
  42.6992930 105.7159651 108.9429281  43.4016974 106.1680695 109.4103208
  42.3673559 105.0743470 109.5709175  36.4418264 103.9743204 114.2446415
  35.6517318 104.2300732 113.7686526  36.9329512 104.7891542 114.3498456
  38.3933010 104.3387783 111.2029892  37.5964173 104.4506477 111.7213387
  38.1658602 104.6774435 110.3370782  43.9386695 112.5300594 109.0191387
  43.8032370 113.3752130 109.4476235  44.4796508 112.7319871 108.2557321
  37.3916092 110.0476032 109.5919312  37.9040613 110.8419282 109.7424876
  38.0438805 109.3502322 109.5252913  39.2010977 113.1641788 111.6742065
  39.3777605 114.0859753 111.4863049  39.9967811 112.8500207 112.1036445
  47.2879159  96.0531156 117.5490280  46.9443428  96.9432797 117.4729391
  47.6558121  95.8632813 116.6859865  35.3565009 108.3764686 110.3678882
  36.1940231 108.7861695 110.1512590  35.5343277 107.4364128 110.3379076
  47.2529441 106.0439767 106.0562715  46.7376065 106.8144371 106.2951103
  46.9806750 105.3704903 106.6795777  44.8376552 100.8889468 111.1147954
  43.9818149 100.4996318 110.9353592  45.2503504 100.9681428 110.2547739
  46.3675699  98.4235811 115.5139513  45.8640495  98.3865946 114.7007319
  46.6606306  99.3328554 115.5736170  42.6118585  98.5074541 114.5205695
  43.4771582  98.3117349 114.1611585  42.6796094  98.2784892 115.4475052
  52.2263715 108.7972121 107.9915889  51.4493158 108.4583281 107.5471051
  52.9055196 108.8024745 107.3170854  47.0415744 103.9166859 107.8822496
  46.7365880 104.2313008 108.7332640  47.9946187 103.9948279 107.9249829
  45.4862176 110.0757082 109.5315450  44.9583538 109.3409842 109.2188688
  44.9849679 110.8531759 109.2855419  40.2180904 100.7376749 111.8922062
  40.7924656 100.5151930 111.1595255  40.8051886 100.8065443 112.6450663
  40.5450491 102.7681210 105.9117947  39.7087803 103.1055896 106.2327222
  40.4055261 102.6330189 104.9745084  42.5203572  97.6117997 110.6197131
  41.8667984  97.2967015 109.9953746  42.4784046  96.9893738 111.3456954
  43.6314777 107.8937293 102.5350423  42.7241838 107.6626546 102.7341572
  44.1285809 107.0974912 102.7224405  46.5382855 116.6034800 105.4547110
  45.8644554 116.9066496 106.0632067  46.9248677 117.4063880 105.1052567
  45.7541312 104.0999931 114.9444779  44.8363873 104.3214878 114.7866467
  46.1701456 104.1746241 114.0856486  46.5376360 105.4991347 110.0747459
  47.2848179 106.0112744 109.7654581  46.8067949 105.1775399 110.9351853
  44.8103010 107.9949887 107.0574414  43.9014229 107.7108920 107.1546883
  44.8398094 108.4148966 106.1977720  48.9855197 102.5348463 112.0566249
  48.2477954 102.0225849 112.3876491  49.2381970 102.0948845 111.2449525
  49.0866824  95.3124715 112.6508018  49.3925701  94.4522078 112.3633933
  49.8119429  95.9042335 112.4507012  35.3791180 105.7155401 111.0389616
  35.1815580 105.1224762 110.3140682  34.8237844 105.4107612 111.7565555
  43.3587904 105.6078508 113.1584209  43.4136514 104.6552344 113.0826686
  42.5479106 105.7637947 113.6425507  44.5079098 109.5358631 104.3962492
  44.0698528 108.8194490 103.9368129  45.2489539 109.7634746 103.8347584
  41.2980264 104.2255568 110.9174588  40.4848129 104.5249738 111.3239780
  41.7939258 103.8311256 111.6349070  52.6252213 107.8115828 110.4538811
  52.4870111 108.0017424 109.5260000  52.2688431 108.5735211 110.9106862
  40.7894339 101.7973923 116.5335823  41.4293718 101.6562682 115.8358786
  39.9571869 101.5108437 116.1574425  41.5654643 111.0976354 112.6470815
  42.3595241 110.6026674 112.4453390  40.8546335 110.5694217 112.2838521
  37.8737406 105.2419435 108.7230568  36.9434994 105.1803891 108.9400530
  37.9694878 104.7195388 107.9267209  37.7922955 101.7674248 111.3108810
  38.0529772 102.6819581 111.2017970  38.6140127 101.2998691 111.4605422
  44.7374071 116.7714472 107.6694189  44.9125826 116.3002515 108.4839812
  44.0506859 117.3980238 107.8975450  48.6290325 108.3943013 103.9894550
  48.0119496 107.6689841 103.8927602  48.1606814 109.1552373 103.6461624
  40.4188871 102.6128437 103.1115854  39.5418338 102.4917238 102.7478101
  40.8946624 101.8214515 102.8594743  46.9149447 100.7749357 113.0012580
  47.4118147 100.0219319 112.6813650  46.1436429 100.8113673 112.4355789
  47.9979228 109.5321044 110.5751003  47.0635507 109.6522506 110.4055708
  48.1755897 108.6293511 110.3111013  43.4984416 102.9166740 112.7284264
  43.1282204 102.3637780 113.4165170  43.9943509 102.3124873 112.1759265
  51.3851779 105.3738363 111.1101037  51.8512232 106.2066355 111.0361340
  51.8359280 104.9083345 111.8146296  49.4528011 111.7182185 108.1087189
  49.7287854 111.6038779 109.0181064  48.5832509 111.3199669 108.0699363
  49.3568442  97.7418950 115.1491939  48.4431522  97.9723177 115.3174146
  49.7861544  97.8257394 116.0005971  46.4224240 114.8936721 109.0135052
  46.9512007 114.3829175 108.4005214  46.6852460 114.5779251 109.8780585
  38.8949750 100.3270731 118.9737371  38.9591076 101.1885561 118.5614768
  38.8316870  99.7144732 118.2409729  35.1467565 104.2070292 108.5528760
  35.4421006 103.2980971 108.4995813  34.2455601 104.1858032 108.2309762
  38.6761812 102.2826289 114.5356308  37.9548398 102.8962257 114.3963782
  39.4655068 102.8184054 114.4572954  36.8755407 101.8884390 108.6768085
  36.5468113 101.0081769 108.4943191  37.2294777 101.8332059 109.5644474
  39.9897230 102.1757360 109.0443563  40.3293302 102.7043281 108.3222171
  40.4369350 102.5137766 109.8202129  42.6840671 100.5594410 118.4946631
  42.3437491  99.7602223 118.8967310  41.9779677 100.8596121 117.9223464
  43.3357143  97.6443723 116.9473954  44.1583212  97.1704201 116.8252844
  43.5795206  98.4234207 117.4472640  41.9765377 100.6731981 107.2436855
  42.6973740 101.0513234 106.7400572  41.3530681 101.3920858 107.3471833
  46.1196500 101.3777130 108.1795188  46.3360114 102.2601768 107.8784016
  45.6390567 100.9863344 107.4500830  40.8595721 104.3362843 114.7565932
  40.7140302 104.6503147 115.6490214  40.3820925 104.9547744 114.2036831
  42.7192104 101.3265391 114.8046822  42.7053673 100.4306485 114.4679120
  43.4364532 101.3336055 115.4385108  44.5718235 101.7602732 116.8499949
  44.3136013 102.6819802 116.8484280  44.0403275 101.3633166 117.5400413
  42.1229000 100.2079772 110.0734392  42.2444911  99.2796418 110.2725279
  41.8331042 100.2218458 109.1612707  44.9920190  97.8934682 113.2101112
  45.0141887  97.9574015 112.2553091  45.4088249  97.0539191 113.4041618
  50.5039596 114.1820283 106.7286933  51.1990501 114.8026976 106.9474247
  50.8462746 113.3315634 107.0039311  52.4031019 111.6319989 108.2574264
  52.9282343 111.9707261 107.5323584  52.3153372 110.6967004 108.0737398
  41.0959059 111.7933904 108.1650279  41.2447179 112.4769369 107.5116952
  41.9025503 111.7738994 108.6799735  38.8511692 107.8199082 109.1711348
  38.6057734 106.9161412 109.3691558  39.0207607 107.8216233 108.2290826
  38.1207340 103.5527440 106.6697509  37.4276585 103.6271795 106.0137545
  37.8759091 102.7887783 107.1919026  46.7920996  95.1123041 114.0737000
  47.0722750  94.4446230 114.6997427  47.5771603  95.3052137 113.5611664
  44.5954465 114.2882035 105.6362026  44.0228432 114.9072222 105.1832498
  45.1687258 114.8381397 106.1701948  47.8151724 114.5719185 106.7670609
  48.7482398 114.5064747 106.9703484  47.7274937 115.4075452 106.3085141
  50.4439741 113.8885055 103.7274556  50.3653373 113.5544919 104.6210314
  51.2649408 114.3806823 103.7266029  44.9801263 105.6242848 102.9778079
  45.9260368 105.4949056 103.0466497  44.6015508 104.8857510 103.4547507
  50.9523148  97.2898854 112.9404971  50.7547969  96.9813942 113.8248303
  51.5622853  98.0160493 113.0702901  43.1644180 103.5492824 102.9132964
  42.2575636 103.2525937 102.9895678  43.4420161 103.2522642 102.0467250
  44.7806246  98.0929714 109.0677205  43.9706974  97.7476799 109.4432452
  45.4690663  97.7837257 109.6564817  46.7096794  97.1707761 110.6901502
  47.2627833  97.5903214 111.3491525  46.9466881  96.2443509 110.7324458
  41.9342965 100.4079759 103.0544943  42.7962129 100.7334658 103.3140761
  42.1193309  99.6211255 102.5418009  50.0875601  99.2808286 110.1980166
  49.5074270  99.9393090 109.8158219  49.8211534  98.4585630 109.7867584
  48.5379168  98.6813343 112.4001487  49.0378946  98.7929878 111.5915806
  49.1814776  98.3774396 113.0402295  48.8700479 101.4408376 109.2536515
  47.9826334 101.7258027 109.0356709  49.2854468 101.2802139 108.4063792
  52.2215015 101.4654897 112.9690854  52.9975406 101.9551350 113.2415471
  51.4963150 101.8912951 113.4262723  48.0143693 111.2053051 103.3484535
  48.7179543 111.4103053 103.9642190  47.2906342 111.7729813 103.6133618
  48.8441503 106.9562912 109.4686805  48.7876704 107.4131463 108.6294437
  49.3969846 106.1953597 109.2909648  52.6546309 102.7452644 110.2936924
  52.3983243 102.3449280 111.1245132  52.0299177 103.4596438 110.1687063
  49.9230390 111.6435580 105.3982995  50.7575994 111.2116778 105.2160469
  49.7614733 111.4717594 106.3259889  49.5776282 108.1467693 106.7639334
  49.5225086 107.9811965 105.8227778  48.9522338 108.8543726 106.9201524
  42.8872408  97.6475802 106.3424652  42.8751078  98.5917642 106.4992923
  43.7795830  97.4645948 106.0484114  46.7024527  94.2418579 110.5970589
  45.9356923  93.6877066 110.7427272  47.1135232  94.3140448 111.4584741
  51.3844246 118.0973127 105.9117947  50.5481558 118.4347814 106.2327222
  51.2449015 117.9622107 104.9745084  51.2582626 117.9420355 103.1115854
  50.3812092 117.8209155 102.7478101  51.7340379 117.1506433 102.8594743
  48.9601094 118.8819357 106.6697509  48.2670339 118.9563712 106.0137545
  48.7152846 118.1179701 107.1919026  54.0037935 118.8784742 102.9132964
  53.0969390 118.5817854 102.9895678  54.2813916 118.5814560 102.0467250
  52.7736719 115.7371677 103.0544943  53.6355883 116.0626575 103.3140761
  52.9587064 114.9503173 102.5418009  53.7266162 112.9767720 106.3424652
  53.7144832 113.9209560 106.4992923  54.6189584 112.7937865 106.0484114
   3.1807839  32.2929252  92.1792416   2.5069537  32.5960948  92.7877374
   3.5673661  33.0958332  91.8297873   7.1464579  29.8714735  93.4532239
   7.8415484  30.4921428  93.6719554   7.4887730  29.0210086  93.7284617
   1.2379448  29.9776487  92.3607333   0.6653415  30.5966674  91.9077805
   1.8112242  30.5275848  92.8947255   4.4576708  30.2613637  93.4915915
   5.3907381  30.1959199  93.6948791   4.3699920  31.0969904  93.0330448
   7.0864724  29.5779507  90.4519863   7.0078356  29.2439371  91.3455621
   7.9074391  30.0701275  90.4511335   4.6568676  26.8947503  90.0729841
   5.3604526  27.0997505  90.6887497   3.9331325  27.4624265  90.3378925
   6.5655374  27.3330032  92.1228301   7.4000977  26.9011230  91.9405776
   6.4039716  27.1612046  93.0505196  15.1939649  37.8499683 102.2183478
  15.8318059  37.7306430 101.5146818  15.0760492  38.7980527 102.2771430
   7.8616171  39.6562587  98.1441894   7.2981036  39.5652524  97.3758181
   7.7468566  38.8362492  98.6244386  13.4415729  43.3233555  93.4556359
  12.7903709  43.9087636  93.0690372  14.2360092  43.8539750  93.5151396
   7.3671356  40.4122692  93.8543493   8.1402232  39.8651679  93.7156369
   7.7196755  41.2766942  94.0657954   9.7037634  36.5715358  91.4861943
   9.9563155  36.0496880  90.7245406   8.7662193  36.4081504  91.5888626
  14.7480917  35.5751137  99.2936686  15.5344006  35.1570560  98.9427103
  15.0119621  36.4797229  99.4618334  14.9190994  41.0123987  93.9925343
  14.2836827  41.0858614  94.7046248  14.5888401  41.6017586  93.3144422
  20.1489344  35.5126370 100.1969665  20.8814516  34.9425587 100.4307494
  19.3928700  35.1247970 100.6376170   9.4233923  38.4743464  93.6886318
   9.3070181  37.7988368  94.3567402   9.5336183  37.9875838  92.8718471
  11.7665464  37.9353612  97.3933007  11.4023671  37.4084232  98.1045929
  12.6232580  37.5452081  97.2199492  11.4070951  32.9643511  92.3894356
  11.5745353  33.8323748  92.7564827  11.2168120  33.1270793  91.4655645
  11.3860172  35.4201169  93.3741022  11.2659797  35.8658219  94.2126503
  10.6912760  35.7686486  92.8154561   9.1467064  48.1904810  97.0231154
   9.0691094  49.1412636  97.1019634   8.5428708  47.8450683  97.6806080
  17.0845238  35.8922642  94.2021356  17.9963094  36.1250029  94.0269054
  16.5754885  36.4759686  93.6396435  15.6914820  40.8748460 101.5934938
  15.0623683  41.0394174 100.8911006  15.3040482  41.2890070 102.3645902
  19.5704052  41.8102898  98.9479302  18.8855090  42.1901800  98.3976335
  19.6547901  42.4198225  99.6811249  11.2442782  40.6122868  98.8585023
  11.7081128  40.8910571  98.0689645  10.9799580  39.7106313  98.6758114
  10.1811668  36.7346021  95.6674588  10.8835712  37.1867064  96.1348514
   9.8492297  36.0929840  96.2954481  17.9400812  42.3334813 103.7197003
  18.7618255  41.9315000 103.4379684  17.9363215  42.2303047 104.6713118
  26.0306805  38.6773561 100.0681974  25.2770513  38.1080959  99.9125978
  26.1654346  38.6436226 101.0152609  11.4205433  43.5486963  95.7436693
  11.2851108  44.3938499  96.1721541  11.9615245  43.7506241  94.9802627
   4.8734830  41.0662401  96.3164618   5.3859351  41.8605652  96.4670183
   5.5257543  40.3688692  96.2498220   6.6829715  44.1828158  98.3987372
   6.8596343  45.1046122  98.2108356   7.4786548  43.8686577  98.8281751
   7.8061030  45.7006332 104.3997714   8.3568456  45.5723395 103.6274708
   6.9672506  46.0001221 104.0492607   2.8383747  39.3951056  97.0924189
   3.6758969  39.8048064  96.8757897   3.0162015  38.4550498  97.0624383
  14.7348179  37.0626136  92.7808022  14.2194803  37.8330741  93.0196409
  14.4625488  36.3891273  93.4041083  12.3195290  31.9075837  97.8393260
  11.4636886  31.5182688  97.6598899  12.7322242  31.9867798  96.9793046
  19.7082453  39.8158491  94.7161195  18.9311896  39.4769651  94.2716357
  20.3873934  39.8211114  94.0416160  14.5234482  34.9353228  94.6067803
  14.2184618  35.2499378  95.4577946  15.4764924  35.0134648  94.6495136
  12.9680914  41.0943452  96.2560757  12.4402276  40.3596211  95.9433995
  12.4668417  41.8718128  96.0100725  17.9473760  39.2892472 101.3727803
  17.2897435  39.9791734 101.4607932  18.7514159  39.6788904 101.7161790
  16.7579219  37.6436845  99.4231745  17.2711101  38.2766837  99.9253455
  17.4080443  37.0438040  99.0575105   8.0269229  33.7867579  92.6363254
   7.1906541  34.1242266  92.9572529   7.8873998  33.6516559  91.6990391
  11.1133514  38.9123662  89.2595730  10.2060576  38.6812916  89.4586879
  11.6104546  38.1161281  89.4469712  14.0201593  47.6221169  92.1792416
  13.3463292  47.9252866  92.7877374  14.4067415  48.4250250  91.8297873
  14.0195098  36.5177716  96.7992766  14.7666917  37.0299113  96.4899888
  14.2886687  36.1961769  97.6597159  12.2921748  39.0136257  93.7819720
  11.3832967  38.7295290  93.8792190  12.3216832  39.4335336  92.9223027
  17.5241015  42.6242846  97.5510888  17.0703342  41.7833756  97.6076078
  16.8934982  43.2604245  97.8885668  16.4673935  33.5534832  98.7811555
  15.7296692  33.0412219  99.1121798  16.7200708  33.1135214  97.9694832
  15.9673954  44.4619343  98.4860706  16.2596929  45.0224400  97.7673072
  16.4772575  44.7547904  99.2413865  10.8406642  36.6264878  99.8829516
  10.8955252  35.6738714  99.8071992  10.0297844  36.7824317 100.3670814
  11.9897836  40.5545001  91.1207799  11.5517265  39.8380860  90.6613436
  12.7308276  40.7821115  90.5592890   8.7799002  35.2441937  97.6419894
   7.9666867  35.5436108  98.0485087   9.2757996  34.8497626  98.3594377
  10.9307580  45.2399694  99.5754159  10.8883758  45.4660541  98.6462691
  11.8470278  45.0063069  99.7239960  20.1070950  38.8302198  97.1784117
  19.9688849  39.0203794  96.2505307  19.7507169  39.5921580  97.6352168
  20.1340330  40.8978725 102.1895389  20.5676837  40.8054014 103.0378443
  20.8471911  40.8736225 101.5515405   9.0473380  42.1162723  99.3716122
   9.8413979  41.6213043  99.1698697   8.3365073  41.5880586  99.0083827
  13.8668225  44.4980819 103.7228489  13.9205247  45.0671755 104.4906205
  12.9983006  44.6682704 103.3582527   5.3556144  36.2605805  95.4475875
   4.4253732  36.1990260  95.6645837   5.4513616  35.7381758  94.6512516
  20.9955880  40.9402425 104.7228274  21.1891770  41.8448236 104.9687549
  20.8956498  40.4809844 105.5566859  11.6244656  42.6891745 103.0513959
  11.4855742  42.3210530 103.9239897  10.8359253  43.2039385 102.8797917
  12.2192808  47.7900842  94.3939495  12.3944564  47.3188885  95.2085118
  11.5325596  48.4166608  94.6220756  13.1749872  42.0673348 100.4402797
  12.8399704  42.0274118 101.3360447  12.6753817  41.4018064  99.9673207
  16.1109063  39.4129382  90.7139856  15.4938234  38.6876210  90.6172909
  15.6425552  40.1738743  90.3706931   6.7853894  50.9390204 101.1679356
   7.0250492  51.5708729 101.8458374   5.9423090  50.5878244 101.4544715
   7.9007609  33.6314807  89.8361161   7.0237075  33.5103607  89.4723407
   8.3765362  32.8400885  89.5840049  11.2981755  46.7469327 103.5720860
  11.2251927  47.5524298 104.0840164  10.8559149  46.9461293 102.7468881
  11.0871535  45.9841097  97.0823681  10.3039057  46.5262777  97.1761906
  11.7864280  46.5015077  97.4817922  22.2497943  37.4976092 101.3676178
  22.2387819  38.3800807 100.9970111  21.3815322  37.1447643 101.1730715
  13.7580439  46.6456161 105.7279018  14.4708411  47.2803626 105.6554920
  13.2670468  46.7420027 104.9119020  15.4797966  40.5507414  97.2996310
  14.5454245  40.6708876  97.1301014  15.6574634  39.6479880  97.0356320
  18.8670517  36.3924733  97.8346344  19.3330969  37.2252724  97.7606647
  19.3178018  35.9269714  98.5391603  16.9346748  42.7368554  94.8332496
  17.2106592  42.6225149  95.7426370  16.0651247  42.3386039  94.7944669
  13.5700812  46.9854905  98.4765310  13.7523207  46.1676561  98.9393062
  14.3933798  47.2022597  98.0390200  13.9042978  45.9123090  95.7380358
  14.4330744  45.4015545  95.1250520  14.1671197  45.5965620  96.6025891
   7.2598726  46.9638207  98.4978134   6.5909101  47.4484334  98.0142174
   7.1211596  47.2107427  99.4121513  11.4003994  48.9981950 105.0960793
  11.9522302  49.1613572 105.8609878  11.7410188  49.5886388 104.4240817
   2.6286303  35.2256662  95.2774066   2.9239744  34.3167340  95.2241120
   1.7274339  35.2044401  94.9555069  14.5372382  46.9463926 102.0824475
  14.4123521  46.1453666 101.5735420  15.1951473  47.4410119 101.5938445
  16.6007290  44.7472946 103.7104025  15.6537626  44.6278297 103.6382352
  16.9490063  43.8595444 103.7930286  13.6053723  44.5425662  99.9108377
  13.4578686  43.6142370 100.0915947  14.4307217  44.5645753  99.4265452
   7.4715968  33.1943729  95.7688869   7.8112040  33.7229651  95.0467478
   7.9188088  33.5324135  96.5447436  17.2087845  45.3654221 100.9973250
  18.1334393  45.1597082 100.8597701  17.0403149  45.1170622 101.9062591
   9.4584115  31.6918351  93.9682162  10.1792477  32.0699604  93.4645879
   8.8349419  32.4107228  94.0717140  13.6015238  32.3963500  94.9040494
  13.8178852  33.2788138  94.6029322  13.1209305  32.0049713  94.1746136
  16.9983161  45.8839888  96.3535341  17.1720039  45.3186311  95.6009194
  17.4912053  46.6840783  96.1714831  22.8522553  38.6476311  97.9725641
  23.2953699  37.8983636  97.5744764  21.9749063  38.6386448  97.5899373
  17.9858334  45.2006653  93.4532239  18.6809239  45.8213345  93.6719554
  18.3281484  44.3502004  93.7284617  19.8849757  42.6506358  94.9819570
  20.4101081  42.9893631  94.2568890  19.7972110  41.7153374  94.7982705
  11.5690418  48.7178342  99.3414823  11.1295408  48.2254720 100.0347680
  12.3198535  48.1751309  99.1006899   4.0482757  44.9089882  99.3439452
   4.8740777  44.6093654  98.9638095   3.6976809  44.1397505  99.7929240
   9.0164290  44.2616351 101.4137125   8.3944299  43.5987056 101.1139353
   9.6869157  44.2877483 100.7310773   8.5777797  42.8120274  94.8895586
   8.7265917  43.4955738  94.2362258   9.3844240  42.7925364  95.4045041
  22.3955417  40.1181550 100.3648089  23.2302309  40.5571354 100.5285649
  22.5314546  39.6420203  99.5456334   6.3330430  38.8385452  95.8956655
   6.0876472  37.9347782  96.0936865   6.5026344  38.8402602  94.9536133
   5.6026077  34.5713809  93.3942816   4.9095322  34.6458164  92.7382852
   5.3577829  33.8074153  93.9164333  12.0773202  45.3068404  92.3607333
  11.5047169  45.9258592  91.9077805  12.6505996  45.8567766  92.8947255
  15.2970462  45.5905555  93.4915915  16.2301135  45.5251116  93.6948791
  15.2093675  46.4261821  93.0330448  17.9258479  44.9071425  90.4519863
  17.8472110  44.5731289  91.3455621  18.7468146  45.3993193  90.4511335
  20.6236670  37.7733164 103.6596182  20.5912990  36.8349165 103.8455865
  21.2337294  37.8517201 102.9262006  12.4620001  36.6429217  89.7023386
  13.4079106  36.5135425  89.7711804  12.0834246  35.9043879  90.1792814
  26.4413220  38.8349171 102.8002218  27.1716608  38.5734459 103.3609922
  25.8320165  38.0977893 102.8404286  24.5228517  36.9757034 103.3976670
  23.7961681  36.8412999 102.7893161  24.1075804  37.2833862 104.2033388
  10.6462918  34.5679194  89.6378271   9.7394373  34.2712306  89.7140984
  10.9238899  34.2709012  88.7712557  12.2624984  29.1116083  95.7922512
  11.4525712  28.7663168  96.1677758  12.9509401  28.8023627  96.3810124
   9.4161703  31.4266129  89.7790250  10.2780867  31.7521027  90.0386067
   9.6012047  30.6397625  89.2663316  17.5694339  30.2994655  96.9225473
  16.9893008  30.9579459  96.5403525  17.3030272  29.4772000  96.5112890
  16.3519217  32.4594746  95.9781821  15.4645072  32.7444396  95.7602016
  16.7673206  32.2988509  95.1309098  19.7033753  32.4841267  99.6936160
  20.4794143  32.9737719  99.9660777  18.9781887  32.9099321 100.1508030
  22.1406312  33.1968886 100.7510101  22.7350803  32.9564622 100.0403409
  22.2132896  32.4776016 101.3783637   4.3603468  47.0402497 101.0653266
   4.2257936  46.2802898 100.4991264   3.9435530  47.7643397 100.5982055
  15.4962431  42.2239420  90.0729841  16.1998281  42.4289423  90.6887497
  14.7725079  42.7916182  90.3378925  16.3260241  37.9749282  96.1932111
  16.2695442  38.4317833  95.3539744  16.8788583  37.2139966  96.0154954
  20.1365047  33.7639013  97.0182231  19.8801981  33.3635649  97.8490439
  19.5117915  34.4782807  96.8932370  24.4477385  36.5035087  99.5253522
  23.8876943  36.5728276 100.2985084  23.8420888  36.3276071  98.8053019
   7.5172593  47.9371814 101.2771709   7.4004978  48.8817246 101.1750399
   6.6965040  47.6345375 101.6657508  17.4049128  42.6621950  92.1228301
  18.2394732  42.2303148  91.9405776  17.2433471  42.4903963  93.0505196
  17.0595020  39.1654063  93.4884641  17.0043824  38.9998334  92.5473085
  16.4341075  39.8730096  93.6446830  10.3691146  28.6662172  93.0669959
  10.3569815  29.6104012  93.2238230  11.2614568  28.4832317  92.7729420
   8.5427108  48.5900076 104.4927637   9.4454354  48.6223686 104.8094132
   8.3164478  47.6600527 104.5073973  10.2980710  47.3431062 101.1537716
   9.3476341  47.3432924 101.0402088  10.6013196  46.5963797 100.6373750
  26.0333403  53.1791601 102.2183478  26.6711813  53.0598348 101.5146818
  25.9154246  54.1272445 102.2771430  22.8423109  53.1319029 102.1545003
  22.5041621  53.0160093 101.2665538  23.7112878  52.7310194 102.1346009
  18.7009925  54.9854505  98.1441894  18.1374790  54.8944442  97.3758181
  18.5862320  54.1654410  98.6244386  23.3242892  54.2853880 108.1131208
  23.3131533  53.8906679 107.2411712  23.4863532  53.5519953 108.7064980
  16.2474357  56.4805697 100.9826114  17.0395649  56.1396521 100.5672413
  16.4871007  56.5900672 101.9028267  24.2809484  58.6525473  93.4556359
  23.6297464  59.2379553  93.0690372  25.0753847  59.1831668  93.5151396
  18.2065111  55.7414610  93.8543493  18.9795987  55.1943597  93.7156369
  18.5590510  56.6058859  94.0657954  20.0450154  57.0690992 107.0610392
  19.7540019  57.9736623 106.9457059  20.6807138  57.1107520 107.7754462
  20.9706360  54.4467841 103.6511752  21.5669933  54.2223863 102.9368715
  21.0281332  53.7052586 104.2537200  20.5431389  51.9007276  91.4861943
  20.7956909  51.3788797  90.7245406  19.6055948  51.7373422  91.5888626
  25.5874672  50.9043054  99.2936686  26.3737761  50.4862478  98.9427103
  25.8513376  51.8089147  99.4618334  25.7584749  56.3415905  93.9925343
  25.1230582  56.4150531  94.7046248  25.4282155  56.9309504  93.3144422
  20.2627678  53.8035382  93.6886318  20.1463936  53.1280285  94.3567402
  20.3729937  53.3167756  92.8718471  22.6059218  53.2645529  97.3933007
  22.2417426  52.7376150  98.1045929  23.4626334  52.8743998  97.2199492
  28.5108519  44.5539862 104.6564273  28.1791844  45.4235273 104.4325488
  27.9154132  44.2376146 105.3358304  22.2464705  48.2935429  92.3894356
  22.4139108  49.1615665  92.7564827  22.0561874  48.4562711  91.4655645
  25.0040039  56.7552408 104.0560186  24.7040762  57.6577447 103.9475993
  24.6591098  56.4884591 104.9081339  18.4552520  53.2066205 100.0896890
  17.5303017  53.0742419 100.2974582  18.7036933  53.9860424 100.5866833
  28.4037182  49.2734948 101.7357623  27.4954060  49.2050356 101.4416384
  28.3524778  49.7506893 102.5639449  22.2253926  50.7493086  93.3741022
  22.1053551  51.1950137  94.2126503  21.5306515  51.0978404  92.8154561
  15.8161331  52.8499478 100.9240679  15.9453712  53.1033957 101.8380091
  15.1358782  53.4427186 100.6045334  19.9860818  63.5196728  97.0231154
  19.9084848  64.4704553  97.1019634  19.3822462  63.1742601  97.6806080
  22.4778048  50.6924594 109.6792521  21.7011382  51.2518514 109.6695385
  23.1168611  51.1781377 110.2007391  30.2698829  47.4751386 103.5135497
  29.6273209  47.7683920 102.8675292  29.7653757  47.3604307 104.3188694
  27.9238992  51.2214560  94.2021356  28.8356849  51.4541946  94.0269054
  27.4148640  51.8051604  93.6396435  20.7324420  53.5010047 109.2410488
  21.4739105  54.0395091 108.9645311  20.0261406  54.1276336 109.3982039
  26.2079760  55.6439187 107.8382649  26.6163116  55.2021598 107.0937281
  25.4857022  55.0691815 108.0916842  22.5610830  50.5811794 105.2116206
  23.4072025  51.0051208 105.3550855  22.5009468  49.9245418 105.9054769
  26.5308575  56.2040378 101.5934938  25.9017437  56.3686092 100.8911006
  26.1434237  56.6181988 102.3645902  30.4097807  57.1394816  98.9479302
  29.7248845  57.5193717  98.3976335  30.4941656  57.7490143  99.6811249
  25.7110275  48.2416163 106.8697380  25.4671207  48.9958223 106.3331655
  25.9870206  48.6201510 107.7044627  27.6648738  54.7854775 105.5474645
  27.8765634  55.4286535 104.8709026  27.6178487  53.9517091 105.0796575
  25.2674967  47.3972596 102.4511217  24.4059446  47.6953849 102.7427955
  25.2937402  47.6142994 101.5192250  22.0836537  55.9414786  98.8585023
  22.5474882  56.2202489  98.0689645  21.8193335  55.0398231  98.6758114
  18.9760618  55.4886268 101.7964786  19.5461975  55.9173536 101.1582271
  19.5668730  55.2068852 102.4948972  21.0205423  52.0637938  95.6674588
  21.7229466  52.5158982  96.1348514  20.6886051  51.4221757  96.2954481
  19.4685784  50.6549695 110.0425798  18.8384445  51.3365976 110.2761194
  19.3621872  50.5432777 109.0978936  14.7630757  50.3221491 100.9691722
  13.9729811  50.5779020 100.4931832  15.2542004  51.1369829 101.0743762
  28.7794566  57.6626730 103.7197003  29.6012010  57.2606918 103.4379684
  28.7756969  57.5594964 104.6713118  16.7145502  50.6866070  97.9275198
  15.9176665  50.7984765  98.4458694  16.4871094  51.0252723  97.0616089
  22.5451170  57.2110774 105.8757713  22.6095602  57.6731181 106.7115885
  21.8362094  56.5808139 106.0040023  13.0468460  50.5751982 103.4006712
  13.2976498  51.4598991 103.6664288  13.5828008  50.3956583 102.6281804
  22.2599187  58.8778881  95.7436693  22.1244862  59.7230417  96.1721541
  22.8009000  59.0798159  94.9802627  15.7128585  56.3954319  96.3164618
  16.2253105  57.1897569  96.4670183  16.3651298  55.6980610  96.2498220
  17.5223469  59.5120075  98.3987372  17.6990098  60.4338040  98.2108356
  18.3180303  59.1978495  98.8281751  21.6634488  46.3728340 109.9971305
  22.4044201  46.9735493 109.9175768  21.8952411  45.6305978 109.4389348
  16.8075826  51.5584707 108.2749535  16.6929341  50.6569965 108.5756634
  15.9520344  51.8048404 107.9234351  23.8867664  59.5002448 109.8737035
  23.4431518  58.7138826 109.5557940  24.5484877  59.6881598 109.2080926
  18.6454785  61.0298249 104.3997714  19.1962210  60.9015313 103.6274708
  17.8066261  61.3293138 104.0492607  25.9848902  59.7805248 107.9018437
  25.9667377  60.6014129 107.4098706  26.9068822  59.6559323 108.1268578
  22.4421956  57.2949377 108.7441945  22.9750293  56.5337665 108.5141253
  21.9136037  57.0023029 109.4866100  25.6091651  42.4009443 104.2735587
  25.2655920  43.2911085 104.1974697  25.9770613  42.2111101 103.4105172
  13.6777501  54.7242973  97.0924189  14.5152723  55.1339982  96.8757897
  13.8555769  53.7842416  97.0624383  25.5741934  52.3918054  92.7808022
  25.0588557  53.1622659  93.0196409  25.3019242  51.7183190  93.4041083
  23.1589045  47.2367755  97.8393260  22.3030641  46.8474605  97.6598899
  23.5715996  47.3159716  96.9793046  24.6888191  44.7714098 102.2384820
  24.1852987  44.7344233 101.4252625  24.9818798  45.6806841 102.2981477
  20.9331077  44.8552828 101.2451002  21.7984074  44.6595637 100.8856891
  21.0008586  44.6263180 102.1720359  25.3628237  50.2645146  94.6067803
  25.0578372  50.5791295  95.4577946  26.3158679  50.3426566  94.6495136
  23.8074669  56.4235369  96.2560757  23.2796030  55.6888129  95.9433995
  23.3062171  57.2010046  96.0100725  28.7867515  54.6184390 101.3727803
  28.1291189  55.3083651 101.4607932  29.5907914  55.0080822 101.7161790
  18.5393396  47.0855036  98.6167369  19.1137148  46.8630217  97.8840562
  19.1264379  47.1543730  99.3695970  27.5972973  52.9728763  99.4231745
  28.1104855  53.6058754  99.9253455  28.2474197  52.3729958  99.0575105
  18.8662983  49.1159497  92.6363254  18.0300296  49.4534183  92.9572529
  18.7267753  48.9808477  91.6990391  20.8416064  43.9596285  97.3442438
  20.1880476  43.6445302  96.7199053  20.7996538  43.3372025  98.0702261
  21.9527269  54.2415580  89.2595730  21.0454331  54.0104833  89.4586879
  22.4498301  53.4453199  89.4469712  24.8595348  62.9513087  92.1792416
  24.1857046  63.2544784  92.7877374  25.2461170  63.7542167  91.8297873
  24.0753804  50.4478218 101.6690086  23.1576366  50.6693165 101.5111774
  24.4913948  50.5224529 100.8101793  24.8588852  51.8469634  96.7992766
  25.6060671  52.3591031  96.4899888  25.1280442  51.5253687  97.6597159
  23.1315502  54.3428175  93.7819720  22.2226722  54.0587207  93.8792190
  23.1610586  54.7627253  92.9223027  28.3634770  57.9534764  97.5510888
  27.9097097  57.1125674  97.6076078  27.7328736  58.5896162  97.8885668
  27.3067689  48.8826750  98.7811555  26.5690446  48.3704136  99.1121798
  27.5594463  48.4427132  97.9694832  26.8067709  59.7911261  98.4860706
  27.0990683  60.3516318  97.7673072  27.3166329  60.0839822  99.2413865
  27.4079317  41.6603002  99.3753324  27.7138193  40.8000366  99.0879240
  28.1331921  42.2520622  99.1752318  13.7003673  52.0633689  97.7634922
  13.5028072  51.4703049  97.0385989  13.1450337  51.7585899  98.4810861
  21.6800396  51.9556795  99.8829516  21.7349006  51.0030632  99.8071992
  20.8691598  52.1116234 100.3670814  22.8291590  55.8836918  91.1207799
  22.3911020  55.1672777  90.6613436  23.5702031  56.1113033  90.5592890
  19.6192756  50.5733855  97.6419894  18.8060622  50.8728026  98.0485087
  20.1151750  50.1789544  98.3594377  21.7701334  60.5691612  99.5754159
  21.7277513  60.7952458  98.6462691  22.6864033  60.3354986  99.7239960
  25.2166968  51.0375679 106.4734788  25.5716356  51.2647153 107.3329254
  25.8639099  51.3694056 105.8512044  19.1106831  48.1452210 103.2581129
  19.7506210  48.0040970 102.5604093  18.2784362  47.8586724 102.8819731
  30.9734084  56.2270642 102.1895389  31.4070591  56.1345931 103.0378443
  31.6865665  56.2028143 101.5515405  19.8867135  57.4454641  99.3716122
  20.6807733  56.9504961  99.1698697  19.1758827  56.9172504  99.0083827
  24.7061979  59.8272736 103.7228489  24.7599002  60.3963673 104.4906205
  23.8376761  59.9974621 103.3582527  16.1949898  51.5897723  95.4475875
  15.2647486  51.5282178  95.6645837  16.2907370  51.0673675  94.6512516
  16.1135447  48.1152535  98.0354116  16.3742265  49.0297869  97.9263277
  16.9352620  47.6476978  98.1850729  17.5860373  49.5290293 105.2052941
  18.2583426  49.3207655 104.5565590  16.7590159  49.3312379 104.7658173
  31.8349634  56.2694343 104.7228274  32.0285524  57.1740153 104.9687549
  31.7350252  55.8101762 105.5566859  23.4885945  46.1552234 107.2218602
  22.8413860  46.8542183 107.1283078  24.2586960  46.5888377 107.5894850
  26.8964743  56.4201086 110.2969155  26.7450249  56.1911637 109.3799239
  26.8869422  57.3771687 110.3100500  23.6650079  53.9932998 105.2815421
  24.5942139  54.1444158 105.1084389  23.2441109  54.0817019 104.4264068
  22.4638411  58.0183663 103.0513959  22.3249497  57.6502447 103.9239897
  21.6753007  58.5331302 102.8797917  23.0586563  63.1192759  94.3939495
  23.2338319  62.6480803  95.2085118  22.3719351  63.7458526  94.6220756
  24.0143626  57.3965266 100.4402797  23.6793459  57.3566036 101.3360447
  23.5147572  56.7309982  99.9673207  17.9887870  52.8032896 105.9655378
  17.8507668  52.0713134 106.5666917  18.8992793  52.7141796 105.6839566
  20.6170171  52.5152855 105.4539058  21.3269789  51.8746047 105.4125676
  20.5739479  52.7665750 106.3765238  28.6056949  59.4520208 108.3745637
  28.5469495  58.7679428 107.7076220  29.0076468  60.1939198 107.9226263
  19.3299105  49.5018073 107.2734697  18.7936462  49.0508811 107.9256293
  18.7415813  49.6363982 106.5305161  17.6247648  66.2682122 101.1679356
  17.8644246  66.9000646 101.8458374  16.7816845  65.9170162 101.4544715
  18.7401364  48.9606724  89.8361161  17.8630830  48.8395525  89.4723407
  19.2159117  48.1692803  89.5840049  28.6074357  57.4159792 106.6059616
  27.7201135  57.0785714 106.7286015  29.1772908  56.6842823 106.8428382
  10.2603504  53.7483884  99.9302668  10.9474544  53.4345614  99.3423683
  10.1051632  54.6525249  99.6569919  15.0638226  48.6374081 104.3587691
  14.9796415  48.0299750 103.6238101  14.2420932  49.1283099 104.3597188
  22.1375510  62.0761245 103.5720860  22.0645681  62.8816216 104.0840164
  21.6952903  62.2753210 102.7468881  21.9265290  61.3133015  97.0823681
  21.1432811  61.8554695  97.1761906  22.6258035  61.8306994  97.4817922
  25.2361940  47.1227644  99.7257887  25.7330639  46.3697606  99.4058957
  24.4648921  47.1591961  99.1601096  24.5974194  61.9748079 105.7279018
  25.3102166  62.6095543 105.6554920  24.1064222  62.0711945 104.9119020
  26.3191720  55.8799331  97.2996310  25.3847999  56.0000794  97.1301014
  26.4968389  54.9771798  97.0356320  21.8196908  49.2645027  99.4529571
  21.4494696  48.7116067 100.1410477  22.3156001  48.6603161  98.9004571
  19.6486107  59.7242522 106.5484589  20.3495567  60.3579005 106.7013983
  19.1781222  60.0657254 105.7880228  27.6780935  44.0897238 101.8737245
  26.7644014  44.3201464 102.0419452  28.1074036  44.1735682 102.7251278
  27.4487393  52.2787130 104.3737139  26.7958843  52.5263037 103.7189592
  27.8267773  51.4651268 104.0399617  24.4094567  62.3146823  98.4765310
  24.5916961  61.4968479  98.9393062  25.2327553  62.5314515  98.0390200
  24.7436732  61.2415008  95.7380358  25.2724499  60.7307462  95.1250520
  25.0064952  60.9257538  96.6025891  23.4974966  53.0206941 110.8603177
  22.8215603  52.9201070 111.5305552  24.3202600  52.8646154 111.3239174
  15.2453825  59.2578877 103.4815692  15.8307262  58.5122565 103.6143596
  15.0478664  59.5682834 104.3652356  18.0992480  62.2930125  98.4978134
  17.4302856  62.7776252  98.0142174  17.9605350  62.5399345  99.4121513
   9.8371480  51.8284477 102.2020135   9.8755579  51.2948068 102.9957253
   9.3311773  51.3019683 101.5831112  22.2397749  64.3273868 105.0960793
  22.7916057  64.4905490 105.8609878  22.5803942  64.9178306 104.4240817
  17.2162242  46.6749018 105.6982677  17.2803569  47.5363849 105.2860075
  17.1529362  46.0623019 104.9655036  27.0908623  59.1535126 110.9509447
  27.6348527  59.7665084 110.4564402  26.5095468  59.7114704 111.4676460
  13.4680057  50.5548579  95.2774066  13.7633498  49.6459258  95.2241120
  12.5668093  50.5336319  94.9555069  25.3766136  62.2755844 102.0824475
  25.2517276  61.4745583 101.5735420  26.0345227  62.7702037 101.5938445
  16.9974304  48.6304576 101.2601615  16.2760890  49.2440544 101.1209088
  17.7867560  49.1662341 101.1818261  19.8000618  45.9659003 107.5342267
  20.3235020  46.2121299 108.2968576  19.5812951  46.7979037 107.1145404
  15.1967899  48.2362677  95.4013391  14.8680605  47.3560056  95.2188497
  15.5507270  48.1810346  96.2889781  24.4447478  59.8717580  99.9108377
  24.2972440  58.9434287 100.0915947  25.2700971  59.8937671  99.4265452
  18.3109722  48.5235647  95.7688869  18.6505795  49.0521568  95.0467478
  18.7581843  48.8616053  96.5447436  28.0481600  60.6946139 100.9973250
  28.9728147  60.4889000 100.8597701  27.8796903  60.4462540 101.9062591
  21.0053163  46.9072698 105.2191937  20.6649983  46.1080511 105.6212617
  20.2992169  47.2074408 104.6468770  21.6569635  43.9922010 103.6719260
  22.4795704  43.5182488 103.5498151  21.9007698  44.7712494 104.1717947
  20.2977869  47.0210269  93.9682162  21.0186232  47.3991521  93.4645879
  19.6743173  47.7399145  94.0717140  24.4408992  47.7255417  94.9040494
  24.6572607  48.6080055  94.6029322  23.9603059  47.3341631  94.1746136
  19.1808214  50.6841131 101.4811239  19.0352794  50.9981434 102.3735520
  18.7033417  51.3026031 100.9282137  21.0404596  47.6743679 101.5292128
  21.0266165  46.7784772 101.1924426  21.7577025  47.6814342 102.1630414
  22.8930727  48.1081019 103.5745256  22.6348505  49.0298090 103.5729586
  22.3615768  47.7111453 104.2645720  27.8376916  61.2131806  96.3535341
  28.0113793  60.6478229  95.6009194  28.3305807  62.0132701  96.1714831
  13.6553876  53.2246475 104.4198900  13.1107344  54.0006283 104.5519174
  14.5333226  53.5717280 104.2618021  20.4441492  46.5558059  96.7979699
  20.5657404  45.6274705  96.9970586  20.1543535  46.5696745  95.8858014
  23.3132683  44.2412969  99.9346418  23.3354380  44.3052303  98.9798398
  23.7300742  43.4017478 100.1286925  14.4419898  52.3516371 107.3129057
  13.7001634  52.4999007 107.8993687  14.1212642  52.6124637 106.4495806
  22.3863560  61.8932350 107.1109447  22.6950687  61.6481496 107.9832146
  23.1839042  62.0978988 106.6228317  22.4084172  64.0470259  99.3414823
  21.9689163  63.5546638 100.0347680  23.1592289  63.5043227  99.1006899
  14.8876511  60.2381800  99.3439452  15.7134531  59.9385572  98.9638095
  14.5370563  59.4689423  99.7929240  19.8558044  59.5908268 101.4137125
  19.2338054  58.9278973 101.1139353  20.5262911  59.6169400 100.7310773
  13.0885116  58.1568127 100.3028385  12.2517025  57.7290301 100.1212386
  13.0608762  58.3500570 101.2399176  30.4137418  58.6131180 110.2870768
  29.6232961  58.5955318 109.7475268  30.1770772  59.1519473 111.0419805
  30.5335293  55.4623646 107.6003497  30.5833298  55.2973653 108.5419020
  30.4249216  54.5950905 107.2101378  19.4171551  58.1412192  94.8895586
  19.5659672  58.8247656  94.2362258  20.2237995  58.1217282  95.4045041
  27.8239055  51.4454574 108.9162803  28.7248918  51.3061039 108.6246801
  27.8987030  51.6109029 109.8560981  22.1581860  48.8221429 107.7615990
  21.2885170  49.1154995 107.4898578  22.3941341  49.4061874 108.4823253
  32.0353489  57.8820587 107.8445518  31.7438298  58.2450568 108.6808979
  31.4225621  57.1687596 107.6658850  30.2840678  53.0053202 106.3125576
  30.7594799  53.1980848 105.5044428  29.3606243  53.0612388 106.0668960
  17.1724184  54.1677369  95.8956655  16.9270226  53.2639699  96.0936865
  17.3420099  54.1694520  94.9536133  24.8620894  45.0401046 105.2781410
  25.3802838  45.7762073 104.9527899  24.5076027  45.3465039 106.1128169
  16.4419832  49.9005727  93.3942816  15.7489077  49.9750082  92.7382852
  16.1971584  49.1366071  93.9164333  25.1133488  41.4601328 100.7982307
  25.3935242  40.7924517 101.4242733  25.8984095  41.6530424 100.2856971
  22.9166957  60.6360322  92.3607333  22.3440924  61.2550509  91.9077805
  23.4899751  61.1859684  92.8947255  28.9842347  49.8818962 104.5453882
  29.9359770  49.9817060 104.5666106  28.8145797  49.0897231 105.0551966
  27.0056726  46.9674545 104.7313283  26.4106658  47.2479558 104.0359771
  26.7206423  47.4568446 105.5030024  26.1364217  60.9197472  93.4915915
  27.0694890  60.8543034  93.6948791  26.0487429  61.7553739  93.0330448
  28.7652233  60.2363343  90.4519863  28.6865865  59.9023206  91.3455621
  29.5861900  60.7285111  90.4511335  31.4630424  53.1025082 103.6596182
  31.4306745  52.1641083 103.8455865  32.0731048  53.1809119 102.9262006
  23.3013755  51.9721135  89.7023386  24.2472860  51.8427343  89.7711804
  22.9228000  51.2335797  90.1792814  31.6124913  49.8936125 103.7054465
  31.0963962  49.1094582 103.5184394  32.4964862  49.5654842 103.8700984
  29.2735640  43.6377141  99.6650277  29.0760461  43.3292229 100.5493609
  29.8835345  44.3638780  99.7948207  35.3622271  52.3048951 103.3976670
  34.6355435  52.1704916 102.7893161  34.9469558  52.6125780 104.2033388
  23.1852448  56.0238881 111.1624043  24.1055457  56.2017480 111.3564089
  23.1502031  55.0794926 111.0103742  21.4856673  49.8971111  89.6378271
  20.5788128  49.6004224  89.7140984  21.7632654  49.6000929  88.7712557
  12.4034613  51.2177475 100.0877317  12.0837397  50.3642783  99.7951691
  11.8568041  51.4326053 100.8435285  16.1814520  53.9339916 103.8046824
  16.4000530  54.8657023 103.8234858  16.5940294  53.5747890 104.5901628
  23.1018738  44.4408001  95.7922512  22.2919467  44.0955086  96.1677758
  23.7903155  44.1315545  96.3810124  25.0309287  43.5186048  97.4146809
  25.5840325  43.9381501  98.0736832  25.2679373  42.5921796  97.4569765
  20.2555457  46.7558046  89.7790250  21.1174621  47.0812945  90.0386067
  20.4405801  45.9689542  89.2663316  12.2722873  54.8380386 102.0570439
  11.5786344  54.4234339 101.5440393  13.0195864  54.8800923 101.4603858
  28.4088094  45.6286573  96.9225473  27.8286763  46.2871377  96.5403525
  28.1424026  44.8063918  96.5112890  26.8591660  45.0291631  99.1246793
  27.3591438  45.1408165  98.3161112  27.5027268  44.7252683  99.7647602
  20.9173656  52.9370260 112.0114634  20.4340738  53.7370620 112.2178523
  21.0034595  52.9478205 111.0582078  14.1859615  54.7698640  99.9336454
  14.1630304  54.8686327  98.9818337  14.4960252  55.6163791 100.2553620
  16.8446993  56.8274795 104.0483068  17.7990247  56.7958737 103.9813000
  16.6459517  56.3665419 104.8633294  17.4346375  55.3975911 106.6153866
  18.2539264  55.8919990 106.6388703  17.7083183  54.4807879 106.5871433
  27.1912972  47.7886663  95.9781821  26.3038827  48.0736314  95.7602016
  27.6066961  47.6280427  95.1309098  15.1997222  62.3694414 101.0653266
  15.0651690  61.6094815 100.4991264  14.7829284  63.0935314 100.5982055
  27.1653995  53.3041199  96.1932111  27.1089197  53.7609751  95.3539744
  27.7182338  52.5431884  96.0154954  18.3566348  63.2663731 101.2771709
  18.2398732  64.2109164 101.1750399  17.5358794  62.9637293 101.6657508
  27.8988775  54.4945981  93.4884641  27.8437578  54.3290252  92.5473085
  27.2734830  55.2022013  93.6446830  12.6881290  49.7314045 107.3146063
  13.3340153  49.2212999 107.8033288  12.4798441  50.4682727 107.8889488
  25.2134682  56.7994892 112.8138203  26.0825841  56.9735545 112.4524838
  24.7341433  57.6189309 112.6913933  21.2084900  43.9954090  93.0669959
  21.1963570  44.9395929  93.2238230  22.1008322  43.8124235  92.7729420
  19.3820862  63.9191993 104.4927637  20.2848109  63.9515604 104.8094132
  19.1558232  62.9892444 104.5073973  21.1374464  62.6722980 101.1537716
  20.1870095  62.6724842 101.0402088  21.4406950  61.9255714 100.6373750
  25.0237020  40.5896866  97.3215896  24.2569415  40.0355353  97.4672578
  25.4347725  40.6618735  98.1830047  27.0868112  71.8097614 100.9826114
  27.8789403  71.4688439 100.5672413  27.3264762  71.9192589 101.9028267
  26.6555086  68.1791396 100.9240679  26.7847467  68.4325875 101.8380091
  25.9752537  68.7719104 100.6045334  33.3171803  66.0216511 109.6792521
  32.5405137  66.5810431 109.6695385  33.9562366  66.5073294 110.2007391
  31.5718175  68.8301965 109.2410488  32.3132859  69.3687009 108.9645311
  30.8655160  69.4568253 109.3982039  36.5504030  63.5708080 106.8697380
  36.3064962  64.3250141 106.3331655  36.8263960  63.9493428 107.7044627
  30.3079539  65.9841613 110.0425798  29.6778199  66.6657894 110.2761194
  30.2015627  65.8724694 109.0978936  25.6024511  65.6513409 100.9691722
  24.8123565  65.9070937 100.4931832  26.0935759  66.4661747 101.0743762
  23.8862214  65.9043899 103.4006712  24.1370253  66.7890909 103.6664288
  24.4221763  65.7248501 102.6281804  29.5860281  60.2862379 112.4051049
  29.1927227  59.7328577 113.0798693  30.4026422  60.5972957 112.7957566
  28.3617224  74.8411993  98.3987372  28.5383852  75.7629958  98.2108356
  29.1574057  74.5270412  98.8281751  32.5028242  61.7020258 109.9971305
  33.2437956  62.3027411 109.9175768  32.7346165  60.9597895 109.4389348
  27.6469580  66.8876625 108.2749535  27.5323096  65.9861882 108.5756634
  26.7914098  67.1340322 107.9234351  33.2815710  72.6241295 108.7441945
  33.8144047  71.8629583 108.5141253  32.7529792  72.3314946 109.4866100
  24.5171256  70.0534891  97.0924189  25.3546478  70.4631899  96.8757897
  24.6949524  69.1134333  97.0624383  24.5397427  67.3925606  97.7634922
  24.3421827  66.7994967  97.0385989  23.9844091  67.0877817  98.4810861
  27.0343653  66.9189640  95.4475875  26.1041241  66.8574096  95.6645837
  27.1301125  66.3965593  94.6512516  26.9529202  63.4444453  98.0354116
  27.2136019  64.3589786  97.9263277  27.7746374  62.9768896  98.1850729
  28.4254127  64.8582210 105.2052941  29.0977181  64.6499572 104.5565590
  27.5983914  64.6604296 104.7658173  34.3279699  61.4844151 107.2218602
  33.6807614  62.1834101 107.1283078  35.0980715  61.9180295 107.5894850
  28.8281624  68.1324813 105.9655378  28.6901422  67.4005052 106.5666917
  29.7386548  68.0433713 105.6839566  30.1692859  64.8309991 107.2734697
  29.6330216  64.3800729 107.9256293  29.5809568  64.9655899 106.5305161
  28.4641403  81.5974040 101.1679356  28.7038001  82.2292564 101.8458374
  27.6210599  81.2462080 101.4544715  29.5795118  64.2898642  89.8361161
  28.7024584  64.1687443  89.4723407  30.0552871  63.4984720  89.5840049
  21.0997258  69.0775802  99.9302668  21.7868298  68.7637532  99.3423683
  20.9445387  69.9817166  99.6569919  25.9031980  63.9665998 104.3587691
  25.8190169  63.3591668 103.6238101  25.0814687  64.4575017 104.3597188
  34.3368721  68.3498858 110.8603177  33.6609358  68.2492988 111.5305552
  35.1596354  68.1938072 111.3239174  26.0847580  74.5870795 103.4815692
  26.6701016  73.8414483 103.6143596  25.8872418  74.8974752 104.3652356
  20.6765234  67.1576395 102.2020135  20.7149334  66.6239986 102.9957253
  20.1705527  66.6311601 101.5831112  27.5308269  64.0764068 109.3455711
  28.1580308  63.6941145 109.9593236  26.6736188  63.8578270 109.7111404
  24.3073812  65.8840497  95.2774066  24.6027253  64.9751176  95.2241120
  23.4061848  65.8628237  94.9555069  30.6394372  61.2950920 107.5342267
  31.1628774  61.5413217 108.2968576  30.4206706  62.1270955 107.1145404
  26.0361653  63.5654595  95.4013391  25.7074360  62.6851974  95.2188497
  26.3901024  63.5102264  96.2889781  24.4947630  68.5538393 104.4198900
  23.9501098  69.3298201 104.5519174  25.3726980  68.9009197 104.2618021
  25.2813652  67.6808289 107.3129057  24.5395388  67.8290924 107.8993687
  24.9606396  67.9416555 106.4495806  25.7270266  75.5673718  99.3439452
  26.5528286  75.2677490  98.9638095  25.3764318  74.7981340  99.7929240
  23.9278871  73.4860044 100.3028385  23.0910779  73.0582219 100.1212386
  23.9002516  73.6792488 101.2399176  30.7676326  63.3981974 111.0069631
  30.8164482  64.2744097 110.6247401  31.3098841  62.8559367 110.4341274
  32.9975615  64.1513346 107.7615990  32.1278924  64.4446912 107.4898578
  33.2335095  64.7353791 108.4823253  35.7014649  60.3692963 105.2781410
  36.2196593  61.1053990 104.9527899  35.3469781  60.6756957 106.1128169
  27.2813586  65.2297645  93.3942816  26.5882831  65.3042000  92.7382852
  27.0365338  64.4657988  93.9164333  34.0246202  71.3530799 111.1624043
  34.9449212  71.5309398 111.3564089  33.9895785  70.4086844 111.0103742
  23.2428367  66.5469392 100.0877317  22.9231152  65.6934701  99.7951691
  22.6961796  66.7617970 100.8435285  27.0208275  69.2631833 103.8046824
  27.2394285  70.1948941 103.8234858  27.4334049  68.9039808 104.5901628
  31.8936140  64.8365039 113.1949573  31.7932867  65.7859396 113.1261664
  31.6757682  64.5083278 112.3225643  31.0949212  62.0849964  89.7790250
  31.9568376  62.4104862  90.0386067  31.2799556  61.2981460  89.2663316
  23.1116627  70.1672304 102.0570439  22.4180099  69.7526257 101.5440393
  23.8589618  70.2092840 101.4603858  31.7567410  68.2662178 112.0114634
  31.2734492  69.0662538 112.2178523  31.8428349  68.2770123 111.0582078
  25.0253370  70.0990558  99.9336454  25.0024058  70.1978245  98.9818337
  25.3354006  70.9455708 100.2553620  27.6840748  72.1566713 104.0483068
  28.6384001  72.1250655 103.9813000  27.4853271  71.6957336 104.8633294
  28.2740130  70.7267829 106.6153866  29.0933019  71.2211907 106.6388703
  28.5476938  69.8099797 106.5871433  26.0390977  77.6986332 101.0653266
  25.9045445  76.9386733 100.4991264  25.6223039  78.4227232 100.5982055
  29.1960102  78.5955649 101.2771709  29.0792487  79.5401082 101.1750399
  28.3752549  78.2929211 101.6657508  23.5275044  65.0605963 107.3146063
  24.1733908  64.5504917 107.8033288  23.3192195  65.7974644 107.8889488
  36.0528436  72.1286810 112.8138203  36.9219596  72.3027462 112.4524838
  35.5735188  72.9481227 112.6913933  30.2214617  79.2483911 104.4927637
  31.1241863  79.2807521 104.8094132  29.9951987  78.3184362 104.5073973
  27.8672535  62.2073580 111.4121077  28.7303997  61.8510384 111.6224402
  27.2937946  61.8687474 112.0996481  47.7120912  83.8375436 102.2183478
  48.3499322  83.7182183 101.5146818  47.5941755  84.7856280 102.2771430
  44.5210618  83.7902864 102.1545003  44.1829130  83.6743929 101.2665538
  45.3900387  83.3894029 102.1346009  40.3797434  85.6438341  98.1441894
  39.8162299  85.5528277  97.3758181  40.2649829  84.8238245  98.6244386
  45.0030401  84.9437716 108.1131208  44.9919042  84.5490514 107.2411712
  45.1651041  84.2103788 108.7064980  37.9261866  87.1389532 100.9826114
  38.7183158  86.7980357 100.5672413  38.1658516  87.2484507 101.9028267
  45.9596993  89.3109308  93.4556359  45.3084973  89.8963389  93.0690372
  46.7541356  89.8415503  93.5151396  39.8852620  86.3998445  93.8543493
  40.6583496  85.8527432  93.7156369  40.2378019  87.2642695  94.0657954
  41.7237662  87.7274828 107.0610392  41.4327528  88.6320458 106.9457059
  42.3594647  87.7691355 107.7754462  42.6493869  85.1051676 103.6511752
  43.2457442  84.8807699 102.9368715  42.7068841  84.3636422 104.2537200
  42.2218898  82.5591111  91.4861943  42.4744418  82.0372633  90.7245406
  41.2843457  82.3957257  91.5888626  47.2662181  81.5626890  99.2936686
  48.0525270  81.1446313  98.9427103  47.5300885  82.4672982  99.4618334
  47.4372258  86.9999740  93.9925343  46.8018091  87.0734367  94.7046248
  47.1069664  87.5893339  93.3144422  52.6670608  81.5002123 100.1969665
  53.3995780  80.9301340 100.4307494  51.9109963  81.1123723 100.6376170
  41.9415186  84.4619217  93.6886318  41.8251445  83.7864121  94.3567402
  42.0517446  83.9751591  92.8718471  44.2846727  83.9229365  97.3933007
  43.9204935  83.3959986  98.1045929  45.1413843  83.5327834  97.2199492
  50.1896028  75.2123697 104.6564273  49.8579353  76.0819108 104.4325488
  49.5941641  74.8959981 105.3358304  43.9252214  78.9519264  92.3894356
  44.0926617  79.8199501  92.7564827  43.7349383  79.1146546  91.4655645
  46.6827548  87.4136243 104.0560186  46.3828271  88.3161282 103.9475993
  46.3378607  87.1468426 104.9081339  40.1340029  83.8650040 100.0896890
  39.2090526  83.7326254 100.2974582  40.3824442  84.6444259 100.5866833
  50.0824691  79.9318783 101.7357623  49.1741569  79.8634192 101.4416384
  50.0312287  80.4090728 102.5639449  43.9041435  81.4076922  93.3741022
  43.7841060  81.8533972  94.2126503  43.2094024  81.7562239  92.8154561
  37.4948840  83.5083314 100.9240679  37.6241221  83.7617792 101.8380091
  36.8146291  84.1011022 100.6045334  41.6648327  94.1780563  97.0231154
  41.5872357  95.1288389  97.1019634  41.0609971  93.8326436  97.6806080
  44.1565557  81.3508429 109.6792521  43.3798891  81.9102349 109.6695385
  44.7956120  81.8365212 110.2007391  51.9486338  78.1335222 103.5135497
  51.3060718  78.4267755 102.8675292  51.4441266  78.0188142 104.3188694
  49.6026501  81.8798395  94.2021356  50.5144358  82.1125782  94.0269054
  49.0936149  82.4635439  93.6396435  42.4111929  84.1593882 109.2410488
  43.1526614  84.6978926 108.9645311  41.7048915  84.7860171 109.3982039
  47.8867269  86.3023023 107.8382649  48.2950625  85.8605433 107.0937281
  47.1644531  85.7275650 108.0916842  44.2398339  81.2395630 105.2116206
  45.0859534  81.6635043 105.3550855  44.1796977  80.5829254 105.9054769
  48.2096084  86.8624213 101.5934938  47.5804946  87.0269927 100.8911006
  47.8221746  87.2765823 102.3645902  52.0885316  87.7978651  98.9479302
  51.4036354  88.1777553  98.3976335  52.1729165  88.4073978  99.6811249
  47.3897784  78.8999998 106.8697380  47.1458716  79.6542058 106.3331655
  47.6657715  79.2785345 107.7044627  49.3436247  85.4438610 105.5474645
  49.5553142  86.0870370 104.8709026  49.2965995  84.6100927 105.0796575
  43.7624046  86.5998621  98.8585023  44.2262391  86.8786324  98.0689645
  43.4980844  85.6982066  98.6758114  40.6548127  86.1470103 101.7964786
  41.2249484  86.5757371 101.1582271  41.2456239  85.8652688 102.4948972
  42.6992932  82.7221774  95.6674588  43.4016975  83.1742817  96.1348514
  42.3673560  82.0805593  96.2954481  41.1473293  81.3133530 110.0425798
  40.5171954  81.9949811 110.2761194  41.0409381  81.2016612 109.0978936
  50.4582075  88.3210566 103.7197003  51.2799519  87.9190753 103.4379684
  50.4544478  88.2178800 104.6713118  38.3933011  81.3449906  97.9275198
  37.5964174  81.4568600  98.4458694  38.1658603  81.6836558  97.0616089
  44.2238679  87.8694609 105.8757713  44.2883111  88.3315016 106.7115885
  43.5149603  87.2391974 106.0040023  58.5488068  84.6649314 100.0681974
  57.7951777  84.0956712  99.9125978  58.6835609  84.6311979 101.0152609
  43.9386696  89.5362716  95.7436693  43.8032371  90.3814252  96.1721541
  44.4796509  89.7381994  94.9802627  37.3916094  87.0538154  96.3164618
  37.9040614  87.8481405  96.4670183  38.0438807  86.3564445  96.2498220
  39.2010978  90.1703911  98.3987372  39.3777607  91.0921875  98.2108356
  39.9967812  89.8562330  98.8281751  43.3421997  77.0312175 109.9971305
  44.0831710  77.6319329 109.9175768  43.5739920  76.2889813 109.4389348
  38.4863335  82.2168543 108.2749535  38.3716850  81.3153800 108.5756634
  37.6307853  82.4632239 107.9234351  45.5655173  90.1586283 109.8737035
  45.1219027  89.3722662 109.5557940  46.2272386  90.3465433 109.2080926
  40.3242294  91.6882085 104.3997714  40.8749719  91.5599148 103.6274708
  39.4853770  91.9876974 104.0492607  47.6636411  90.4389083 107.9018437
  47.6454886  91.2597964 107.4098706  48.5856331  90.3143158 108.1268578
  44.1209465  87.9533212 108.7441945  44.6537802  87.1921501 108.5141253
  43.5923546  87.6606864 109.4866100  35.3565010  85.3826809  97.0924189
  36.1940232  85.7923817  96.8757897  35.5343278  84.4426251  97.0624383
  47.2529443  83.0501889  92.7808022  46.7376066  83.8206494  93.0196409
  46.9806751  82.3767026  93.4041083  52.2263717  85.8034244  94.7161195
  51.4493159  85.4645404  94.2716357  52.9055198  85.8086867  94.0416160
  47.0415746  80.9228982  94.6067803  46.7365881  81.2375131  95.4577946
  47.9946188  81.0010401  94.6495136  45.4862178  87.0819205  96.2560757
  44.9583539  86.3471964  95.9433995  44.9849680  87.8593881  96.0100725
  50.4655024  85.2768225 101.3727803  49.8078698  85.9667487 101.4607932
  51.2695423  85.6664657 101.7161790  49.2760482  83.6312598  99.4231745
  49.7892364  84.2642590  99.9253455  49.9261706  83.0313794  99.0575105
  40.5450492  79.7743332  92.6363254  39.7087805  80.1118019  92.9572529
  40.4055262  79.6392312  91.6990391  43.6314778  84.8999415  89.2595730
  42.7241840  84.6688669  89.4586879  44.1285810  84.1037034  89.4469712
  46.5382857  93.6096922  92.1792416  45.8644555  93.9128619  92.7877374
  46.9248679  94.4126003  91.8297873  46.5376361  82.5053469  96.7992766
  47.2848180  83.0174866  96.4899888  46.8067951  82.1837522  97.6597159
  44.8103011  85.0012010  93.7819720  43.9014230  84.7171043  93.8792190
  44.8398095  85.4211089  92.9223027  50.0422279  88.6118599  97.5510888
  49.5884606  87.7709509  97.6076078  49.4116245  89.2479998  97.8885668
  48.9855198  79.5410586  98.7811555  48.2477955  79.0287972  99.1121798
  49.2381972  79.1010967  97.9694832  48.4855218  90.4495096  98.4860706
  48.7778192  91.0100153  97.7673072  48.9953838  90.7423657  99.2413865
  44.5079099  86.5420754  91.1207799  44.0698529  85.8256613  90.6613436
  45.2489540  86.7696868  90.5592890  41.2980265  81.2317690  97.6419894
  40.4848131  81.5311861  98.0485087  41.7939259  80.8373379  98.3594377
  43.4488843  91.2275447  99.5754159  43.4065022  91.4536294  98.6462691
  44.3651542  90.9938822  99.7239960  46.8954477  81.6959515 106.4734788
  47.2503865  81.9230988 107.3329254  47.5426608  82.0277892 105.8512044
  52.6252214  84.8177951  97.1784117  52.4870112  85.0079547  96.2505307
  52.2688433  85.5797333  97.6352168  52.6521593  86.8854478 102.1895389
  53.0858100  86.7929767 103.0378443  53.3653174  86.8611978 101.5515405
  41.5654644  88.1038476  99.3716122  42.3595242  87.6088796  99.1698697
  40.8546336  87.5756339  99.0083827  46.3849488  90.4856572 103.7228489
  46.4386511  91.0547508 104.4906205  45.5164270  90.6558457 103.3582527
  37.8737407  82.2481558  95.4475875  36.9434995  82.1866013  95.6645837
  37.9694879  81.7257511  94.6512516  53.5137143  86.9278178 104.7228274
  53.7073033  87.8323989 104.9687549  53.4137761  86.4685597 105.5566859
  48.5752252  87.0784921 110.2969155  48.4237758  86.8495473 109.3799239
  48.5656931  88.0355523 110.3100500  45.3437588  84.6516834 105.2815421
  46.2729648  84.8027993 105.1084389  44.9228618  84.7400855 104.4264068
  44.1425920  88.6767498 103.0513959  44.0037006  88.3086283 103.9239897
  43.3540516  89.1915138 102.8797917  44.7374072  93.7776595  94.3939495
  44.9125827  93.3064638  95.2085118  44.0506860  94.4042361  94.6220756
  45.6931135  88.0549101 100.4402797  45.3580968  88.0149871 101.3360447
  45.1935081  87.3893817  99.9673207  39.6675379  83.4616731 105.9655378
  39.5295177  82.7296970 106.5666917  40.5780302  83.3725631 105.6839566
  48.6290327  85.4005135  90.7139856  48.0119497  84.6751963  90.6172909
  48.1606815  86.1614496  90.3706931  42.2957680  83.1736690 105.4539058
  43.0057298  82.5329882 105.4125676  42.2526988  83.4249585 106.3765238
  50.2844458  90.1104044 108.3745637  50.2257004  89.4263264 107.7076220
  50.6863977  90.8523034 107.9226263  41.0086614  80.1601908 107.2734697
  40.4723971  79.7092647 107.9256293  40.4203322  80.2947817 106.5305161
  39.3035157  96.9265957 101.1679356  39.5431755  97.5584482 101.8458374
  38.4604354  96.5753997 101.4544715  40.4188873  79.6190560  89.8361161
  39.5418339  79.4979360  89.4723407  40.8946626  78.8276638  89.5840049
  50.2861866  88.0743628 106.6059616  49.3988644  87.7369549 106.7286015
  50.8560417  87.3426659 106.8428382  31.9391013  84.4067719  99.9302668
  32.6262053  84.0929449  99.3423683  31.7839141  85.3109084  99.6569919
  43.8163019  92.7345080 103.5720860  43.7433190  93.5400051 104.0840164
  43.3740412  92.9337046 102.7468881  43.6052799  91.9716850  97.0823681
  42.8220320  92.5138530  97.1761906  44.3045544  92.4890830  97.4817922
  54.7679206  83.4851845 101.3676178  54.7569082  84.3676560 100.9970111
  53.8996586  83.1323396 101.1730715  46.2761702  92.6331914 105.7279018
  46.9889675  93.2679379 105.6554920  45.7851731  92.7295780 104.9119020
  47.9979229  86.5383167  97.2996310  47.0635508  86.6584629  97.1301014
  48.1755898  85.6355633  97.0356320  51.3851781  82.3800486  97.8346344
  51.8512233  83.2128478  97.7606647  51.8359281  81.9145467  98.5391603
  41.3273616  90.3826357 106.5484589  42.0283076  91.0162840 106.7013983
  40.8568731  90.7241089 105.7880228  49.4528012  88.7244307  94.8332496
  49.7287856  88.6100902  95.7426370  48.5832511  88.3261792  94.7944669
  49.1274902  82.9370965 104.3737139  48.4746352  83.1846872 103.7189592
  49.5055282  82.1235103 104.0399617  46.0882076  92.9730658  98.4765310
  46.2704470  92.1552314  98.9393062  46.9115062  93.1898350  98.0390200
  46.4224241  91.8998843  95.7380358  46.9512008  91.3891298  95.1250520
  46.6852461  91.5841373  96.6025891  45.1762475  83.6790776 110.8603177
  44.5003112  83.5784905 111.5305552  45.9990109  83.5229990 111.3239174
  36.9241334  89.9162712 103.4815692  37.5094771  89.1706400 103.6143596
  36.7266173  90.2266669 104.3652356  39.7779989  92.9513960  98.4978134
  39.1090365  93.4360087  98.0142174  39.6392859  93.1983180  99.4121513
  31.5158989  82.4868313 102.2020135  31.5543088  81.9531903 102.9957253
  31.0099282  81.9603518 101.5831112  43.9185258  94.9857703 105.0960793
  44.4703566  95.1489325 105.8609878  44.2591451  95.5762141 104.4240817
  38.3702024  79.4055986 109.3455711  38.9974062  79.0233063 109.9593236
  37.5129942  79.1870188 109.7111404  48.7696132  89.8118961 110.9509447
  49.3136036  90.4248919 110.4564402  48.1882977  90.3698539 111.4676460
  47.0553645  92.9339679 102.0824475  46.9304785  92.1329419 101.5735420
  47.7132736  93.4285872 101.5938445  49.1188554  90.7348699 103.7104025
  48.1718889  90.6154050 103.6382352  49.4671327  89.8471197 103.7930286
  46.1234987  90.5301415  99.9108377  45.9759949  89.6018123 100.0915947
  46.9488480  90.5521506  99.4265452  39.9897231  79.1819482  95.7688869
  40.3293304  79.7105404  95.0467478  40.4369352  79.5199888  96.5447436
  49.7269109  91.3529974 100.9973250  50.6515656  91.1472835 100.8597701
  49.5584412  91.1046375 101.9062591  46.1196501  78.3839253  94.9040494
  46.3360116  79.2663891  94.6029322  45.6390568  77.9925466  94.1746136
  49.5164425  91.8715641  96.3535341  49.6901302  91.3062064  95.6009194
  50.0093316  92.6716536  96.1714831  35.3341385  83.8830310 104.4198900
  34.7894853  84.6590118 104.5519174  36.2120735  84.2301115 104.2618021
  55.3703816  84.6352064  97.9725641  55.8134962  83.8859390  97.5744764
  54.4930326  84.6262201  97.5899373  50.5039597  91.1882406  93.4532239
  51.1990502  91.8089098  93.6719554  50.8462748  90.3377757  93.7284617
  36.1207407  83.0100207 107.3129057  35.3789143  83.1582842 107.8993687
  35.8000151  83.2708472 106.4495806  52.4031021  88.6382111  94.9819570
  52.9282345  88.9769384  94.2568890  52.3153373  87.7029127  94.7982705
  44.0651069  92.5516185 107.1109447  44.3738196  92.3065332 107.9832146
  44.8626551  92.7562823 106.6228317  44.0871681  94.7054095  99.3414823
  43.6476672  94.2130473 100.0347680  44.8379798  94.1627062  99.1006899
  36.5664020  90.8965635  99.3439452  37.3922040  90.5969407  98.9638095
  36.2158072  90.1273258  99.7929240  41.5345553  90.2492104 101.4137125
  40.9125563  89.5862809 101.1139353  42.2050420  90.2753236 100.7310773
  34.7672625  88.8151962 100.3028385  33.9304534  88.3874136 100.1212386
  34.7396271  89.0084405 101.2399176  41.6070081  78.7273892 111.0069631
  41.6558236  79.6036015 110.6247401  42.1492595  78.1851285 110.4341274
  52.0924927  89.2715015 110.2870768  51.3020470  89.2539154 109.7475268
  51.8558281  89.8103309 111.0419805  52.2122802  86.1207481 107.6003497
  52.2620807  85.9557489 108.5419020  52.1036725  85.2534740 107.2101378
  41.0959060  88.7996027  94.8895586  41.2447181  89.4831491  94.2362258
  41.9025504  88.7801117  95.4045041  49.5026564  82.1038409 108.9162803
  50.4036427  81.9644874 108.6246801  49.5774539  82.2692864 109.8560981
  43.8369369  79.4805264 107.7615990  42.9672679  79.7738830 107.4898578
  44.0728850  80.0645709 108.4823253  53.7140998  88.5404423 107.8445518
  53.4225807  88.9034403 108.6808979  53.1013130  87.8271431 107.6658850
  54.9136681  86.1057303 100.3648089  55.7483572  86.5447107 100.5285649
  55.0495810  85.6295956  99.5456334  51.9628187  83.6637037 106.3125576
  52.4382308  83.8564684 105.5044428  51.0393752  83.7196223 106.0668960
  38.8511693  84.8261205  95.8956655  38.6057735  83.9223535  96.0936865
  39.0207608  84.8278355  94.9536133  44.5954466  91.2944157  92.3607333
  44.0228433  91.9134345  91.9077805  45.1687260  91.8443519  92.8947255
  50.6629856  80.5402798 104.5453882  51.6147279  80.6400895 104.5666106
  50.4933306  79.7481066 105.0551966  48.6844235  77.6258381 104.7313283
  48.0894167  77.9063393 104.0359771  48.3993932  78.1152282 105.5030024
  47.8151726  91.5781308  93.4915915  48.7482399  91.5126869  93.6948791
  47.7274938  92.4137574  93.0330448  50.4439742  90.8947178  90.4519863
  50.3653374  90.5607042  91.3455621  51.2649409  91.3868946  90.4511335
  53.1417933  83.7608917 103.6596182  53.1094254  82.8224918 103.8455865
  53.7518557  83.8392954 102.9262006  44.9801264  82.6304970  89.7023386
  45.9260369  82.5011178  89.7711804  44.6015509  81.8919632  90.1792814
  53.2912422  80.5519961 103.7054465  52.7751471  79.7678417 103.5184394
  54.1752370  80.2238677 103.8700984  58.9594483  84.8224924 102.8002218
  59.6897872  84.5610212 103.3609922  58.3501429  84.0853646 102.8404286
  57.0409780  82.9632787 103.3976670  56.3142944  82.8288752 102.7893161
  56.6257067  83.2709615 104.2033388  44.8639957  86.6822716 111.1624043
  45.7842966  86.8601315 111.3564089  44.8289540  85.7378762 111.0103742
  43.1644181  80.5554947  89.6378271  42.2575637  80.2588059  89.7140984
  43.4420162  80.2584765  88.7712557  37.8602029  84.5923751 103.8046824
  38.0788039  85.5240859 103.8234858  38.2727803  84.2331725 104.5901628
  42.7329895  80.1656957 113.1949573  42.6326622  81.1151314 113.1261664
  42.5151437  79.8375196 112.3225643  41.9342966  77.4141882  89.7790250
  42.7962130  77.7396780  90.0386067  42.1193310  76.6273378  89.2663316
  33.9510382  85.4964222 102.0570439  33.2573853  85.0818174 101.5440393
  34.6983373  85.5384758 101.4603858  42.5961165  83.5954096 112.0114634
  42.1128246  84.3954456 112.2178523  42.6822104  83.6062040 111.0582078
  35.8647124  85.4282475  99.9336454  35.8417813  85.5270163  98.9818337
  36.1747761  86.2747626 100.2553620  38.5234502  87.4858630 104.0483068
  39.4777756  87.4542573 103.9813000  38.3247026  87.0249254 104.8633294
  39.1133884  86.0559746 106.6153866  39.9326773  86.5503825 106.6388703
  39.3870692  85.1391715 106.5871433  52.2215017  78.4717020  99.6936160
  52.9975407  78.9613472  99.9660777  51.4963151  78.8975074 100.1508030
  54.6587575  79.1844639 100.7510101  55.2532066  78.9440375 100.0403409
  54.7314159  78.4651769 101.3783637  36.8784731  93.0278250 101.0653266
  36.7439199  92.2678651 100.4991264  36.4616793  93.7519150 100.5982055
  48.0143694  88.2115173  90.0729841  48.7179544  88.4165176  90.6887497
  47.2906343  88.7791935  90.3378925  48.8441504  83.9625035  96.1932111
  48.7876706  84.4193586  95.3539744  49.3969847  83.2015719  96.0154954
  52.6546310  79.7514766  97.0182231  52.3983244  79.3511402  97.8490439
  52.0299178  80.4658560  96.8932370  56.9658648  82.4910840  99.5253522
  56.4058206  82.5604029 100.2985084  56.3602151  82.3151824  98.8053019
  40.0353857  93.9247567 101.2771709  39.9186241  94.8692999 101.1750399
  39.2146303  93.6221128 101.6657508  49.9230391  88.6497703  92.1228301
  50.7575995  88.2178901  91.9405776  49.7614734  88.4779716  93.0505196
  49.5776284  85.1529816  93.4884641  49.5225087  84.9874087  92.5473085
  48.9522339  85.8605849  93.6446830  34.3668799  80.3897880 107.3146063
  35.0127662  79.8796834 107.8033288  34.1585950  81.1266562 107.8889488
  46.8922191  87.4578728 112.8138203  47.7613350  87.6319380 112.4524838
  46.4128942  88.2773145 112.6913933  41.0608371  94.5775829 104.4927637
  41.9635618  94.6099439 104.8094132  40.8345741  93.6476280 104.5073973
  42.8161973  93.3306815 101.1537716  41.8657604  93.3308677 101.0402088
  43.1194459  92.5839550 100.6373750  58.5514667  99.1667354 102.2183478
  59.1893077  99.0474101 101.5146818  58.4335509 100.1148198 102.2771430
  55.3604373  99.1194782 102.1545003  55.0222884  99.0035846 101.2665538
  56.2294141  98.7185947 102.1346009  51.2191189 100.9730258  98.1441894
  50.6556054 100.8820195  97.3758181  51.1043584 100.1530163  98.6244386
  55.8424156 100.2729633 108.1131208  55.8312797  99.8782432 107.2411712
  56.0044795  99.5395706 108.7064980  48.7655620 102.4681450 100.9826114
  49.5576912 102.1272274 100.5672413  49.0052271 102.5776425 101.9028267
  56.7990747 104.6401226  93.4556359  56.1478727 105.2255306  93.0690372
  57.5935110 105.1707421  93.5151396  50.7246374 101.7290363  93.8543493
  51.4977250 101.1819350  93.7156369  51.0771773 102.5934612  94.0657954
  52.5631417 103.0566745 107.0610392  52.2721283 103.9612376 106.9457059
  53.1988401 103.0983273 107.7754462  53.4887624 100.4343594 103.6511752
  54.0851196 100.2099616 102.9368715  53.5462595  99.6928339 104.2537200
  53.0612652  97.8883029  91.4861943  53.3138173  97.3664550  90.7245406
  52.1237211  97.7249175  91.5888626  58.1055935  96.8918808  99.2936686
  58.8919024  96.4738231  98.9427103  58.3694639  97.7964900  99.4618334
  58.2766012 102.3291658  93.9925343  57.6411845 102.4026284  94.7046248
  57.9463419 102.9185257  93.3144422  63.5064362  96.8294041 100.1969665
  64.2389534  96.2593258 100.4307494  62.7503718  96.4415641 100.6376170
  52.7808941  99.7911135  93.6886318  52.6645199  99.1156038  94.3567402
  52.8911201  99.3043509  92.8718471  55.1240482  99.2521282  97.3933007
  54.7598689  98.7251903  98.1045929  55.9807598  98.8619751  97.2199492
  61.0289783  90.5415615 104.6564273  60.6973107  91.4111026 104.4325488
  60.4335396  90.2251899 105.3358304  54.7645969  94.2811182  92.3894356
  54.9320371  95.1491418  92.7564827  54.5743138  94.4438464  91.4655645
  57.5221302 102.7428161 104.0560186  57.2222025 103.6453200 103.9475993
  57.1772362 102.4760344 104.9081339  50.9733784  99.1941958 100.0896890
  50.0484280  99.0618172 100.2974582  51.2218197  99.9736177 100.5866833
  60.9218446  95.2610701 101.7357623  60.0135323  95.1926109 101.4416384
  60.8706042  95.7382646 102.5639449  54.7435190  96.7368839  93.3741022
  54.6234815  97.1825890  94.2126503  54.0487778  97.0854157  92.8154561
  48.3342595  98.8375231 100.9240679  48.4634976  99.0909710 101.8380091
  47.6540046  99.4302939 100.6045334  52.5042082 109.5072481  97.0231154
  52.4266112 110.4580306  97.1019634  51.9003725 109.1618354  97.6806080
  54.9959312  96.6800347 109.6792521  54.2192646  97.2394267 109.6695385
  55.6349875  97.1657130 110.2007391  62.7880092  93.4627139 103.5135497
  62.1454473  93.7559673 102.8675292  62.2835021  93.3480060 104.3188694
  60.4420256  97.2090313  94.2021356  61.3538112  97.4417699  94.0269054
  59.9329903  97.7927357  93.6396435  53.2505684  99.4885800 109.2410488
  53.9920368 100.0270844 108.9645311  52.5442669 100.1152089 109.3982039
  58.7261024 101.6314940 107.8382649  59.1344380 101.1897351 107.0937281
  58.0038285 101.0567568 108.0916842  55.0792094  96.5687547 105.2116206
  55.9253289  96.9926961 105.3550855  55.0190731  95.9121171 105.9054769
  59.0489838 102.1916131 101.5934938  58.4198701 102.3561845 100.8911006
  58.6615500 102.6057741 102.3645902  62.9279070 103.1270569  98.9479302
  62.2430108 103.5069470  98.3976335  63.0122919 103.7365896  99.6811249
  58.2291539  94.2291916 106.8697380  57.9852471  94.9833976 106.3331655
  58.5051469  94.6077263 107.7044627  60.1830002 100.7730528 105.5474645
  60.3946897 101.4162288 104.8709026  60.1359750  99.9392844 105.0796575
  57.7856231  93.3848349 102.4511217  56.9240710  93.6829602 102.7427955
  57.8118665  93.6018747 101.5192250  54.6017800 101.9290539  98.8585023
  55.0656146 102.2078242  98.0689645  54.3374598 101.0273984  98.6758114
  51.4941881 101.4762021 101.7964786  52.0643238 101.9049289 101.1582271
  52.0849993 101.1944605 102.4948972  53.5386686  98.0513691  95.6674588
  54.2410730  98.5034735  96.1348514  53.2067315  97.4097510  96.2954481
  51.9867048  96.6425448 110.0425798  51.3565708  97.3241729 110.2761194
  51.8803136  96.5308530 109.0978936  47.2812020  96.3097244 100.9691722
  46.4911074  96.5654773 100.4931832  47.7723267  97.1245582 101.0743762
  61.2975830 103.6502483 103.7197003  62.1193273 103.2482671 103.4379684
  61.2938233 103.5470717 104.6713118  49.2326766  96.6741823  97.9275198
  48.4357929  96.7860518  98.4458694  49.0052358  97.0128476  97.0616089
  55.0632433 103.1986527 105.8757713  55.1276866 103.6606934 106.7115885
  54.3543357 102.5683892 106.0040023  45.5649723  96.5627735 103.4006712
  45.8157762  97.4474745 103.6664288  46.1009272  96.3832336 102.6281804
  69.3881823  99.9941232 100.0681974  68.6345531  99.4248630  99.9125978
  69.5229364  99.9603896 101.0152609  54.7780451 104.8654634  95.7436693
  54.6426126 105.7106170  96.1721541  55.3190263 105.0673912  94.9802627
  51.2647790  90.9446214 112.4051049  50.8714736  90.3912413 113.0798693
  52.0813931  91.2556792 112.7957566  48.2309848 102.3830072  96.3164618
  48.7434369 103.1773322  96.4670183  48.8832561 101.6856363  96.2498220
  50.0404733 105.4995828  98.3987372  50.2171361 106.4213793  98.2108356
  50.8361566 105.1854248  98.8281751  54.1815751  92.3604093 109.9971305
  54.9225465  92.9611246 109.9175768  54.4133674  91.6181731 109.4389348
  49.3257089  97.5460460 108.2749535  49.2110605  96.6445718 108.5756634
  48.4701607  97.7924157 107.9234351  56.4048927 105.4878201 109.8737035
  55.9612781 104.7014579 109.5557940  57.0666141 105.6757351 109.2080926
  51.1636048 107.0174002 104.3997714  51.7143473 106.8891066 103.6274708
  50.3247524 107.3168891 104.0492607  58.5030165 105.7681001 107.9018437
  58.4848641 106.5889882 107.4098706  59.4250085 105.6435076 108.1268578
  54.9603219 103.2825130 108.7441945  55.4931556 102.5213418 108.5141253
  54.4317300 102.9898782 109.4866100  58.1272914  88.3885196 104.2735587
  57.7837184  89.2786838 104.1974697  58.4951877  88.1986854 103.4105172
  46.1958765 100.7118726  97.0924189  47.0333987 101.1215735  96.8757897
  46.3737033  99.7718169  97.0624383  58.0923197  98.3793807  92.7808022
  57.5769821  99.1498412  93.0196409  57.8200506  97.7058943  93.4041083
  55.6770308  93.2243508  97.8393260  54.8211904  92.8350358  97.6598899
  56.0897260  93.3035469  96.9793046  57.2069455  90.7589851 102.2384820
  56.7034250  90.7219986 101.4252625  57.5000062  91.6682594 102.2981477
  53.4512341  90.8428581 101.2451002  54.3165337  90.6471390 100.8856891
  53.5189850  90.6138933 102.1720359  63.0657471 101.1326162  94.7161195
  62.2886914 100.7937321  94.2716357  63.7448952 101.1378785  94.0416160
  57.8809500  96.2520899  94.6067803  57.5759636  96.5667048  95.4577946
  58.8339942  96.3302319  94.6495136  56.3255932 102.4111123  96.2560757
  55.7977294 101.6763882  95.9433995  55.8243435 103.1885799  96.0100725
  61.3048778 100.6060143 101.3727803  60.6472453 101.2959404 101.4607932
  62.1089177 100.9956575 101.7161790  51.0574660  93.0730789  98.6167369
  51.6318412  92.8505970  97.8840562  51.6445642  93.1419483  99.3695970
  60.1154237  98.9604516  99.4231745  60.6286119  99.5934508  99.9253455
  60.7655461  98.3605711  99.0575105  51.3844247  95.1035250  92.6363254
  50.5481559  95.4409936  92.9572529  51.2449016  94.9684230  91.6990391
  53.3597327  89.9472038  97.3442438  52.7061740  89.6321055  96.7199053
  53.3177802  89.3247778  98.0702261  54.4708532 100.2291333  89.2595730
  53.5635594  99.9980586  89.4586879  54.9679564  99.4328952  89.4469712
  57.3776611 108.9388840  92.1792416  56.7038310 109.2420537  92.7877374
  57.7642433 109.7417920  91.8297873  56.5935068  96.4353971 101.6690086
  55.6757629  96.6568918 101.5111774  57.0095211  96.5100282 100.8101793
  57.3770116  97.8345387  96.7992766  58.1241934  98.3466784  96.4899888
  57.6461705  97.5129440  97.6597159  55.6496766 100.3303928  93.7819720
  54.7407985 100.0462960  93.8792190  55.6791850 100.7503006  92.9223027
  60.8816033 103.9410517  97.5510888  60.4278360 103.1001427  97.6076078
  60.2510000 104.5771916  97.8885668  59.8248953  94.8702503  98.7811555
  59.0871709  94.3579889  99.1121798  60.0775726  94.4302885  97.9694832
  59.3248972 105.7787014  98.4860706  59.6171947 106.3392071  97.7673072
  59.8347593 106.0715575  99.2413865  59.9260580  87.6478755  99.3753324
  60.2319457  86.7876119  99.0879240  60.6513185  88.2396375  99.1752318
  46.2184936  98.0509442  97.7634922  46.0209336  97.4578802  97.0385989
  45.6631600  97.7461652  98.4810861  54.1981660  97.9432548  99.8829516
  54.2530270  96.9906385  99.8071992  53.3872862  98.0991987 100.3670814
  55.3472854 101.8712671  91.1207799  54.9092283 101.1548530  90.6613436
  56.0883294 102.0988786  90.5592890  52.1374020  96.5609608  97.6419894
  51.3241885  96.8603779  98.0485087  52.6333014  96.1665297  98.3594377
  54.2882598 106.5567365  99.5754159  54.2458776 106.7828211  98.6462691
  55.2045296 106.3230740  99.7239960  57.7348231  97.0251432 106.4734788
  58.0897619  97.2522906 107.3329254  58.3820363  97.3569809 105.8512044
  63.4645968 100.1469868  97.1784117  63.3263867 100.3371464  96.2505307
  63.1082187 100.9089251  97.6352168  51.6288094  94.1327964 103.2581129
  52.2687474  93.9916723 102.5604093  50.7965625  93.8462477 102.8819731
  63.4915348 102.2146395 102.1895389  63.9251855 102.1221684 103.0378443
  64.2046929 102.1903896 101.5515405  52.4048398 103.4330394  99.3716122
  53.1988997 102.9380714  99.1698697  51.6940091 102.9048257  99.0083827
  57.2243243 105.8148489 103.7228489  57.2780265 106.3839426 104.4906205
  56.3558024 105.9850375 103.3582527  48.7131162  97.5773476  95.4475875
  47.7828750  97.5157931  95.6645837  48.8088634  97.0549428  94.6512516
  48.6316711  94.1028289  98.0354116  48.8923528  95.0173622  97.9263277
  49.4533883  93.6352731  98.1850729  50.1041636  95.5166046 105.2052941
  50.7764690  95.3083408 104.5565590  49.2771423  95.3188132 104.7658173
  64.3530897 102.2570096 104.7228274  64.5466788 103.1615907 104.9687549
  64.2531516 101.7977515 105.5566859  56.0067208  92.1427987 107.2218602
  55.3595123  92.8417936 107.1283078  56.7768224  92.5764131 107.5894850
  59.4146006 102.4076839 110.2969155  59.2631513 102.1787390 109.3799239
  59.4050686 103.3647440 110.3100500  56.1831343  99.9808752 105.2815421
  57.1123403 100.1319911 105.1084389  55.7622373 100.0692772 104.4264068
  54.9819674 104.0059416 103.0513959  54.8430760 103.6378200 103.9239897
  54.1934271 104.5207055 102.8797917  55.5767826 109.1068512  94.3939495
  55.7519582 108.6356556  95.2085118  54.8900614 109.7334279  94.6220756
  56.5324889 103.3841019 100.4402797  56.1974722 103.3441789 101.3360447
  56.0328835 102.7185735  99.9673207  50.5069133  98.7908649 105.9655378
  50.3688931  98.0588887 106.5666917  51.4174057  98.7017549 105.6839566
  59.4684081 100.7297053  90.7139856  58.8513252 100.0043881  90.6172909
  59.0000570 101.4906413  90.3706931  53.1351434  98.5028608 105.4539058
  53.8451053  97.8621800 105.4125676  53.0920742  98.7541503 106.3765238
  61.1238213 105.4395961 108.3745637  61.0650759 104.7555181 107.7076220
  61.5257731 106.1814951 107.9226263  51.8480368  95.4893826 107.2734697
  51.3117725  95.0384564 107.9256293  51.2597077  95.6239735 106.5305161
  50.1428912 112.2557875 101.1679356  50.3825510 112.8876399 101.8458374
  49.2998108 111.9045915 101.4544715  51.2582627  94.9482477  89.8361161
  50.3812093  94.8271278  89.4723407  51.7340380  94.1568556  89.5840049
  61.1255620 103.4035545 106.6059616  60.2382399 103.0661467 106.7286015
  61.6954171 102.6718576 106.8428382  42.7784767  99.7359637  99.9302668
  43.4655807  99.4221367  99.3423683  42.6232896 100.6401002  99.6569919
  47.5819489  94.6249834 104.3587691  47.4977678  94.0175503 103.6238101
  46.7602196  95.1158852 104.3597188  54.6556773 108.0636998 103.5720860
  54.5826945 108.8691969 104.0840164  54.2134167 108.2628963 102.7468881
  54.4446553 107.3008768  97.0823681  53.6614075 107.8430448  97.1761906
  55.1439298 107.8182747  97.4817922  57.7543203  93.1103397  99.7257887
  58.2511903  92.3573359  99.4058957  56.9830185  93.1467714  99.1601096
  65.6072961  98.8143763 101.3676178  65.5962837  99.6968478 100.9970111
  64.7390340  98.4615313 101.1730715  57.1155457 107.9623832 105.7279018
  57.8283429 108.5971296 105.6554920  56.6245486 108.0587698 104.9119020
  58.8372984 101.8675084  97.2996310  57.9029263 101.9876547  97.1301014
  59.0149652 100.9647551  97.0356320  54.3378172  95.2520780  99.4529571
  53.9675959  94.6991820 100.1410477  54.8337264  94.6478914  98.9004571
  62.2245535  97.7092404  97.8346344  62.6905987  98.5420395  97.7606647
  62.6753036  97.2437385  98.5391603  52.1667371 105.7118275 106.5484589
  52.8676830 106.3454758 106.7013983  51.6962485 106.0533007 105.7880228
  60.2921766 104.0536225  94.8332496  60.5681610 103.9392819  95.7426370
  59.4226265 103.6553710  94.7944669  60.1962198  90.0772991 101.8737245
  59.2825278  90.3077217 102.0419452  60.6255299  90.1611435 102.7251278
  59.9668656  98.2662883 104.3737139  59.3140107  98.5138790 103.7189592
  60.3449036  97.4527021 104.0399617  56.9275830 108.3022576  98.4765310
  57.1098225 107.4844232  98.9393062  57.7508816 108.5190268  98.0390200
  57.2617996 107.2290761  95.7380358  57.7905762 106.7183215  95.1250520
  57.5246215 106.9133291  96.6025891  56.0156229  99.0082694 110.8603177
  55.3396867  98.9076823 111.5305552  56.8383863  98.8521907 111.3239174
  47.7635089 105.2454630 103.4815692  48.3488525 104.4998318 103.6143596
  47.5659927 105.5558587 104.3652356  50.6173744 108.2805878  98.4978134
  49.9484119 108.7652005  98.0142174  50.4786613 108.5275098  99.4121513
  42.3552743  97.8160230 102.2020135  42.3936843  97.2823821 102.9957253
  41.8493036  97.2895436 101.5831112  54.7579012 110.3149621 105.0960793
  55.3097320 110.4781243 105.8609878  55.0985206 110.9054059 104.4240817
  49.7343506  92.6624771 105.6982677  49.7984832  93.5239602 105.2860075
  49.6710626  92.0498773 104.9655036  49.2095778  94.7347903 109.3455711
  49.8367817  94.3524981 109.9593236  48.3523697  94.5162105 109.7111404
  45.9861321  96.5424333  95.2774066  46.2814762  95.6335011  95.2241120
  45.0849357  96.5212072  94.9555069  57.8947400 108.2631597 102.0824475
  57.7698539 107.4621336 101.5735420  58.5526491 108.7577790 101.5938445
  49.5155568  94.6180329 101.2601615  48.7942154  95.2316297 101.1209088
  50.3048824  95.1538094 101.1818261  59.9582308 106.0640617 103.7104025
  59.0112644 105.9445968 103.6382352  60.3065081 105.1763115 103.7930286
  52.3181881  91.9534756 107.5342267  52.8416283  92.1997052 108.2968576
  52.0994215  92.7854790 107.1145404  47.7149162  94.2238430  95.4013391
  47.3861869  93.3435809  95.2188497  48.0688533  94.1686099  96.2889781
  56.9628741 105.8593333  99.9108377  56.8153704 104.9310040 100.0915947
  57.7882235 105.8813424  99.4265452  50.8290986  94.5111400  95.7688869
  51.1687058  95.0397321  95.0467478  51.2763106  94.8491806  96.5447436
  60.5662863 106.6821892 100.9973250  61.4909411 106.4764753 100.8597701
  60.3978167 106.4338293 101.9062591  53.5234426  92.8948451 105.2191937
  53.1831247  92.0956264 105.6212617  52.8173433  93.1950162 104.6468770
  54.1750898  89.9797763 103.6719260  54.9976968  89.5058241 103.5498151
  54.4188962  90.7588247 104.1717947  52.8159133  93.0086022  93.9682162
  53.5367495  93.3867274  93.4645879  52.1924437  93.7274898  94.0717140
  56.9590256  93.7131171  94.9040494  57.1753870  94.5955808  94.6029322
  56.4784323  93.3217384  94.1746136  51.6989477  96.6716884 101.4811239
  51.5534058  96.9857187 102.3735520  51.2214681  97.2901784 100.9282137
  53.5585860  93.6619432 101.5292128  53.5447429  92.7660525 101.1924426
  54.2758288  93.6690095 102.1630414  55.4111991  94.0956772 103.5745256
  55.1529768  95.0173843 103.5729586  54.8797031  93.6987206 104.2645720
  60.3558179 107.2007559  96.3535341  60.5295057 106.6353982  95.6009194
  60.8487071 108.0008454  96.1714831  46.1735139  99.2122228 104.4198900
  45.6288607  99.9882036 104.5519174  47.0514489  99.5593033 104.2618021
  52.9622756  92.5433812  96.7979699  53.0838667  91.6150458  96.9970586
  52.6724798  92.5572498  95.8858014  55.8313946  90.2288722  99.9346418
  55.8535643  90.2928056  98.9798398  56.2482005  89.3893231 100.1286925
  66.2097571  99.9643982  97.9725641  66.6528717  99.2151307  97.5744764
  65.3324081  99.9554118  97.5899373  61.3433352 106.5174323  93.4532239
  62.0384256 107.1381016  93.6719554  61.6856502 105.6669675  93.7284617
  46.9601161  98.3392124 107.3129057  46.2182897  98.4874760 107.8993687
  46.6393905  98.6000390 106.4495806  63.2424775 103.9674029  94.9819570
  63.7676099 104.3061302  94.2568890  63.1547128 103.0321044  94.7982705
  54.9044824 107.8808103 107.1109447  55.2131950 107.6357249 107.9832146
  55.7020306 108.0854741 106.6228317  54.9265436 110.0346012  99.3414823
  54.4870426 109.5422391 100.0347680  55.6773553 109.4918980  99.1006899
  47.4057775 106.2257553  99.3439452  48.2315795 105.9261325  98.9638095
  47.0551827 105.4565176  99.7929240  52.3739308 105.5784021 101.4137125
  51.7519317 104.9154726 101.1139353  53.0444175 105.6045153 100.7310773
  45.6066380 104.1443880 100.3028385  44.7698288 103.7166054 100.1212386
  45.5790025 104.3376323 101.2399176  52.4463835  94.0565809 111.0069631
  52.4951991  94.9327932 110.6247401  52.9886350  93.5143202 110.4341274
  63.0516556 101.4499399 107.6003497  63.1014561 101.2849406 108.5419020
  62.9430479 100.5826658 107.2101378  51.9352815 104.1287945  94.8895586
  52.0840935 104.8123409  94.2362258  52.7419258 104.1093035  95.4045041
  60.3420319  97.4330327 108.9162803  61.2430181  97.2936792 108.6246801
  60.4168293  97.5984782 109.8560981  54.6763124  94.8097182 107.7615990
  53.8066433  95.1030748 107.4898578  54.9122604  95.3937627 108.4823253
  64.5534753 103.8696341 107.8445518  64.2619561 104.2326321 108.6808979
  63.9406884 103.1563349 107.6658850  65.7530435 101.4349220 100.3648089
  66.5877327 101.8739024 100.5285649  65.8889564 100.9587874  99.5456334
  62.8021941  98.9928955 106.3125576  63.2776063  99.1856601 105.5044428
  61.8787507  99.0488141 106.0668960  49.6905448 100.1553122  95.8956655
  49.4451490  99.2515452  96.0936865  49.8601362 100.1570273  94.9536133
  57.3802158  91.0276799 105.2781410  57.8984102  91.7637826 104.9527899
  57.0257290  91.3340792 106.1128169  48.9601095  95.8881480  93.3942816
  48.2670340  95.9625835  92.7382852  48.7152847  95.1241824  93.9164333
  57.6314752  87.4477081 100.7982307  57.9116506  86.7800270 101.4242733
  58.4165359  87.6406177 100.2856971  55.4348220 106.6236075  92.3607333
  54.8622187 107.2426262  91.9077805  56.0081014 107.1735437  92.8947255
  61.5023610  95.8694715 104.5453882  62.4541033  95.9692813 104.5666106
  61.3327061  95.0772984 105.0551966  59.5237990  92.9550298 104.7313283
  58.9287922  93.2355311 104.0359771  59.2387686  93.4444199 105.5030024
  58.6545480 106.9073225  93.4915915  59.5876153 106.8418787  93.6948791
  58.5668693 107.7429492  93.0330448  61.2833497 106.2239096  90.4519863
  61.2047128 105.8898959  91.3455621  62.1043164 106.7160864  90.4511335
  63.9811688  99.0900835 103.6596182  63.9488008  98.1516836 103.8455865
  64.5912312  99.1684872 102.9262006  55.8195019  97.9596888  89.7023386
  56.7654124  97.8303096  89.7711804  55.4409264  97.2211550  90.1792814
  64.1306176  95.8811878 103.7054465  63.6145225  95.0970335 103.5184394
  65.0146125  95.5530595 103.8700984  61.7916903  89.6252894  99.6650277
  61.5941725  89.3167982 100.5493609  62.4016609  90.3514533  99.7948207
  69.7988238 100.1516842 102.8002218  70.5291626  99.8902130 103.3609922
  69.1895183  99.4145564 102.8404286  67.8803535  98.2924704 103.3976670
  67.1536699  98.1580669 102.7893161  67.4650822  98.6001533 104.2033388
  55.7033711 102.0114634 111.1624043  56.6236721 102.1893233 111.3564089
  55.6683294 101.0670679 111.0103742  54.0037936  95.8846864  89.6378271
  53.0969391  95.5879977  89.7140984  54.2813917  95.5876682  88.7712557
  44.9215876  97.2053228 100.0877317  44.6018661  96.3518536  99.7951691
  44.3749305  97.4201806 100.8435285  48.6995784  99.9215669 103.8046824
  48.9181794 100.8532777 103.8234858  49.1121558  99.5623643 104.5901628
  55.6200002  90.4283754  95.7922512  54.8100730  90.0830839  96.1677758
  56.3084419  90.1191298  96.3810124  57.5490550  89.5061801  97.4146809
  58.1021589  89.9257254  98.0736832  57.7860636  88.5797549  97.4569765
  53.5723649  95.4948874 113.1949573  53.4720376  96.4443231 113.1261664
  53.3545191  95.1667113 112.3225643  52.7736721  92.7433800  89.7790250
  53.6355885  93.0688698  90.0386067  52.9587065  91.9565295  89.2663316
  44.7904136 100.8256139 102.0570439  44.0967608 100.4110092 101.5440393
  45.5377127 100.8676676 101.4603858  60.9269357  91.6162326  96.9225473
  60.3468026  92.2747130  96.5403525  60.6605290  90.7939671  96.5112890
  59.3772923  91.0167384  99.1246793  59.8772702  91.1283918  98.3161112
  60.0208531  90.7128437  99.7647602  53.4354919  98.9246013 112.0114634
  52.9522001  99.7246373 112.2178523  53.5215858  98.9353958 111.0582078
  46.7040879 100.7574393  99.9336454  46.6811567 100.8562080  98.9818337
  47.0141515 101.6039544 100.2553620  49.3628257 102.8150548 104.0483068
  50.3171510 102.7834490 103.9813000  49.1640780 102.3541172 104.8633294
  49.9527639 101.3851664 106.6153866  50.7720528 101.8795743 106.6388703
  50.2264447 100.4683632 106.5871433  59.7094235  93.7762416  95.9781821
  58.8220090  94.0612067  95.7602016  60.1248224  93.6156180  95.1309098
  63.0608771  93.8008937  99.6936160  63.8369161  94.2905390  99.9660777
  62.3356905  94.2266992 100.1508030  65.4981330  94.5136557 100.7510101
  66.0925821  94.2732293 100.0403409  65.5707914  93.7943687 101.3783637
  47.7178486 108.3570167 101.0653266  47.5832953 107.5970568 100.4991264
  47.3010548 109.0811067 100.5982055  58.8537449 103.5407091  90.0729841
  59.5573299 103.7457094  90.6887497  58.1300097 104.1083853  90.3378925
  59.6835259  99.2916952  96.1932111  59.6270460  99.7485504  95.3539744
  60.2363601  98.5307637  96.0154954  63.4940065  95.0806684  97.0182231
  63.2376999  94.6803320  97.8490439  62.8692933  95.7950478  96.8932370
  67.8052403  97.8202757  99.5253522  67.2451961  97.8895947 100.2985084
  67.1995906  97.6443742  98.8053019  50.8747611 109.2539485 101.2771709
  50.7579996 110.1984917 101.1750399  50.0540058 108.9513046 101.6657508
  60.7624146 103.9789620  92.1228301  61.5969750 103.5470819  91.9405776
  60.6008489 103.8071634  93.0505196  60.4170038 100.4821734  93.4884641
  60.3618842 100.3166005  92.5473085  59.7916093 101.1897766  93.6446830
  45.2062553  95.7189798 107.3146063  45.8521417  95.2088752 107.8033288
  44.9979704  96.4558480 107.8889488  53.7266164  89.9829843  93.0669959
  53.7144833  90.9271682  93.2238230  54.6189585  89.7999988  92.7729420
  51.9002126 109.9067746 104.4927637  52.8029372 109.9391357 104.8094132
  51.6739496 108.9768197 104.5073973  53.6555728 108.6598733 101.1537716
  52.7051359 108.6600595 101.0402088  53.9588214 107.9131468 100.6373750
  57.5418283  86.5772619  97.3215896  56.7750679  86.0231106  97.4672578
  57.9528988  86.6494488  98.1830047  49.5460044  92.8657415 111.4121077
  50.4091506  92.5094220 111.6224402  48.9725455  92.5271310 112.0996481
  62.0584943 116.3022176  98.1441894  61.4949808 116.2112113  97.3758181
  61.9437338 115.4822080  98.6244386  59.6049375 117.7973367 100.9826114
  60.3970667 117.4564192 100.5672413  59.8446025 117.9068343 101.9028267
  67.6384502 119.9693144  93.4556359  66.9872482 120.5547224  93.0690372
  68.4328865 120.4999338  93.5151396  61.5640129 117.0582281  93.8543493
  62.3371005 116.5111268  93.7156369  61.9165528 117.9226530  94.0657954
  63.9006407 113.2174947  91.4861943  64.1531927 112.6956468  90.7245406
  62.9630966 113.0541092  91.5888626  68.9449690 112.2210725  99.2936686
  69.7312779 111.8030148  98.9427103  69.2088394 113.1256817  99.4618334
  69.1159767 117.6583575  93.9925343  68.4805600 117.7318202  94.7046248
  68.7857173 118.2477174  93.3144422  63.6202695 115.1203053  93.6886318
  63.5038954 114.4447956  94.3567402  63.7304955 114.6335427  92.8718471
  65.9634236 114.5813200  97.3933007  65.5992444 114.0543821  98.1045929
  66.8201352 114.1911669  97.2199492  65.6039723 109.6103100  92.3894356
  65.7714126 110.4783336  92.7564827  65.4136892 109.7730381  91.4655645
  61.8127538 114.5233875 100.0896890  60.8878035 114.3910089 100.2974582
  62.0611951 115.3028095 100.5866833  65.5828944 112.0660757  93.3741022
  65.4628569 112.5117808  94.2126503  64.8881533 112.4146075  92.8154561
  59.1736349 114.1667149 100.9240679  59.3028730 114.4201628 101.8380091
  58.4933800 114.7594857 100.6045334  71.2814010 112.5382230  94.2021356
  72.1931867 112.7709617  94.0269054  70.7723657 113.1219274  93.6396435
  68.6249985 108.7140266 102.4511217  67.7634464 109.0121520 102.7427955
  68.6512420 108.9310665 101.5192250  65.4411555 117.2582457  98.8585023
  65.9049900 117.5370160  98.0689645  65.1768353 116.3565901  98.6758114
  64.3780441 113.3805609  95.6674588  65.0804484 113.8326653  96.1348514
  64.0461069 112.7389428  96.2954481  58.1205775 111.6389162 100.9691722
  57.3304829 111.8946690 100.4931832  58.6117022 112.4537500 101.0743762
  60.0720520 112.0033741  97.9275198  59.2751683 112.1152435  98.4458694
  59.8446112 112.3420393  97.0616089  56.4043478 111.8919652 103.4006712
  56.6551516 112.7766662 103.6664288  56.9403026 111.7124254 102.6281804
  65.6174205 120.1946552  95.7436693  65.4819880 121.0398088  96.1721541
  66.1584018 120.3965829  94.9802627  59.0703603 117.7121990  96.3164618
  59.5828123 118.5065240  96.4670183  59.7226315 117.0148280  96.2498220
  60.8798487 120.8287746  98.3987372  61.0565116 121.7505711  98.2108356
  61.6755321 120.5146165  98.8281751  68.9666669 103.7177114 104.2735587
  68.6230938 104.6078755 104.1974697  69.3345631 103.5278771 103.4105172
  57.0352519 116.0410644  97.0924189  57.8727741 116.4507652  96.8757897
  57.2130787 115.1010086  97.0624383  68.9316952 113.7085725  92.7808022
  68.4163575 114.4790329  93.0196409  68.6594260 113.0350861  93.4041083
  66.5164063 108.5535426  97.8393260  65.6605659 108.1642276  97.6598899
  66.9291014 108.6327386  96.9793046  68.0463209 106.0881769 102.2384820
  67.5428005 106.0511904 101.4252625  68.3393816 106.9974512 102.2981477
  64.2906095 106.1720499 101.2451002  65.1559092 105.9763307 100.8856891
  64.3583604 105.9430850 102.1720359  73.9051226 116.4618079  94.7161195
  73.1280668 116.1229239  94.2716357  74.5842707 116.4670703  94.0416160
  68.7203255 111.5812817  94.6067803  68.4153390 111.8958966  95.4577946
  69.6733697 111.6594237  94.6495136  67.1649687 117.7403040  96.2560757
  66.6371048 117.0055800  95.9433995  66.6637189 118.5177717  96.0100725
  61.8968414 108.4022706  98.6167369  62.4712166 108.1797888  97.8840562
  62.4839397 108.4711401  99.3695970  62.2238001 110.4327168  92.6363254
  61.3875314 110.7701854  92.9572529  62.0842771 110.2976147  91.6990391
  64.1991082 105.2763955  97.3442438  63.5455494 104.9612973  96.7199053
  64.1571556 104.6539696  98.0702261  65.3102287 115.5583250  89.2595730
  64.4029348 115.3272504  89.4586879  65.8073319 114.7620870  89.4469712
  68.2170366 124.2680758  92.1792416  67.5432064 124.5712454  92.7877374
  68.6036188 125.0709838  91.8297873  67.4328822 111.7645889 101.6690086
  66.5151384 111.9860836 101.5111774  67.8488966 111.8392199 100.8101793
  68.2163870 113.1637305  96.7992766  68.9635689 113.6758702  96.4899888
  68.4855460 112.8421357  97.6597159  66.4890520 115.6595845  93.7819720
  65.5801739 115.3754878  93.8792190  66.5185604 116.0794924  92.9223027
  70.6642707 110.1994421  98.7811555  69.9265464 109.6871807  99.1121798
  70.9169481 109.7594802  97.9694832  70.7654334 102.9770673  99.3753324
  71.0713211 102.1168036  99.0879240  71.4906939 103.5688293  99.1752318
  57.0578691 113.3801359  97.7634922  56.8603090 112.7870720  97.0385989
  56.5025355 113.0753570  98.4810861  65.0375414 113.2724466  99.8829516
  65.0924024 112.3198302  99.8071992  64.2266616 113.4283905 100.3670814
  66.1866608 117.2004589  91.1207799  65.7486038 116.4840448  90.6613436
  66.9277049 117.4280704  90.5592890  62.9767774 111.8901526  97.6419894
  62.1635640 112.1895696  98.0485087  63.4726768 111.4957214  98.3594377
  74.3039723 115.4761786  97.1784117  74.1657621 115.6663382  96.2505307
  73.9475942 116.2381169  97.6352168  62.4681849 109.4619881 103.2581129
  63.1081228 109.3208640 102.5604093  61.6359379 109.1754395 102.8819731
  63.2442153 118.7622312  99.3716122  64.0382751 118.2672632  99.1698697
  62.5333845 118.2340175  99.0083827  59.5524916 112.9065393  95.4475875
  58.6222504 112.8449849  95.6645837  59.6482388 112.3841346  94.6512516
  59.4710465 109.4320206  98.0354116  59.7317283 110.3465539  97.9263277
  60.2927638 108.9644649  98.1850729  60.9435391 110.8457963 105.2052941
  61.6158444 110.6375325 104.5565590  60.1165177 110.6480049 104.7658173
  66.4161581 124.4360430  94.3939495  66.5913336 123.9648473  95.2085118
  65.7294369 125.0626196  94.6220756  70.3077836 116.0588971  90.7139856
  69.6907006 115.3335799  90.6172909  69.8394324 116.8198331  90.3706931
  62.0976382 110.2774395  89.8361161  61.2205848 110.1563196  89.4723407
  62.5734135 109.4860473  89.5840049  53.6178522 115.0651555  99.9302668
  54.3049561 114.7513285  99.3423683  53.4626650 115.9692919  99.6569919
  58.4213244 109.9541751 104.3587691  58.3371433 109.3467421 103.6238101
  57.5995950 110.4450770 104.3597188  68.5936958 108.4395315  99.7257887
  69.0905657 107.6865277  99.4058957  67.8223939 108.4759631  99.1601096
  69.6766738 117.1967002  97.2996310  68.7423017 117.3168464  97.1301014
  69.8543407 116.2939469  97.0356320  65.1771926 110.5812698  99.4529571
  64.8069714 110.0283738 100.1410477  65.6731019 109.9770831  98.9004571
  73.0639290 113.0384321  97.8346344  73.5299742 113.8712313  97.7606647
  73.5146790 112.5729303  98.5391603  71.1315521 119.3828143  94.8332496
  71.4075365 119.2684737  95.7426370  70.2620020 118.9845627  94.7944669
  71.0355952 105.4064908 101.8737245  70.1219032 105.6369135 102.0419452
  71.4649054 105.4903352 102.7251278  68.1011750 122.5582679  95.7380358
  68.6299517 122.0475133  95.1250520  68.3639970 122.2425209  96.6025891
  53.1946498 113.1452148 102.2020135  53.2330597 112.6115739 102.9957253
  52.6886791 112.6187354 101.5831112  60.5737260 107.9916689 105.6982677
  60.6378587 108.8531519 105.2860075  60.5104380 107.3790690 104.9655036
  56.8255075 111.8716250  95.2774066  57.1208516 110.9626929  95.2241120
  55.9243111 111.8503990  94.9555069  60.3549322 109.9472247 101.2601615
  59.6335908 110.5608214 101.1209088  61.1442578 110.4830012 101.1818261
  58.5542917 109.5530348  95.4013391  58.2255623 108.6727727  95.2188497
  58.9082288 109.4978017  96.2889781  61.6684740 109.8403318  95.7688869
  62.0080813 110.3689239  95.0467478  62.1156861 110.1783724  96.5447436
  64.3628181 108.2240368 105.2191937  64.0225001 107.4248181 105.6212617
  63.6567187 108.5242079 104.6468770  65.0144653 105.3089681 103.6719260
  65.8370722 104.8350159 103.5498151  65.2582716 106.0880165 104.1717947
  63.6552887 108.3377939  93.9682162  64.3761250 108.7159192  93.4645879
  63.0318191 109.0566816  94.0717140  67.7984010 109.0423088  94.9040494
  68.0147625 109.9247726  94.6029322  67.3178077 108.6509302  94.1746136
  62.5383232 112.0008801 101.4811239  62.3927812 112.3149104 102.3735520
  62.0608435 112.6193702 100.9282137  64.3979614 108.9911349 101.5292128
  64.3841183 108.0952443 101.1924426  65.1152043 108.9982013 102.1630414
  66.2505745 109.4248690 103.5745256  65.9923523 110.3465760 103.5729586
  65.7190785 109.0279124 104.2645720  57.0128894 114.5414146 104.4198900
  56.4682362 115.3173954 104.5519174  57.8908244 114.8884950 104.2618021
  63.8016510 107.8725730  96.7979699  63.9232422 106.9442376  96.9970586
  63.5118553 107.8864416  95.8858014  66.6707701 105.5580640  99.9346418
  66.6929398 105.6219973  98.9798398  67.0875760 104.7185149 100.1286925
  72.1827106 121.8466241  93.4532239  72.8778011 122.4672934  93.6719554
  72.5250257 120.9961592  93.7284617  74.0818529 119.2965947  94.9819570
  74.6069854 119.6353219  94.2568890  73.9940882 118.3612962  94.7982705
  58.2451529 121.5549471  99.3439452  59.0709549 121.2553243  98.9638095
  57.8945581 120.7857093  99.7929240  56.4460134 119.4735797 100.3028385
  55.6092043 119.0457972 100.1212386  56.4183780 119.6668241 101.2399176
  62.7746569 119.4579862  94.8895586  62.9234690 120.1415327  94.2362258
  63.5813013 119.4384952  95.4045041  60.5299202 115.4845040  95.8956655
  60.2845244 114.5807370  96.0936865  60.6995117 115.4862190  94.9536133
  59.7994850 111.2173398  93.3942816  59.1064095 111.2917753  92.7382852
  59.5546602 110.4533741  93.9164333  68.4708506 102.7768999 100.7982307
  68.7510260 102.1092188 101.4242733  69.2559113 102.9698095 100.2856971
  66.2741975 121.9527993  92.3607333  65.7015942 122.5718180  91.9077805
  66.8474768 122.5027355  92.8947255  69.4939235 122.2365143  93.4915915
  70.4269908 122.1710705  93.6948791  69.4062447 123.0721410  93.0330448
  72.1227251 121.5531013  90.4519863  72.0440883 121.2190877  91.3455621
  72.9436918 122.0452781  90.4511335  66.6588773 113.2888806  89.7023386
  67.6047878 113.1595014  89.7711804  66.2803018 112.5503467  90.1792814
  72.6310658 104.9544812  99.6650277  72.4335479 104.6459900 100.5493609
  73.2410363 105.6806451  99.7948207  64.8431690 111.2138782  89.6378271
  63.9363146 110.9171895  89.7140984  65.1207671 110.9168600  88.7712557
  55.7609631 112.5345145 100.0877317  55.4412415 111.6810454  99.7951691
  55.2143059 112.7493724 100.8435285  66.4593756 105.7575672  95.7922512
  65.6494485 105.4122757  96.1677758  67.1478173 105.4483215  96.3810124
  68.3884304 104.8353718  97.4146809  68.9415343 105.2549172  98.0736832
  68.6254391 103.9089467  97.4569765  63.6130475 108.0725717  89.7790250
  64.4749639 108.3980616  90.0386067  63.7980819 107.2857213  89.2663316
  55.6297891 116.1548057 102.0570439  54.9361362 115.7402010 101.5440393
  56.3770882 116.1968593 101.4603858  71.7663112 106.9454244  96.9225473
  71.1861781 107.6039048  96.5403525  71.4999044 106.1231588  96.5112890
  70.2166678 106.3459301  99.1246793  70.7166456 106.4575836  98.3161112
  70.8602286 106.0420354  99.7647602  57.5434633 116.0866311  99.9336454
  57.5205321 116.1853998  98.9818337  57.8535270 116.9331461 100.2553620
  70.5487990 109.1054334  95.9781821  69.6613845 109.3903985  95.7602016
  70.9641979 108.9448097  95.1309098  73.9002526 109.1300855  99.6936160
  74.6762916 109.6197307  99.9660777  73.1750660 109.5558909 100.1508030
  69.6931203 118.8699009  90.0729841  70.3967053 119.0749011  90.6887497
  68.9693852 119.4375771  90.3378925  70.5229013 114.6208870  96.1932111
  70.4664215 115.0777421  95.3539744  71.0757356 113.8599555  96.0154954
  74.3333819 110.4098602  97.0182231  74.0770753 110.0095237  97.8490439
  73.7086687 111.1242396  96.8932370  71.6017900 119.3081538  92.1228301
  72.4363504 118.8762736  91.9405776  71.4402243 119.1363552  93.0505196
  71.2563793 115.8113651  93.4884641  71.2012596 115.6457923  92.5473085
  70.6309848 116.5189684  93.6446830  56.0456308 111.0481716 107.3146063
  56.6915171 110.5380670 107.8033288  55.8373459 111.7850397 107.8889488
  64.5659918 105.3121760  93.0669959  64.5538588 106.2563600  93.2238230
  65.4583340 105.1291906  92.7729420  68.3812038 101.9064537  97.3215896
  67.6144433 101.3523024  97.4672578  68.7922743 101.9786406  98.1830047
  73.0631756 125.7619085  92.6363254  72.2269068 126.0993772  92.9572529
  72.9236525 125.6268065  91.6990391  72.9370136 125.6066313  89.8361161
  72.0599602 125.4855113  89.4723407  73.4127889 124.8152391  89.5840049
  70.6388604 126.5465315  93.3942816  69.9457849 126.6209670  92.7382852
  70.3940356 125.7825659  93.9164333  75.6825445 126.5430700  89.6378271
  74.7756900 126.2463812  89.7140984  75.9601426 126.2460518  88.7712557
  74.4524230 123.4017635  89.7790250  75.3143394 123.7272533  90.0386067
  74.6374574 122.6149131  89.2663316  75.4053673 120.6413678  93.0669959
  75.3932342 121.5855518  93.2238230  76.2977094 120.4583823  92.7729420
  15.1939650  14.8561806  88.9428785  15.8318060  14.7368553  88.2392125
  15.0760493  15.8042650  89.0016737   7.8616172  16.6624710  84.8687200
   7.2981037  16.5714647  84.1003488   7.7468567  15.8424615  85.3489693
  13.4415731  20.3295678  80.1801665  12.7903710  20.9149758  79.7935679
  14.2360093  20.8601873  80.2396703   7.3671358  17.4184815  80.5788800
   8.1402234  16.8713802  80.4401675   7.7196757  18.2829064  80.7903261
   9.7037636  13.5777481  78.2107249   9.9563156  13.0559002  77.4490712
   8.7662195  13.4143626  78.3133933  14.7480918  12.5813259  86.0181993
  15.5344008  12.1632683  85.6672410  15.0119623  13.4859352  86.1863641
  14.9190996  18.0186110  80.7170650  14.2836829  18.0920736  81.4291554
  14.5888402  18.6079709  80.0389729  20.1489345  12.5188493  86.9214971
  20.8814517  11.9487709  87.1552801  19.3928701  12.1310093  87.3621477
   9.4233924  15.4805587  80.4131624   9.3070182  14.8050490  81.0812709
   9.5336184  14.9937961  79.5963777  11.7665465  14.9415734  84.1178314
  11.4023672  14.4146355  84.8291235  12.6232581  14.5514203  83.9444799
  11.3860173  12.4263291  80.0986329  11.2659798  12.8720342  80.9371809
  10.6912761  12.7748609  79.5399867   9.1467065  25.1966933  83.7476460
   9.0691095  26.1474758  83.8264941   8.5428709  24.8512806  84.4051387
  17.0845239  12.8984764  80.9266663  17.9963095  13.1312151  80.7514361
  16.5754886  13.4821809  80.3641742  15.6914822  17.8810583  88.3180245
  15.0623684  18.0456297  87.6156312  15.3040484  18.2952192  89.0891209
  19.5704053  18.8165021  85.6724608  18.8855092  19.1963922  85.1221642
  19.6547903  19.4260347  86.4056556  11.2442783  17.6184991  85.5830330
  11.7081129  17.8972694  84.7934952  10.9799582  16.7168436  85.4003420
  10.1811669  13.7408143  82.3919895  10.8835713  14.1929187  82.8593821
   9.8492298  13.0991962  83.0199788  17.9400813  19.3396935  90.4442309
  18.7618257  18.9377122  90.1624991  17.9363216  19.2365169  91.3958425
  26.0306806  15.6835684  86.7927281  25.2770514  15.1143082  86.6371285
  26.1654347  15.6498348  87.7397915  11.4205434  20.5549086  82.4682000
  11.2851109  21.4000622  82.8966848  11.9615247  20.7568364  81.7047934
   4.8734831  18.0724524  83.0409925   5.3859352  18.8667774  83.1915490
   5.5257544  17.3750814  82.9743527   6.6829716  21.1890280  85.1232678
   6.8596345  22.1108245  84.9353662   7.4786550  20.8748700  85.5527058
   7.8061032  22.7068454  91.1243021   8.3568457  22.5785517  90.3520015
   6.9672508  23.0063343  90.7737913  14.7348180  14.0688259  79.5053329
  14.2194804  14.8392864  79.7441716  14.4625489  13.3953395  80.1286390
  19.7082455  16.8220614  81.4406502  18.9311897  16.4831773  80.9961664
  20.3873935  16.8273237  80.7661467  14.5234484  11.9415351  81.3313110
  14.2184619  12.2561500  82.1823253  15.4764926  12.0196771  81.3740443
  12.9680915  18.1005574  82.9806064  12.4402277  17.3658334  82.6679301
  12.4668418  18.8780251  82.7346032  17.9473761  16.2954595  88.0973110
  17.2897436  16.9853856  88.1853239  18.7514161  16.6851027  88.4407096
  16.7579220  14.6498968  86.1477052  17.2711102  15.2828959  86.6498761
  17.4080444  14.0500163  85.7820412  11.1133516  15.9185785  75.9841037
  10.2060577  15.6875038  76.1832186  11.6104548  15.1223404  76.1715018
  14.0201594  24.6283292  78.9037723  13.3463293  24.9314989  79.5122681
  14.4067416  25.4312372  78.5543180  14.0195099  13.5239839  83.5238073
  14.7666918  14.0361236  83.2145195  14.2886688  13.2023892  84.3842466
  12.2921749  16.0198380  80.5065027  11.3832968  15.7357412  80.6037497
  12.3216833  16.4397458  79.6468334  17.5241016  19.6304969  84.2756194
  17.0703344  18.7895879  84.3321385  16.8934983  20.2666367  84.6130975
  16.4673936  10.5596955  85.5056862  15.7296693  10.0474341  85.8367104
  16.7200710  10.1197337  84.6940139  15.9673956  21.4681466  85.2106013
  16.2596930  22.0286523  84.4918378  16.4772576  21.7610027  85.9659172
  10.8406643  13.6327000  86.6074822  10.8955253  12.6800837  86.5317299
  10.0297845  13.7886439  87.0916121  11.9897837  17.5607123  77.8453105
  11.5517267  16.8442982  77.3858743  12.7308278  17.7883238  77.2838197
  10.9307581  22.2461817  86.2999466  10.8883760  22.4722663  85.3707998
  11.8470280  22.0125191  86.4485267  20.1070952  15.8364320  83.9029424
  19.9688850  16.0265916  82.9750613  19.7507170  16.5983703  84.3597475
  20.1340331  17.9040847  88.9140695  20.5676838  17.8116136  89.7623750
  20.8471912  17.8798348  88.2760711   9.0473382  19.1224846  86.0961428
   9.8413980  18.6275166  85.8944003   8.3365074  18.5942709  85.7329134
  13.8668226  21.5042941  90.4473796  13.9205248  22.0733878  91.2151512
  12.9983007  21.6744826  90.0827833  20.9955881  17.9464548  91.4473581
  21.1891771  18.8510358  91.6932856  20.8956499  17.4871967  92.2812166
  11.6244658  19.6953868  89.7759266  11.4855743  19.3272652  90.6485204
  10.8359254  20.2101507  89.6043223  12.2192810  24.7962964  81.1184802
  12.3944565  24.3251007  81.9330425  11.5325598  25.4228730  81.3466063
  13.1749873  19.0735471  87.1648103  12.8399705  19.0336240  88.0605753
  12.6753818  18.4080186  86.6918514  16.1109064  16.4191505  77.4385163
  15.4938235  15.6938333  77.3418216  15.6425553  17.1800865  77.0952237
   6.7853895  27.9452327  87.8924662   7.0250493  28.5770851  88.5703681
   5.9423091  27.5940367  88.1790022  11.2981757  23.7531449  90.2966166
  11.2251928  24.5586421  90.8085471  10.8559150  23.9523415  89.4714188
  11.0871536  22.9903220  83.8068988  10.3039058  23.5324900  83.9007212
  11.7864282  23.5077199  84.2063229  22.2497944  14.5038215  88.0921485
  22.2387820  15.3862930  87.7215418  21.3815323  14.1509765  87.8976022
  13.7580440  23.6518284  92.4524325  14.4708412  24.2865748  92.3800226
  13.2670469  23.7482150  91.6364327  15.4797967  17.5569536  84.0241617
  14.5454246  17.6770999  83.8546321  15.6574636  16.6542003  83.7601626
  18.8670519  13.3986855  84.5591651  19.3330971  14.2314847  84.4851953
  19.3178019  12.9331837  85.2636909  16.9346750  19.7430677  81.5577803
  17.2106594  19.6287271  82.4671677  16.0651248  19.3448162  81.5189976
  13.5700814  23.9917028  85.2010616  13.7523208  23.1738684  85.6638369
  14.3933800  24.2084720  84.7635506  13.9042979  22.9185213  82.4625665
  14.4330746  22.4077667  81.8495827  14.1671199  22.6027743  83.3271198
   7.2598727  23.9700329  85.2223441   6.5909102  24.4546457  84.7387481
   7.1211597  24.2169550  86.1366819  11.4003996  26.0044073  91.8206099
  11.9522304  26.1675694  92.5855184  11.7410189  26.5948511  91.1486124
  14.5372383  23.9526048  88.8069781  14.4123522  23.1515788  88.2980727
  15.1951474  24.4472242  88.3183751  16.6007291  21.7535069  90.4349331
  15.6537627  21.6340420  90.3627658  16.9490064  20.8657567  90.5175593
  13.6053725  21.5487785  86.6353684  13.4578687  20.6204492  86.8161254
  14.4307218  21.5707875  86.1510759  17.2087846  22.3716343  87.7218556
  18.1334394  22.1659205  87.5843008  17.0403150  22.1232745  88.6307898
  16.9983163  22.8902011  83.0780648  17.1720040  22.3248433  82.3254500
  17.4912054  23.6902906  82.8960138  22.8522554  15.6538434  84.6970948
  23.2953700  14.9045759  84.2990071  21.9749064  15.6448570  84.3144680
  17.9858335  22.2068775  80.1777546  18.6809240  22.8275468  80.3964861
  18.3281485  21.3564127  80.4529924  19.8849758  19.6568481  81.7064877
  20.4101082  19.9955754  80.9814197  19.7972111  18.7215496  81.5228012
  11.5690419  25.7240464  86.0660130  11.1295409  25.2316843  86.7592987
  12.3198536  25.1813432  85.8252205   4.0482758  21.9152005  86.0684758
   4.8740778  21.6155777  85.6883402   3.6976810  21.1459627  86.5174547
   9.0164291  21.2678473  88.1382432   8.3944300  20.6049178  87.8384660
   9.6869158  21.2939605  87.4556080   8.5777798  19.8182397  81.6140892
   8.7265918  20.5017861  80.9607565   9.3844242  19.7987487  82.1290348
  22.3955419  17.1243672  87.0893395  23.2302310  17.5633476  87.2530956
  22.5314547  16.6482325  86.2701641   6.3330431  15.8447574  82.6201961
   6.0876473  14.9409904  82.8182171   6.5026346  15.8464725  81.6781439
  12.0773204  22.3130527  79.0852640  11.5047171  22.9320714  78.6323112
  12.6505997  22.8629889  79.6192562  15.2970463  22.5967677  80.2161222
  16.2301137  22.5313239  80.4194098  15.2093676  23.4323944  79.7575755
  17.9258480  21.9133548  77.1765170  17.8472112  21.5793411  78.0700927
  18.7468147  22.4055315  77.1756642  20.6236671  14.7795287  90.3841488
  20.5912991  13.8411288  90.5701172  21.2337295  14.8579324  89.6507313
  12.4620002  13.6491340  76.4268692  13.4079107  13.5197548  76.4957110
  12.0834247  12.9106002  76.9038120  26.4413221  15.8411294  89.5247525
  27.1716610  15.5796582  90.0855228  25.8320167  15.1040016  89.5649593
  24.5228518  13.9819156  90.1221976  23.7961682  13.8475121  89.5138468
  24.1075805  14.2895985  90.9278694  17.5694340   7.3056778  83.6470780
  16.9893009   7.9641582  83.2648832  17.3030273   6.4834122  83.2358197
  16.3519218   9.4656868  82.7027128  15.4645073   9.7506519  82.4847323
  16.7673207   9.3050632  81.8554405  19.7033755   9.4903389  86.4181467
  20.4794145   9.9799842  86.6906084  18.9781889   9.9161443  86.8753337
  22.1406313  10.2031008  87.4755408  22.7350804   9.9626744  86.7648716
  22.2132897   9.4838139  88.1028944   4.3603469  24.0464619  87.7898573
   4.2257937  23.2865020  87.2236571   3.9435531  24.7705519  87.3227361
  15.4962432  19.2301543  76.7975148  16.1998282  19.4351545  77.4132803
  14.7725081  19.7978305  77.0624231  16.3260242  14.9811404  82.9177418
  16.2695444  15.4379956  82.0785050  16.8788585  14.2202089  82.7400261
  20.1365048  10.7701136  83.7427538  19.8801982  10.3697772  84.5735745
  19.5117916  11.4844930  83.6177677  24.4477386  13.5097209  86.2498829
  23.8876944  13.5790399  87.0230391  23.8420889  13.3338194  85.5298325
   7.5172595  24.9433936  88.0017015   7.4004979  25.8879369  87.8995705
   6.6965041  24.6407498  88.3902814  17.4049129  19.6684072  78.8473608
  18.2394733  19.2365271  78.6651083  17.2433472  19.4966086  79.7750502
  17.0595021  16.1716185  80.2129947  17.0043825  16.0060457  79.2718391
  16.4341077  16.8792218  80.3692137   8.5427109  25.5962198  91.2172944
   9.4454356  25.6285809  91.5339439   8.3164479  24.6662649  91.2319279
  10.2980711  24.3493185  87.8783022   9.3476342  24.3495046  87.7647395
  10.6013197  23.6025919  87.3619057  26.0333404  30.1853723  88.9428785
  26.6711814  30.0660471  88.2392125  25.9154247  31.1334567  89.0016737
  22.8423111  30.1381151  88.8790309  22.5041622  30.0222216  87.9910844
  23.7112879  29.7372316  88.8591315  18.7009926  31.9916628  84.8687200
  18.1374791  31.9006565  84.1003488  18.5862321  31.1716532  85.3489693
  23.3242894  31.2916003  94.8376515  23.3131534  30.8968801  93.9657019
  23.4863533  30.5582076  95.4310286  16.2474358  33.4867819  87.7071421
  17.0395650  33.1458644  87.2917720  16.4871008  33.5962794  88.6273574
  24.2809485  35.6587595  80.1801665  23.6297465  36.2441676  79.7935679
  25.0753848  36.1893790  80.2396703  18.2065112  32.7476733  80.5788800
  18.9795988  32.2005720  80.4401675  18.5590511  33.6120982  80.7903261
  20.0450155  34.0753115  93.7855699  19.7540021  34.9798746  93.6702365
  20.6807139  34.1169642  94.4999768  20.9706362  31.4529963  90.3757059
  21.5669934  31.2285986  89.6614021  21.0281333  30.7114709  90.9782506
  20.5431390  28.9069399  78.2107249  20.7956911  28.3850920  77.4490712
  19.6055949  28.7435544  78.3133933  25.5874673  27.9105177  86.0181993
  26.3737762  27.4924600  85.6672410  25.8513377  28.8151269  86.1863641
  25.7584750  33.3478027  80.7170650  25.1230583  33.4212654  81.4291554
  25.4282157  33.9371626  80.0389729  30.9883100  27.8480410  86.9214971
  31.7208272  27.2779627  87.1552801  30.2322456  27.4602011  87.3621477
  20.2627679  30.8097505  80.4131624  20.1463937  30.1342408  81.0812709
  20.3729939  30.3229879  79.5963777  22.6059220  30.2707652  84.1178314
  22.2417427  29.7438273  84.8291235  23.4626336  29.8806121  83.9444799
  28.5108520  21.5601984  91.3809580  28.1791845  22.4297395  91.1570795
  27.9154134  21.2438268  92.0603610  22.2464707  25.2997551  79.1139662
  22.4139109  26.1677788  79.4810133  22.0561876  25.4624833  78.1900951
  25.0040040  33.7614530  90.7805493  24.7040763  34.6639569  90.6721300
  24.6591099  33.4946714  91.6326645  18.4552521  30.2128327  86.8142197
  17.5303018  30.0804541  87.0219889  18.7036935  30.9922546  87.3112139
  28.4037184  26.2797071  88.4602930  27.4954061  26.2112479  88.1661691
  28.3524779  26.7569015  89.2884755  22.2253928  27.7555209  80.0986329
  22.1053553  28.2012260  80.9371809  21.5306516  28.1040527  79.5399867
  15.8161332  29.8561601  87.6485986  15.9453714  30.1096080  88.5625398
  15.1358784  30.4489309  87.3290641  19.9860820  40.5258851  83.7476460
  19.9084849  41.4766676  83.8264941  19.3822463  40.1804723  84.4051387
  22.4778049  27.6986716  96.4037827  21.7011383  28.2580636  96.3940692
  23.1168612  28.1843499  96.9252697  30.2698830  24.4813509  90.2380804
  29.6273210  24.7746042  89.5920598  29.7653759  24.3666429  91.0434000
  27.9238994  28.2276682  80.9266663  28.8356850  28.4604069  80.7514361
  27.4148641  28.8113726  80.3641742  20.7324422  30.5072170  95.9655794
  21.4739106  31.0457213  95.6890618  20.0261407  31.1338458  96.1227346
  26.2079761  32.6501310  94.5627956  26.6163117  32.2083720  93.8182588
  25.4857023  32.0753937  94.8162149  22.5610831  27.5873917  91.9361513
  23.4072027  28.0113330  92.0796162  22.5009469  26.9307541  92.6300076
  26.5308576  33.2102501  88.3180245  25.9017438  33.3748215  87.6156312
  26.1434238  33.6244110  89.0891209  30.4097808  34.1456938  85.6724608
  29.7248846  34.5255840  85.1221642  30.4941657  34.7552265  86.4056556
  25.7110277  25.2478285  93.5942686  25.4671209  26.0020346  93.0576962
  25.9870207  25.6263633  94.4289933  27.6648740  31.7916897  92.2719952
  27.8765635  32.4348657  91.5954333  27.6178488  30.9579214  91.8041882
  25.2674968  24.4034718  89.1756524  24.4059448  24.7015972  89.4673262
  25.2937403  24.6205117  88.2437557  22.0836538  32.9476909  85.5830330
  22.5474883  33.2264612  84.7934952  21.8193336  32.0460353  85.4003420
  18.9760619  32.4948390  88.5210093  19.5461976  32.9235659  87.8827577
  19.5668731  32.2130975  89.2194279  21.0205424  29.0700061  82.3919895
  21.7229467  29.5221105  82.8593821  20.6886052  28.4283880  83.0199788
  19.4685785  27.6611818  96.7671104  18.8384446  28.3428099  97.0006501
  19.3621873  27.5494899  95.8224242  14.7630758  27.3283614  87.6937028
  13.9729812  27.5841142  87.2177139  15.2542005  28.1431952  87.7989069
  28.7794567  34.6688853  90.4442309  29.6012011  34.2669040  90.1624991
  28.7756970  34.5657087  91.3958425  16.7145503  27.6928193  84.6520505
  15.9176667  27.8046887  85.1704001  16.4871095  28.0314845  83.7861396
  22.5451171  34.2172896  92.6003020  22.6095603  34.6793303  93.4361191
  21.8362095  33.5870261  92.7285330  13.0468461  27.5814104  90.1252019
  13.2976499  28.4661114  90.3909595  13.5828009  27.4018706  89.3527111
  36.8700561  31.0127601  86.7927281  36.1164269  30.4434999  86.6371285
  37.0048102  30.9790266  87.7397915  22.2599189  35.8841004  82.4682000
  22.1244863  36.7292539  82.8966848  22.8009001  36.0860281  81.7047934
  15.7128586  33.4016442  83.0409925  16.2253107  34.1959692  83.1915490
  16.3651299  32.7042732  82.9743527  17.5223471  36.5182198  85.1232678
  17.6990099  37.4400163  84.9353662  18.3180304  36.2040617  85.5527058
  21.6634489  23.3790463  96.7216612  22.4044203  23.9797616  96.6421074
  21.8952412  22.6368100  96.1634654  16.8075827  28.5646830  94.9994841
  16.6929342  27.6632087  95.3001940  15.9520345  28.8110527  94.6479658
  23.8867665  36.5064570  96.5982342  23.4431519  35.7200949  96.2803247
  24.5484879  36.6943721  95.9326233  18.6454786  38.0360372  91.1243021
  19.1962211  37.9077435  90.3520015  17.8066262  38.3355261  90.7737913
  25.9848903  36.7867370  94.6263743  25.9667378  37.6076251  94.1344013
  26.9068823  36.6621445  94.8513884  22.4421957  34.3011500  95.4687252
  22.9750294  33.5399788  95.2386560  21.9136038  34.0085151  96.2111406
  25.6091652  19.4071566  90.9980893  25.2655922  20.2973207  90.9220004
  25.9770615  19.2173223  90.1350478  13.6777503  31.7305096  83.8169496
  14.5152725  32.1402104  83.6003203  13.8555770  30.7904538  83.7869689
  25.5741935  29.3980177  79.5053329  25.0588558  30.1684781  79.7441716
  25.3019243  28.7245313  80.1286390  23.1589046  24.2429877  84.5638567
  22.3030642  23.8536728  84.3844206  23.5715998  24.3221838  83.7038352
  24.6888193  21.7776221  88.9630127  24.1852988  21.7406356  88.1497932
  24.9818799  22.6868963  89.0226783  20.9331078  21.8614950  87.9696308
  21.7984075  21.6657759  87.6102198  21.0008587  21.6325302  88.8965665
  30.5476209  32.1512531  81.4406502  29.7705652  31.8123691  80.9961664
  31.2267690  32.1565154  80.7661467  25.3628238  27.2707269  81.3313110
  25.0578374  27.5853418  82.1823253  26.3158680  27.3488689  81.3740443
  23.8074670  33.4297492  82.9806064  23.2796031  32.6950252  82.6679301
  23.3062173  34.2072168  82.7346032  28.7867516  31.6246513  88.0973110
  28.1291190  32.3145774  88.1853239  29.5907915  32.0142945  88.4407096
  18.5393397  24.0917158  85.3412675  19.1137149  23.8692340  84.6085868
  19.1264380  24.1605853  86.0941277  27.5972975  29.9790885  86.1477052
  28.1104856  30.6120877  86.6498761  28.2474199  29.3792081  85.7820412
  18.8662985  26.1221619  79.3608561  18.0300297  26.4596306  79.6817835
  18.7267754  25.9870599  78.4235697  20.8416065  20.9658407  84.0687745
  20.1880478  20.6507424  83.4444359  20.7996539  20.3434148  84.7947568
  21.9527270  31.2477702  75.9841037  21.0454332  31.0166956  76.1832186
  22.4498302  30.4515322  76.1715018  24.8595349  39.9575210  78.9037723
  24.1857048  40.2606906  79.5122681  25.2461171  40.7604290  78.5543180
  24.0753806  27.4540341  88.3935392  23.1576367  27.6755288  88.2357080
  24.4913949  27.5286651  87.5347100  24.8588853  28.8531756  83.5238073
  25.6060672  29.3653154  83.2145195  25.1280443  28.5315809  84.3842466
  23.1315503  31.3490297  80.5065027  22.2226723  31.0649330  80.6037497
  23.1610587  31.7689376  79.6468334  28.3634771  34.9596887  84.2756194
  27.9097098  34.1187797  84.3321385  27.7328738  35.5958285  84.6130975
  27.3067690  25.8888873  85.5056862  26.5690447  25.3766259  85.8367104
  27.5594464  25.4489254  84.6940139  26.8067710  36.7973383  85.2106013
  27.0990685  37.3578441  84.4918378  27.3166331  37.0901944  85.9659172
  27.4079318  18.6665125  86.0998631  27.7138195  17.8062488  85.8124546
  28.1331923  19.2582745  85.8997625  13.7003674  29.0695811  84.4880229
  13.5028074  28.4765172  83.7631296  13.1450338  28.7648022  85.2056168
  21.6800398  28.9618918  86.6074822  21.7349007  28.0092754  86.5317299
  20.8691600  29.1178357  87.0916121  22.8291591  32.8899041  77.8453105
  22.3911021  32.1734900  77.3858743  23.5702032  33.1175156  77.2838197
  19.6192757  27.5795978  84.3665201  18.8060623  27.8790148  84.7730393
  20.1151752  27.1851666  85.0839683  21.7701335  37.5753734  86.2999466
  21.7277514  37.8014581  85.3707998  22.6864034  37.3417109  86.4485267
  25.2166969  28.0437802  93.1980095  25.5716357  28.2709275  94.0574561
  25.8639100  28.3756179  92.5757350  30.9464706  31.1656238  83.9029424
  30.8082605  31.3557834  82.9750613  30.5900925  31.9275621  84.3597475
  19.1106832  25.1514333  89.9826436  19.7506212  25.0103092  89.2849399
  18.2784363  24.8648846  89.6065038  30.9734086  33.2332765  88.9140695
  31.4070592  33.1408054  89.7623750  31.6865666  33.2090265  88.2760711
  19.8867136  34.4516763  86.0961428  20.6807735  33.9567084  85.8944003
  19.1758829  33.9234627  85.7329134  24.7061981  36.8334859  90.4473796
  24.7599003  37.4025795  91.2151512  23.8376762  37.0036744  90.0827833
  16.1949900  28.5959845  82.1721181  15.2647488  28.5344301  82.3891143
  16.2907372  28.0735798  81.3757822  16.1135449  25.1214658  84.7599423
  16.3742266  26.0359991  84.6508583  16.9352621  24.6539101  84.9096036
  17.5860374  26.5352415  91.9298247  18.2583427  26.3269777  91.2810896
  16.7590160  26.3374501  91.4903480  31.8349635  33.2756466  91.4473581
  32.0285525  34.1802276  91.6932856  31.7350253  32.8163885  92.2812166
  23.4885946  23.1614356  93.9463908  22.8413861  23.8604306  93.8528385
  24.2586961  23.5950500  94.3140156  26.8964744  33.4263208  97.0214461
  26.7450250  33.1973760  96.1044545  26.8869423  34.3833810  97.0345807
  23.6650080  30.9995121  92.0060728  24.5942140  31.1506281  91.8329695
  23.2441110  31.0879142  91.1509374  22.4638412  35.0245785  89.7759266
  22.3249498  34.6564570  90.6485204  21.6753008  35.5393425  89.6043223
  23.0586564  40.1254882  81.1184802  23.2338320  39.6542925  81.9330425
  22.3719352  40.7520648  81.3466063  24.0143627  34.4027388  87.1648103
  23.6793460  34.3628158  88.0605753  23.5147573  33.7372104  86.6918514
  17.9887871  29.8095018  92.6900685  17.8507669  29.0775257  93.2912224
  18.8992795  29.7203918  92.4084872  26.9502819  31.7483423  77.4385163
  26.3331990  31.0230251  77.3418216  26.4819307  32.5092783  77.0952237
  20.6170172  29.5214978  92.1784364  21.3269790  28.8808170  92.1370983
  20.5739480  29.7727872  93.1010545  28.6056951  36.4582331  95.0990943
  28.5469497  35.7741551  94.4321526  29.0076469  37.2001321  94.6471569
  19.3299106  26.5080195  93.9980004  18.7936463  26.0570934  94.6501600
  18.7415814  26.6426104  93.2550468  17.6247649  43.2744245  87.8924662
  17.8644248  43.9062769  88.5703681  16.7816846  42.9232285  88.1790022
  18.7401365  25.9668847  76.5606467  17.8630831  25.8457648  76.1968714
  19.2159118  25.1754925  76.3085356  28.6074358  34.4221915  93.3304923
  27.7201137  34.0847837  93.4531322  29.1772909  33.6904946  93.5673688
  10.2603505  30.7546007  86.6547974  10.9474545  30.4407737  86.0668990
  10.1051634  31.6587371  86.3815226  15.0638227  25.6436203  91.0832998
  14.9796416  25.0361873  90.3483408  14.2420934  26.1345221  91.0842494
  22.1375511  39.0823367  90.2966166  22.0645683  39.8878339  90.8085471
  21.6952904  39.2815333  89.4714188  21.9265291  38.3195137  83.8068988
  21.1432813  38.8616817  83.9007212  22.6258036  38.8369117  84.2063229
  25.2361941  24.1289767  86.4503193  25.7330641  23.3759729  86.1304263
  24.4648922  24.1654083  85.8846403  33.0891698  29.8330132  88.0921485
  33.0781575  30.7154848  87.7215418  32.2209078  29.4801683  87.8976022
  24.5974195  38.9810201  92.4524325  25.3102167  39.6157666  92.3800226
  24.1064223  39.0774067  91.6364327  26.3191722  32.8861454  84.0241617
  25.3848000  33.0062916  83.8546321  26.4968390  31.9833921  83.7601626
  21.8196910  26.2707150  86.1774878  21.4494697  25.7178190  86.8655783
  22.3156002  25.6665283  85.6249878  29.7064273  28.7278773  84.5591651
  30.1724725  29.5606765  84.4851953  30.1571774  28.2623755  85.2636909
  19.6486108  36.7304645  93.2729896  20.3495568  37.3641128  93.4259290
  19.1781223  37.0719376  92.5125535  27.7740504  35.0722594  81.5577803
  28.0500348  34.9579189  82.4671677  26.9045003  34.6740079  81.5189976
  27.6780936  21.0959360  88.5982552  26.7644016  21.3263587  88.7664759
  28.1074037  21.1797804  89.4496584  27.4487394  29.2849252  91.0982446
  26.7958844  29.5325160  90.4434899  27.8267774  28.4713390  90.7644923
  24.4094568  39.3208945  85.2010616  24.5916963  38.5030601  85.6638369
  25.2327554  39.5376638  84.7635506  24.7436734  38.2477130  82.4625665
  25.2724500  37.7369585  81.8495827  25.0064953  37.9319661  83.3271198
  23.4974967  30.0269063  97.5848483  22.8215604  29.9263192  98.2550858
  24.3202601  29.8708277  98.0484480  15.2453826  36.2641000  90.2060998
  15.8307263  35.5184688  90.3388903  15.0478665  36.5744956  91.0897662
  18.0992482  39.2992247  85.2223441  17.4302857  39.7838375  84.7387481
  17.9605351  39.5461468  86.1366819   9.8371481  28.8346600  88.9265442
   9.8755581  28.3010191  89.7202560   9.3311774  28.3081805  88.3076419
  22.2397750  41.3335991  91.8206099  22.7916058  41.4967612  92.5855184
  22.5803944  41.9240428  91.1486124  17.2162243  23.6811140  92.4227984
  17.2803570  24.5425971  92.0105382  17.1529364  23.0685142  91.6900342
  27.0908624  36.1597248  97.6754754  27.6348528  36.7727206  97.1809708
  26.5095469  36.7176827  98.1921767  13.4680059  27.5610702  82.0019373
  13.7633500  26.6521380  81.9486427  12.5668094  27.5398442  81.6800375
  25.3766137  39.2817966  88.8069781  25.2517277  38.4807706  88.2980727
  26.0345229  39.7764160  88.3183751  16.9974306  25.6366699  87.9846922
  16.2760891  26.2502666  87.8454395  17.7867561  26.1724463  87.9063567
  27.4401046  37.0826986  90.4349331  26.4931381  36.9632337  90.3627658
  27.7883819  36.1949484  90.5175593  19.8000619  22.9721125  94.2587573
  20.3235021  23.2183422  95.0213883  19.5812952  23.8041160  93.8390711
  15.1967900  25.2424800  82.1258698  14.8680606  24.3622179  81.9433804
  15.5507271  25.1872468  83.0135087  24.4447479  36.8779702  86.6353684
  24.2972442  35.9496410  86.8161254  25.2700973  36.8999793  86.1510759
  18.3109723  25.5297770  82.4934176  18.6505796  26.0583691  81.7712784
  18.7581844  25.8678176  83.2692742  28.0481601  37.7008261  87.7218556
  28.9728148  37.4951123  87.5843008  27.8796904  37.4524662  88.6307898
  21.0053164  23.9134820  91.9437244  20.6649985  23.1142633  92.3457924
  20.2992171  24.2136531  91.3714077  21.6569636  20.9984133  90.3964567
  22.4795705  20.5244611  90.2743457  21.9007700  21.7774616  90.8963253
  20.2977871  24.0272391  80.6927469  21.0186233  24.4053644  80.1891185
  19.6743175  24.7461268  80.7962446  24.4408993  24.7317540  81.6285801
  24.6572608  25.6142178  81.3274629  23.9603061  24.3403753  80.8991443
  19.1808215  27.6903253  88.2056545  19.0352796  28.0043556  89.0980827
  18.7033418  28.3088154  87.6527444  21.0404598  24.6805801  88.2537435
  21.0266166  23.7846895  87.9169733  21.7577026  24.6876465  88.8875721
  22.8930728  25.1143142  90.2990562  22.6348506  26.0360212  90.2974893
  22.3615769  24.7173576  90.9891027  27.8376917  38.2193929  83.0780648
  28.0113795  37.6540351  82.3254500  28.3305808  39.0194824  82.8960138
  13.6553877  30.2308598  91.1444207  13.1107345  31.0068406  91.2764481
  14.5333227  30.5779402  90.9863328  20.4441494  23.5620182  83.5225005
  20.5657405  22.6336828  83.7215893  20.1543536  23.5758868  82.6103321
  23.3132684  21.2475092  86.6591725  23.3354381  21.3114425  85.7043705
  23.7300743  20.4079601  86.8532231  33.6916308  30.9830352  84.6970948
  34.1347454  30.2337677  84.2990071  32.8142819  30.9740488  84.3144680
  28.8252090  37.5360693  80.1777546  29.5202994  38.1567386  80.3964861
  29.1675240  36.6856044  80.4529924  14.4419899  29.3578494  94.0374364
  13.7001635  29.5061129  94.6238994  14.1212643  29.6186760  93.1741113
  30.7243513  34.9860399  81.7064877  31.2494837  35.3247671  80.9814197
  30.6365865  34.0507414  81.5228012  22.3863561  38.8994472  93.8354754
  22.6950688  38.6543619  94.7077453  23.1839044  39.1041111  93.3473624
  22.4084174  41.0532382  86.0660130  21.9689164  40.5608761  86.7592987
  23.1592290  40.5105350  85.8252205  14.8876513  37.2443923  86.0684758
  15.7134532  36.9447695  85.6883402  14.5370565  36.4751545  86.5174547
  19.8558046  36.5970391  88.1382432  19.2338055  35.9341096  87.8384660
  20.5262913  36.6231523  87.4556080  13.0885118  35.1630249  87.0273692
  12.2517026  34.7352424  86.8457693  13.0608763  35.3562693  87.9644483
  30.4137419  35.6193302  97.0116075  29.6232963  35.6017441  96.4720574
  30.1770773  36.1581596  97.7665111  30.5335294  32.4685769  94.3248803
  30.5833299  32.3035776  95.2664326  30.4249217  31.6013028  93.9346684
  19.4171553  35.1474314  81.6140892  19.5659673  35.8309779  80.9607565
  20.2237996  35.1279404  82.1290348  27.8239056  28.4516697  95.6408110
  28.7248919  28.3123161  95.3492108  27.8987031  28.6171151  96.5806288
  22.1581862  25.8283551  94.4861296  21.2885171  26.1217117  94.2143885
  22.3941342  26.4123996  95.2068560  32.0353491  34.8882710  94.5690825
  31.7438299  35.2512691  95.4054286  31.4225622  34.1749718  94.3904157
  33.2349173  32.4535590  87.0893395  34.0696064  32.8925394  87.2530956
  33.3708302  31.9774243  86.2701641  30.2840679  30.0115325  93.0370883
  30.7594801  30.2042971  92.2289734  29.3606244  30.0674511  92.7914267
  17.1724186  31.1739492  82.6201961  16.9270228  30.2701822  82.8182171
  17.3420100  31.1756642  81.6781439  24.8620895  22.0463168  92.0026717
  25.3802839  22.7824195  91.6773205  24.5076028  22.3527162  92.8373476
  16.4419833  26.9067849  80.1188123  15.7489078  26.9812204  79.4628159
  16.1971585  26.1428193  80.6409640  25.1133490  18.4663451  87.5227613
  25.3935243  17.7986640  88.1488040  25.8984097  18.6592546  87.0102277
  22.9166958  37.6422445  79.0852640  22.3440925  38.2612632  78.6323112
  23.4899752  38.1921806  79.6192562  28.9842348  26.8881085  91.2699189
  29.9359771  26.9879182  91.2911413  28.8145798  26.0959353  91.7797273
  27.0056727  23.9736668  91.4558589  26.4106660  24.2541681  90.7605078
  26.7206424  24.4630569  92.2275331  26.1364218  37.9259595  80.2161222
  27.0694891  37.8605157  80.4194098  26.0487431  38.7615862  79.7575755
  28.7652235  37.2425465  77.1765170  28.6865866  36.9085329  78.0700927
  29.5861901  37.7347233  77.1756642  31.4630426  30.1087205  90.3841488
  31.4306746  29.1703205  90.5701172  32.0731049  30.1871241  89.6507313
  23.3013757  28.9783257  76.4268692  24.2472861  28.8489466  76.4957110
  22.9228002  28.2397919  76.9038120  31.6124914  26.8998248  90.4299771
  31.0963963  26.1156705  90.2429700  32.4964863  26.5716965  90.5946291
  29.2735641  20.6439264  86.3895584  29.0760462  20.3354352  87.2738916
  29.8835347  21.3700902  86.5193514  37.2806976  31.1703211  89.5247525
  38.0110364  30.9088499  90.0855228  36.6713921  30.4331933  89.5649593
  35.3622273  29.3111074  90.1221976  34.6355436  29.1767039  89.5138468
  34.9469560  29.6187903  90.9278694  23.1852449  33.0301004  97.8869349
  24.1055459  33.2079603  98.0809396  23.1502032  32.0857049  97.7349048
  21.4856674  26.9033234  76.3623577  20.5788129  26.6066347  76.4386291
  21.7632655  26.6063052  75.4957864  12.4034614  28.2239597  86.8122624
  12.0837398  27.3704905  86.5196998  11.8568042  28.4388175  87.5680591
  16.1814522  30.9402038  90.5292130  16.4000531  31.8719146  90.5480164
  16.5940296  30.5810013  91.3146934  23.1018739  21.4470124  82.5167819
  22.2919468  21.1017209  82.8923065  23.7903156  21.1377667  83.1055430
  25.0309288  20.5248170  84.1392115  25.5840326  20.9443624  84.7982138
  25.2679374  19.5983918  84.1815071  20.2555458  23.7620169  76.5035557
  21.1174622  24.0875067  76.7631374  20.4405803  22.9751665  75.9908622
  12.2722874  31.8442509  88.7815745  11.5786346  31.4296462  88.2685700
  13.0195865  31.8863045  88.1849164  28.4088095  22.6348696  83.6470780
  27.8286764  23.2933500  83.2648832  28.1424028  21.8126040  83.2358197
  26.8591661  22.0353753  85.8492100  27.3591440  22.1470288  85.0406419
  27.5027269  21.7314806  86.4892908  20.9173657  29.9432383  98.7359941
  20.4340739  30.7432743  98.9423830  21.0034596  29.9540328  97.7827385
  14.1859617  31.7760763  86.6581760  14.1630305  31.8748450  85.7063643
  14.4960253  32.6225913  86.9798926  16.8446995  33.8336918  90.7728375
  17.7990248  33.8020860  90.7058306  16.6459518  33.3727541  91.5878601
  17.4346377  32.4038034  93.3399172  18.2539266  32.8982112  93.3634010
  17.7083184  31.4870002  93.3116740  27.1912973  24.7948786  82.7027128
  26.3038828  25.0798437  82.4847323  27.6066962  24.6342549  81.8554405
  30.5427509  24.8195307  86.4181467  31.3187899  25.3091759  86.6906084
  29.8175643  25.2453361  86.8753337  32.9800068  25.5322926  87.4755408
  33.5744558  25.2918662  86.7648716  33.0526651  24.8130057  88.1028944
  15.1997223  39.3756537  87.7898573  15.0651691  38.6156938  87.2236571
  14.7829286  40.0997437  87.3227361  26.3356186  34.5593461  76.7975148
  27.0392036  34.7643463  77.4132803  25.6118835  35.1270222  77.0624231
  27.1653997  30.3103322  82.9177418  27.1089198  30.7671873  82.0785050
  27.7182339  29.5494006  82.7400261  30.9758803  26.0993054  83.7427538
  30.7195737  25.6989689  84.5735745  30.3511671  26.8136848  83.6177677
  35.2871140  28.8389127  86.2498829  34.7270698  28.9082316  87.0230391
  34.6814644  28.6630112  85.5298325  18.3566349  40.2725854  88.0017015
  18.2398733  41.2171287  87.8995705  17.5358795  39.9699416  88.3902814
  28.2442884  34.9975990  78.8473608  29.0788488  34.5657188  78.6651083
  28.0827227  34.8258003  79.7750502  27.8988776  31.5008103  80.2129947
  27.8437580  31.3352375  79.2718391  27.2734831  32.2084136  80.3692137
  12.6881291  26.7376167  94.0391369  13.3340155  26.2275121  94.5278595
  12.4798442  27.4744849  94.6134795  25.2134683  33.8057015  99.5383510
  26.0825843  33.9797667  99.1770145  24.7341435  34.6251432  99.4159239
  21.2084901  21.0016212  79.7915266  21.1963571  21.9458052  79.9483536
  22.1008323  20.8186358  79.4974727  19.3820863  40.9254116  91.2172944
  20.2848110  40.9577726  91.5339439  19.1558233  39.9954567  91.2319279
  21.1374465  39.6785103  87.8783022  20.1870096  39.6786964  87.7647395
  21.4406952  38.9317837  87.3619057  25.0237021  17.5958989  84.0461202
  24.2569417  17.0417475  84.1917885  25.4347726  17.6680858  84.9075354
  36.8727159  45.5145641  88.9428785  37.5105569  45.3952388  88.2392125
  36.7548002  46.4626485  89.0016737  33.6816865  45.4673069  88.8790309
  33.3435377  45.3514134  87.9910844  34.5506633  45.0664234  88.8591315
  29.5403681  47.3208545  84.8687200  28.9768546  47.2298482  84.1003488
  29.4256076  46.5008450  85.3489693  34.1636648  46.6207921  94.8376515
  34.1525289  46.2260719  93.9657019  34.3257288  45.8873993  95.4310286
  27.0868113  48.8159737  87.7071421  27.8789405  48.4750562  87.2917720
  27.3264763  48.9254712  88.6273574  35.1203240  50.9879513  80.1801665
  34.4691219  51.5733594  79.7935679  35.9147602  51.5185708  80.2396703
  29.0458867  48.0768650  80.5788800  29.8189743  47.5297637  80.4401675
  29.3984266  48.9412900  80.7903261  31.8100116  46.7821881  90.3757059
  32.4063688  46.5577903  89.6614021  31.8675088  46.0406627  90.9782506
  31.3825145  44.2361316  78.2107249  31.6350665  43.7142838  77.4490712
  30.4449704  44.0727462  78.3133933  36.4268427  43.2397095  86.0181993
  37.2131517  42.8216518  85.6672410  36.6907132  44.1443187  86.1863641
  36.5978505  48.6769945  80.7170650  35.9624338  48.7504572  81.4291554
  36.2675911  49.2663544  80.0389729  41.8276854  43.1772328  86.9214971
  42.5602026  42.6071545  87.1552801  41.0716210  42.7893928  87.3621477
  31.1021433  46.1389422  80.4131624  30.9857691  45.4634326  81.0812709
  31.2123693  45.6521796  79.5963777  33.4452974  45.5999569  84.1178314
  33.0811181  45.0730190  84.8291235  34.3020090  45.2098039  83.9444799
  39.3502275  36.8893902  91.3809580  39.0185600  37.7589313  91.1570795
  38.7547888  36.5730186  92.0603610  33.0858461  40.6289469  79.1139662
  33.2532864  41.4969706  79.4810133  32.8955630  40.7916751  78.1900951
  29.2946276  45.5420245  86.8142197  28.3696772  45.4096459  87.0219889
  29.5430689  46.3214464  87.3112139  39.2430938  41.6088988  88.4602930
  38.3347815  41.5404397  88.1661691  39.1918534  42.0860933  89.2884755
  33.0647682  43.0847127  80.0986329  32.9447307  43.5304177  80.9371809
  32.3700270  43.4332444  79.5399867  26.6555087  45.1853518  87.6485986
  26.7847468  45.4387997  88.5625398  25.9752538  45.7781226  87.3290641
  30.8254574  55.8550768  83.7476460  30.7478604  56.8058593  83.8264941
  30.2216218  55.5096641  84.4051387  33.3171804  43.0278634  96.4037827
  32.5405138  43.5872554  96.3940692  33.9562367  43.5135417  96.9252697
  41.1092585  39.8105427  90.2380804  40.4666965  40.1037960  89.5920598
  40.6047513  39.6958347  91.0434000  38.7632748  43.5568600  80.9266663
  39.6750604  43.7895987  80.7514361  38.2542395  44.1405644  80.3641742
  31.5718176  45.8364087  95.9655794  32.3132861  46.3749131  95.6890618
  30.8655162  46.4630376  96.1227346  33.4004586  42.9165834  91.9361513
  34.2465781  43.3405248  92.0796162  33.3403224  42.2599459  92.6300076
  41.2491562  49.4748856  85.6724608  40.5642601  49.8547757  85.1221642
  41.3335412  50.0844183  86.4056556  36.5504031  40.5770203  93.5942686
  36.3064963  41.3312263  93.0576962  36.8263962  40.9555550  94.4289933
  36.1068723  39.7326636  89.1756524  35.2453202  40.0307889  89.4673262
  36.1331158  39.9497035  88.2437557  32.9230292  48.2768826  85.5830330
  33.3868638  48.5556529  84.7934952  32.6587090  47.3752271  85.4003420
  29.8154373  47.8240308  88.5210093  30.3855731  48.2527576  87.8827577
  30.4062485  47.5422893  89.2194279  31.8599178  44.3991979  82.3919895
  32.5623222  44.8513022  82.8593821  31.5279807  43.7575798  83.0199788
  30.3079540  42.9903735  96.7671104  29.6778201  43.6720016  97.0006501
  30.2015628  42.8786817  95.8224242  25.6024512  42.6575531  87.6937028
  24.8123566  42.9133060  87.2177139  26.0935760  43.4723869  87.7989069
  27.5539258  43.0220111  84.6520505  26.7570421  43.1338805  85.1704001
  27.3264850  43.3606763  83.7861396  23.8862215  42.9106022  90.1252019
  24.1370254  43.7953032  90.3909595  24.4221764  42.7310623  89.3527111
  33.0992943  51.2132921  82.4682000  32.9638618  52.0584457  82.8966848
  33.6402756  51.4152199  81.7047934  29.5860283  37.2924501  99.1296355
  29.1927228  36.7390700  99.8043999  30.4026423  37.6035080  99.5202873
  26.5522340  48.7308359  83.0409925  27.0646861  49.5251610  83.1915490
  27.2045053  48.0334650  82.9743527  28.3617225  51.8474116  85.1232678
  28.5383853  52.7692080  84.9353662  29.1574059  51.5332535  85.5527058
  32.5028244  38.7082380  96.7216612  33.2437957  39.3089533  96.6421074
  32.7346167  37.9660018  96.1634654  27.6469582  43.8938748  94.9994841
  27.5323097  42.9924005  95.3001940  26.7914099  44.1402444  94.6479658
  36.4485407  34.7363483  90.9980893  36.1049676  35.6265125  90.9220004
  36.8164369  34.5465141  90.1350478  24.5171257  47.0597014  83.8169496
  25.3546479  47.4694022  83.6003203  24.6949525  46.1196456  83.7869689
  36.4135689  44.7272094  79.5053329  35.8982313  45.4976699  79.7441716
  36.1412998  44.0537231  80.1286390  33.9982800  39.5721795  84.5638567
  33.1424397  39.1828646  84.3844206  34.4109752  39.6513756  83.7038352
  35.5281947  37.1068138  88.9630127  35.0246743  37.0698274  88.1497932
  35.8212554  38.0160881  89.0226783  31.7724833  37.1906868  87.9696308
  32.6377830  36.9949677  87.6102198  31.8402342  36.9617220  88.8965665
  36.2021993  42.5999186  81.3313110  35.8972128  42.9145336  82.1823253
  37.1552435  42.6780606  81.3740443  34.6468424  48.7589410  82.9806064
  34.1189786  48.0242169  82.6679301  34.1455927  49.5364086  82.7346032
  29.3787152  39.4209076  85.3412675  29.9530904  39.1984258  84.6085868
  29.9658134  39.4897771  86.0941277  38.4366729  45.3082803  86.1477052
  38.9498611  45.9412795  86.6498761  39.0867953  44.7083998  85.7820412
  29.7056739  41.4513537  79.3608561  28.8694051  41.7888224  79.6817835
  29.5661509  41.3162517  78.4235697  31.6809820  36.2950325  84.0687745
  31.0274232  35.9799342  83.4444359  31.6390294  35.6726065  84.7947568
  32.7921025  46.5769620  75.9841037  31.8848086  46.3458873  76.1832186
  33.2892057  45.7807239  76.1715018  34.9147560  42.7832258  88.3935392
  33.9970121  43.0047205  88.2357080  35.3307704  42.8578569  87.5347100
  35.6982608  44.1823674  83.5238073  36.4454427  44.6945071  83.2145195
  35.9674197  43.8607727  84.3842466  33.9709258  46.6782215  80.5065027
  33.0620477  46.3941248  80.6037497  34.0004342  47.0981293  79.6468334
  39.2028525  50.2888804  84.2756194  38.7490853  49.4479714  84.3321385
  38.5722492  50.9250203  84.6130975  38.1461445  41.2180790  85.5056862
  37.4084202  40.7058177  85.8367104  38.3988218  40.7781172  84.6940139
  37.6461465  52.1265301  85.2106013  37.9384439  52.6870358  84.4918378
  38.1560085  52.4193862  85.9659172  38.2473072  33.9957042  86.0998631
  38.5531949  33.1354406  85.8124546  38.9725677  34.5874663  85.8997625
  24.5397428  44.3987729  84.4880229  24.3421828  43.8057090  83.7631296
  23.9844092  44.0939939  85.2056168  32.5194152  44.2910835  86.6074822
  32.5742762  43.3384672  86.5317299  31.7085354  44.4470275  87.0916121
  33.6685346  48.2190959  77.8453105  33.2304776  47.5026817  77.3858743
  34.4095787  48.4467073  77.2838197  30.4586512  42.9087895  84.3665201
  29.6454377  43.2082066  84.7730393  30.9545506  42.5143584  85.0839683
  36.0560724  43.3729720  93.1980095  36.4110111  43.6001193  94.0574561
  36.7032855  43.7048096  92.5757350  41.7858461  46.4948156  83.9029424
  41.6476359  46.6849752  82.9750613  41.4294679  47.2567538  84.3597475
  29.9500587  40.4806251  89.9826436  30.5899966  40.3395010  89.2849399
  29.1178117  40.1940764  89.6065038  30.7260891  49.7808681  86.0961428
  31.5201489  49.2859001  85.8944003  30.0152583  49.2526544  85.7329134
  27.0343654  43.9251763  82.1721181  26.1041242  43.8636218  82.3891143
  27.1301126  43.4027716  81.3757822  26.9529203  40.4506576  84.7599423
  27.2136020  41.3651909  84.6508583  27.7746375  39.9831018  84.9096036
  28.4254128  41.8644333  91.9298247  29.0977182  41.6561695  91.2810896
  27.5983915  41.6666419  91.4903480  34.3279700  38.4906274  93.9463908
  33.6807616  39.1896223  93.8528385  35.0980716  38.9242418  94.3140156
  37.7358498  48.7555126  97.0214461  37.5844005  48.5265678  96.1044545
  37.7263178  49.7125727  97.0345807  34.5043835  46.3287039  92.0060728
  35.4335895  46.4798198  91.8329695  34.0834865  46.4171060  91.1509374
  28.8281626  45.1386936  92.6900685  28.6901424  44.4067175  93.2912224
  29.7386549  45.0495836  92.4084872  37.7896573  47.0775340  77.4385163
  37.1725744  46.3522168  77.3418216  37.3213062  47.8384700  77.0952237
  31.4563926  44.8506895  92.1784364  32.1663545  44.2100087  92.1370983
  31.4133235  45.1019790  93.1010545  30.1692860  41.8372113  93.9980004
  29.6330217  41.3862852  94.6501600  29.5809569  41.9718022  93.2550468
  28.4641404  58.6036162  87.8924662  28.7038002  59.2354687  88.5703681
  27.6210600  58.2524202  88.1790022  29.5795119  41.2960765  76.5606467
  28.7024586  41.1749565  76.1968714  30.0552872  40.5046843  76.3085356
  21.0997259  46.0837924  86.6547974  21.7868299  45.7699654  86.0668990
  20.9445388  46.9879289  86.3815226  25.9031982  40.9728121  91.0832998
  25.8190170  40.3653790  90.3483408  25.0814688  41.4637139  91.0842494
  32.7659045  53.6487055  83.8068988  31.9826567  54.1908735  83.9007212
  33.4651791  54.1661035  84.2063229  36.0755695  39.4581684  86.4503193
  36.5724395  38.7051647  86.1304263  35.3042677  39.4946001  85.8846403
  37.1585476  48.2153372  84.0241617  36.2241755  48.3354834  83.8546321
  37.3362145  47.3125838  83.7601626  32.6590664  41.5999067  86.1774878
  32.2888452  41.0470108  86.8655783  33.1549757  40.9957201  85.6249878
  40.5458028  44.0570691  84.5591651  41.0118480  44.8898682  84.4851953
  40.9965528  43.5915672  85.2636909  38.5174690  36.4251278  88.5982552
  37.6037770  36.6555505  88.7664759  38.9467792  36.5089722  89.4496584
  38.2881149  44.6141170  91.0982446  37.6352599  44.8617077  90.4434899
  38.6661529  43.8005308  90.7644923  34.3368722  45.3560981  97.5848483
  33.6609359  45.2555110  98.2550858  35.1596356  45.2000195  98.0484480
  26.0847581  51.5932917  90.2060998  26.6701018  50.8476605  90.3388903
  25.8872419  51.9036874  91.0897662  28.9386236  54.6284165  85.2223441
  28.2696611  55.1130292  84.7387481  28.7999106  54.8753385  86.1366819
  20.6765236  44.1638518  88.9265442  20.7149335  43.6302108  89.7202560
  20.1705528  43.6373723  88.3076419  28.0555998  39.0103058  92.4227984
  28.1197324  39.8717889  92.0105382  27.9923118  38.3977060  91.6900342
  27.5308270  41.0826191  96.0701018  28.1580309  40.7003268  96.6838542
  26.6736189  40.8640393  96.4356711  24.3073813  42.8902620  82.0019373
  24.6027254  41.9813298  81.9486427  23.4061849  42.8690359  81.6800375
  27.8368060  40.9658616  87.9846922  27.1154646  41.5794584  87.8454395
  28.6261316  41.5016381  87.9063567  30.6394374  38.3013043  94.2587573
  31.1628775  38.5475339  95.0213883  30.4206707  39.1333078  93.8390711
  26.0361655  40.5716717  82.1258698  25.7074361  39.6914096  81.9433804
  26.3901025  40.5164386  83.0135087  29.1503478  40.8589687  82.4934176
  29.4899550  41.3875608  81.7712784  29.5975598  41.1970093  83.2692742
  31.8446919  39.2426738  91.9437244  31.5043739  38.4434551  92.3457924
  31.1385925  39.5428449  91.3714077  32.4963391  36.3276050  90.3964567
  33.3189460  35.8536529  90.2743457  32.7401454  37.1066534  90.8963253
  31.1371625  39.3564309  80.6927469  31.8579988  39.7345562  80.1891185
  30.5136929  40.0753186  80.7962446  35.2802748  40.0609458  81.6285801
  35.4966362  40.9434096  81.3274629  34.7996815  39.6695671  80.8991443
  30.0201969  43.0195171  88.2056545  29.8746550  43.3335474  89.0980827
  29.5427173  43.6380071  87.6527444  31.8798352  40.0097719  88.2537435
  31.8659921  39.1138812  87.9169733  32.5970780  40.0168383  88.8875721
  33.7324483  40.4435059  90.2990562  33.4742261  41.3652130  90.2974893
  33.2009523  40.0465494  90.9891027  24.4947631  45.5600515  91.1444207
  23.9501100  46.3360323  91.2764481  25.3726981  45.9071320  90.9863328
  31.2835248  38.8912099  83.5225005  31.4051159  37.9628745  83.7215893
  30.9937290  38.9050785  82.6103321  34.1526439  36.5767010  86.6591725
  34.1748135  36.6406343  85.7043705  34.5694498  35.7371518  86.8532231
  44.5310063  46.3122269  84.6970948  44.9741209  45.5629594  84.2990071
  43.6536573  46.3032406  84.3144680  25.2813653  44.6870412  94.0374364
  24.5395389  44.8353047  94.6238994  24.9606398  44.9478677  93.1741113
  25.7270267  52.5735840  86.0684758  26.5528287  52.2739612  85.6883402
  25.3764319  51.8043463  86.5174547  23.9278872  50.4922167  87.0273692
  23.0910780  50.0644341  86.8457693  23.9002517  50.6854610  87.9644483
  30.7676328  40.4044097  97.7314938  30.8164483  41.2806219  97.3492707
  31.3098842  39.8621490  97.1586581  30.2565307  50.4766232  81.6140892
  30.4053427  51.1601696  80.9607565  31.0631751  50.4571322  82.1290348
  38.6632811  43.7808614  95.6408110  39.5642674  43.6415079  95.3492108
  38.7380785  43.9463069  96.5806288  32.9975616  41.1575469  94.4861296
  32.1278926  41.4509035  94.2143885  33.2335096  41.7415914  95.2068560
  28.0117940  46.5031410  82.6201961  27.7663982  45.5993740  82.8182171
  28.1813855  46.5048560  81.6781439  35.7014650  37.3755086  92.0026717
  36.2196594  38.1116113  91.6773205  35.3469783  37.6819079  92.8373476
  27.2813588  42.2359767  80.1188123  26.5882833  42.3104122  79.4628159
  27.0365339  41.4720111  80.6409640  35.9527244  33.7955368  87.5227613
  36.2328998  33.1278558  88.1488040  36.7377851  33.9884464  87.0102277
  33.7560713  52.9714362  79.0852640  33.1834680  53.5904550  78.6323112
  34.3293506  53.5213724  79.6192562  39.8236102  42.2173002  91.2699189
  40.7753525  42.3171100  91.2911413  39.6539553  41.4251271  91.7797273
  37.8450482  39.3028586  91.4558589  37.2500414  39.5833598  90.7605078
  37.5600179  39.7922487  92.2275331  34.1407511  44.3075175  76.4268692
  35.0866616  44.1781383  76.4957110  33.7621756  43.5689837  76.9038120
  42.4518669  42.2290166  90.4299771  41.9357717  41.4448622  90.2429700
  43.3358617  41.9008882  90.5946291  40.1129396  35.9731181  86.3895584
  39.9154217  35.6646269  87.2738916  40.7229101  36.6992820  86.5193514
  32.3250428  42.2325152  76.3623577  31.4181884  41.9358264  76.4386291
  32.6026409  41.9354970  75.4957864  23.2428369  43.5531515  86.8122624
  22.9231153  42.6996823  86.5196998  22.6961797  43.7680093  87.5680591
  27.0208276  46.2693956  90.5292130  27.2394286  47.2011064  90.5480164
  27.4334050  45.9101930  91.3146934  33.9412494  36.7762041  82.5167819
  33.1313222  36.4309126  82.8923065  34.6296911  36.4669585  83.1055430
  35.8703042  35.8540088  84.1392115  36.4234081  36.2735541  84.7982138
  36.1073129  34.9275836  84.1815071  31.8936142  41.8427162  99.9194879
  31.7932868  42.7921519  99.8506970  31.6757684  41.5145401  99.0470949
  31.0949213  39.0912087  76.5035557  31.9568377  39.4166985  76.7631374
  31.2799557  38.3043583  75.9908622  23.1116629  47.1734426  88.7815745
  22.4180100  46.7588379  88.2685700  23.8589620  47.2154963  88.1849164
  39.2481849  37.9640613  83.6470780  38.6680518  38.6225417  83.2648832
  38.9817782  37.1417958  83.2358197  37.6985416  37.3645671  85.8492100
  38.1985194  37.4762205  85.0406419  38.3421024  37.0606724  86.4892908
  31.7567412  45.2724301  98.7359941  31.2734493  46.0724661  98.9423830
  31.8428351  45.2832245  97.7827385  25.0253371  47.1052680  86.6581760
  25.0024059  47.2040367  85.7063643  25.3354008  47.9517831  86.9798926
  27.6840749  49.1628835  90.7728375  28.6384003  49.1312778  90.7058306
  27.4853273  48.7019459  91.5878601  28.2740131  47.7329951  93.3399172
  29.0933020  48.2274030  93.3634010  28.5476939  46.8161919  93.3116740
  38.0306727  40.1240704  82.7027128  37.1432582  40.4090354  82.4847323
  38.4460716  39.9634467  81.8554405  41.3821264  40.1487225  86.4181467
  42.1581654  40.6383677  86.6906084  40.6569398  40.5745279  86.8753337
  43.8193822  40.8614844  87.4755408  44.4138313  40.6210580  86.7648716
  43.8920406  40.1421974  88.1028944  26.0390978  54.7048455  87.7898573
  25.9045446  53.9448856  87.2236571  25.6223040  55.4289355  87.3227361
  37.1749941  49.8885378  76.7975148  37.8785791  50.0935381  77.4132803
  36.4512590  50.4562140  77.0624231  38.0047751  45.6395240  82.9177418
  37.9482953  46.0963791  82.0785050  38.5576094  44.8785924  82.7400261
  41.8152557  41.4284971  83.7427538  41.5589491  41.0281607  84.5735745
  41.1905425  42.1428765  83.6177677  46.1264895  44.1681045  86.2498829
  45.5664453  44.2374234  87.0230391  45.5208398  43.9922029  85.5298325
  38.7382530  46.8300021  80.2129947  38.6831334  46.6644292  79.2718391
  38.1128586  47.5376054  80.3692137  23.5275045  42.0668085  94.0391369
  24.1733909  41.5567039  94.5278595  23.3192197  42.8036767  94.6134795
  32.0478656  36.3308130  79.7915266  32.0357326  37.2749970  79.9483536
  32.9402078  36.1478275  79.4974727  35.8630775  32.9250906  84.0461202
  35.0963171  32.3709393  84.1917885  36.2741480  32.9972775  84.9075354
  27.8672536  39.2135702  98.1366384  28.7303998  38.8572507  98.3469708
  27.2937947  38.8749597  98.8241788  50.1896029  52.2185820  91.3809580
  49.8579354  53.0881231  91.1570795  49.5941643  51.9022104  92.0603610
  50.0824693  56.9380906  88.4602930  49.1741570  56.8696314  88.1661691
  50.0312288  57.4152851  89.2884755  51.9486339  55.1397344  90.2380804
  51.3060719  55.4329877  89.5920598  51.4441268  55.0250265  91.0434000
  58.5488070  61.6711437  86.7927281  57.7951778  61.1018835  86.6371285
  58.6835611  61.6374101  87.7397915  42.6118587  52.5198786  87.9696308
  43.4771584  52.3241594  87.6102198  42.6796096  52.2909138  88.8965665
  49.0866827  49.3248960  86.0998631  49.3925704  48.4646324  85.8124546
  49.8119432  49.9166580  85.8997625  46.8954478  58.7021637  93.1980095
  47.2503866  58.9293111  94.0574561  47.5426609  59.0340014  92.5757350
  53.5137144  63.9340301  91.4473581  53.7073034  64.8386111  91.6932856
  53.4137762  63.4747720  92.2812166  48.5752253  64.0847044  97.0214461
  48.4237759  63.8557595  96.1044545  48.5656932  65.0417645  97.0345807
  50.2844460  67.1166166  95.0990943  50.2257006  66.4325386  94.4321526
  50.6863978  67.8585156  94.6471569  31.9391014  61.4129842  86.6547974
  32.6262054  61.0991572  86.0668990  31.7839143  62.3171207  86.3815226
  49.3568445  51.7543195  88.5982552  48.4431525  51.9847422  88.7664759
  49.7861546  51.8381640  89.4496584  48.7696133  66.8181083  97.6754754
  49.3136037  67.4311042  97.1809708  48.1882978  67.3760662  98.1921767
  44.9920193  51.9058927  86.6591725  45.0141890  51.9698260  85.7043705
  45.4088252  51.0663436  86.8532231  52.0924928  66.2777138  97.0116075
  51.3020472  66.2601276  96.4720574  51.8558282  66.8165431  97.7665111
  52.2122803  63.1269604  94.3248803  52.2620808  62.9619611  95.2664326
  52.1036726  62.2596863  93.9346684  49.5026565  59.1100532  95.6408110
  50.4036428  58.9706997  95.3492108  49.5774540  59.2754987  96.5806288
  53.7141000  65.5466545  94.5690825  53.4225808  65.9096526  95.4054286
  53.1013131  64.8333554  94.3904157  51.9628188  60.6699160  93.0370883
  52.4382310  60.8626806  92.2289734  51.0393753  60.7258346  92.7914267
  50.6629857  57.5464920  91.2699189  51.6147280  57.6463018  91.2911413
  50.4933307  56.7543189  91.7797273  58.9594485  61.8287047  89.5247525
  59.6897873  61.5672335  90.0855228  58.3501430  61.0915769  89.5649593
  57.0409782  59.9694909  90.1221976  56.3142945  59.8350874  89.5138468
  56.6257069  60.2771738  90.9278694  46.7096797  51.1832006  84.1392115
  47.2627835  51.6027459  84.7982138  46.9466883  50.2567754  84.1815071
  33.9510383  62.5026344  88.7815745  33.2573855  62.0880297  88.2685700
  34.6983374  62.5446881  88.1849164  46.7024530  48.2542824  84.0461202
  45.9356926  47.7001311  84.1917885  47.1135235  48.3264693  84.9075354
  55.8424157  77.2791756  94.8376515  55.8312798  76.8844554  93.9657019
  56.0044797  76.5457829  95.4310286  52.5631418  80.0628868  93.7855699
  52.2721284  80.9674499  93.6702365  53.1988403  80.1045396  94.4999768
  61.0289784  67.5477737  91.3809580  60.6973109  68.4173148  91.1570795
  60.4335397  67.2314021  92.0603610  57.5221303  79.7490283  90.7805493
  57.2222026  80.6515322  90.6721300  57.1772363  79.4822467  91.6326645
  60.9218447  72.2672824  88.4602930  60.0135324  72.1988232  88.1661691
  60.8706043  72.7444769  89.2884755  52.5042083  86.5134604  83.7476460
  52.4266113  87.4642429  83.8264941  51.9003727  86.1680476  84.4051387
  54.9959313  73.6862469  96.4037827  54.2192647  74.2456389  96.3940692
  55.6349876  74.1719252  96.9252697  62.7880094  70.4689262  90.2380804
  62.1454474  70.7621795  89.5920598  62.2835022  70.3542182  91.0434000
  58.7261025  78.6377063  94.5627956  59.1344381  78.1959474  93.8182588
  58.0038286  78.0629691  94.8162149  59.0489839  79.1978254  88.3180245
  58.4198702  79.3623968  87.6156312  58.6615502  79.6119863  89.0891209
  58.2291540  71.2354038  93.5942686  57.9852472  71.9896099  93.0576962
  58.5051471  71.6139386  94.4289933  60.1830003  77.7792651  92.2719952
  60.3946898  78.4224410  91.5954333  60.1359751  76.9454967  91.8041882
  61.2975831  80.6564606  90.4442309  62.1193275  80.2544793  90.1624991
  61.2938234  80.5532840  91.3958425  55.0632434  80.2048649  92.6003020
  55.1276867  80.6669056  93.4361191  54.3543358  79.5746014  92.7285330
  54.7780452  81.8716757  82.4682000  54.6426127  82.7168292  82.8966848
  55.3190265  82.0736034  81.7047934  51.2647792  67.9508337  99.1296355
  50.8714737  67.3974535  99.8043999  52.0813932  68.2618915  99.5202873
  50.0404734  82.5057951  85.1232678  50.2171362  83.4275916  84.9353662
  50.8361568  82.1916370  85.5527058  54.1815753  69.3666216  96.7216612
  54.9225466  69.9673369  96.6421074  54.4133675  68.6243853  96.1634654
  56.4048928  82.4940323  96.5982342  55.9612783  81.7076702  96.2803247
  57.0666142  82.6819474  95.9326233  51.1636050  84.0236125  91.1243021
  51.7143475  83.8953188  90.3520015  50.3247525  84.3231014  90.7737913
  58.5030166  82.7743123  94.6263743  58.4848642  83.5952004  94.1344013
  59.4250087  82.6497198  94.8513884  54.9603221  80.2887253  95.4687252
  55.4931557  79.5275541  95.2386560  54.4317302  79.9960904  96.2111406
  58.1272916  65.3947319  90.9980893  57.7837185  66.2848960  90.9220004
  58.4951878  65.2048976  90.1350478  59.9260581  64.6540878  86.0998631
  60.2319458  63.7938241  85.8124546  60.6513186  65.2458498  85.8997625
  54.2882599  83.5629488  86.2999466  54.2458778  83.7890334  85.3707998
  55.2045298  83.3292862  86.4485267  57.7348233  74.0313555  93.1980095
  58.0897620  74.2585028  94.0574561  58.3820364  74.3631932  92.5757350
  63.4915349  79.2208518  88.9140695  63.9251856  79.1283807  89.7623750
  64.2046930  79.1966018  88.2760711  57.2243244  82.8210612  90.4473796
  57.2780266  83.3901548  91.2151512  56.3558025  82.9912497  90.0827833
  64.3530899  79.2632219  91.4473581  64.5466789  80.1678029  91.6932856
  64.2531517  78.8039638  92.2812166  56.0067209  69.1490109  93.9463908
  55.3595124  69.8480059  93.8528385  56.7768225  69.5826253  94.3140156
  59.4146007  79.4138961  97.0214461  59.2631514  79.1849513  96.1044545
  59.4050687  80.3709563  97.0345807  54.9819676  81.0121539  89.7759266
  54.8430761  80.6440323  90.6485204  54.1934272  81.5269178  89.6043223
  55.5767828  86.1130635  81.1184802  55.7519583  85.6418678  81.9330425
  54.8900616  86.7396401  81.3466063  56.5324891  80.3903141  87.1648103
  56.1974723  80.3503911  88.0605753  56.0328836  79.7247857  86.6918514
  61.1238214  82.4458084  95.0990943  61.0650760  81.7617304  94.4321526
  61.5257732  83.1877074  94.6471569  50.1428913  89.2619998  87.8924662
  50.3825511  89.8938522  88.5703681  49.2998109  88.9108038  88.1790022
  61.1255621  80.4097668  93.3304923  60.2382400  80.0723590  93.4531322
  61.6954172  79.6780699  93.5673688  54.6556775  85.0699120  90.2966166
  54.5826946  85.8754092  90.8085471  54.2134168  85.2691086  89.4714188
  54.4446554  84.3070890  83.8068988  53.6614076  84.8492570  83.9007212
  55.1439300  84.8244870  84.2063229  57.1155458  84.9685954  92.4524325
  57.8283430  85.6033419  92.3800226  56.6245487  85.0649820  91.6364327
  52.1667372  82.7180398  93.2729896  52.8676831  83.3516881  93.4259290
  51.6962487  83.0595129  92.5125535  60.1962199  67.0835113  88.5982552
  59.2825279  67.3139340  88.7664759  60.6255301  67.1673557  89.4496584
  59.9668658  75.2725005  91.0982446  59.3140108  75.5200913  90.4434899
  60.3449038  74.4589143  90.7644923  56.9275832  85.3084698  85.2010616
  57.1098226  84.4906354  85.6638369  57.7508818  85.5252391  84.7635506
  57.2617997  84.2352883  82.4625665  57.7905764  83.7245338  81.8495827
  57.5246217  83.9195414  83.3271198  56.0156231  76.0144816  97.5848483
  55.3396868  75.9138946  98.2550858  56.8383865  75.8584030  98.0484480
  47.7635090  82.2516753  90.2060998  48.3488527  81.5060441  90.3388903
  47.5659928  82.5620709  91.0897662  50.6173745  85.2868000  85.2223441
  49.9484120  85.7714128  84.7387481  50.4786615  85.5337221  86.1366819
  54.7579014  87.3211744  91.8206099  55.3097322  87.4843365  92.5855184
  55.0985207  87.9116181  91.1486124  59.6089888  82.1473001  97.6754754
  60.1529792  82.7602959  97.1809708  59.0276733  82.7052580  98.1921767
  57.8947401  85.2693719  88.8069781  57.7698540  84.4683459  88.2980727
  58.5526492  85.7639913  88.3183751  59.9582309  83.0702739  90.4349331
  59.0112645  82.9508090  90.3627658  60.3065082  82.1825237  90.5175593
  52.3181883  68.9596878  94.2587573  52.8416284  69.2059175  95.0213883
  52.0994216  69.7916913  93.8390711  56.9628743  82.8655455  86.6353684
  56.8153705  81.9372163  86.8161254  57.7882236  82.8875546  86.1510759
  53.5234428  69.9010573  91.9437244  53.1831248  69.1018386  92.3457924
  52.8173434  70.2012284  91.3714077  54.1750900  66.9859886  90.3964567
  54.9976969  66.5120364  90.2743457  54.4188963  67.7650369  90.8963253
  54.9044825  84.8870225  93.8354754  55.2131951  84.6419372  94.7077453
  55.7020307  85.0916864  93.3473624  54.9265437  87.0408135  86.0660130
  54.4870427  86.5484514  86.7592987  55.6773554  86.4981103  85.8252205
  47.4057776  83.2319676  86.0684758  48.2315796  82.9323448  85.6883402
  47.0551828  82.4627298  86.5174547  52.3739309  82.5846144  88.1382432
  51.7519318  81.9216849  87.8384660  53.0444176  82.6107276  87.4556080
  45.6066381  81.1506002  87.0273692  44.7698289  80.7228177  86.8457693
  45.5790026  81.3438446  87.9644483  52.4463837  71.0627932  97.7314938
  52.4951992  71.9390055  97.3492707  52.9886351  70.5205325  97.1586581
  62.9318682  81.6069055  97.0116075  62.1414226  81.5893194  96.4720574
  62.6952037  82.1457349  97.7665111  63.0516557  78.4561522  94.3248803
  63.1014562  78.2911529  95.2664326  62.9430481  77.5888781  93.9346684
  60.3420320  74.4392450  95.6408110  61.2430183  74.2998914  95.3492108
  60.4168294  74.6046904  96.5806288  54.6763125  71.8159304  94.4861296
  53.8066434  72.1092870  94.2143885  54.9122605  72.3999749  95.2068560
  64.5534754  80.8758463  94.5690825  64.2619563  81.2388444  95.4054286
  63.9406885  80.1625471  94.3904157  62.8021942  75.9991078  93.0370883
  63.2776064  76.1918724  92.2289734  61.8787508  76.0550264  92.7914267
  57.3802159  68.0338921  92.0026717  57.8984103  68.7699948  91.6773205
  57.0257292  68.3402915  92.8373476  61.5023611  72.8756838  91.2699189
  62.4541034  72.9754936  91.2911413  61.3327062  72.0835106  91.7797273
  59.5237991  69.9612421  91.4558589  58.9287923  70.2417434  90.7605078
  59.2387688  70.4506322  92.2275331  63.9811689  76.0962958  90.3841488
  63.9488009  75.1578958  90.5701172  64.5912313  76.1746994  89.6507313
  64.1306178  72.8874001  90.4299771  63.6145226  72.1032458  90.2429700
  65.0146126  72.5592718  90.5946291  61.7916905  66.6315017  86.3895584
  61.5941726  66.3230105  87.2738916  62.4016610  67.3576655  86.5193514
  69.7988239  77.1578964  89.5247525  70.5291628  76.8964252  90.0855228
  69.1895185  76.4207686  89.5649593  55.7033713  79.0176757  97.8869349
  56.6236722  79.1955356  98.0809396  55.6683296  78.0732802  97.7349048
  53.5723650  72.5010997  99.9194879  53.4720377  73.4505354  99.8506970
  53.3545193  72.1729236  99.0470949  60.9269358  68.6224449  83.6470780
  60.3468027  69.2809253  83.2648832  60.6605291  67.8001793  83.2358197
  59.3772925  68.0229506  85.8492100  59.8772703  68.1346041  85.0406419
  60.0208533  67.7190559  86.4892908  53.4354921  75.9308136  98.7359941
  52.9522002  76.7308496  98.9423830  53.5215860  75.9416081  97.7827385
  59.7094236  70.7824539  82.7027128  58.8220091  71.0674190  82.4847323
  60.1248225  70.6218302  81.8554405  63.0608772  70.8071060  86.4181467
  63.8369163  71.2967512  86.6906084  62.3356907  71.2329114  86.8753337
  47.7178487  85.3632290  87.7898573  47.5832955  84.6032691  87.2236571
  47.3010549  86.0873190  87.3227361  50.8747613  86.2601607  88.0017015
  50.7579997  87.2047040  87.8995705  50.0540059  85.9575169  88.3902814
  57.7315947  79.7932768  99.5383510  58.6007106  79.9673420  99.1770145
  57.2522698  80.6127185  99.4159239  51.9002127  86.9129869  91.2172944
  52.8029374  86.9453479  91.5339439  51.6739497  85.9830320  91.2319279
  53.6555729  85.6660856  87.8783022  52.7051360  85.6662717  87.7647395
  53.9588215  84.9193590  87.3619057  69.3908422  91.5021394  88.9428785
  70.0286832  91.3828141  88.2392125  69.2729265  92.4502238  89.0016737
  66.1998129  91.4548822  88.8790309  65.8616640  91.3389887  87.9910844
  67.0687897  91.0539987  88.8591315  62.0584944  93.3084298  84.8687200
  61.4949809  93.2174235  84.1003488  61.9437339  92.4884203  85.3489693
  66.6817912  92.6083674  94.8376515  66.6706552  92.2136472  93.9657019
  66.8438551  91.8749746  95.4310286  59.6049376  94.8035490  87.7071421
  60.3970668  94.4626315  87.2917720  59.8446026  94.9130465  88.6273574
  67.6384503  96.9755266  80.1801665  66.9872483  97.5609347  79.7935679
  68.4328866  97.5061461  80.2396703  61.5640130  94.0644403  80.5788800
  62.3371006  93.5173390  80.4401675  61.9165529  94.9288653  80.7903261
  63.4025173  95.3920786  93.7855699  63.1115039  96.2966416  93.6702365
  64.0382157  95.4337313  94.4999768  64.3281380  92.7697634  90.3757059
  64.9244952  92.5453656  89.6614021  64.3856351  92.0282380  90.9782506
  63.9006408  90.2237069  78.2107249  64.1531929  89.7018591  77.4490712
  62.9630967  90.0603215  78.3133933  68.9449691  89.2272848  86.0181993
  69.7312780  88.8092271  85.6672410  69.2088395  90.1318940  86.1863641
  69.1159768  94.6645698  80.7170650  68.4805601  94.7380325  81.4291554
  68.7857175  95.2539297  80.0389729  74.3458118  89.1648081  86.9214971
  75.0783290  88.5947298  87.1552801  73.5897474  88.7769681  87.3621477
  63.6202697  92.1265175  80.4131624  63.5038955  91.4510079  81.0812709
  63.7304957  91.6397549  79.5963777  65.9634238  91.5875322  84.1178314
  65.5992445  91.0605943  84.8291235  66.8201354  91.1973792  83.9444799
  71.8683538  82.8769655  91.3809580  71.5366863  83.7465066  91.1570795
  71.2729152  82.5605939  92.0603610  68.3615058  95.0782201  90.7805493
  68.0615781  95.9807240  90.6721300  68.0166117  94.8114384  91.6326645
  61.8127539  91.5295998  86.8142197  60.8878036  91.3972212  87.0219889
  62.0611953  92.3090217  87.3112139  71.7612202  87.5964741  88.4602930
  70.8529079  87.5280150  88.1661691  71.7099797  88.0736686  89.2884755
  65.5828946  89.0722880  80.0986329  65.4628571  89.5179930  80.9371809
  64.8881534  89.4208197  79.5399867  59.1736350  91.1729271  87.6485986
  59.3028732  91.4263750  88.5625398  58.4933802  91.7656979  87.3290641
  63.3435838 101.8426521  83.7476460  63.2659867 102.7934347  83.8264941
  62.7397481 101.4972394  84.4051387  65.8353067  89.0154387  96.4037827
  65.0586401  89.5748307  96.3940692  66.4743630  89.5011170  96.9252697
  73.6273848  85.7981180  90.2380804  72.9848228  86.0913713  89.5920598
  73.1228777  85.6834100  91.0434000  71.2814012  89.5444353  80.9266663
  72.1931868  89.7771740  80.7514361  70.7723659  90.1281397  80.3641742
  64.0899440  91.8239840  95.9655794  64.8314124  92.3624884  95.6890618
  63.3836425  92.4506129  96.1227346  69.5654779  93.9668981  94.5627956
  69.9738135  93.5251391  93.8182588  68.8432041  93.3921608  94.8162149
  65.9185849  88.9041587  91.9361513  66.7647045  89.3281001  92.0796162
  65.8584487  88.2475212  92.6300076  69.8883594  94.5270171  88.3180245
  69.2592456  94.6915885  87.6156312  69.5009256  94.9411781  89.0891209
  73.7672826  95.4624609  85.6724608  73.0823864  95.8423511  85.1221642
  73.8516675  96.0719936  86.4056556  69.0685295  86.5645956  93.5942686
  68.8246227  87.3188016  93.0576962  69.3445225  86.9431303  94.4289933
  71.0223757  93.1084568  92.2719952  71.2340653  93.7516328  91.5954333
  70.9753506  92.2746885  91.8041882  68.6249986  85.7202389  89.1756524
  67.7634465  86.0183642  89.4673262  68.6512421  85.9372788  88.2437557
  65.4411556  94.2644579  85.5830330  65.9049901  94.5432282  84.7934952
  65.1768354  93.3628024  85.4003420  62.3335637  93.8116061  88.5210093
  62.9036994  94.2403329  87.8827577  62.9243749  93.5298646  89.2194279
  64.3780442  90.3867732  82.3919895  65.0804485  90.8388775  82.8593821
  64.0461070  89.7451551  83.0199788  62.8260803  88.9779488  96.7671104
  62.1959464  89.6595769  97.0006501  62.7196891  88.8662570  95.8224242
  58.1205776  88.6451284  87.6937028  57.3304830  88.9008813  87.2177139
  58.6117023  89.4599622  87.7989069  72.1369585  95.9856524  90.4442309
  72.9587029  95.5836711  90.1624991  72.1331988  95.8824758  91.3958425
  60.0720521  89.0095864  84.6520505  59.2751685  89.1214558  85.1704001
  59.8446113  89.3482516  83.7861396  65.9026189  95.5340567  92.6003020
  65.9670621  95.9960974  93.4361191  65.1937113  94.9037932  92.7285330
  56.4043479  88.8981775  90.1252019  56.6551517  89.7828785  90.3909595
  56.9403027  88.7186376  89.3527111  80.2275578  92.3295272  86.7927281
  79.4739287  91.7602670  86.6371285  80.3623120  92.2957937  87.7397915
  65.6174207  97.2008674  82.4682000  65.4819881  98.0460210  82.8966848
  66.1584019  97.4027952  81.7047934  62.1041546  83.2800254  99.1296355
  61.7108492  82.7266453  99.8043999  62.9207686  83.5910833  99.5202873
  59.0703604  94.7184112  83.0409925  59.5828124  95.5127363  83.1915490
  59.7226317  94.0210403  82.9743527  60.8798489  97.8349869  85.1232678
  61.0565117  98.7567833  84.9353662  61.6755322  97.5208288  85.5527058
  65.0209507  84.6958133  96.7216612  65.7619221  85.2965286  96.6421074
  65.2527430  83.9535771  96.1634654  60.1650845  89.8814501  94.9994841
  60.0504360  88.9799758  95.3001940  59.3095363  90.1278197  94.6479658
  67.2442683  97.8232241  96.5982342  66.8006537  97.0368619  96.2803247
  67.9059896  98.0111391  95.9326233  62.0029804  99.3528042  91.1243021
  62.5537229  99.2245106  90.3520015  61.1641280  99.6522932  90.7737913
  69.3423921  98.1035041  94.6263743  69.3242396  98.9243922  94.1344013
  70.2643841  97.9789116  94.8513884  65.7996975  95.6179170  95.4687252
  66.3325312  94.8567458  95.2386560  65.2711056  95.3252822  96.2111406
  68.9666670  80.7239236  90.9980893  68.6230939  81.6140878  90.9220004
  69.3345633  80.5340894  90.1350478  57.0352521  93.0472767  83.8169496
  57.8727743  93.4569775  83.6003203  57.2130788  92.1072209  83.7869689
  68.9316953  90.7147847  79.5053329  68.4163576  91.4852452  79.7441716
  68.6594261  90.0412984  80.1286390  66.5164064  85.5597548  84.5638567
  65.6605660  85.1704399  84.3844206  66.9291016  85.6389509  83.7038352
  68.0463210  83.0943891  88.9630127  67.5428006  83.0574027  88.1497932
  68.3393817  84.0036634  89.0226783  64.2906096  83.1782621  87.9696308
  65.1559093  82.9825430  87.6102198  64.3583605  82.9492973  88.8965665
  73.9051227  93.4680202  81.4406502  73.1280670  93.1291362  80.9961664
  74.5842708  93.4732825  80.7661467  68.7203256  88.5874939  81.3313110
  68.4153392  88.9021089  82.1823253  69.6733698  88.6656359  81.3740443
  67.1649688  94.7465163  82.9806064  66.6371049  94.0117922  82.6679301
  66.6637191  95.5239839  82.7346032  72.1442534  92.9414183  88.0973110
  71.4866208  93.6313445  88.1853239  72.9482933  93.3310615  88.4407096
  70.9547993  91.2958556  86.1477052  71.4679874  91.9288548  86.6498761
  71.6049217  90.6959751  85.7820412  65.3102288  92.5645373  75.9841037
  64.4029350  92.3334627  76.1832186  65.8073320  91.7682992  76.1715018
  68.2170367 101.2742880  78.9037723  67.5432066 101.5774577  79.5122681
  68.6036189 102.0771961  78.5543180  67.4328824  88.7708012  88.3935392
  66.5151385  88.9922959  88.2357080  67.8488967  88.8454322  87.5347100
  68.2163871  90.1699427  83.5238073  68.9635690  90.6820824  83.2145195
  68.4855461  89.8483480  84.3842466  66.4890521  92.6657968  80.5065027
  65.5801741  92.3817001  80.6037497  66.5185605  93.0857046  79.6468334
  71.7209789  96.2764557  84.2756194  71.2672116  95.4355467  84.3321385
  71.0903756  96.9125956  84.6130975  70.6642708  87.2056543  85.5056862
  69.9265465  86.6933930  85.8367104  70.9169482  86.7656925  84.6940139
  70.1642728  98.1141054  85.2106013  70.4565702  98.6746111  84.4918378
  70.6741349  98.4069615  85.9659172  70.7654336  79.9832795  86.0998631
  71.0713213  79.1230159  85.8124546  71.4906941  80.5750416  85.8997625
  57.0578692  90.3863482  84.4880229  56.8603092  89.7932843  83.7631296
  56.5025356  90.0815692  85.2056168  65.0375415  90.2786589  86.6074822
  65.0924025  89.3260425  86.5317299  64.2266618  90.4346028  87.0916121
  66.1866609  94.2066712  77.8453105  65.7486039  93.4902571  77.3858743
  66.9277050  94.4342826  77.2838197  62.9767775  88.8963648  84.3665201
  62.1635641  89.1957819  84.7730393  63.4726770  88.5019337  85.0839683
  65.1276353  98.8921405  86.2999466  65.0852532  99.1182252  85.3707998
  66.0439052  98.6584780  86.4485267  68.5741987  89.3605473  93.1980095
  68.9291375  89.5876946  94.0574561  69.2214118  89.6923850  92.5757350
  74.3039724  92.4823909  83.9029424  74.1657623  92.6725505  82.9750613
  73.9475943  93.2443291  84.3597475  62.4681850  86.4682004  89.9826436
  63.1081229  86.3270763  89.2849399  61.6359381  86.1816517  89.6065038
  74.3309104  94.5500436  88.9140695  74.7645610  94.4575725  89.7623750
  75.0440684  94.5257936  88.2760711  63.2442154  95.7684434  86.0961428
  64.0382753  95.2734754  85.8944003  62.5333846  95.2402297  85.7329134
  68.0636999  98.1502530  90.4473796  68.1174021  98.7193466  91.2151512
  67.1951780  98.3204415  90.0827833  59.5524918  89.9127516  82.1721181
  58.6222506  89.8511971  82.3891143  59.6482390  89.3903469  81.3757822
  59.4710467  86.4382329  84.7599423  59.7317284  87.3527662  84.6508583
  60.2927639  85.9706771  84.9096036  60.9435392  87.8520086  91.9298247
  61.6158445  87.6437448  91.2810896  60.1165178  87.6542172  91.4903480
  75.1924653  94.5924136  91.4473581  75.3860543  95.4969947  91.6932856
  75.0925271  94.1331555  92.2812166  66.8460964  84.4782027  93.9463908
  66.1988879  85.1771977  93.8528385  67.6161979  84.9118171  94.3140156
  70.2539762  94.7430879  97.0214461  70.1025268  94.5141431  96.1044545
  70.2444441  95.7001480  97.0345807  67.0225098  92.3162792  92.0060728
  67.9517158  92.4673951  91.8329695  66.6016128  92.4046813  91.1509374
  65.8213430  96.3413456  89.7759266  65.6824516  95.9732241  90.6485204
  65.0328026  96.8561096  89.6043223  66.4161582 101.4422553  81.1184802
  66.5913338 100.9710596  81.9330425  65.7294370 102.0688319  81.3466063
  67.3718645  95.7195059  87.1648103  67.0368478  95.6795829  88.0605753
  66.8722591  95.0539775  86.6918514  61.3462889  91.1262689  92.6900685
  61.2082687  90.3942928  93.2912224  62.2567813  91.0371589  92.4084872
  70.3077837  93.0651093  77.4385163  69.6907008  92.3397921  77.3418216
  69.8394325  93.8260454  77.0952237  63.9745190  90.8382648  92.1784364
  64.6844808  90.1975840  92.1370983  63.9314498  91.0895543  93.1010545
  71.9631969  97.7750002  95.0990943  71.9044515  97.0909222  94.4321526
  72.3651487  98.5168992  94.6471569  62.6874124  87.8247866  93.9980004
  62.1511481  87.3738605  94.6501600  62.0990832  87.9593775  93.2550468
  60.9822667 104.5911915  87.8924662  61.2219266 105.2230440  88.5703681
  60.1391864 104.2399955  88.1790022  71.9649376  95.7389586  93.3304923
  71.0776155  95.4015507  93.4531322  72.5347927  95.0072617  93.5673688
  53.6178523  92.0713677  86.6547974  54.3049563  91.7575407  86.0668990
  53.4626652  92.9755042  86.3815226  58.4213245  86.9603874  91.0832998
  58.3371434  86.3529543  90.3483408  57.5995951  87.4512892  91.0842494
  65.4950529 100.3991038  90.2966166  65.4220701 101.2046009  90.8085471
  65.0527922 100.5983004  89.4714188  65.2840309  99.6362808  83.8068988
  64.5007831 100.1784488  83.9007212  65.9833054 100.1536788  84.2063229
  68.5936959  85.4457437  86.4503193  69.0905658  84.6927400  86.1304263
  67.8223940  85.4821754  85.8846403  76.4466716  91.1497803  88.0921485
  76.4356593  92.0322518  87.7215418  75.5784096  90.7969354  87.8976022
  67.9549213 100.2977872  92.4524325  68.6677185 100.9325337  92.3800226
  67.4639241 100.3941738  91.6364327  69.6766740  94.2029125  84.0241617
  68.7423018  94.3230587  83.8546321  69.8543408  93.3001591  83.7601626
  65.1771928  87.5874820  86.1774878  64.8069715  87.0345861  86.8655783
  65.6731020  86.9832954  85.6249878  73.0639291  90.0446444  84.5591651
  73.5299743  90.8774435  84.4851953  73.5146791  89.5791425  85.2636909
  63.0061126  98.0472315  93.2729896  63.7070586  98.6808798  93.4259290
  62.5356241  98.3887047  92.5125535  71.1315522  96.3890265  81.5577803
  71.4075366  96.2746860  82.4671677  70.2620021  95.9907750  81.5189976
  71.0355954  82.4127031  88.5982552  70.1219034  82.6431258  88.7664759
  71.4649055  82.4965475  89.4496584  70.8062412  90.6016923  91.0982446
  70.1533862  90.8492830  90.4434899  71.1842792  89.7881061  90.7644923
  67.7669586 100.6376616  85.2010616  67.9491981  99.8198272  85.6638369
  68.5902572 100.8544308  84.7635506  68.1011752  99.5644801  82.4625665
  68.6299518  99.0537256  81.8495827  68.3639971  99.2487331  83.3271198
  66.8549985  91.3436734  97.5848483  66.1790622  91.2430863  98.2550858
  67.6777619  91.1875948  98.0484480  58.6028844  97.5808670  90.2060998
  59.1882281  96.8352358  90.3388903  58.4053683  97.8912627  91.0897662
  61.4567500 100.6159918  85.2223441  60.7877875 101.1006045  84.7387481
  61.3180369 100.8629138  86.1366819  53.1946499  90.1514271  88.9265442
  53.2330599  89.6177861  89.7202560  52.6886792  89.6249476  88.3076419
  65.5972768 102.6503661  91.8206099  66.1491076 102.8135283  92.5855184
  65.9378962 103.2408099  91.1486124  60.5737261  84.9978811  92.4227984
  60.6378588  85.8593642  92.0105382  60.5104382  84.3852813  91.6900342
  60.0489534  87.0701944  96.0701018  60.6761573  86.6879021  96.6838542
  59.1917453  86.8516146  96.4356711  70.4483642  97.4764919  97.6754754
  70.9923546  98.0894877  97.1809708  69.8670487  98.0344497  98.1921767
  56.8255077  88.8778373  82.0019373  57.1208518  87.9689051  81.9486427
  55.9243112  88.8566112  81.6800375  68.7341155 100.5985637  88.8069781
  68.6092295  99.7975377  88.2980727  69.3920247 101.0931830  88.3183751
  60.3549324  86.9534369  87.9846922  59.6335909  87.5670337  87.8454395
  61.1442579  87.4892134  87.9063567  70.7976064  98.3994657  90.4349331
  69.8506399  98.2800008  90.3627658  71.1458837  97.5117155  90.5175593
  63.1575637  84.2888796  94.2587573  63.6810039  84.5351092  95.0213883
  62.9387970  85.1208831  93.8390711  58.5542918  86.5592470  82.1258698
  58.2255624  85.6789849  81.9433804  58.9082289  86.5040139  83.0135087
  67.8022497  98.1947373  86.6353684  67.6547460  97.2664081  86.8161254
  68.6275991  98.2167464  86.1510759  61.6684741  86.8465440  82.4934176
  62.0080814  87.3751361  81.7712784  62.1156862  87.1845846  83.2692742
  71.4056619  99.0175932  87.7218556  72.3303166  98.8118793  87.5843008
  71.2371922  98.7692333  88.6307898  64.3628182  85.2302491  91.9437244
  64.0225003  84.4310304  92.3457924  63.6567188  85.5304202  91.3714077
  65.0144654  82.3151803  90.3964567  65.8370723  81.8412282  90.2743457
  65.2582718  83.0942287  90.8963253  62.5383233  89.0070924  88.2056545
  62.3927813  89.3211227  89.0980827  62.0608436  89.6255824  87.6527444
  64.3979616  85.9973472  88.2537435  64.3841184  85.1014565  87.9169733
  65.1152044  86.0044136  88.8875721  66.2505746  86.4310812  90.2990562
  65.9923524  87.3527883  90.2974893  65.7190787  86.0341247  90.9891027
  71.1951935  99.5361599  83.0780648  71.3688813  98.9708022  82.3254500
  71.6880826 100.3362494  82.8960138  57.0128895  91.5476268  91.1444207
  56.4682363  92.3236076  91.2764481  57.8908245  91.8947073  90.9863328
  66.6707702  82.5642763  86.6591725  66.6929399  82.6282096  85.7043705
  67.0875761  81.7247271  86.8532231  77.0491326  92.2998022  84.6970948
  77.4922472  91.5505347  84.2990071  76.1717837  92.2908159  84.3144680
  72.1827108  98.8528364  80.1777546  72.8778012  99.4735056  80.3964861
  72.5250258  98.0023715  80.4529924  57.7994917  90.6746165  94.0374364
  57.0576653  90.8228800  94.6238994  57.4787661  90.9354430  93.1741113
  74.0818531  96.3028069  81.7064877  74.6069855  96.6415342  80.9814197
  73.9940883  95.3675085  81.5228012  65.7438579 100.2162143  93.8354754
  66.0525706  99.9711290  94.7077453  66.5414061 100.4208781  93.3473624
  65.7659191 102.3700053  86.0660130  65.3264182 101.8776431  86.7592987
  66.5167308 101.8273020  85.8252205  58.2451530  98.5611593  86.0684758
  59.0709550  98.2615365  85.6883402  57.8945582  97.7919216  86.5174547
  63.2133064  97.9138062  88.1382432  62.5913073  97.2508767  87.8384660
  63.8837931  97.9399194  87.4556080  56.4460136  96.4797920  87.0273692
  55.6092044  96.0520094  86.8457693  56.4183781  96.6730363  87.9644483
  63.2857591  86.3919850  97.7314938  63.3345747  87.2681972  97.3492707
  63.8280105  85.8497243  97.1586581  73.7712437  96.9360973  97.0116075
  72.9807981  96.9185112  96.4720574  73.5345791  97.4749267  97.7665111
  73.8910312  93.7853439  94.3248803  73.9408317  93.6203447  95.2664326
  73.7824235  92.9180698  93.9346684  62.7746571  96.4641985  81.6140892
  62.9234691  97.1477449  80.9607565  63.5813014  96.4447075  82.1290348
  71.1814074  89.7684367  95.6408110  72.0823937  89.6290832  95.3492108
  71.2562049  89.9338822  96.5806288  65.5156880  87.1451222  94.4861296
  64.6460189  87.4384788  94.2143885  65.7516360  87.7291667  95.2068560
  75.3928509  96.2050381  94.5690825  75.1013317  96.5680361  95.4054286
  74.7800640  95.4917389  94.3904157  76.5924191  93.7703261  87.0893395
  77.4271082  94.2093065  87.2530956  76.7283320  93.2941914  86.2701641
  73.6415697  91.3282995  93.0370883  74.1169819  91.5210642  92.2289734
  72.7181262  91.3842181  92.7914267  60.5299204  92.4907163  82.6201961
  60.2845245  91.5869493  82.8182171  60.6995118  92.4924313  81.6781439
  68.2195913  83.3630839  92.0026717  68.7377857  84.0991866  91.6773205
  67.8651046  83.6694832  92.8373476  59.7994851  88.2235520  80.1188123
  59.1064096  88.2979875  79.4628159  59.5546603  87.4595864  80.6409640
  68.4708508  79.7831122  87.5227613  68.7510261  79.1154311  88.1488040
  69.2559115  79.9760217  87.0102277  66.2741976  98.9590115  79.0852640
  65.7015943  99.5780303  78.6323112  66.8474770  99.5089477  79.6192562
  72.3417366  88.2048756  91.2699189  73.2934789  88.3046853  91.2911413
  72.1720816  87.4127024  91.7797273  70.3631745  85.2904339  91.4558589
  69.7681678  85.5709351  90.7605078  70.0781442  85.7798240  92.2275331
  69.4939236  99.2427266  80.2161222  70.4269909  99.1772827  80.4194098
  69.4062449 100.0783532  79.7575755  72.1227253  98.5593136  77.1765170
  72.0440884  98.2252999  78.0700927  72.9436919  99.0514904  77.1756642
  74.8205444  91.4254875  90.3841488  74.7881764  90.4870876  90.5701172
  75.4306067  91.5038912  89.6507313  66.6588775  90.2950928  76.4268692
  67.6047879  90.1657136  76.4957110  66.2803020  89.5565590  76.9038120
  74.9699932  88.2165919  90.4299771  74.4538981  87.4324375  90.2429700
  75.8539881  87.8884635  90.5946291  72.6310659  81.9606934  86.3895584
  72.4335480  81.6522022  87.2738916  73.2410365  82.6868573  86.5193514
  80.6381994  92.4870882  89.5247525  81.3685382  92.2256170  90.0855228
  80.0288939  91.7499604  89.5649593  78.7197291  90.6278745  90.1221976
  77.9930454  90.4934710  89.5138468  78.3044578  90.9355573  90.9278694
  66.5427467  94.3468674  97.8869349  67.4630477  94.5247273  98.0809396
  66.5077050  93.4024720  97.7349048  55.7609632  89.5407268  86.8122624
  55.4412416  88.6872576  86.5196998  55.2143060  89.7555846  87.5680591
  59.5389540  92.2569709  90.5292130  59.7575549  93.1886817  90.5480164
  59.9515313  91.8977683  91.3146934  64.4117405  87.8302915  99.9194879
  64.3114132  88.7797272  99.8506970  64.1938947  87.5021154  99.0470949
  55.6297892  93.1610179  88.7815745  54.9361364  92.7464132  88.2685700
  56.3770883  93.2030716  88.1849164  71.7663113  83.9516366  83.6470780
  71.1861782  84.6101170  83.2648832  71.4999046  83.1293711  83.2358197
  70.2166679  83.3521424  85.8492100  70.7166458  83.4637958  85.0406419
  70.8602287  83.0482477  86.4892908  64.2748675  91.2600054  98.7359941
  63.7915757  92.0600414  98.9423830  64.3609614  91.2707998  97.7827385
  57.5434635  93.0928433  86.6581760  57.5205323  93.1916121  85.7063643
  57.8535271  93.9393584  86.9798926  60.2022013  95.1504588  90.7728375
  61.1565266  95.1188531  90.7058306  60.0034536  94.6895212  91.5878601
  60.7921395  93.7205704  93.3399172  61.6114284  94.2149783  93.3634010
  61.0658202  92.8037672  93.3116740  70.5487991  86.1116457  82.7027128
  69.6613846  86.3966107  82.4847323  70.9641980  85.9510220  81.8554405
  73.9002527  86.1362978  86.4181467  74.6762917  86.6259430  86.6906084
  73.1750661  86.5621032  86.8753337  76.3375086  86.8490597  87.4755408
  76.9319576  86.6086333  86.7648716  76.4101669  86.1297727  88.1028944
  58.5572241 100.6924208  87.7898573  58.4226709  99.9324609  87.2236571
  58.1404304 101.4165108  87.3227361  69.6931204  95.8761131  76.7975148
  70.3967054  96.0811134  77.4132803  68.9693853  96.4437893  77.0624231
  70.5229015  91.6270993  82.9177418  70.4664216  92.0839544  82.0785050
  71.0757357  90.8661677  82.7400261  74.3333821  87.4160724  83.7427538
  74.0770755  87.0157360  84.5735745  73.7086689  88.1304518  83.6177677
  78.6446158  90.1556798  86.2498829  78.0845716  90.2249987  87.0230391
  78.0389662  89.9797782  85.5298325  61.7141367 101.5893525  88.0017015
  61.5973751 102.5338957  87.8995705  60.8933813 101.2867086  88.3902814
  71.6017902  96.3143660  78.8473608  72.4363506  95.8824859  78.6651083
  71.4402245  96.1425674  79.7750502  71.2563794  92.8175774  80.2129947
  71.2012598  92.6520045  79.2718391  70.6309849  93.5251807  80.3692137
  56.0456309  88.0543838  94.0391369  56.6915172  87.5442792  94.5278595
  55.8373460  88.7912520  94.6134795  68.5709701  95.1224686  99.5383510
  69.4400861  95.2965338  99.1770145  68.0916453  95.9419102  99.4159239
  62.7395881 102.2421787  91.2172944  63.6423128 102.2745397  91.5339439
  62.5133251 101.3122238  91.2319279  64.4949483 100.9952773  87.8783022
  63.5445114 100.9954635  87.7647395  64.7981969 100.2485508  87.3619057
  60.3853800  85.2011455  98.1366384  61.2485261  84.8448260  98.3469708
  59.8119211  84.8625350  98.8241788  80.2302177 106.8313312  88.9428785
  80.8680587 106.7120059  88.2392125  80.1123020 107.7794156  89.0016737
  77.0391883 106.7840740  88.8790309  76.7010395 106.6681804  87.9910844
  77.9081651 106.3831905  88.8591315  72.8978699 108.6376216  84.8687200
  72.3343564 108.5466153  84.1003488  72.7831094 107.8176121  85.3489693
  77.5211666 107.9375591  94.8376515  77.5100307 107.5428390  93.9657019
  77.6832306 107.2041664  95.4310286  70.4443131 110.1327408  87.7071421
  71.2364423 109.7918232  87.2917720  70.6839781 110.2422383  88.6273574
  78.4778258 112.3047184  80.1801665  77.8266237 112.8901264  79.7935679
  79.2722620 112.8353379  80.2396703  72.4033885 109.3936321  80.5788800
  73.1764761 108.8465308  80.4401675  72.7559284 110.2580570  80.7903261
  74.2418927 110.7212703  93.7855699  73.9508793 111.6258334  93.6702365
  74.8775912 110.7629231  94.4999768  75.1675134 108.0989552  90.3757059
  75.7638706 107.8745574  89.6614021  75.2250106 107.3574297  90.9782506
  74.7400162 105.5528987  78.2107249  74.9925683 105.0310508  77.4490712
  73.8024722 105.3895133  78.3133933  79.7843445 104.5564765  86.0181993
  80.5706535 104.1384189  85.6672410  80.0482150 105.4610858  86.1863641
  79.9553523 109.9937616  80.7170650  79.3199356 110.0672242  81.4291554
  79.6250929 110.5831215  80.0389729  85.1851872 104.4939999  86.9214971
  85.9177044 103.9239215  87.1552801  84.4291228 104.1061599  87.3621477
  74.4596451 107.4557093  80.4131624  74.3432709 106.7801996  81.0812709
  74.5698711 106.9689467  79.5963777  76.8027992 106.9167240  84.1178314
  76.4386199 106.3897861  84.8291235  77.6595108 106.5265709  83.9444799
  82.7077293  98.2061573  91.3809580  82.3760618  99.0756984  91.1570795
  82.1122906  97.8897857  92.0603610  76.4433479 101.9457140  79.1139662
  76.6107881 102.8137376  79.4810133  76.2530648 102.1084422  78.1900951
  79.2008812 110.4074119  90.7805493  78.9009535 111.3099158  90.6721300
  78.8559872 110.1406302  91.6326645  72.6521294 106.8587916  86.8142197
  71.7271790 106.7264130  87.0219889  72.9005707 107.6382135  87.3112139
  82.6005956 102.9256659  88.4602930  81.6922833 102.8572067  88.1661691
  82.5493552 103.4028604  89.2884755  76.4222700 104.4014797  80.0986329
  76.3022325 104.8471848  80.9371809  75.7275288 104.7500115  79.5399867
  70.0130105 106.5021189  87.6485986  70.1422486 106.7555668  88.5625398
  69.3327556 107.0948897  87.3290641  74.1829592 117.1718439  83.7476460
  74.1053622 118.1226264  83.8264941  73.5791236 116.8264312  84.4051387
  76.6746822 104.3446305  96.4037827  75.8980156 104.9040225  96.3940692
  77.3137385 104.8303088  96.9252697  84.4667602 101.1273097  90.2380804
  83.8241983 101.4205630  89.5920598  83.9622531 101.0126018  91.0434000
  82.1207766 104.8736271  80.9266663  83.0325622 105.1063657  80.7514361
  81.6117413 105.4573315  80.3641742  74.9293194 107.1531758  95.9655794
  75.6707879 107.6916802  95.6890618  74.2230180 107.7798047  96.1227346
  80.4048534 109.2960898  94.5627956  80.8131890 108.8543309  93.8182588
  79.6825795 108.7213526  94.8162149  76.7579604 104.2333505  91.9361513
  77.6040799 104.6572919  92.0796162  76.6978242 103.5767129  92.6300076
  80.7277348 109.8562089  88.3180245  80.0986211 110.0207803  87.6156312
  80.3403011 110.2703699  89.0891209  84.6066580 110.7916527  85.6724608
  83.9217619 111.1715428  85.1221642  84.6910430 111.4011853  86.4056556
  79.9079049 101.8937873  93.5942686  79.6639981 102.6479934  93.0576962
  80.1838980 102.2723221  94.4289933  81.8617512 108.4376486  92.2719952
  82.0734407 109.0808246  91.5954333  81.8147260 107.6038802  91.8041882
  79.4643741 101.0494306  89.1756524  78.6028220 101.3475560  89.4673262
  79.4906176 101.2664705  88.2437557  76.2805310 109.5936497  85.5830330
  76.7443656 109.8724200  84.7934952  76.0162108 108.6919942  85.4003420
  73.1729391 109.1407979  88.5210093  73.7430748 109.5695247  87.8827577
  73.7637503 108.8590563  89.2194279  75.2174196 105.7159649  82.3919895
  75.9198240 106.1680693  82.8593821  74.8854825 105.0743468  83.0199788
  73.6654558 104.3071406  96.7671104  73.0353219 104.9887687  97.0006501
  73.5590646 104.1954488  95.8224242  68.9599530 103.9743202  87.6937028
  68.1698584 104.2300731  87.2177139  69.4510778 104.7891540  87.7989069
  82.9763340 111.3148441  90.4442309  83.7980784 110.9128629  90.1624991
  82.9725743 111.2116675  91.3958425  70.9114276 104.3387781  84.6520505
  70.1145439 104.4506476  85.1704001  70.6839868 104.6774434  83.7861396
  76.7419943 110.8632485  92.6003020  76.8064376 111.3252892  93.4361191
  76.0330867 110.2329849  92.7285330  67.2437233 104.2273693  90.1252019
  67.4945272 105.1120702  90.3909595  67.7796782 104.0478294  89.3527111
  91.0669333 107.6587190  86.7927281  90.3133041 107.0894588  86.6371285
  91.2016874 107.6249854  87.7397915  76.4567961 112.5300592  82.4682000
  76.3213636 113.3752128  82.8966848  76.9977774 112.7319870  81.7047934
  72.9435301  98.6092172  99.1296355  72.5502246  98.0558370  99.8043999
  73.7601441  98.9202750  99.5202873  69.9097358 110.0476030  83.0409925
  70.4221879 110.8419280  83.1915490  70.5620071 109.3502321  82.9743527
  71.7192243 113.1641786  85.1232678  71.8958871 114.0859751  84.9353662
  72.5149077 112.8500206  85.5527058  75.8603262 100.0250051  96.7216612
  76.6012975 100.6257204  96.6421074  76.0921184  99.2827689  96.1634654
  71.0044600 105.2106418  94.9994841  70.8898115 104.3091675  95.3001940
  70.1489117 105.4570115  94.6479658  78.0836437 113.1524159  96.5982342
  77.6400292 112.3660537  96.2803247  78.7453651 113.3403309  95.9326233
  72.8423559 114.6819960  91.1243021  73.3930984 114.5537024  90.3520015
  72.0035034 114.9814849  90.7737913  80.1817675 113.4326958  94.6263743
  80.1636151 114.2535840  94.1344013  81.1037596 113.3081034  94.8513884
  76.6390730 110.9471088  95.4687252  77.1719066 110.1859376  95.2386560
  76.1104811 110.6544740  96.2111406  79.8060425  96.0531154  90.9980893
  79.4624694  96.9432796  90.9220004  80.1739387  95.8632812  90.1350478
  67.8746275 108.3764684  83.8169496  68.7121497 108.7861693  83.6003203
  68.0524543 107.4364127  83.7869689  79.7710707 106.0439765  79.5053329
  79.2557331 106.8144370  79.7441716  79.4988016 105.3704901  80.1286390
  77.3557818 100.8889466  84.5638567  76.4999415 100.4996316  84.3844206
  77.7684770 100.9681427  83.7038352  78.8856965  98.4235809  88.9630127
  78.3821761  98.3865944  88.1497932  79.1787572  99.3328552  89.0226783
  75.1299851  98.5074539  87.9696308  75.9952848  98.3117348  87.6102198
  75.1977360  98.2784891  88.8965665  84.7444981 108.7972120  81.4406502
  83.9674424 108.4583279  80.9961664  85.4236462 108.8024743  80.7661467
  79.5597010 103.9166857  81.3313110  79.2547146 104.2313006  82.1823253
  80.5127453 103.9948277  81.3740443  78.0043442 110.0757080  82.9806064
  77.4764804 109.3409840  82.6679301  77.5030945 110.8531757  82.7346032
  82.9836288 108.2706101  88.0973110  82.3259963 108.9605362  88.1853239
  83.7876688 108.6602533  88.4407096  72.7362170 100.7376747  85.3412675
  73.3105922 100.5151928  84.6085868  73.3233152 100.8065441  86.0941277
  81.7941747 106.6250474  86.1477052  82.3073629 107.2580465  86.6498761
  82.4442971 106.0251669  85.7820412  73.0631757 102.7681208  79.3608561
  72.2269069 103.1055894  79.6817835  72.9236527 102.6330188  78.4235697
  75.0384838  97.6117996  84.0687745  74.3849250  97.2967013  83.4444359
  74.9965312  96.9893736  84.7947568  76.1496043 107.8937291  75.9841037
  75.2423104 107.6626544  76.1832186  76.6467074 107.0974910  76.1715018
  79.0564121 116.6034798  78.9037723  78.3825820 116.9066495  79.5122681
  79.4429943 117.4063878  78.5543180  78.2722578 104.0999929  88.3935392
  77.3545139 104.3214876  88.2357080  78.6882722 104.1746240  87.5347100
  79.0557626 105.4991345  83.5238073  79.8029445 106.0112742  83.2145195
  79.3249215 105.1775398  84.3842466  77.3284276 107.9949886  80.5065027
  76.4195495 107.7108918  80.6037497  77.3579360 108.4148964  79.6468334
  82.5603543 111.6056475  84.2756194  82.1065870 110.7647385  84.3321385
  81.9297510 112.2417873  84.6130975  81.5036463 102.5348461  85.5056862
  80.7659220 102.0225847  85.8367104  81.7563236 102.0948843  84.6940139
  81.0036483 113.4432972  85.2106013  81.2959457 114.0038029  84.4918378
  81.5135103 113.7361533  85.9659172  81.6048090  95.3124713  86.0998631
  81.9106967  94.4522077  85.8124546  82.3300695  95.9042333  85.8997625
  67.8972446 105.7155400  84.4880229  67.6996846 105.1224760  83.7631296
  67.3419110 105.4107610  85.2056168  75.8769170 105.6078506  86.6074822
  75.9317780 104.6552343  86.5317299  75.0660372 105.7637945  87.0916121
  77.0260364 109.5358629  77.8453105  76.5879794 108.8194488  77.3858743
  77.7670805 109.7634744  77.2838197  73.8161530 104.2255566  84.3665201
  73.0029395 104.5249736  84.7730393  74.3120524 103.8311255  85.0839683
  75.9670108 114.2213323  86.2999466  75.9246287 114.4474169  85.3707998
  76.8832807 113.9876697  86.4485267  79.4135742 104.6897390  93.1980095
  79.7685129 104.9168864  94.0574561  80.0607873 105.0215767  92.5757350
  85.1433479 107.8115826  83.9029424  85.0051377 108.0017422  82.9750613
  84.7869697 108.5735209  84.3597475  73.3075605 101.7973921  89.9826436
  73.9474984 101.6562681  89.2849399  72.4753135 101.5108435  89.6065038
  85.1702858 109.8792353  88.9140695  85.6039365 109.7867642  89.7623750
  85.8834439 109.8549854  88.2760711  74.0835909 111.0976352  86.0961428
  74.8776507 110.6026672  85.8944003  73.3727601 110.5694215  85.7329134
  78.9030753 113.4794447  90.4473796  78.9567775 114.0485384  91.2151512
  78.0345534 113.6496332  90.0827833  70.3918672 105.2419434  82.1721181
  69.4616260 105.1803889  82.3891143  70.4876144 104.7195386  81.3757822
  70.3104221 101.7674246  84.7599423  70.5711038 102.6819580  84.6508583
  71.1321393 101.2998689  84.9096036  71.7829146 103.1812004  91.9298247
  72.4552200 102.9729366  91.2810896  70.9558933 102.9834090  91.4903480
  86.0318408 109.9216054  91.4473581  86.2254298 110.8261864  91.6932856
  85.9319026 109.4623473  92.2812166  77.6854718  99.8073945  93.9463908
  77.0382633 100.5063894  93.8528385  78.4555734 100.2410088  94.3140156
  81.0933516 110.0722797  97.0214461  80.9419023 109.8433348  96.1044545
  81.0838196 111.0293398  97.0345807  77.8618853 107.6454709  92.0060728
  78.7910913 107.7965869  91.8329695  77.4409883 107.7338730  91.1509374
  76.6607185 111.6705374  89.7759266  76.5218270 111.3024158  90.6485204
  75.8721781 112.1853013  89.6043223  77.2555337 116.7714470  81.1184802
  77.4307092 116.3002514  81.9330425  76.5688125 117.3980237  81.3466063
  78.2112400 111.0486977  87.1648103  77.8762232 111.0087747  88.0605753
  77.7116345 110.3831692  86.6918514  72.1856644 106.4554607  92.6900685
  72.0476442 105.7234845  93.2912224  73.0961567 106.3663507  92.4084872
  81.1471591 108.3943011  77.4385163  80.5300762 107.6689839  77.3418216
  80.6788080 109.1552371  77.0952237  74.8138944 106.1674566  92.1784364
  75.5238563 105.5267758  92.1370983  74.7708252 106.4187461  93.1010545
  82.8025723 113.1041919  95.0990943  82.7438269 112.4201139  94.4321526
  83.2045241 113.8460909  94.6471569  73.5267878 103.1539784  93.9980004
  72.9905235 102.7030522  94.6501600  72.9384587 103.2885693  93.2550468
  71.8216422 119.9203833  87.8924662  72.0613020 120.5522357  88.5703681
  70.9785618 119.5691873  88.1790022  72.9370137 102.6128435  76.5606467
  72.0599604 102.4917236  76.1968714  73.4127890 101.8214514  76.3085356
  82.8043130 111.0681503  93.3304923  81.9169909 110.7307425  93.4531322
  83.3741681 110.3364534  93.5673688  64.4572277 107.4005595  86.6547974
  65.1443317 107.0867325  86.0668990  64.3020406 108.3046960  86.3815226
  69.2607000 102.2895792  91.0832998  69.1765188 101.6821461  90.3483408
  68.4389706 102.7804810  91.0842494  76.3344284 115.7282956  90.2966166
  76.2614455 116.5337927  90.8085471  75.8921677 115.9274921  89.4714188
  76.1234063 114.9654726  83.8068988  75.3401585 115.5076406  83.9007212
  76.8226808 115.4828705  84.2063229  79.4330713 100.7749355  86.4503193
  79.9299413 100.0219317  86.1304263  78.6617695 100.8113672  85.8846403
  87.2860471 106.4789721  88.0921485  87.2750347 107.3614436  87.7215418
  86.4177850 106.1261271  87.8976022  78.7942967 115.6269790  92.4524325
  79.5070939 116.2617254  92.3800226  78.3032996 115.7233656  91.6364327
  80.5160494 109.5321042  84.0241617  79.5816773 109.6522505  83.8546321
  80.6937163 108.6293509  83.7601626  76.0165682 102.9166738  86.1774878
  75.6463470 102.3637778  86.8655783  76.5124775 102.3124872  85.6249878
  83.9033045 105.3738362  84.5591651  84.3693498 106.2066353  84.4851953
  84.3540546 104.9083343  85.2636909  73.8454881 113.3764233  93.2729896
  74.5464340 114.0100716  93.4259290  73.3749996 113.7178965  92.5125535
  81.9709277 111.7182183  81.5577803  82.2469120 111.6038777  82.4671677
  81.1013775 111.3199668  81.5189976  81.8749708  97.7418949  88.5982552
  80.9612788  97.9723175  88.7664759  82.3042810  97.8257393  89.4496584
  81.6456167 105.9308840  91.0982446  80.9927617 106.1784748  90.4434899
  82.0236547 105.1172979  90.7644923  78.6063341 115.9668534  85.2010616
  78.7885735 115.1490190  85.6638369  79.4296327 116.1836226  84.7635506
  78.9405506 114.8936719  82.4625665  79.4693273 114.3829173  81.8495827
  79.2033726 114.5779249  83.3271198  77.6943740 106.6728652  97.5848483
  77.0184377 106.5722781  98.2550858  78.5171374 106.5167865  98.0484480
  69.4422599 112.9100588  90.2060998  70.0276036 112.1644276  90.3388903
  69.2447437 113.2204545  91.0897662  72.2961254 115.9451835  85.2223441
  71.6271629 116.4297963  84.7387481  72.1574124 116.1921056  86.1366819
  64.0340254 105.4806188  88.9265442  64.0724353 104.9469779  89.7202560
  63.5280546 104.9541394  88.3076419  76.4366523 117.9795579  91.8206099
  76.9884831 118.1427201  92.5855184  76.7772716 118.5700017  91.1486124
  71.4131016 100.3270729  92.4227984  71.4772342 101.1885560  92.0105382
  71.3498136  99.7144730  91.6900342  70.8883288 102.3993861  96.0701018
  71.5155327 102.0170939  96.6838542  70.0311207 102.1808063  96.4356711
  67.6648831 104.2070290  82.0019373  67.9602272 103.2980969  81.9486427
  66.7636867 104.1858030  81.6800375  79.5734910 115.9277555  88.8069781
  79.4486049 115.1267294  88.2980727  80.2314001 116.4223748  88.3183751
  71.1943078 102.2826287  87.9846922  70.4729664 102.8962255  87.8454395
  71.9836334 102.8184052  87.9063567  81.6369818 113.7286575  90.4349331
  80.6900154 113.6091926  90.3627658  81.9852591 112.8409073  90.5175593
  73.9969392  99.6180714  94.2587573  74.5203793  99.8643010  95.0213883
  73.7781725 100.4500748  93.8390711  69.3936673 101.8884388  82.1258698
  69.0649379 101.0081767  81.9433804  69.7476043 101.8332057  83.0135087
  78.6416252 113.5239291  86.6353684  78.4941214 112.5955998  86.8161254
  79.4669745 113.5459382  86.1510759  72.5078496 102.1757358  82.4934176
  72.8474568 102.7043279  81.7712784  72.9550616 102.5137764  83.2692742
  82.2450373 114.3467850  87.7218556  83.1696921 114.1410711  87.5843008
  82.0765677 114.0984251  88.6307898  75.2021937 100.5594409  91.9437244
  74.8618757  99.7602222  92.3457924  74.4960943 100.8596119  91.3714077
  75.8538408  97.6443721  90.3964567  76.6764478  97.1704199  90.2743457
  76.0976472  98.4234205  90.8963253  74.4946643 100.6731980  80.6927469
  75.2155005 101.0513232  80.1891185  73.8711947 101.3920856  80.7962446
  78.6377766 101.3777128  81.6285801  78.8541380 102.2601766  81.3274629
  78.1571833 100.9863342  80.8991443  73.3776987 104.3362842  88.2056545
  73.2321568 104.6503145  89.0980827  72.9002191 104.9547742  87.6527444
  75.2373370 101.3265390  88.2537435  75.2234939 100.4306483  87.9169733
  75.9545798 101.3336053  88.8875721  77.0899501 101.7602730  90.2990562
  76.8317279 102.6819801  90.2974893  76.5584541 101.3633164  90.9891027
  82.0345690 114.8653517  83.0780648  82.2082567 114.2999939  82.3254500
  82.5274581 115.6654412  82.8960138  67.8522649 106.8768186  91.1444207
  67.3076117 107.6527994  91.2764481  68.7301999 107.2238991  90.9863328
  74.6410266 100.2079770  83.5225005  74.7626177  99.2796416  83.7215893
  74.3512308 100.2218456  82.6103321  77.5101456  97.8934680  86.6591725
  77.5323153  97.9574013  85.7043705  77.9269515  97.0539189  86.8532231
  87.8885081 107.6289940  84.6970948  88.3316227 106.8797265  84.2990071
  87.0111591 107.6200076  84.3144680  83.0220862 114.1820281  80.1777546
  83.7171767 114.8026974  80.3964861  83.3644012 113.3315633  80.4529924
  68.6388671 106.0038082  94.0374364  67.8970407 106.1520718  94.6238994
  68.3181416 106.2646348  93.1741113  84.9212285 111.6319987  81.7064877
  85.4463609 111.9707260  80.9814197  84.8334638 110.6967002  81.5228012
  76.5832334 115.5454061  93.8354754  76.8919460 115.3003207  94.7077453
  77.3807816 115.7500699  93.3473624  76.6052946 117.6991970  86.0660130
  76.1657936 117.2068349  86.7592987  77.3561063 117.1564938  85.8252205
  69.0845285 113.8903511  86.0684758  69.9103305 113.5907283  85.6883402
  68.7339337 113.1211134  86.5174547  74.0526818 113.2429979  88.1382432
  73.4306827 112.5800684  87.8384660  74.7231685 113.2691111  87.4556080
  67.2853890 111.8089838  87.0273692  66.4485798 111.3812012  86.8457693
  67.2577535 112.0022281  87.9644483  74.1251346 101.7211767  97.7314938
  74.1739501 102.5973890  97.3492707  74.6673860 101.1789160  97.1586581
  84.7304066 109.1145357  94.3248803  84.7802071 108.9495364  95.2664326
  84.6217990 108.2472616  93.9346684  73.6140325 111.7933903  81.6140892
  73.7628445 112.4769367  80.9607565  74.4206768 111.7738993  82.1290348
  82.0207829 105.0976285  95.6408110  82.9217691 104.9582750  95.3492108
  82.0955803 105.2630740  96.5806288  76.3550634 102.4743140  94.4861296
  75.4853943 102.7676706  94.2143885  76.5910114 103.0583585  95.2068560
  86.2322263 111.5342298  94.5690825  85.9407071 111.8972279  95.4054286
  85.6194394 110.8209307  94.3904157  87.4317945 109.0995178  87.0893395
  88.2664837 109.5384982  87.2530956  87.5677074 108.6233831  86.2701641
  84.4809451 106.6574913  93.0370883  84.9563573 106.8502559  92.2289734
  83.5575017 106.7134099  92.7914267  71.3692958 107.8199080  82.6201961
  71.1239000 106.9161410  82.8182171  71.5388873 107.8216231  81.6781439
  79.0589668  98.6922757  92.0026717  79.5771612  99.4283784  91.6773205
  78.7044801  98.9986750  92.8373476  70.6388606 103.5527438  80.1188123
  69.9457850 103.6271793  79.4628159  70.3940357 102.7887781  80.6409640
  79.3102262  95.1123039  87.5227613  79.5904016  94.4446228  88.1488040
  80.0952869  95.3052135  87.0102277  77.1135731 114.2882033  79.0852640
  76.5409698 114.9072220  78.6323112  77.6868524 114.8381395  79.6192562
  83.1811120 103.5340673  91.2699189  84.1328543 103.6338771  91.2911413
  83.0114571 102.7418942  91.7797273  81.2025500 100.6196256  91.4558589
  80.6075432 100.9001269  90.7605078  80.9175197 101.1090157  92.2275331
  80.3332990 114.5719183  80.2161222  81.2663664 114.5064745  80.4194098
  80.2456203 115.4075450  79.7575755  82.9621007 113.8885054  77.1765170
  82.8834639 113.5544917  78.0700927  83.7830674 114.3806821  77.1756642
  85.6599198 106.7546793  90.3841488  85.6275518 105.8162794  90.5701172
  86.2699822 106.8330830  89.6507313  77.4982529 105.6242846  76.4268692
  78.4441634 105.4949054  76.4957110  77.1196774 104.8857508  76.9038120
  85.8093687 103.5457836  90.4299771  85.2932735 102.7616293  90.2429700
  86.6933635 103.2176553  90.5946291  83.4704414  97.2898852  86.3895584
  83.2729235  96.9813940  87.2738916  84.0804119  98.0160491  86.5193514
  91.4775748 107.8162800  89.5247525  92.2079137 107.5548088  90.0855228
  90.8682694 107.0791522  89.5649593  89.5591045 105.9570662  90.1221976
  88.8324209 105.8226627  89.5138468  89.1438332 106.2647491  90.9278694
  77.3821222 109.6760592  97.8869349  78.3024231 109.8539191  98.0809396
  77.3470805 108.7316637  97.7349048  75.6825446 103.5492822  76.3623577
  74.7756902 103.2525935  76.4386291  75.9601427 103.2522640  75.4957864
  66.6003387 104.8699186  86.8122624  66.2806171 104.0164494  86.5196998
  66.0536815 105.0847764  87.5680591  70.3783294 107.5861627  90.5292130
  70.5969304 108.5178734  90.5480164  70.7909068 107.2269601  91.3146934
  77.2987512  98.0929712  82.5167819  76.4888240  97.7476797  82.8923065
  77.9871929  97.7837256  83.1055430  79.2278060  97.1707759  84.1392115
  79.7809099  97.5903212  84.7982138  79.4648147  96.2443507  84.1815071
  75.2511159 103.1594832  99.9194879  75.1507886 104.1089189  99.8506970
  75.0332702 102.8313071  99.0470949  74.4524231 100.4079757  76.5035557
  75.3143395 100.7334656  76.7631374  74.6374575  99.6211253  75.9908622
  66.4691647 108.4902097  88.7815745  65.7755118 108.0756050  88.2685700
  67.2164638 108.5322634  88.1849164  82.6056867  99.2808284  83.6470780
  82.0255536  99.9393088  83.2648832  82.3392800  98.4585629  83.2358197
  81.0560434  98.6813342  85.8492100  81.5560212  98.7929876  85.0406419
  81.6996042  98.3774394  86.4892908  75.1142430 106.5891971  98.7359941
  74.6309511 107.3892331  98.9423830  75.2003369 106.5999916  97.7827385
  68.3828389 108.4220351  86.6581760  68.3599077 108.5208038  85.7063643
  68.6929026 109.2685502  86.9798926  71.0415767 110.4796506  90.7728375
  71.9959021 110.4480448  90.7058306  70.8428291 110.0187130  91.5878601
  71.6315149 109.0497622  93.3399172  72.4508038 109.5441701  93.3634010
  71.9051957 108.1329590  93.3116740  81.3881745 101.4408374  82.7027128
  80.5007600 101.7258025  82.4847323  81.8035734 101.2802138  81.8554405
  84.7396281 101.4654895  86.4181467  85.5156672 101.9551348  86.6906084
  84.0144416 101.8912949  86.8753337  87.1768840 102.1782515  87.4755408
  87.7713331 101.9378250  86.7648716  87.2495424 101.4589645  88.1028944
  69.3965996 116.0216125  87.7898573  69.2620464 115.2616526  87.2236571
  68.9798058 116.7457025  87.3227361  80.5324959 111.2053049  76.7975148
  81.2360809 111.4103051  77.4132803  79.8087608 111.7729811  77.0624231
  81.3622769 106.9562910  82.9177418  81.3057970 107.4131462  82.0785050
  81.9151112 106.1953595  82.7400261  85.1727575 102.7452642  83.7427538
  84.9164509 102.3449278  84.5735745  84.5480443 103.4596436  83.6177677
  89.4839913 105.4848715  86.2498829  88.9239471 105.5541905  87.0230391
  88.8783416 105.3089700  85.5298325  72.5535122 116.9185442  88.0017015
  72.4367506 117.8630875  87.8995705  71.7327568 116.6159004  88.3902814
  82.4411656 111.6435578  78.8473608  83.2757260 111.2116777  78.6651083
  82.2795999 111.4717592  79.7750502  82.0957548 108.1467691  80.2129947
  82.0406352 107.9811963  79.2718391  81.4703604 108.8543724  80.3692137
  66.8850063 103.3835756  94.0391369  67.5308927 102.8734710  94.5278595
  66.6767214 104.1204438  94.6134795  75.4053674  97.6475800  79.7915266
  75.3932344  98.5917640  79.9483536  76.2977096  97.4645946  79.4974727
  73.5789636 117.5713704  91.2172944  74.4816882 117.6037315  91.5339439
  73.3527006 116.6414155  91.2319279  75.3343238 116.3244691  87.8783022
  74.3838869 116.3246553  87.7647395  75.6375724 115.5777425  87.3619057
  79.2205793  94.2418577  84.0461202  78.4538189  93.6877064  84.1917885
  79.6316498  94.3140446  84.9075354  71.2247554 100.5303373  98.1366384
  72.0879016 100.1740178  98.3469708  70.6512965 100.1917268  98.8241788
  83.7372453 123.9668134  84.8687200  83.1737318 123.8758071  84.1003488
  83.6224848 123.1468038  85.3489693  81.2836885 125.4619325  87.7071421
  82.0758177 125.1210150  87.2917720  81.5233535 125.5714300  88.6273574
  83.2427639 124.7228239  80.5788800  84.0158515 124.1757226  80.4401675
  83.5953038 125.5872488  80.7903261  85.5793917 120.8820905  78.2107249
  85.8319438 120.3602426  77.4490712  84.6418476 120.7187050  78.3133933
  90.6237200 119.8856683  86.0181993  91.4100289 119.4676106  85.6672410
  90.8875904 120.7902775  86.1863641  85.2990206 122.7849011  80.4131624
  85.1826464 122.1093914  81.0812709  85.4092466 122.2981385  79.5963777
  87.6421747 122.2459158  84.1178314  87.2779954 121.7189779  84.8291235
  88.4988863 121.8557627  83.9444799  87.2827234 117.2749058  79.1139662
  87.4501636 118.1429294  79.4810133  87.0924403 117.4376339  78.1900951
  83.4915048 122.1879833  86.8142197  82.5665545 122.0556047  87.0219889
  83.7399461 122.9674053  87.3112139  87.2616454 119.7306715  80.0986329
  87.1416080 120.1763766  80.9371809  86.5669043 120.0792033  79.5399867
  80.8523859 121.8313107  87.6485986  80.9816240 122.0847586  88.5625398
  80.1721311 122.4240815  87.3290641  92.9601521 120.2028188  80.9266663
  93.8719377 120.4355575  80.7514361  92.4511168 120.7865232  80.3641742
  90.3037495 116.3786224  89.1756524  89.4421974 116.6767478  89.4673262
  90.3299930 116.5956623  88.2437557  87.1199065 124.9228415  85.5830330
  87.5837410 125.2016118  84.7934952  86.8555863 124.0211859  85.4003420
  86.0567951 121.0451567  82.3919895  86.7591994 121.4972611  82.8593821
  85.7248579 120.4035386  83.0199788  79.7993285 119.3035120  87.6937028
  79.0092339 119.5592648  87.2177139  80.2904532 120.1183458  87.7989069
  81.7508030 119.6679699  84.6520505  80.9539194 119.7798393  85.1704001
  81.5233622 120.0066351  83.7861396  78.0830988 119.5565610  90.1252019
  78.3339026 120.4412620  90.3909595  78.6190536 119.3770212  89.3527111
  80.7491113 125.3767948  83.0409925  81.2615633 126.1711198  83.1915490
  81.4013826 124.6794238  82.9743527  82.5585998 128.4933704  85.1232678
  82.7352626 129.4151669  84.9353662  83.3542831 128.1792123  85.5527058
  90.6454179 111.3823072  90.9980893  90.3018448 112.2724713  90.9220004
  91.0133142 111.1924729  90.1350478  78.7140030 123.7056602  83.8169496
  79.5515252 124.1153610  83.6003203  78.8918297 122.7656044  83.7869689
  90.6104462 121.3731683  79.5053329  90.0951085 122.1436287  79.7441716
  90.3381770 120.6996819  80.1286390  88.1951573 116.2181384  84.5638567
  87.3393169 115.8288234  84.3844206  88.6078525 116.2973344  83.7038352
  89.7250719 113.7527727  88.9630127  89.2215515 113.7157862  88.1497932
  90.0181326 114.6620469  89.0226783  85.9693605 113.8366456  87.9696308
  86.8346602 113.6409265  87.6102198  86.0371114 113.6076808  88.8965665
  90.3990765 119.2458775  81.3313110  90.0940901 119.5604924  82.1823253
  91.3521207 119.3240195  81.3740443  88.8437197 125.4048998  82.9806064
  88.3158558 124.6701758  82.6679301  88.3424700 126.1823674  82.7346032
  83.5755924 116.0668664  85.3412675  84.1499676 115.8443846  84.6085868
  84.1626907 116.1357359  86.0941277  83.9025512 118.0973125  79.3608561
  83.0662824 118.4347812  79.6817835  83.7630281 117.9622105  78.4235697
  85.8778592 112.9409913  84.0687745  85.2243004 112.6258930  83.4444359
  85.8359066 112.3185654  84.7947568  86.9889797 123.2229208  75.9841037
  86.0816859 122.9918462  76.1832186  87.4860829 122.4266828  76.1715018
  89.1116332 119.4291847  88.3935392  88.1938894 119.6506794  88.2357080
  89.5276476 119.5038157  87.5347100  89.8951380 120.8283263  83.5238073
  90.6423199 121.3404660  83.2145195  90.1642970 120.5067315  84.3842466
  88.1678030 123.3241803  80.5065027  87.2589250 123.0400836  80.6037497
  88.1973114 123.7440882  79.6468334  92.3430217 117.8640379  85.5056862
  91.6052974 117.3517765  85.8367104  92.5956991 117.4240760  84.6940139
  92.4441845 110.6416631  86.0998631  92.7500722 109.7813994  85.8124546
  93.1694450 111.2334251  85.8997625  78.7366201 121.0447317  84.4880229
  78.5390601 120.4516678  83.7631296  78.1812865 120.7399528  85.2056168
  86.7162924 120.9370424  86.6074822  86.7711534 119.9844260  86.5317299
  85.9054127 121.0929863  87.0916121  87.8654118 124.8650547  77.8453105
  87.4273548 124.1486406  77.3858743  88.6064559 125.0926662  77.2838197
  84.6555284 119.5547484  84.3665201  83.8423150 119.8541654  84.7730393
  85.1514279 119.1603172  85.0839683  84.1469359 117.1265839  89.9826436
  84.7868738 116.9854598  89.2849399  83.3146890 116.8400353  89.6065038
  84.9229663 126.4268270  86.0961428  85.7170262 125.9318590  85.8944003
  84.2121355 125.8986133  85.7329134  81.2312427 120.5711351  82.1721181
  80.3010015 120.5095807  82.3891143  81.3269899 120.0487304  81.3757822
  81.1497976 117.0966164  84.7599423  81.4104793 118.0111497  84.6508583
  81.9715148 116.6290607  84.9096036  82.6222901 118.5103921  91.9298247
  83.2945954 118.3021283  91.2810896  81.7952687 118.3126007  91.4903480
  91.9865346 123.7234929  77.4385163  91.3694516 122.9981757  77.3418216
  91.5181834 124.4844289  77.0952237  83.7763892 117.9420353  76.5606467
  82.8993358 117.8209154  76.1968714  84.2521645 117.1506431  76.3085356
  75.2966032 122.7297513  86.6547974  75.9837072 122.4159243  86.0668990
  75.1414161 123.6338877  86.3815226  80.1000754 117.6187709  91.0832998
  80.0158943 117.0113379  90.3483408  79.2783460 118.1096727  91.0842494
  90.2724468 116.1041273  86.4503193  90.7693167 115.3511235  86.1304263
  89.5011449 116.1405589  85.8846403  91.3554249 124.8612960  84.0241617
  90.4210527 124.9814422  83.8546321  91.5330917 123.9585427  83.7601626
  86.8559437 118.2458656  86.1774878  86.4857224 117.6929696  86.8655783
  87.3518529 117.6416789  85.6249878  94.7426800 120.7030279  84.5591651
  95.2087252 121.5358271  84.4851953  95.1934300 120.2375261  85.2636909
  92.7143463 113.0710866  88.5982552  91.8006542 113.3015093  88.7664759
  93.1436564 113.1549310  89.4496584  74.8734008 120.8098106  88.9265442
  74.9118108 120.2761697  89.7202560  74.3674301 120.2833311  88.3076419
  82.2524770 115.6562646  92.4227984  82.3166097 116.5177477  92.0105382
  82.1891891 115.0436648  91.6900342  78.5042586 119.5362208  82.0019373
  78.7996027 118.6272887  81.9486427  77.6030621 119.5149948  81.6800375
  82.0336833 117.6118205  87.9846922  81.3123418 118.2254172  87.8454395
  82.8230088 118.1475970  87.9063567  80.2330427 117.2176306  82.1258698
  79.9043133 116.3373685  81.9433804  80.5869798 117.1623974  83.0135087
  83.3472250 117.5049276  82.4934176  83.6868323 118.0335197  81.7712784
  83.7944371 117.8429682  83.2692742  86.0415691 115.8886326  91.9437244
  85.7012512 115.0894139  92.3457924  85.3354697 116.1888037  91.3714077
  86.6932163 112.9735639  90.3964567  87.5158232 112.4996117  90.2743457
  86.9370227 113.7526122  90.8963253  85.3340397 116.0023897  80.6927469
  86.0548760 116.3805150  80.1891185  84.7105702 116.7212774  80.7962446
  89.4771520 116.7069046  81.6285801  89.6935135 117.5893684  81.3274629
  88.9965588 116.3155260  80.8991443  84.2170742 119.6654759  88.2056545
  84.0715322 119.9795062  89.0980827  83.7395945 120.2839660  87.6527444
  86.0767125 116.6557307  88.2537435  86.0628693 115.7598401  87.9169733
  86.7939553 116.6627971  88.8875721  87.9293255 117.0894648  90.2990562
  87.6711033 118.0111718  90.2974893  87.3978296 116.6925082  90.9891027
  78.6916404 122.2060104  91.1444207  78.1469872 122.9819912  91.2764481
  79.5695754 122.5530908  90.9863328  85.4804021 115.5371688  83.5225005
  85.6019932 114.6088334  83.7215893  85.1906063 115.5510374  82.6103321
  88.3495211 113.2226598  86.6591725  88.3716908 113.2865931  85.7043705
  88.7663270 112.3831107  86.8532231  79.9239039 129.2195429  86.0684758
  80.7497059 128.9199201  85.6883402  79.5733091 128.4503051  86.5174547
  78.1247644 127.1381755  87.0273692  77.2879553 126.7103930  86.8457693
  78.0971290 127.3314199  87.9644483  84.4534080 127.1225820  81.6140892
  84.6022200 127.8061285  80.9607565  85.2600523 127.1030910  82.1290348
  82.2086713 123.1490998  82.6201961  81.9632754 122.2453328  82.8182171
  82.3782627 123.1508148  81.6781439  81.4782360 118.8819356  80.1188123
  80.7851605 118.9563711  79.4628159  81.2334112 118.1179699  80.6409640
  90.1496017 110.4414957  87.5227613  90.4297770 109.7738146  88.1488040
  90.9346623 110.6344052  87.0102277  88.3376284 120.9534764  76.4268692
  89.2835388 120.8240972  76.4957110  87.9590529 120.2149425  76.9038120
  94.3098168 112.6190770  86.3895584  94.1122989 112.3105858  87.2738916
  94.9197874 113.3452408  86.5193514  86.5219201 118.8784740  76.3623577
  85.6150656 118.5817853  76.4386291  86.7995182 118.5814558  75.4957864
  77.4397141 120.1991103  86.8122624  77.1199925 119.3456412  86.5196998
  76.8930569 120.4139681  87.5680591  88.1381266 113.4221630  82.5167819
  87.3281995 113.0768715  82.8923065  88.8265683 113.1129173  83.1055430
  90.0671815 112.4999676  84.1392115  90.6202853 112.9195130  84.7982138
  90.3041901 111.5735425  84.1815071  85.2917985 115.7371675  76.5035557
  86.1537149 116.0626573  76.7631374  85.4768329 114.9503171  75.9908622
  77.3085401 123.8194015  88.7815745  76.6148873 123.4047968  88.2685700
  78.0558392 123.8614551  88.1849164  93.4450622 114.6100202  83.6470780
  92.8649291 115.2685006  83.2648832  93.1786554 113.7877546  83.2358197
  91.8954188 114.0105259  85.8492100  92.3953967 114.1221794  85.0406419
  92.5389796 113.7066312  86.4892908  79.2222144 123.7512269  86.6581760
  79.1992832 123.8499956  85.7063643  79.5322780 124.5977419  86.9798926
  92.2275500 116.7700292  82.7027128  91.3401355 117.0549943  82.4847323
  92.6429489 116.6094055  81.8554405  95.5790036 116.7946813  86.4181467
  96.3550426 117.2843265  86.6906084  94.8538170 117.2204867  86.8753337
  92.2016524 122.2854828  82.9177418  92.1451725 122.7423379  82.0785050
  92.7544866 121.5245513  82.7400261  96.0121329 118.0744560  83.7427538
  95.7558264 117.6741195  84.5735745  95.3874198 118.7888354  83.6177677
  92.9351303 123.4759609  80.2129947  92.8800107 123.3103881  79.2718391
  92.3097358 124.1835642  80.3692137  77.7243818 118.7127674  94.0391369
  78.3702681 118.2026628  94.5278595  77.5160969 119.4496355  94.6134795
  86.2447428 112.9767718  79.7915266  86.2326098 113.9209558  79.9483536
  87.1370850 112.7937864  79.4974727  90.0599548 109.5710495  84.0461202
  89.2931944 109.0168982  84.1917885  90.4710253 109.6432364  84.9075354
  26.0333406   7.1915846  75.6674091  26.6711816   7.0722593  74.9637431
  25.9154249   8.1396690  75.7262043  22.8423112   7.1443274  75.6035616
  22.5041623   7.0284339  74.7156151  23.7112880   6.7434439  75.5836622
  18.7009928   8.9978750  71.5932507  18.1374793   8.9068687  70.8248795
  18.5862323   8.1778655  72.0734999  23.3242895   8.2978126  81.5621822
  23.3131536   7.9030924  80.6902325  23.4863534   7.5644198  82.1555593
  16.2474360  10.4929942  74.4316727  17.0395651  10.1520767  74.0163027
  16.4871010  10.6024917  75.3518881  24.2809486  12.6649718  66.9046972
  23.6297466  13.2503798  66.5180986  25.0753849  13.1955913  66.9642009
  18.2065113   9.7538855  67.3034106  18.9795989   9.2067842  67.1646982
  18.5590512  10.6183105  67.5148568  20.0450156  11.0815237  80.5101006
  19.7540022  11.9860868  80.3947672  20.6807140  11.1231765  81.2245075
  20.9706363   8.4592086  77.1002365  21.5669935   8.2348108  76.3859328
  21.0281334   7.7176831  77.7027813  20.5431391   5.9131521  64.9352556
  20.7956912   5.3913043  64.1736019  19.6055950   5.7497667  65.0379240
  25.5874674   4.9167300  72.7427299  26.3737763   4.4986723  72.3917716
  25.8513378   5.8213392  72.9108948  25.7584751  10.3540150  67.4415956
  25.1230584  10.4274776  68.1536861  25.4282158  10.9433749  66.7635035
  30.9883101   4.8542533  73.6460278  31.7208273   4.2841750  73.8798107
  30.2322457   4.4664133  74.0866783  20.2627680   7.8159627  67.1376931
  20.1463938   7.1404531  67.8058015  20.3729940   7.3292001  66.3209084
  22.6059221   7.2769774  70.8423620  22.2417428   6.7500395  71.5536542
  23.4626337   6.8868243  70.6690106  25.0040041  10.7676653  77.5050799
  24.7040764  11.6701692  77.3966606  24.6591101  10.5008836  78.3571952
  18.4552523   7.2190450  73.5387504  17.5303019   7.0866664  73.7465195
  18.7036936   7.9984669  74.0357446  28.4037185   3.2859193  75.1848237
  27.4954062   3.2174602  74.8906997  28.3524781   3.7631138  76.0130062
  22.2253929   4.7617332  66.8231636  22.1053554   5.2074382  67.6617116
  21.5306517   5.1102649  66.2645174  19.9860821  17.5320973  70.4721767
  19.9084851  18.4828798  70.5510247  19.3822465  17.1866846  71.1296693
  22.4778051   4.7048839  83.1283134  21.7011385   5.2642759  83.1185998
  23.1168614   5.1905622  83.6498004  30.2698831   1.4875632  76.9626110
  29.6273212   1.7808165  76.3165905  29.7653760   1.3728552  77.7679307
  27.9238995   5.2338805  67.6511970  28.8356851   5.4666191  67.4759667
  27.4148642   5.8175849  67.0887048  20.7324423   7.5134292  82.6901101
  21.4739107   8.0519336  82.4135924  20.0261408   8.1400581  82.8472653
  26.2079763   9.6563433  81.2873262  26.6163119   9.2145843  80.5427895
  25.4857024   9.0816060  81.5407455  22.5610833   4.5936039  78.6606819
  23.4072028   5.0175453  78.8041468  22.5009470   3.9369664  79.3545382
  26.5308577  10.2164623  75.0425551  25.9017440  10.3810337  74.3401619
  26.1434239  10.6306233  75.8136515  30.4097809  11.1519061  72.3969915
  29.7248847  11.5317962  71.8466948  30.4941658  11.7614388  73.1301863
  25.7110278   2.2540408  80.3187993  25.4671210   3.0082468  79.7822269
  25.9870209   2.6325755  81.1535240  27.6648741   8.7979020  78.9965258
  27.8765636   9.4410780  78.3199640  27.6178489   7.9641337  78.5287189
  25.2674970   1.4096841  75.9001831  24.4059449   1.7078094  76.1918568
  25.2937404   1.6267240  74.9682863  22.0836539   9.9539031  72.3075636
  22.5474885  10.2326734  71.5180259  21.8193337   9.0522476  72.1248727
  18.9760620   9.5010513  75.2455400  19.5461977   9.9297781  74.6072884
  19.5668732   9.2193098  75.9439585  21.0205425   6.0762184  69.1165201
  21.7229469   6.5283227  69.5839128  20.6886054   5.4346003  69.7445095
  28.7794569  11.6750975  77.1687616  29.6012012  11.2731163  76.8870297
  28.7756972  11.5719210  78.1203732  22.5451172  11.2235019  79.3248326
  22.6095605  11.6855426  80.1606498  21.8362096  10.5932384  79.4530636
  36.8700562   8.0189724  73.5172587  36.1164270   7.4497122  73.3616592
  37.0048103   7.9852388  74.4643222  22.2599190  12.8903126  69.1927307
  22.1244865  13.7354662  69.6212154  22.8009002  13.0922404  68.4293240
  15.7128587  10.4078564  69.7655232  16.2253108  11.2021815  69.9160796
  16.3651300   9.7104855  69.6988833  17.5223472  13.5244321  71.8477985
  17.6990100  14.4462285  71.6598969  18.3180305  13.2102740  72.2772365
  23.8867666  13.5126693  83.3227649  23.4431520  12.7263071  83.0048553
  24.5484880  13.7005843  82.6571539  18.6454787  15.0422494  77.8488327
  19.1962213  14.9139558  77.0765321  17.8066263  15.3417383  77.4983220
  25.9848904  13.7929493  81.3509050  25.9667380  14.6138374  80.8589319
  26.9068824  13.6683568  81.5759191  22.4421958  11.3073622  82.1932558
  22.9750295  10.5461910  81.9631866  21.9136040  11.0147274  82.9356713
  25.5741936   6.4042299  66.2298635  25.0588560   7.1746904  66.4687023
  25.3019245   5.7307435  66.8531697  30.5476210   9.1574654  68.1651809
  29.7705653   8.8185813  67.7206971  31.2267691   9.1627277  67.4906774
  25.3628239   4.2769391  68.0558416  25.0578375   4.5915541  68.9068560
  26.3158681   4.3550811  68.0985749  23.8074671  10.4359615  69.7051370
  23.2796033   9.7012374  69.3924608  23.3062174  11.2134291  69.4591339
  28.7867517   8.6308635  74.8218417  28.1291192   9.3207897  74.9098545
  29.5907916   9.0205067  75.1652403  27.5972976   6.9853008  72.8722358
  28.1104858   7.6183000  73.3744068  28.2474200   6.3854203  72.5065718
  21.9527271   8.2539825  62.7086343  21.0454333   8.0229078  62.9077492
  22.4498303   7.4577444  62.8960325  24.8595350  16.9637332  65.6283030
  24.1857049  17.2669029  66.2367987  25.2461172  17.7666412  65.2788487
  24.0753807   4.4602463  75.1180699  23.1576368   4.6817410  74.9602387
  24.4913950   4.5348774  74.2592406  24.8588855   5.8593879  70.2483379
  25.6060674   6.3715276  69.9390501  25.1280444   5.5377932  71.1087773
  23.1315505   8.3552420  67.2310333  22.2226724   8.0711453  67.3282803
  23.1610589   8.7751498  66.3713640  28.3634772  11.9659009  71.0001501
  27.9097099  11.1249919  71.0566692  27.7328739  12.6020408  71.3376281
  27.3067692   2.8950995  72.2302168  26.5690449   2.3828382  72.5612411
  27.5594465   2.4551377  71.4185445  26.8067711  13.8035506  71.9351319
  27.0990686  14.3640563  71.2163685  27.3166332  14.0964067  72.6904478
  21.6800399   5.9681040  73.3320129  21.7349009   5.0154877  73.2562605
  20.8691601   6.1240480  73.8161427  22.8291593   9.8961163  64.5698412
  22.3911022   9.1797022  64.1104049  23.5702033  10.1237278  64.0083503
  21.7701337  14.5815857  73.0244772  21.7277515  14.8076703  72.0953304
  22.6864035  14.3479232  73.1730574  25.2166970   5.0499925  79.9225402
  25.5716358   5.2771398  80.7819867  25.8639102   5.3818301  79.3002657
  30.9464707   8.1718361  70.6274731  30.8082606   8.3619956  69.6995920
  30.5900926   8.9337743  71.0842782  30.9734087  10.2394888  75.6386002
  31.4070594  10.1470177  76.4869056  31.6865668  10.2152388  75.0006018
  19.8867137  11.4578886  72.8206735  20.6807736  10.9629206  72.6189310
  19.1758830  10.9296749  72.4574441  24.7061982  13.8396982  77.1719103
  24.7599004  14.4087918  77.9396819  23.8376763  14.0098867  76.8073140
  31.8349637  10.2818588  78.1718888  32.0285527  11.1864399  78.4178162
  31.7350255   9.8226007  79.0057473  26.8964745  10.4325331  83.7459768
  26.7450252  10.2035883  82.8289852  26.8869425  11.3895932  83.7591113
  23.6650082   8.0057244  78.7306035  24.5942142   8.1568403  78.5575002
  23.2441112   8.0941264  77.8754681  22.4638413  12.0307908  76.5004572
  22.3249499  11.6626692  77.3730510  21.6753010  12.5455548  76.3288530
  23.0586565  17.1317005  67.8430109  23.2338321  16.6605048  68.6575731
  22.3719353  17.7582771  68.0711369  24.0143629  11.4089511  73.8893410
  23.6793461  11.3690281  74.7851060  23.5147574  10.7434227  73.4163820
  17.9887872   6.8157141  79.4145991  17.8507670   6.0837380  80.0157530
  18.8992796   6.7266041  79.1330179  26.9502820   8.7545545  64.1630470
  26.3331991   8.0292373  64.0663522  26.4819309   9.5154905  63.8197544
  20.6170173   6.5277100  78.9029671  21.3269792   5.8870292  78.8616289
  20.5739481   6.7789995  79.8255852  28.6056952  13.4644453  81.8236250
  28.5469498  12.7803674  81.1566833  29.0076470  14.2063443  81.3716876
  17.6247651  20.2806367  74.6169969  17.8644249  20.9124891  75.2948987
  16.7816847  19.9294407  74.9035328  28.6074359  11.4284037  80.0550230
  27.7201138  11.0909959  80.1776629  29.1772910  10.6967069  80.2918995
  22.1375513  16.0885490  77.0211473  22.0645684  16.8940461  77.5330777
  21.6952906  16.2877456  76.1959494  21.9265292  15.3257260  70.5314294
  21.1432814  15.8678940  70.6252519  22.6258037  15.8431239  70.9308536
  25.2361942   1.1351889  73.1748500  25.7330642   0.3821852  72.8549570
  24.4648924   1.1716206  72.6091709  33.0891700   6.8392255  74.8166791
  33.0781576   7.7216970  74.4460724  32.2209079   6.4863806  74.6221328
  24.5974196  15.9872324  79.1769632  25.3102168  16.6219789  79.1045533
  24.1064225  16.0836190  78.3609633  26.3191723   9.8923576  70.7486923
  25.3848002  10.0125039  70.5791628  26.4968391   8.9896043  70.4846933
  29.7064274   5.7340896  71.2836957  30.1724726   6.5668887  71.2097260
  30.1571775   5.2685877  71.9882216  19.6486110  13.7366767  79.9975202
  20.3495569  14.3703250  80.1504597  19.1781225  14.0781499  79.2370842
  27.7740505  12.0784717  68.2823109  28.0500349  11.9641312  69.1916983
  26.9045004  11.6802202  68.2435282  27.4487396   6.2911375  77.8227753
  26.7958846   6.5387282  77.1680205  27.8267775   5.4775513  77.4890230
  24.4094569  16.3271068  71.9255923  24.5916964  15.5092724  72.3883675
  25.2327555  16.5438760  71.4880813  24.7436735  15.2539253  69.1870971
  25.2724501  14.7431708  68.5741134  25.0064954  14.9381783  70.0516505
  23.4974969   7.0331186  84.3093790  22.8215606   6.9325315  84.9796165
  24.3202602   6.8770400  84.7729787  15.2453828  13.2703122  76.9306305
  15.8307264  12.5246810  77.0634209  15.0478666  13.5807079  77.8142969
  18.0992483  16.3054370  71.9468747  17.4302858  16.7900497  71.4632787
  17.9605353  16.5523590  72.8612126  22.2397751  18.3398113  78.5451406
  22.7916059  18.5029735  79.3100491  22.5803945  18.9302551  77.8731431
  27.0908626  13.1659371  84.4000060  27.6348530  13.7789329  83.9055015
  26.5095471  13.7238949  84.9167073  25.3766139  16.2880089  75.5315088
  25.2517278  15.4869829  75.0226033  26.0345230  16.7826282  75.0429058
  27.4401047  14.0889109  77.1594638  26.4931383  13.9694460  77.0872965
  27.7883820  13.2011607  77.2420899  24.4447480  13.8841825  73.3598990
  24.2972443  12.9558532  73.5406560  25.2700974  13.9061916  72.8756066
  28.0481602  14.7070384  74.4463863  28.9728150  14.5013245  74.3088314
  27.8796906  14.4586785  75.3553205  27.8376918  15.2256051  69.8025954
  28.0113796  14.6602474  69.0499807  28.3305810  16.0256946  69.6205444
  33.6916310   7.9892474  71.4216254  34.1347456   7.2399799  71.0235377
  32.8142820   7.9802611  71.0389986  28.8252091  14.5422816  66.9022853
  29.5202996  15.1629508  67.1210167  29.1675241  13.6918167  67.1775231
  30.7243514  11.9922521  68.4310184  31.2494838  12.3309794  67.7059504
  30.6365867  11.0569536  68.2473318  22.3863563  15.9056595  80.5600060
  22.6950689  15.6605742  81.4322760  23.1839045  16.1103233  80.0718930
  22.4084175  18.0594504  72.7905437  21.9689165  17.5670883  73.4838293
  23.1592292  17.5167472  72.5497512  14.8876514  14.2506045  72.7930065
  15.7134534  13.9509817  72.4128708  14.5370566  13.4813668  73.2419853
  19.8558047  13.6032514  74.8627738  19.2338056  12.9403219  74.5629966
  20.5262914  13.6293645  74.1801386  13.0885119  12.1692372  73.7518998
  12.2517027  11.7414546  73.5703000  13.0608764  12.3624815  74.6889790
  30.4137420  12.6255425  83.7361381  29.6232964  12.6079564  83.1965881
  30.1770775  13.1643718  84.4910418  30.5335295   9.4747891  81.0494110
  30.5833300   9.3097899  81.9909633  30.4249219   8.6075150  80.6591991
  19.4171554  12.1536437  68.3386199  19.5659674  12.8371901  67.6852872
  20.2237997  12.1341527  68.8535655  27.8239058   5.4578819  82.3653417
  28.7248920   5.3185284  82.0737415  27.8987032   5.6233274  83.3051594
  32.0353492  11.8944833  81.2936132  31.7438300  12.2574813  82.1299593
  31.4225623  11.1811841  81.1149464  33.2349174   9.4597712  73.8138702
  34.0696066   9.8987517  73.9776262  33.3708303   8.9836366  72.9946948
  30.2840680   7.0177447  79.7616190  30.7594802   7.2105094  78.9535041
  29.3606246   7.0736633  79.5159573  17.1724187   8.1801614  69.3447268
  16.9270229   7.2763944  69.5427478  17.3420101   8.1818765  68.4026746
  22.9166959  14.6484567  65.8097946  22.3440926  15.2674754  65.3568418
  23.4899753  15.1983929  66.3437868  28.9842349   3.8943207  77.9944495
  29.9359772   3.9941305  78.0156719  28.8145800   3.1021476  78.5042580
  27.0056729   0.9798791  78.1803896  26.4106661   1.2603803  77.4850385
  26.7206425   1.4692692  78.9520637  26.1364219  14.9321717  66.9406529
  27.0694892  14.8667279  67.1439404  26.0487432  15.7677984  66.4821061
  28.7652236  14.2487588  63.9010476  28.6865867  13.9147451  64.7946234
  29.5861903  14.7409356  63.9001949  31.4630427   7.1149327  77.1086795
  31.4306747   6.1765328  77.2946479  32.0731051   7.1933364  76.3752620
  23.3013758   5.9845380  63.1513999  24.2472863   5.8551588  63.2202417
  22.9228003   5.2460042  63.6283427  31.6124915   3.9060371  77.1545078
  31.0963964   3.1218827  76.9675007  32.4964864   3.5779087  77.3191597
  37.2806977   8.1765334  76.2492832  38.0110365   7.9150622  76.8100535
  36.6713922   7.4394056  76.2894900  35.3622274   6.3173197  76.8467283
  34.6355438   6.1829161  76.2383774  34.9469561   6.6250025  77.6524001
  23.1852450  10.0363126  84.6114656  24.1055460  10.2141725  84.8054702
  23.1502033   9.0919172  84.4594355  16.1814523   7.9464161  77.2537437
  16.4000533   8.8781269  77.2725471  16.5940297   7.5872135  78.0392241
  28.4088096  -0.3589182  70.3716086  27.8286765   0.2995622  69.9894139
  28.1424029  -1.1811837  69.9603504  20.9173658   6.9494505  85.4605248
  20.4340740   7.7494866  85.6669137  21.0034597   6.9602450  84.5072692
  14.1859618   8.7822885  73.3827067  14.1630306   8.8810572  72.4308950
  14.4960254   9.6288036  73.7044233  16.8446996  10.8399040  77.4973681
  17.7990249  10.8082982  77.4303613  16.6459519  10.3789664  78.3123907
  17.4346378   9.4100156  80.0644479  18.2539267   9.9044235  80.0879316
  17.7083186   8.4932124  80.0362047  27.1912974   1.8010909  69.4272435
  26.3038829   2.0860559  69.2092629  27.6066963   1.6404672  68.5799711
  30.5427510   1.8257429  73.1426774  31.3187900   2.3153882  73.4151391
  29.8175644   2.2515484  73.5998643  32.9800069   2.5385049  74.2000714
  33.5744560   2.2980785  73.4894023  33.0526653   1.8192179  74.8274251
  15.1997225  16.3818660  74.5143879  15.0651693  15.6219061  73.9481877
  14.7829287  17.1059560  74.0472668  26.3356188  11.5655583  63.5220455
  27.0392038  11.7705586  64.1378110  25.6118836  12.1332345  63.7869538
  27.1653998   7.3165444  69.6422725  27.1089199   7.7733996  68.8030357
  27.7182340   6.5556129  69.4645567  30.9758804   3.1055176  70.4672844
  30.7195738   2.7051812  71.2981052  30.3511672   3.8198970  70.3422983
  35.2871142   5.8451250  72.9744136  34.7270700   5.9144439  73.7475698
  34.6814645   5.6692234  72.2543632  18.3566350  17.2787977  74.7262322
  18.2398735  18.2233409  74.6241012  17.5358797  16.9761538  75.1148121
  28.2442885  12.0038112  65.5718915  29.0788489  11.5719311  65.3896389
  28.0827228  11.8320126  66.4995809  27.8988777   8.5070226  66.9375254
  27.8437581   8.3414497  65.9963698  27.2734832   9.2146259  67.0937444
  25.2134684  10.8119138  86.2628817  26.0825844  10.9859790  85.9015452
  24.7341436  11.6313554  86.1404546  19.3820865  17.9316239  77.9418250
  20.2848111  17.9639849  78.2584745  19.1558235  17.0016690  77.9564586
  21.1374467  16.6847225  74.6028329  20.1870098  16.6849087  74.4892701
  21.4406953  15.9379960  74.0864364  36.8727160  22.5207764  75.6674091
  37.5105570  22.4014511  74.9637431  36.7548003  23.4688607  75.7262043
  33.6816866  22.4735192  75.6035616  33.3435378  22.3576256  74.7156151
  34.5506635  22.0726357  75.5836622  29.5403682  24.3270668  71.5932507
  28.9768547  24.2360605  70.8248795  29.4256077  23.5070572  72.0734999
  34.1636649  23.6270043  81.5621822  34.1525290  23.2322842  80.6902325
  34.3257289  22.8936116  82.1555593  27.0868114  25.8221860  74.4316727
  27.8789406  25.4812684  74.0163027  27.3264764  25.9316835  75.3518881
  35.1203241  27.9941636  66.9046972  34.4691221  28.5795716  66.5180986
  35.9147604  28.5247831  66.9642009  29.0458868  25.0830773  67.3034106
  29.8189744  24.5359760  67.1646982  29.3984267  25.9475022  67.5148568
  30.8843911  26.4107155  80.5101006  30.5933777  27.3152786  80.3947672
  31.5200895  26.4523683  81.2245075  31.8100117  23.7884004  77.1002365
  32.4063690  23.5640026  76.3859328  31.8675089  23.0468749  77.7027813
  31.3825146  21.2423439  64.9352556  31.6350666  20.7204960  64.1736019
  30.4449705  21.0789584  65.0379240  36.4268429  20.2459217  72.7427299
  37.2131518  19.8278641  72.3917716  36.6907133  21.1505310  72.9108948
  36.5978506  25.6832068  67.4415956  35.9624339  25.7566694  68.1536861
  36.2675912  26.2725666  66.7635035  41.8276856  20.1834451  73.6460278
  42.5602028  19.6133667  73.8798107  41.0716211  19.7956051  74.0866783
  31.1021435  23.1451545  67.1376931  30.9857693  22.4696448  67.8058015
  31.2123694  22.6583919  66.3209084  33.4452975  22.6061692  70.8423620
  33.0811183  22.0792313  71.5536542  34.3020091  22.2160161  70.6690106
  39.3502276  13.8956025  78.1054886  39.0185601  14.7651436  77.8816101
  38.7547889  13.5792309  78.7848917  33.0858462  17.6351592  65.8384969
  33.2532865  18.5031828  66.2055440  32.8955631  17.7978873  64.9146258
  35.8433796  26.0968571  77.5050799  35.5434519  26.9993609  77.3966606
  35.4984855  25.8300754  78.3571952  29.2946277  22.5482367  73.5387504
  28.3696774  22.4158582  73.7465195  29.5430690  23.3276587  74.0357446
  39.2430939  18.6151111  75.1848237  38.3347817  18.5466519  74.8906997
  39.1918535  19.0923056  76.0130062  33.0647683  20.0909249  66.8231636
  32.9447309  20.5366300  67.6617116  32.3700272  20.4394567  66.2645174
  26.6555088  22.1915641  74.3731293  26.7847469  22.4450120  75.2870704
  25.9752539  22.7843349  74.0535948  30.8254575  32.8612891  70.4721767
  30.7478605  33.8120716  70.5510247  30.2216219  32.5158763  71.1296693
  33.3171805  20.0340756  83.1283134  32.5405139  20.5934677  83.1185998
  33.9562368  20.5197539  83.6498004  41.1092586  16.8167549  76.9626110
  40.4666966  17.1100082  76.3165905  40.6047514  16.7020470  77.7679307
  38.7632749  20.5630722  67.6511970  39.6750606  20.7958109  67.4759667
  38.2542397  21.1467767  67.0887048  31.5718177  22.8426210  82.6901101
  32.3132862  23.3811254  82.4135924  30.8655163  23.4692499  82.8472653
  37.0473517  24.9855350  81.2873262  37.4556873  24.5437761  80.5427895
  36.3250779  24.4107978  81.5407455  33.4004587  19.9227957  78.6606819
  34.2465782  20.3467371  78.8041468  33.3403225  19.2661581  79.3545382
  37.3702332  25.5456541  75.0425551  36.7411194  25.7102255  74.3401619
  36.9827994  25.9598150  75.8136515  41.2491564  26.4810979  72.3969915
  40.5642602  26.8609880  71.8466948  41.3335413  27.0906305  73.1301863
  36.5504033  17.5832325  80.3187993  36.3064964  18.3374386  79.7822269
  36.8263963  17.9617673  81.1535240  38.5042495  24.1270938  78.9965258
  38.7159391  24.7702698  78.3199640  38.4572244  23.2933254  78.5287189
  36.1068724  16.7388758  75.9001831  35.2453203  17.0370012  76.1918568
  36.1331159  16.9559157  74.9682863  32.9230294  25.2830949  72.3075636
  33.3868639  25.5618652  71.5180259  32.6587092  24.3814394  72.1248727
  29.8154375  24.8302431  75.2455400  30.3855732  25.2589699  74.6072884
  30.4062487  24.5485015  75.9439585  31.8599180  21.4054101  69.1165201
  32.5623223  21.8575145  69.5839128  31.5279808  20.7637920  69.7445095
  30.3079541  19.9965858  83.4916411  29.6778202  20.6782139  83.7251808
  30.2015629  19.8848940  82.5469549  25.6024514  19.6637654  74.4182335
  24.8123568  19.9195183  73.9422446  26.0935761  20.4785992  74.5234376
  39.6188323  27.0042893  77.1687616  40.4405767  26.6023080  76.8870297
  39.6150726  26.9011127  78.1203732  27.5539259  20.0282233  71.3765812
  26.7570422  20.1400927  71.8949307  27.3264851  20.3668885  70.5106702
  33.3844927  26.5526936  79.3248326  33.4489359  27.0147344  80.1606498
  32.6755851  25.9224301  79.4530636  23.8862217  19.9168144  76.8497326
  24.1370255  20.8015154  77.1154902  24.4221765  19.7372746  76.0772418
  47.7094316  23.3481642  73.5172587  46.9558025  22.7789040  73.3616592
  47.8441857  23.3144306  74.4643222  33.0992944  28.2195044  69.1927307
  32.9638619  29.0646580  69.6212154  33.6402757  28.4214322  68.4293240
  29.5860284  14.2986624  85.8541662  29.1927230  13.7452822  86.5289306
  30.4026424  14.6097202  86.2448179  26.5522342  25.7370482  69.7655232
  27.0646862  26.5313732  69.9160796  27.2045055  25.0396772  69.6988833
  28.3617226  28.8536238  71.8477985  28.5383855  29.7754203  71.6598969
  29.1574060  28.5394657  72.2772365  32.5028245  15.7144503  83.4461918
  33.2437958  16.3151656  83.3666381  32.7346168  14.9722141  82.8879961
  27.6469583  20.9000870  81.7240148  27.5323098  19.9986127  82.0247247
  26.7914101  21.1464567  81.3724965  34.7261421  28.8418610  83.3227649
  34.2825275  28.0554989  83.0048553  35.3878634  29.0297761  82.6571539
  29.4848542  30.3714412  77.8488327  30.0355967  30.2431475  77.0765321
  28.6460018  30.6709301  77.4983220  36.8242659  29.1221410  81.3509050
  36.8061134  29.9430291  80.8589319  37.7462579  28.9975486  81.5759191
  33.2815713  26.6365540  82.1932558  33.8144050  25.8753828  81.9631866
  32.7529794  26.3439192  82.9356713  36.4485408  11.7425606  77.7226200
  36.1049677  12.6327248  77.6465311  36.8164370  11.5527263  76.8595785
  24.5171258  24.0659136  70.5414802  25.3546480  24.4756145  70.3248510
  24.6949526  23.1258578  70.5114996  36.4135691  21.7334217  66.2298635
  35.8982314  22.5038822  66.4687023  36.1412999  21.0599353  66.8531697
  33.9982802  16.5783918  71.2883874  33.1424398  16.1890768  71.1089512
  34.4109753  16.6575879  70.4283659  35.5281948  14.1130261  75.6875433
  35.0246744  14.0760396  74.8743239  35.8212555  15.0223004  75.7472090
  31.7724834  14.1968991  74.6941615  32.6377831  14.0011799  74.3347505
  31.8402343  13.9679342  75.6210972  41.3869965  24.4866572  68.1651809
  40.6099408  24.1477731  67.7206971  42.0661446  24.4919195  67.4906774
  36.2021994  19.6061309  68.0558416  35.8972129  19.9207458  68.9068560
  37.1552436  19.6842729  68.0985749  34.6468426  25.7651532  69.7051370
  34.1189787  25.0304292  69.3924608  34.1455928  26.5426209  69.4591339
  39.6261272  23.9600553  74.8218417  38.9684946  24.6499814  74.9098545
  40.4301671  24.3496985  75.1652403  29.3787153  16.4271199  72.0657982
  29.9530905  16.2046380  71.3331175  29.9658136  16.4959893  72.8186583
  38.4366730  22.3144926  72.8722358  38.9498612  22.9474917  73.3744068
  39.0867954  21.7146121  72.5065718  29.7056740  18.4575660  66.0853867
  28.8694053  18.7950346  66.4063142  29.5661510  18.3224639  65.1481004
  31.6809821  13.3012448  70.7933051  31.0274233  12.9861465  70.1689666
  31.6390295  12.6788188  71.5192874  32.7921026  23.5831743  62.7086343
  31.8848088  23.3520996  62.9077492  33.2892058  22.7869362  62.8960325
  35.6989105  32.2929250  65.6283030  35.0250803  32.5960947  66.2367987
  36.0854927  33.0958330  65.2788487  34.9147561  19.7894381  75.1180699
  33.9970123  20.0109328  74.9602387  35.3307705  19.8640692  74.2592406
  35.6982609  21.1885797  70.2483379  36.4454428  21.7007194  69.9390501
  35.9674199  20.8669849  71.1087773  33.9709259  23.6844337  67.2310333
  33.0620479  23.4003370  67.3282803  34.0004343  24.1043416  66.3713640
  39.2028527  27.2950927  71.0001501  38.7490854  26.4541837  71.0566692
  38.5722493  27.9312325  71.3376281  38.1461446  18.2242913  72.2302168
  37.4084203  17.7120299  72.5612411  38.3988220  17.7843295  71.4185445
  37.6461466  29.1327424  71.9351319  37.9384440  29.6932481  71.2163685
  38.1560086  29.4255985  72.6904478  38.2473074  11.0019165  72.8243938
  38.5531950  10.1416528  72.5369853  38.9725678  11.5936785  72.6242932
  24.5397430  21.4049852  71.2125536  24.3421829  20.8119212  70.4876602
  23.9844094  21.1002062  71.9301474  32.5194153  21.2972958  73.3320129
  32.5742763  20.3446794  73.2562605  31.7085355  21.4532397  73.8161427
  33.6685347  25.2253081  64.5698412  33.2304777  24.5088940  64.1104049
  34.4095788  25.4529196  64.0083503  30.4586513  19.9150018  71.0910508
  29.6454379  20.2144188  71.4975700  30.9545507  19.5205707  71.8084990
  32.6095091  29.9107775  73.0244772  32.5671270  30.1368621  72.0953304
  33.5257790  29.6771149  73.1730574  36.0560725  20.3791842  79.9225402
  36.4110113  20.6063315  80.7819867  36.7032856  20.7110219  79.3002657
  41.7858462  23.5010278  70.6274731  41.6476360  23.6911874  69.6995920
  41.4294681  24.2629661  71.0842782  29.9500588  17.4868373  76.7071743
  30.5899967  17.3457132  76.0094706  29.1178119  17.2002887  76.3310345
  41.8127841  25.5686805  75.6386002  42.2464348  25.4762094  76.4869056
  42.5259422  25.5444306  75.0006018  30.7260892  26.7870804  72.8206735
  31.5201490  26.2921124  72.6189310  30.0152584  26.2588667  72.4574441
  35.5455736  29.1688899  77.1719103  35.5992759  29.7379836  77.9396819
  34.6770518  29.3390784  76.8073140  27.0343655  20.9313886  68.8966488
  26.1041243  20.8698341  69.1136450  27.1301127  20.4089838  68.1003129
  26.9529204  17.4568698  71.4844729  27.2136022  18.3714032  71.3753890
  27.7746377  16.9893141  71.6341342  28.4254130  18.8706456  78.6543554
  29.0977183  18.6623818  78.0056203  27.5983916  18.6728542  78.2148786
  42.6743391  25.6110506  78.1718888  42.8679281  26.5156316  78.4178162
  42.5744009  25.1517925  79.0057473  34.3279702  15.4968396  80.6709215
  33.6807617  16.1958346  80.5773691  35.0980717  15.9304540  81.0385463
  37.7358500  25.7617249  83.7459768  37.5844006  25.5327800  82.8289852
  37.7263179  26.7187850  83.7591113  34.5043836  23.3349161  78.7306035
  35.4335896  23.4860321  78.5575002  34.0834866  23.4233182  77.8754681
  33.3032168  27.3599826  76.5004572  33.1643254  26.9918610  77.3730510
  32.5146764  27.8747465  76.3288530  33.8980320  32.4608922  67.8430109
  34.0732076  31.9896965  68.6575731  33.2113108  33.0874688  68.0711369
  34.8537383  26.7381428  73.8893410  34.5187216  26.6982198  74.7851060
  34.3541329  26.0726144  73.4163820  28.8281627  22.1449058  79.4145991
  28.6901425  21.4129297  80.0157530  29.7386550  22.0557959  79.1330179
  37.7896575  24.0837463  64.1630470  37.1725745  23.3584291  64.0663522
  37.3213063  24.8446823  63.8197544  31.4563928  21.8569018  78.9029671
  32.1663546  21.2162210  78.8616289  31.4133236  22.1081913  79.8255852
  39.4450706  28.7936371  81.8236250  39.3863252  28.1095591  81.1566833
  39.8470225  29.5355361  81.3716876  30.1692862  18.8434236  80.7225310
  29.6330219  18.3924974  81.3746907  29.5809570  18.9780145  79.9795775
  28.4641405  35.6098285  74.6169969  28.7038003  36.2416809  75.2948987
  27.6210602  35.2586325  74.9035328  29.5795121  18.3022887  63.2851774
  28.7024587  18.1811688  62.9214021  30.0552874  17.5108965  63.0330663
  39.4468114  26.7575955  80.0550230  38.5594892  26.4201877  80.1776629
  40.0166665  26.0258986  80.2918995  21.0997261  23.0900047  73.3793281
  21.7868301  22.7761777  72.7914296  20.9445389  23.9941411  73.1060532
  25.9031983  17.9790243  77.8078305  25.8190172  17.3715913  77.0728715
  25.0814689  18.4699262  77.8087801  32.9769267  31.4177407  77.0211473
  32.9039438  32.2232379  77.5330777  32.5346660  31.6169373  76.1959494
  32.7659047  30.6549177  70.5314294  31.9826569  31.1970858  70.6252519
  33.4651792  31.1723157  70.9308536  36.0755697  16.4643807  73.1748500
  36.5724396  15.7113769  72.8549570  35.3042678  16.5008124  72.6091709
  43.9285454  22.1684172  74.8166791  43.9175330  23.0508888  74.4460724
  43.0602834  21.8155723  74.6221328  35.4367951  31.3164241  79.1769632
  36.1495923  31.9511706  79.1045533  34.9457979  31.4128107  78.3609633
  37.1585477  25.2215494  70.7486923  36.2241756  25.3416957  70.5791628
  37.3362146  24.3187961  70.4846933  32.6590665  18.6061190  72.9020184
  32.2888453  18.0532230  73.5901090  33.1549758  18.0019323  72.3495184
  40.5458029  21.0632813  71.2836957  41.0118481  21.8960805  71.2097260
  40.9965529  20.5977795  71.9882216  30.4879864  29.0658685  79.9975202
  31.1889324  29.6995168  80.1504597  30.0174979  29.4073416  79.2370842
  38.6134260  27.4076635  68.2823109  38.8894104  27.2933229  69.1916983
  37.7438759  27.0094120  68.2435282  38.5174692  13.4313400  75.3227859
  37.6037771  13.6617627  75.4910066  38.9467793  13.5151844  76.1741891
  38.2881150  21.6203292  77.8227753  37.6352600  21.8679200  77.1680205
  38.6661530  20.8067431  77.4890230  35.2488324  31.6562986  71.9255923
  35.4310718  30.8384641  72.3883675  36.0721310  31.8730678  71.4880813
  35.5830489  30.5831171  69.1870971  36.1118256  30.0723625  68.5741134
  35.8458709  30.2673701  70.0516505  34.3368723  22.3623103  84.3093790
  33.6609360  22.2617233  84.9796165  35.1596357  22.2062317  84.7729787
  26.0847582  28.5995040  76.9306305  26.6701019  27.8538728  77.0634209
  25.8872421  28.9098997  77.8142969  28.9386237  31.6346287  71.9468747
  28.2696613  32.1192415  71.4632787  28.7999107  31.8815508  72.8612126
  20.6765237  21.1700640  75.6510748  20.7149336  20.6364231  76.4447866
  20.1705530  20.6435846  75.0321725  33.0791506  33.6690031  78.5451406
  33.6309814  33.8321652  79.3100491  33.4197699  34.2594469  77.8731431
  28.0555999  16.0165181  79.1473290  28.1197326  16.8780012  78.7350688
  27.9923119  15.4039182  78.4145649  27.5308272  18.0888313  82.7946325
  28.1580310  17.7065391  83.4083849  26.6736191  17.8702515  83.1602017
  37.9302380  28.4951288  84.4000060  38.4742284  29.1081247  83.9055015
  37.3489225  29.0530867  84.9167073  24.3073814  19.8964742  68.7264680
  24.6027256  18.9875421  68.6731733  23.4061850  19.8752482  68.4045682
  36.2159893  31.6172006  75.5315088  36.0911033  30.8161746  75.0226033
  36.8738984  32.1118200  75.0429058  27.8368061  17.9720739  74.7092228
  27.1154647  18.5856707  74.5699701  28.6261317  18.5078504  74.6308874
  38.2794802  29.4181027  77.1594638  37.3325137  29.2986378  77.0872965
  38.6277575  28.5303525  77.2420899  30.6394375  15.3075165  80.9832880
  31.1628777  15.5537462  81.7459189  30.4206708  16.1395200  80.5636017
  26.0361656  17.5778840  68.8504005  25.7074362  16.6976219  68.6679111
  26.3901027  17.5226509  69.7380394  35.2841235  29.2133743  73.3598990
  35.1366197  28.2850450  73.5406560  36.1094728  29.2353833  72.8756066
  29.1503479  17.8651810  69.2179482  29.4899552  18.3937731  68.4958091
  29.5975600  18.2032216  69.9938049  38.8875357  30.0362301  74.4463863
  39.8121904  29.8305163  74.3088314  38.7190660  29.7878703  75.3553205
  31.8446920  16.2488861  78.6682550  31.5043740  15.4496674  79.0703230
  31.1385926  16.5490571  78.0959384  32.4963392  13.3338173  77.1209873
  33.3189461  12.8598651  76.9988764  32.7401455  14.1128657  77.6208560
  31.1371626  16.3626431  67.4172775  31.8579989  16.7407684  66.9136492
  30.5136930  17.0815308  67.5207753  35.2802749  17.0671580  68.3531108
  35.4966364  17.9496218  68.0519936  34.7996816  16.6757794  67.6236749
  30.0201971  20.0257294  74.9301852  29.8746551  20.3397597  75.8226134
  29.5427174  20.6442194  74.3772751  31.8798353  17.0159842  74.9782742
  31.8659922  16.1200935  74.6415040  32.5970782  17.0230505  75.6121028
  33.7324484  17.4497182  77.0235869  33.4742262  18.3714252  77.0220200
  33.2009525  17.0527616  77.7136333  38.6770673  30.5547969  69.8025954
  38.8507550  29.9894391  69.0499807  39.1699564  31.3548864  69.6205444
  24.4947633  22.5662638  77.8689513  23.9501101  23.3422446  78.0009788
  25.3726983  22.9133442  77.7108635  31.2835249  15.8974222  70.2470312
  31.4051161  14.9690868  70.4461199  30.9937292  15.9112908  69.3348627
  34.1526440  13.5829132  73.3837032  34.1748137  13.6468465  72.4289011
  34.5694499  12.7433641  73.5777538  44.5310064  23.3184392  71.4216254
  44.9741210  22.5691717  71.0235377  43.6536574  23.3094528  71.0389986
  39.6645845  29.8714733  66.9022853  40.3596750  30.4921426  67.1210167
  40.0068996  29.0210085  67.1775231  25.2813655  21.6932534  80.7619670
  24.5395391  21.8415170  81.3484301  24.9606399  21.9540800  79.8986420
  41.5637269  27.3214439  68.4310184  42.0888593  27.6601712  67.7059504
  41.4759621  26.3861454  68.2473318  33.2257317  31.2348512  80.5600060
  33.5344444  30.9897659  81.4322760  34.0232799  31.4395151  80.0718930
  33.2477929  33.3886422  72.7905437  32.8082920  32.8962801  73.4838293
  33.9986046  32.8459390  72.5497512  25.7270268  29.5797963  72.7930065
  26.5528288  29.2801735  72.4128708  25.3764320  28.8105585  73.2419853
  30.6951801  28.9324431  74.8627738  30.0731811  28.2695136  74.5629966
  31.3656668  28.9585563  74.1801386  23.9278873  27.4984289  73.7518998
  23.0910782  27.0706464  73.5703000  23.9002519  27.6916733  74.6889790
  30.7676329  17.4106219  84.4560244  30.8164484  18.2868342  84.0738014
  31.3098843  16.8683612  83.8831888  41.2531175  27.9547342  83.7361381
  40.4626718  27.9371481  83.1965881  41.0164529  28.4935636  84.4910418
  41.3729050  24.8039809  81.0494110  41.4227055  24.6389816  81.9909633
  41.2642973  23.9367068  80.6591991  30.2565308  27.4828355  68.3386199
  30.4053429  28.1663819  67.6852872  31.0631752  27.4633445  68.8535655
  38.6632812  20.7870737  82.3653417  39.5642675  20.6477202  82.0737415
  38.7380787  20.9525192  83.3051594  32.9975617  18.1637592  81.2106603
  32.1278927  18.4571158  80.9389192  33.2335098  18.7478037  81.9313867
  42.8747246  27.2236750  81.2936132  42.5832055  27.5866731  82.1299593
  42.2619378  26.5103759  81.1149464  44.0742929  24.7889630  73.8138702
  44.9089820  25.2279434  73.9776262  44.2102058  24.3128283  72.9946948
  41.1234435  22.3469365  79.7616190  41.5988556  22.5397011  78.9535041
  40.2000000  22.4028551  79.5159573  28.0117941  23.5093532  69.3447268
  27.7663983  22.6055862  69.5427478  28.1813856  23.5110683  68.4026746
  35.7014651  14.3817209  78.7272023  36.2196595  15.1178235  78.4018512
  35.3469784  14.6881202  79.5618783  27.2813589  19.2421890  66.8433429
  26.5882834  19.3166245  66.1873465  27.0365341  18.4782233  67.3654946
  35.9527245  10.8017491  74.2472920  36.2328999  10.1340680  74.8733347
  36.7377852  10.9946587  73.7347584  33.7560714  29.9776485  65.8097946
  33.1834681  30.5966672  65.3568418  34.3293508  30.5275847  66.3437868
  39.8236104  19.2235125  77.9944495  40.7753527  19.3233223  78.0156719
  39.6539554  18.4313394  78.5042580  37.8450483  16.3090708  78.1803896
  37.2500415  16.5895721  77.4850385  37.5600180  16.7984609  78.9520637
  36.9757974  30.2613635  66.9406529  37.9088647  30.1959197  67.1439404
  36.8881186  31.0969902  66.4821061  39.6045990  29.5779505  63.9010476
  39.5259622  29.2439369  64.7946234  40.4255657  30.0701273  63.9001949
  42.3024182  22.4441245  77.1086795  42.2700502  21.5057245  77.2946479
  42.9124805  22.5225281  76.3752620  34.1407512  21.3137298  63.1513999
  35.0866617  21.1843506  63.2202417  33.7621757  20.5751960  63.6283427
  42.4518670  19.2352288  77.1545078  41.9357719  18.4510745  76.9675007
  43.3358619  18.9071005  77.3191597  40.1129397  12.9793304  73.1140891
  39.9154218  12.6708392  73.9984223  40.7229102  13.7054943  73.2438821
  48.1200731  23.5057252  76.2492832  48.8504120  23.2442540  76.8100535
  47.5107677  22.7685974  76.2894900  46.2016028  21.6465114  76.8467283
  45.4749192  21.5121079  76.2383774  45.7863315  21.9541943  77.6524001
  34.0246205  25.3655044  84.6114656  34.9449214  25.5433643  84.8054702
  33.9895788  24.4211089  84.4594355  32.3250430  19.2387274  63.0868884
  31.4181885  18.9420387  63.1631598  32.6026411  18.9417092  62.2203170
  23.2428370  20.5593638  73.5367930  22.9231154  19.7058946  73.2442304
  22.6961798  20.7742216  74.2925898  27.0208277  23.2756079  77.2537437
  27.2394287  24.2073186  77.2725471  27.4334051  22.9164053  78.0392241
  33.9412495  13.7824164  69.2413125  33.1313224  13.4371249  69.6168371
  34.6296912  13.4731708  69.8300737  35.8703044  12.8602211  70.8637422
  36.4234082  13.2797664  71.5227445  36.1073130  11.9337959  70.9060378
  31.8936143  18.8489284  86.6440186  31.7932870  19.7983641  86.5752277
  31.6757685  18.5207523  85.7716256  31.0949214  16.0974209  63.2280863
  31.9568378  16.4229108  63.4876681  31.2799558  15.3105705  62.7153929
  23.1116630  24.1796549  75.5061052  22.4180101  23.7650502  74.9931006
  23.8589621  24.2217086  74.9094471  39.2481851  14.9702736  70.3716086
  38.6680520  15.6287540  69.9894139  38.9817783  14.1480080  69.9603504
  37.6985417  14.3707794  72.5737407  38.1985195  14.4824328  71.7651725
  38.3421025  14.0668846  73.2138215  31.7567413  22.2786423  85.4605248
  31.2734495  23.0786783  85.6669137  31.8428352  22.2894368  84.5072692
  25.0253372  24.1114803  73.3827067  25.0024061  24.2102490  72.4308950
  25.3354009  24.9579954  73.7044233  27.6840750  26.1690958  77.4973681
  28.6384004  26.1374900  77.4303613  27.4853274  25.7081582  78.3123907
  28.2740132  24.7392074  80.0644479  29.0933021  25.2336153  80.0879316
  28.5476940  23.8224042  80.0362047  38.0306729  17.1302826  69.4272435
  37.1432584  17.4152477  69.2092629  38.4460718  16.9696590  68.5799711
  41.3821265  17.1549347  73.1426774  42.1581655  17.6445800  73.4151391
  40.6569399  17.5807401  73.5998643  43.8193823  17.8676966  74.2000714
  44.4138314  17.6272702  73.4894023  43.8920407  17.1484097  74.8274251
  26.0390979  31.7110577  74.5143879  25.9045447  30.9510978  73.9481877
  25.6223041  32.4351477  74.0472668  37.1749942  26.8947501  63.5220455
  37.8785792  27.0997503  64.1378110  36.4512591  27.4624263  63.7869538
  38.0047752  22.6457362  69.6422725  37.9482954  23.1025914  68.8030357
  38.5576095  21.8848047  69.4645567  41.8152558  18.4347094  70.4672844
  41.5589493  18.0343730  71.2981052  41.1905426  19.1490888  70.3422983
  46.1264896  21.1743167  72.9744136  45.5664454  21.2436357  73.7475698
  45.5208400  20.9984152  72.2543632  29.1960105  32.6079894  74.7262322
  29.0792489  33.5525327  74.6241012  28.3752551  32.3053456  75.1148121
  39.0836640  27.3330030  65.5718915  39.9182243  26.9011229  65.3896389
  38.9220982  27.1612044  66.4995809  38.7382532  23.8362143  66.9375254
  38.6831335  23.6706415  65.9963698  38.1128587  24.5438176  67.0937444
  23.5275047  19.0730208  80.7636676  24.1733910  18.5629162  81.2523901
  23.3192198  19.8098889  81.3380101  36.0528439  26.1411055  86.2628817
  36.9219598  26.3151708  85.9015452  35.5735190  26.9605472  86.1404546
  32.0478657  13.3370252  66.5160572  32.0357327  14.2812092  66.6728843
  32.9402079  13.1540398  66.2220033  30.2214619  33.2608156  77.9418250
  31.1241866  33.2931767  78.2584745  29.9951989  32.3308607  77.9564586
  31.9768221  32.0139143  74.6028329  31.0263852  32.0141004  74.4892701
  32.2800707  31.2671877  74.0864364  35.8630777   9.9313029  70.7706509
  35.0963172   9.3771516  70.9163191  36.2741482  10.0034898  71.6320661
  27.8672538  16.2197825  84.8611690  28.7303999  15.8634630  85.0715015
  27.2937948  15.8811720  85.5487095  47.7120915  37.8499681  75.6674091
  48.3499325  37.7306429  74.9637431  47.5941757  38.7980525  75.7262043
  44.5210621  37.8027109  75.6035616  44.1829132  37.6868174  74.7156151
  45.3900389  37.4018274  75.5836622  40.3797437  39.6562586  71.5932507
  39.8162302  39.5652523  70.8248795  40.2649832  38.8362490  72.0734999
  45.0030404  38.9561961  81.5621822  44.9919045  38.5614759  80.6902325
  45.1651043  38.2228034  82.1555593  37.9261869  41.1513777  74.4316727
  38.7183160  40.8104602  74.0163027  38.1658519  41.2608752  75.3518881
  39.8852622  40.4122691  67.3034106  40.6583498  39.8651678  67.1646982
  40.2378021  41.2766940  67.5148568  41.7237665  41.7399073  80.5101006
  41.4327531  42.6444704  80.3947672  42.3594649  41.7815600  81.2245075
  42.6493872  39.1175921  77.1002365  43.2457444  38.8931944  76.3859328
  42.7068843  38.3760667  77.7027813  42.2218900  36.5715357  64.9352556
  42.4744421  36.0496878  64.1736019  41.2843459  36.4081502  65.0379240
  47.2662183  35.5751135  72.7427299  48.0525272  35.1570558  72.3917716
  47.5300887  36.4797227  72.9108948  52.6670610  35.5126368  73.6460278
  53.3995782  34.9425585  73.8798107  51.9109966  35.1247969  74.0866783
  41.9415189  38.4743463  67.1376931  41.8251447  37.7988366  67.8058015
  42.0517449  37.9875837  66.3209084  44.2846730  37.9353610  70.8423620
  43.9204937  37.4084231  71.5536542  45.1413846  37.5452079  70.6690106
  50.1896031  29.2247942  78.1054886  49.8579355  30.0943353  77.8816101
  49.5941644  28.9084226  78.7848917  43.9252217  32.9643509  65.8384969
  44.0926619  33.8323746  66.2055440  43.7349386  33.1270791  64.9146258
  46.6827550  41.4260488  77.5050799  46.3828273  42.3285527  77.3966606
  46.3378610  41.1592672  78.3571952  40.1340032  37.8774285  73.5387504
  39.2090528  37.7450499  73.7465195  40.3824445  38.6568504  74.0357446
  50.0824694  33.9443029  75.1848237  49.1741571  33.8758437  74.8906997
  50.0312290  34.4214973  76.0130062  43.9041438  35.4201167  66.8231636
  43.7841063  35.8658218  67.6617116  43.2094026  35.7686485  66.2645174
  37.4948843  37.5207559  74.3731293  37.6241224  37.7742038  75.2870704
  36.8146294  38.1135267  74.0535948  44.1565560  35.3632674  83.1283134
  43.3798894  35.9226594  83.1185998  44.7956123  35.8489457  83.6498004
  51.9486340  32.1459467  76.9626110  51.3060721  32.4392000  76.3165905
  51.4441269  32.0312387  77.7679307  49.6026504  35.8922640  67.6511970
  50.5144360  36.1250027  67.4759667  49.0936151  36.4759684  67.0887048
  42.4111932  38.1718127  82.6901101  43.1526616  38.7103171  82.4135924
  41.7048917  38.7984416  82.8472653  47.8867272  40.3147268  81.2873262
  48.2950628  39.8729678  80.5427895  47.1644533  39.7399895  81.5407455
  44.2398342  35.2519875  78.6606819  45.0859537  35.6759288  78.8041468
  44.1796979  34.5953499  79.3545382  48.2096086  40.8748459  75.0425551
  47.5804949  41.0394173  74.3401619  47.8221748  41.2890068  75.8136515
  52.0885318  41.8102896  72.3969915  51.4036356  42.1901798  71.8466948
  52.1729167  42.4198223  73.1301863  47.3897787  32.9124243  80.3187993
  47.1458719  33.6666304  79.7822269  47.6657717  33.2909591  81.1535240
  49.3436250  39.4562855  78.9965258  49.5553145  40.0994615  78.3199640
  49.2965998  38.6225172  78.5287189  46.9462479  32.0680676  75.9001831
  46.0846958  32.3661930  76.1918568  46.9724913  32.2851075  74.9682863
  43.7624048  40.6122867  72.3075636  44.2262394  40.8910570  71.5180259
  43.4980846  39.7106311  72.1248727  40.6548129  40.1594348  75.2455400
  41.2249486  40.5881617  74.6072884  41.2456241  39.8776933  75.9439585
  42.6992934  36.7346019  69.1165201  43.4016978  37.1867063  69.5839128
  42.3673563  36.0929838  69.7445095  41.1473296  35.3257776  83.4916411
  40.5171956  36.0074056  83.7251808  41.0409384  35.2140857  82.5469549
  36.4418268  34.9929572  74.4182335  35.6517322  35.2487100  73.9422446
  36.9329516  35.8077910  74.5234376  50.4582078  42.3334811  77.1687616
  51.2799521  41.9314998  76.8870297  50.4544481  42.2303045  78.1203732
  38.3933014  35.3574151  71.3765812  37.5964177  35.4692845  71.8949307
  38.1658606  35.6960803  70.5106702  44.2238681  41.8818854  79.3248326
  44.2883114  42.3439261  80.1606498  43.5149605  41.2516219  79.4530636
  34.7255971  35.2460062  76.8497326  34.9764010  36.1307072  77.1154902
  35.2615520  35.0664664  76.0772418  58.5488071  38.6773559  73.5172587
  57.7951779  38.1080957  73.3616592  58.6835612  38.6436224  74.4643222
  40.4254038  29.6278541  85.8541662  40.0320984  29.0744740  86.5289306
  41.2420179  29.9389120  86.2448179  37.3916096  41.0662400  69.7655232
  37.9040617  41.8605650  69.9160796  38.0438809  40.3688690  69.6988833
  39.2010981  44.1828156  71.8477985  39.3777609  45.1046121  71.6598969
  39.9967814  43.8686575  72.2772365  43.3421999  31.0436421  83.4461918
  44.0831713  31.6443574  83.3666381  43.5739922  30.3014058  82.8879961
  38.4863337  36.2292788  81.7240148  38.3716853  35.3278045  82.0247247
  37.6307855  36.4756485  81.3724965  45.5655175  44.1710528  83.3227649
  45.1219029  43.3846907  83.0048553  46.2272389  44.3589679  82.6571539
  40.3242296  45.7006330  77.8488327  40.8749721  45.5723393  77.0765321
  39.4853772  46.0001219  77.4983220  47.6636413  44.4513328  81.3509050
  47.6454889  45.2722209  80.8589319  48.5856333  44.3267403  81.5759191
  44.1209467  41.9657458  82.1932558  44.6537804  41.2045746  81.9631866
  43.5923549  41.6731109  82.9356713  47.2879162  27.0717524  77.7226200
  46.9443432  27.9619165  77.6465311  47.6558125  26.8819181  76.8595785
  35.3565013  39.3951054  70.5414802  36.1940235  39.8048062  70.3248510
  35.5343281  38.4550496  70.5114996  44.8376556  31.9075835  71.2883874
  43.9818152  31.5182686  71.1089512  45.2503508  31.9867796  70.4283659
  46.3675703  29.4422179  75.6875433  45.8640498  29.4052314  74.8743239
  46.6606310  30.3514921  75.7472090  42.6118589  29.5260908  74.6941615
  43.4771585  29.3303717  74.3347505  42.6796098  29.2971260  75.6210972
  47.0415748  34.9353227  68.0558416  46.7365884  35.2499376  68.9068560
  47.9946190  35.0134647  68.0985749  50.4655026  39.2892471  74.8218417
  49.8078701  39.9791732  74.9098545  51.2695425  39.6788902  75.1652403
  40.2180908  31.7563116  72.0657982  40.7924660  31.5338298  71.3331175
  40.8051890  31.8251811  72.8186583  49.2760485  37.6436843  72.8722358
  49.7892367  38.2766835  73.3744068  49.9261709  37.0438039  72.5065718
  40.5450495  33.7867577  66.0853867  39.7087807  34.1242264  66.4063142
  40.4055264  33.6516557  65.1481004  42.5203575  28.6304365  70.7933051
  41.8667988  28.3153382  70.1689666  42.4784050  28.0080106  71.5192874
  45.7541316  35.1186299  75.1180699  44.8363877  35.3401246  74.9602387
  46.1701459  35.1932609  74.2592406  46.5376364  36.5177714  70.2483379
  47.2848183  37.0299112  69.9390501  46.8067953  36.1961767  71.1087773
  50.0422281  42.6242845  71.0001501  49.5884608  41.7833755  71.0566692
  49.4116248  43.2604243  71.3376281  48.9855201  33.5534831  72.2302168
  48.2477958  33.0412217  72.5612411  49.2381974  33.1135212  71.4185445
  48.4855220  44.4619341  71.9351319  48.7778195  45.0224398  71.2163685
  48.9953841  44.7547902  72.6904478  49.0866828  26.3311083  72.8243938
  49.3925705  25.4708446  72.5369853  49.8119433  26.9228703  72.6242932
  35.3791184  36.7341769  71.2125536  35.1815584  36.1411130  70.4876602
  34.8237848  36.4293979  71.9301474  43.3587908  36.6264876  73.3320129
  43.4136518  35.6738712  73.2562605  42.5479110  36.7824315  73.8161427
  41.2980268  35.2441936  71.0910508  40.4848133  35.5436106  71.4975700
  41.7939262  34.8497624  71.8084990  46.8954479  35.7083760  79.9225402
  47.2503867  35.9355233  80.7819867  47.5426611  36.0402137  79.3002657
  52.6252216  38.8302196  70.6274731  52.4870115  39.0203792  69.6995920
  52.2688435  39.5921579  71.0842782  40.7894342  32.8160291  76.7071743
  41.4293722  32.6749050  76.0094706  39.9571873  32.5294804  76.3310345
  52.6521596  40.8978723  75.6386002  53.0858103  40.8054012  76.4869056
  53.3653177  40.8736223  75.0006018  37.8737410  36.2605803  68.8966488
  36.9434998  36.1990259  69.1136450  37.9694882  35.7381756  68.1003129
  37.7922959  32.7860616  71.4844729  38.0529776  33.7005949  71.3753890
  38.6140131  32.3185059  71.6341342  39.2647884  34.1998373  78.6543554
  39.9370938  33.9915735  78.0056203  38.4377671  34.0020459  78.2148786
  53.5137145  40.9402424  78.1718888  53.7073036  41.8448234  78.4178162
  53.4137764  40.4809843  79.0057473  45.1673456  30.8260314  80.6709215
  44.5201371  31.5250264  80.5773691  45.9374472  31.2596458  81.0385463
  48.5752254  41.0909166  83.7459768  48.4237761  40.8619718  82.8289852
  48.5656934  42.0479768  83.7591113  45.3437591  38.6641079  78.7306035
  46.2729651  38.8152239  78.5575002  44.9228621  38.7525100  77.8754681
  39.6675381  37.4740976  79.4145991  39.5295179  36.7421215  80.0157530
  40.5780305  37.3849876  79.1330179  42.2957682  37.1860935  78.9029671
  43.0057301  36.5454128  78.8616289  42.2526990  37.4373830  79.8255852
  50.2844461  44.1228289  81.8236250  50.2257007  43.4387509  81.1566833
  50.6863979  44.8647279  81.3716876  41.0086616  34.1726153  80.7225310
  40.4723973  33.7216892  81.3746907  40.4203325  34.3072062  79.9795775
  40.4188875  33.6314805  63.2851774  39.5418341  33.5103606  62.9214021
  40.8946628  32.8400883  63.0330663  50.2861868  42.0867873  80.0550230
  49.3988647  41.7493795  80.1776629  50.8560419  41.3550904  80.2918995
  31.9391015  38.4191965  73.3793281  32.6262055  38.1053695  72.7914296
  31.7839144  39.3233329  73.1060532  36.7425737  33.3082161  77.8078305
  36.6583926  32.7007831  77.0728715  35.9208444  33.7991179  77.8087801
  46.9149451  31.7935725  73.1748500  47.4118151  31.0405687  72.8549570
  46.1436433  31.8300041  72.6091709  54.7679209  37.4976090  74.8166791
  54.7569085  38.3800806  74.4460724  53.8996588  37.1447641  74.6221328
  43.4984420  33.9353108  72.9020184  43.1282207  33.3824148  73.5901090
  43.9943512  33.3311241  72.3495184  51.3851783  36.3924731  71.2836957
  51.8512235  37.2252723  71.2097260  51.8359284  35.9269713  71.9882216
  41.3273619  44.3950603  79.9975202  42.0283078  45.0287086  80.1504597
  40.8568734  44.7365334  79.2370842  49.3568446  28.7605318  75.3227859
  48.4431526  28.9909545  75.4910066  49.7861547  28.8443762  76.1741891
  49.1274904  36.9495210  77.8227753  48.4746355  37.1971118  77.1680205
  49.5055284  36.1359348  77.4890230  45.1762478  37.6915021  84.3093790
  44.5003115  37.5909150  84.9796165  45.9990111  37.5354235  84.7729787
  36.9241337  43.9286958  76.9306305  37.5094773  43.1830646  77.0634209
  36.7266175  44.2390914  77.8142969  31.5158991  36.4992558  75.6510748
  31.5543091  35.9656149  76.4447866  31.0099284  35.9727763  75.0321725
  38.8949754  31.3457098  79.1473290  38.9591080  32.2071929  78.7350688
  38.8316874  30.7331100  78.4145649  38.3702026  33.4180231  82.7946325
  38.9974065  33.0357308  83.4083849  37.5129945  33.1994433  83.1602017
  48.7696135  43.8243206  84.4000060  49.3136039  44.4373164  83.9055015
  48.1882980  44.3822784  84.9167073  35.1467569  35.2256660  68.7264680
  35.4421010  34.3167338  68.6731733  34.2455605  35.2044399  68.4045682
  38.6761816  33.3012657  74.7092228  37.9548402  33.9148624  74.5699701
  39.4655072  33.8370421  74.6308874  49.1188556  44.7472944  77.1594638
  48.1718892  44.6278295  77.0872965  49.4671329  43.8595442  77.2420899
  41.4788129  30.6367083  80.9832880  42.0022531  30.8829380  81.7459189
  41.2600463  31.4687118  80.5636017  36.8755410  32.9070758  68.8504005
  36.5468117  32.0268137  68.6679111  37.2294781  32.8518426  69.7380394
  39.9897234  33.1943727  69.2179482  40.3293306  33.7229649  68.4958091
  40.4369354  33.5324134  69.9938049  49.7269111  45.3654219  74.4463863
  50.6515659  45.1597080  74.3088314  49.5584415  45.1170620  75.3553205
  42.6840674  31.5780778  78.6682550  42.3437495  30.7788591  79.0703230
  41.9779681  31.8782489  78.0959384  43.3357146  28.6630091  77.1209873
  44.1583216  28.1890569  76.9988764  43.5795210  29.4420574  77.6208560
  41.9765381  31.6918349  67.4172775  42.6973743  32.0699602  66.9136492
  41.3530685  32.4107226  67.5207753  46.1196504  32.3963498  68.3531108
  46.3360118  33.2788136  68.0519936  45.6390571  32.0049711  67.6236749
  40.8595725  35.3549211  74.9301852  40.7140306  35.6689514  75.8226134
  40.3820929  35.9734112  74.3772751  42.7192108  32.3451759  74.9782742
  42.7053677  31.4492853  74.6415040  43.4364536  32.3522423  75.6121028
  44.5718239  32.7789099  77.0235869  44.3136016  33.7006170  77.0220200
  44.0403279  32.3819534  77.7136333  35.3341387  37.8954556  77.8689513
  34.7894855  38.6714364  78.0009788  36.2120737  38.2425360  77.7108635
  42.1229004  31.2266140  70.2470312  42.2444915  30.2982786  70.4461199
  41.8331046  31.2404825  69.3348627  44.9920194  28.9121050  73.3837032
  45.0141891  28.9760383  72.4289011  45.4088253  28.0725559  73.5777538
  55.3703819  38.6476310  71.4216254  55.8134965  37.8983635  71.0235377
  54.4930329  38.6386446  71.0389986  36.1207409  37.0224452  80.7619670
  35.3789145  37.1707087  81.3484301  35.8000153  37.2832718  79.8986420
  44.0651072  46.5640430  80.5600060  44.3738198  46.3189577  81.4322760
  44.8626554  46.7687069  80.0718930  36.5664023  44.9089881  72.7930065
  37.3922043  44.6093653  72.4128708  36.2158075  44.1397503  73.2419853
  34.7672628  42.8276207  73.7518998  33.9304536  42.3998381  73.5703000
  34.7396273  43.0208650  74.6889790  41.6070083  32.7398137  84.4560244
  41.6558239  33.6160260  84.0738014  42.1492598  32.1975530  83.8831888
  52.0924929  43.2839260  83.7361381  51.3020473  43.2663399  83.1965881
  51.8558284  43.8227554  84.4910418  52.2122804  40.1331727  81.0494110
  52.2620809  39.9681734  81.9909633  52.1036727  39.2658986  80.6591991
  41.0959063  42.8120272  68.3386199  41.2447183  43.4955737  67.6852872
  41.9025506  42.7925362  68.8535655  49.5026567  36.1162655  82.3653417
  50.4036429  35.9769119  82.0737415  49.5774541  36.2817109  83.3051594
  43.8369372  33.4929509  81.2106603  42.9672681  33.7863075  80.9389192
  44.0728852  34.0769954  81.9313867  53.7141001  42.5528668  81.2936132
  53.4225809  42.9158649  82.1299593  53.1013132  41.8395676  81.1149464
  54.9136683  40.1181548  73.8138702  55.7483575  40.5571352  73.9776262
  55.0495812  39.6420201  72.9946948  51.9628189  37.6761283  79.7616190
  52.4382311  37.8688929  78.9535041  51.0393755  37.7320468  79.5159573
  38.8511696  38.8385450  69.3447268  38.6057738  37.9347780  69.5427478
  39.0207610  38.8402600  68.4026746  46.5408406  29.7109126  78.7272023
  47.0590350  30.4470153  78.4018512  46.1863538  30.0173120  79.5618783
  38.1207343  34.5713807  66.8433429  37.4276588  34.6458162  66.1873465
  37.8759095  33.8074151  67.3654946  46.7921000  26.1309409  74.2472920
  47.0722754  25.4632598  74.8733347  47.5771607  26.3238504  73.7347584
  50.6629858  34.5527043  77.9944495  51.6147281  34.6525140  78.0156719
  50.4933309  33.7605311  78.5042580  48.6844238  31.6382626  78.1803896
  48.0894170  31.9187639  77.4850385  48.3993934  32.1276527  78.9520637
  53.1417936  37.7733162  77.1086795  53.1094256  36.8349163  77.2946479
  53.7518560  37.8517199  76.3752620  44.9801267  36.6429215  63.1513999
  45.9260372  36.5135424  63.2202417  44.6015512  35.9043877  63.6283427
  53.2912424  34.5644206  77.1545078  52.7751473  33.7802663  76.9675007
  54.1752373  34.2362922  77.3191597  50.9523151  28.3085221  73.1140891
  50.7547973  28.0000310  73.9984223  51.5622857  29.0346860  73.2438821
  58.9594486  38.8349169  76.2492832  59.6897874  38.5734457  76.8100535
  58.3501431  38.0977891  76.2894900  57.0409783  36.9757032  76.8467283
  56.3142947  36.8412997  76.2383774  56.6257070  37.2833860  77.6524001
  44.8639959  40.6946962  84.6114656  45.7842969  40.8725561  84.8054702
  44.8289542  39.7503007  84.4594355  43.1644184  34.5679192  63.0868884
  42.2575639  34.2712305  63.1631598  43.4420165  34.2709010  62.2203170
  34.0822124  35.8885555  73.5367930  33.7624909  35.0350863  73.2442304
  33.5355553  36.1034133  74.2925898  37.8602032  38.6047996  77.2537437
  38.0788042  39.5365104  77.2725471  38.2727806  38.2455971  78.0392241
  44.7806250  29.1116082  69.2413125  43.9706978  28.7663166  69.6168371
  45.4690667  28.8023625  69.8300737  46.7096798  28.1894128  70.8637422
  47.2627837  28.6089582  71.5227445  46.9466884  27.2629876  70.9060378
  42.7329897  34.1781202  86.6440186  42.6326624  35.1275559  86.5752277
  42.5151439  33.8499441  85.7716256  41.9342969  31.4266127  63.2280863
  42.7962133  31.7521025  63.4876681  42.1193313  30.6397623  62.7153929
  33.9510384  39.5088467  75.5061052  33.2573856  39.0942419  74.9931006
  34.6983375  39.5509003  74.9094471  50.0875605  30.2994653  70.3716086
  49.5074274  30.9579458  69.9894139  49.8211538  29.4771998  69.9603504
  48.5379171  29.6999711  72.5737407  49.0378950  29.8116246  71.7651725
  49.1814779  29.3960764  73.2138215  42.5961167  37.6078341  85.4605248
  42.1128249  38.4078701  85.6669137  42.6822106  37.6186286  84.5072692
  35.8647127  39.4406720  73.3827067  35.8417815  39.5394408  72.4308950
  36.1747763  40.2871871  73.7044233  38.5234505  41.4982876  77.4973681
  39.4777758  41.4666818  77.4303613  38.3247028  41.0373499  78.3123907
  39.1133887  40.0683992  80.0644479  39.9326776  40.5628070  80.0879316
  39.3870695  39.1515960  80.0362047  48.8700483  32.4594744  69.4272435
  47.9826338  32.7444394  69.2092629  49.2854472  32.2988507  68.5799711
  52.2215019  32.4841265  73.1426774  52.9975409  32.9737717  73.4151391
  51.4963153  32.9099319  73.5998643  54.6587578  33.1968884  74.2000714
  55.2532069  32.9564620  73.4894023  54.7314162  32.4776015  74.8274251
  36.8784734  47.0402495  74.5143879  36.7439202  46.2802896  73.9481877
  36.4616796  47.7643395  74.0472668  48.8441507  37.9749280  69.6422725
  48.7876708  38.4317831  68.8030357  49.3969849  37.2139964  69.4645567
  52.6546313  33.7639012  70.4672844  52.3983247  33.3635647  71.2981052
  52.0299181  34.4782806  70.3422983  56.9658651  36.5035085  72.9744136
  56.4058209  36.5728274  73.7475698  56.3602154  36.3276070  72.2543632
  34.3668801  34.4022125  80.7636676  35.0127665  33.8921079  81.2523901
  34.1585952  35.1390807  81.3380101  46.8922193  41.4702973  86.2628817
  47.7613353  41.6443625  85.9015452  46.4128945  42.2897390  86.1404546
  42.8872412  28.6662170  66.5160572  42.8751081  29.6104010  66.6728843
  43.7795834  28.4832315  66.2220033  46.7024531  25.2604947  70.7706509
  45.9356927  24.7063433  70.9163191  47.1135236  25.3326815  71.6320661
  38.7066292  31.5489742  84.8611690  39.5697754  31.1926547  85.0715015
  38.1331703  31.2103637  85.5487095  63.5064365  50.8418286  73.6460278
  64.2389537  50.2717503  73.8798107  62.7503720  50.4539886  74.0866783
  61.0289785  44.5539860  78.1054886  60.6973110  45.4235271  77.8816101
  60.4335398  44.2376144  78.7848917  57.5221305  56.7552406  77.5050799
  57.2222028  57.6577445  77.3966606  57.1772364  56.4884589  78.3571952
  60.9218448  49.2734946  75.1848237  60.0135326  49.2050355  74.8906997
  60.8706044  49.7506891  76.0130062  48.3342597  52.8499476  74.3731293
  48.4634978  53.1033955  75.2870704  47.6540048  53.4427184  74.0535948
  62.7880095  47.4751385  76.9626110  62.1454475  47.7683918  76.3165905
  62.2835023  47.3604305  77.7679307  58.7261026  55.6439186  81.2873262
  59.1344382  55.2021596  80.5427895  58.0038288  55.0691813  81.5407455
  59.0489841  56.2040376  75.0425551  58.4198703  56.3686090  74.3401619
  58.6615503  56.6181986  75.8136515  58.2291541  48.2416161  80.3187993
  57.9852473  48.9958221  79.7822269  58.5051472  48.6201508  81.1535240
  60.1830004  54.7854773  78.9965258  60.3946899  55.4286533  78.3199640
  60.1359753  53.9517090  78.5287189  57.7856233  47.3972594  75.9001831
  56.9240712  47.6953847  76.1918568  57.8118668  47.6142993  74.9682863
  61.2975832  57.6626729  77.1687616  62.1193276  57.2606916  76.8870297
  61.2938235  57.5594963  78.1203732  51.2647793  44.9570459  85.8541662
  50.8714739  44.4036658  86.5289306  52.0813933  45.2681038  86.2448179
  54.1815754  46.3728338  83.4461918  54.9225467  46.9735491  83.3666381
  54.4133677  45.6305976  82.8879961  58.5030168  59.7805246  81.3509050
  58.4848643  60.6014127  80.8589319  59.4250088  59.6559321  81.5759191
  58.1272917  42.4009441  77.7226200  57.7837186  43.2911083  77.6465311
  58.4951879  42.2111099  76.8595785  57.2069457  44.7714096  75.6875433
  56.7034253  44.7344232  74.8743239  57.5000064  45.6806839  75.7472090
  53.4512343  44.8552826  74.6941615  54.3165340  44.6595635  74.3347505
  53.5189852  44.6263178  75.6210972  61.3048781  54.6184388  74.8218417
  60.6472455  55.3083650  74.9098545  62.1089180  55.0080820  75.1652403
  59.9260583  41.6603000  72.8243938  60.2319459  40.8000364  72.5369853
  60.6513187  42.2520621  72.6242932  57.7348234  51.0375678  79.9225402
  58.0897622  51.2647151  80.7819867  58.3820365  51.3694054  79.3002657
  51.6288097  48.1452209  76.7071743  52.2687476  48.0040968  76.0094706
  50.7965627  47.8586722  76.3310345  63.4915350  56.2270641  75.6386002
  63.9251857  56.1345930  76.4869056  64.2046931  56.2028141  75.0006018
  57.2243245  59.8272735  77.1719103  57.2780268  60.3963671  77.9396819
  56.3558027  59.9974620  76.8073140  64.3530900  56.2694341  78.1718888
  64.5466790  57.1740152  78.4178162  64.2531518  55.8101760  79.0057473
  56.0067211  46.1552232  80.6709215  55.3595126  46.8542181  80.5773691
  56.7768226  46.5888376  81.0385463  59.4146009  56.4201084  83.7459768
  59.2631515  56.1911636  82.8289852  59.4050688  57.3771685  83.7591113
  61.1238215  59.4520207  81.8236250  61.0650761  58.7679427  81.1566833
  61.5257734  60.1939197  81.3716876  61.1255623  57.4159790  80.0550230
  60.2382401  57.0785712  80.1776629  61.6954174  56.6842822  80.2918995
  65.6072963  52.8268008  74.8166791  65.5962839  53.7092723  74.4460724
  64.7390343  52.4739559  74.6221328  60.1962200  44.0897236  75.3227859
  59.2825280  44.3201463  75.4910066  60.6255302  44.1735680  76.1741891
  59.9668659  52.2787128  77.8227753  59.3140109  52.5263035  77.1680205
  60.3449039  51.4651266  77.4890230  59.6089889  59.1535124  84.4000060
  60.1529793  59.7665082  83.9055015  59.0276734  59.7114702  84.9167073
  52.3181884  45.9659001  80.9832880  52.8416286  46.2121297  81.7459189
  52.0994217  46.7979036  80.5636017  53.5234429  46.9072696  78.6682550
  53.1831249  46.1080509  79.0703230  52.8173435  47.2074407  78.0959384
  54.1750901  43.9922008  77.1209873  54.9976970  43.5182486  76.9988764
  54.4188964  44.7712492  77.6208560  55.4111993  48.1081017  77.0235869
  55.1529771  49.0298088  77.0220200  54.8797034  47.7111452  77.7136333
  52.4463838  48.0690055  84.4560244  52.4951993  48.9452177  84.0738014
  52.9886352  47.5267448  83.8831888  62.9318684  58.6131178  83.7361381
  62.1414227  58.5955317  83.1965881  62.6952038  59.1519472  84.4910418
  63.0516559  55.4623644  81.0494110  63.1014564  55.2973652  81.9909633
  62.9430482  54.5950903  80.6591991  60.3420321  51.4454572  82.3653417
  61.2430184  51.3061037  82.0737415  60.4168296  51.6109027  83.3051594
  54.6763126  48.8221427  81.2106603  53.8066436  49.1154993  80.9389192
  54.9122607  49.4061872  81.9313867  64.5534755  57.8820586  81.2936132
  64.2619564  58.2450566  82.1299593  63.9406887  57.1687594  81.1149464
  65.7530438  55.4473466  73.8138702  66.5877329  55.8863270  73.9776262
  65.8889567  54.9712119  72.9946948  62.8021944  53.0053200  79.7616190
  63.2776065  53.1980847  78.9535041  61.8787509  53.0612386  79.5159573
  57.3802160  45.0401044  78.7272023  57.8984104  45.7762071  78.4018512
  57.0257293  45.3465037  79.5618783  57.6314754  41.4601326  74.2472920
  57.9116508  40.7924516  74.8733347  58.4165361  41.6530422  73.7347584
  61.5023613  49.8818960  77.9944495  62.4541036  49.9817058  78.0156719
  61.3327063  49.0897229  78.5042580  59.5237992  46.9674544  78.1803896
  58.9287924  47.2479556  77.4850385  59.2387689  47.4568445  78.9520637
  63.9811690  53.1025080  77.1086795  63.9488011  52.1641081  77.2946479
  64.5912314  53.1809117  76.3752620  64.1306179  49.8936124  77.1545078
  63.6145228  49.1094580  76.9675007  65.0146127  49.5654840  77.3191597
  61.7916906  43.6377139  73.1140891  61.5941727  43.3292227  73.9984223
  62.4016611  44.3638778  73.2438821  69.7988240  54.1641087  76.2492832
  70.5291629  53.9026375  76.8100535  69.1895186  53.4269809  76.2894900
  67.8803537  52.3048950  76.8467283  67.1536701  52.1704914  76.2383774
  67.4650824  52.6125778  77.6524001  53.5723652  49.5073120  86.6440186
  53.4720379  50.4567477  86.5752277  53.3545194  49.1791359  85.7716256
  63.0608774  47.8133183  73.1426774  63.8369164  48.3029635  73.4151391
  62.3356908  48.2391237  73.5998643  65.4981332  48.5260802  74.2000714
  66.0925823  48.2856538  73.4894023  65.5707916  47.8067932  74.8274251
  67.8052405  51.8327003  72.9744136  67.2451963  51.9020192  73.7475698
  67.1995908  51.6567987  72.2543632  57.7315948  56.7994891  86.2628817
  58.6007107  56.9735543  85.9015452  57.2522699  57.6189307  86.1404546
  57.5418286  40.5896864  70.7706509  56.7750681  40.0355351  70.9163191
  57.9528991  40.6618733  71.6320661  49.5460047  46.8781660  84.8611690
  50.4091508  46.5218465  85.0715015  48.9725457  46.5395555  85.5487095
  62.1041547  60.2862377  85.8541662  61.7108493  59.7328575  86.5289306
  62.9207688  60.5972955  86.2448179  65.0209508  61.7020256  83.4461918
  65.7619222  62.3027409  83.3666381  65.2527431  60.9597894  82.8879961
  60.1650846  66.8876623  81.7240148  60.0504362  65.9861880  82.0247247
  59.3095364  67.1340320  81.3724965  66.8460965  61.4844149  80.6709215
  66.1988880  62.1834099  80.5773691  67.6161981  61.9180293  81.0385463
  62.6874125  64.8309989  80.7225310  62.1511482  64.3800727  81.3746907
  62.0990834  64.9655898  79.9795775  60.5737263  62.0040934  79.1473290
  60.6378589  62.8655765  78.7350688  60.5104383  61.3914935  78.4145649
  63.1575638  61.2950918  80.9832880  63.6810040  61.5413215  81.7459189
  62.9387972  62.1270953  80.5636017  65.0144655  59.3213926  77.1209873
  65.8370725  58.8474404  76.9988764  65.2582719  60.1004410  77.6208560
  63.2857592  63.3981972  84.4560244  63.3345748  64.2744095  84.0738014
  63.8280107  62.8559365  83.8831888  73.7712438  73.9423096  83.7361381
  72.9807982  73.9247234  83.1965881  73.5345793  74.4811389  84.4910418
  73.8910313  70.7915562  81.0494110  73.9408318  70.6265569  81.9909633
  73.7824236  69.9242821  80.6591991  75.3928510  73.2112503  81.2936132
  75.1013318  73.5742484  82.1299593  74.7800641  72.4979512  81.1149464
  64.4117406  64.8365037  86.6440186  64.3114133  65.7859394  86.5752277
  64.1938948  64.5083276  85.7716256  60.3853801  62.2073578  84.8611690
  61.2485263  61.8510383  85.0715015  59.8119212  61.8687473  85.5487095
  80.2302178  83.8375434  75.6674091  80.8680588  83.7182182  74.9637431
  80.1123021  84.7856278  75.7262043  77.0391884  83.7902862  75.6035616
  76.7010396  83.6743927  74.7156151  77.9081653  83.3894027  75.5836622
  77.5211667  84.9437714  81.5621822  77.5100308  84.5490512  80.6902325
  77.6832307  84.2103787  82.1555593  78.4778259  89.3109306  66.9046972
  77.8266239  89.8963387  66.5180986  79.2722622  89.8415501  66.9642009
  74.2418928  87.7274826  80.5101006  73.9508794  88.6320457  80.3947672
  74.8775913  87.7691353  81.2245075  75.1675135  85.1051674  77.1002365
  75.7638708  84.8807697  76.3859328  75.2250107  84.3636420  77.7027813
  79.7843447  81.5626888  72.7427299  80.5706536  81.1446311  72.3917716
  80.0482151  82.4672980  72.9108948  79.9553524  86.9999738  67.4415956
  79.3199357  87.0734365  68.1536861  79.6250930  87.5893337  66.7635035
  85.1851874  81.5002121  73.6460278  85.9177046  80.9301338  73.8798107
  84.4291229  81.1123722  74.0866783  82.7077294  75.2123695  78.1054886
  82.3760619  76.0819106  77.8816101  82.1122907  74.8959979  78.7848917
  79.2008814  87.4136241  77.5050799  78.9009537  88.3161280  77.3966606
  78.8559873  87.1468425  78.3571952  82.6005957  79.9318782  75.1848237
  81.6922835  79.8634190  74.8906997  82.5493553  80.4090726  76.0130062
  74.1829593  94.1780562  70.4721767  74.1053623  95.1288387  70.5510247
  73.5791237  93.8326434  71.1296693  76.6746823  81.3508427  83.1283134
  75.8980157  81.9102347  83.1185998  77.3137386  81.8365210  83.6498004
  84.4667604  78.1335220  76.9626110  83.8241984  78.4267753  76.3165905
  83.9622532  78.0188140  77.7679307  82.1207767  81.8798393  67.6511970
  83.0325624  82.1125780  67.4759667  81.6117414  82.4635437  67.0887048
  74.9293195  84.1593880  82.6901101  75.6707880  84.6978924  82.4135924
  74.2230181  84.7860169  82.8472653  80.4048535  86.3023021  81.2873262
  80.8131891  85.8605431  80.5427895  79.6825797  85.7275648  81.5407455
  76.7579605  81.2395628  78.6606819  77.6040800  81.6635041  78.8041468
  76.6978243  80.5829252  79.3545382  80.7277350  86.8624212  75.0425551
  80.0986212  87.0269926  74.3401619  80.3403012  87.2765821  75.8136515
  84.6066582  87.7978649  72.3969915  83.9217620  88.1777551  71.8466948
  84.6910431  88.4073976  73.1301863  79.9079050  78.8999996  80.3187993
  79.6639982  79.6542057  79.7822269  80.1838981  79.2785344  81.1535240
  81.8617513  85.4438608  78.9965258  82.0734408  86.0870368  78.3199640
  81.8147261  84.6100925  78.5287189  73.6654559  81.3133529  83.4916411
  73.0353220  81.9949810  83.7251808  73.5590647  81.2016610  82.5469549
  82.9763341  88.3210564  77.1687616  83.7980785  87.9190751  76.8870297
  82.9725744  88.2178798  78.1203732  76.7419945  87.8694607  79.3248326
  76.8064377  88.3315014  80.1606498  76.0330869  87.2391972  79.4530636
  76.4567962  89.5362715  69.1927307  76.3213637  90.3814250  69.6212154
  76.9977775  89.7381992  68.4293240  72.9435302  75.6154295  85.8541662
  72.5502247  75.0620493  86.5289306  73.7601442  75.9264873  86.2448179
  75.8603263  77.0312174  83.4461918  76.6012976  77.6319327  83.3666381
  76.0921186  76.2889811  82.8879961  78.0836439  90.1586281  83.3227649
  77.6400293  89.3722660  83.0048553  78.7453652  90.3465432  82.6571539
  72.8423560  91.6882083  77.8488327  73.3930985  91.5599146  77.0765321
  72.0035036  91.9876972  77.4983220  80.1817677  90.4389081  81.3509050
  80.1636152  91.2597962  80.8589319  81.1037597  90.3143156  81.5759191
  76.6390731  87.9533211  82.1932558  77.1719068  87.1921499  81.9631866
  76.1104812  87.6606862  82.9356713  79.7710709  83.0501888  66.2298635
  79.2557332  83.8206492  66.4687023  79.4988017  82.3767024  66.8531697
  77.3557820  77.8951588  71.2883874  76.4999416  77.5058439  71.1089512
  77.7684771  77.9743549  70.4283659  84.7444983  85.8034242  68.1651809
  83.9674425  85.4645402  67.7206971  85.4236464  85.8086865  67.4906774
  79.5597012  80.9228980  68.0558416  79.2547147  81.2375129  68.9068560
  80.5127454  81.0010400  68.0985749  82.9836290  85.2768224  74.8218417
  82.3259964  85.9667485  74.9098545  83.7876689  85.6664655  75.1652403
  81.7941748  83.6312596  72.8722358  82.3073630  84.2642588  73.3744068
  82.4442972  83.0313792  72.5065718  79.0564123  93.6096921  65.6283030
  78.3825821  93.9128617  66.2367987  79.4429945  94.4126001  65.2788487
  78.2722579  81.1062052  75.1180699  77.3545141  81.3276999  74.9602387
  78.6882723  81.1808362  74.2592406  79.0557627  82.5053467  70.2483379
  79.8029446  83.0174865  69.9390501  79.3249217  82.1837520  71.1087773
  82.5603545  88.6118598  71.0001501  82.1065872  87.7709508  71.0566692
  81.9297511  89.2479996  71.3376281  81.5036464  79.5410584  72.2302168
  80.7659221  79.0287970  72.5612411  81.7563238  79.1010965  71.4185445
  81.0036484  90.4495094  71.9351319  81.2959458  91.0100151  71.2163685
  81.5135104  90.7423655  72.6904478  77.0260365  86.5420752  64.5698412
  76.5879795  85.8256611  64.1104049  77.7670806  86.7696867  64.0083503
  75.9670109  91.2275445  73.0244772  75.9246288  91.4536292  72.0953304
  76.8832808  90.9938820  73.1730574  79.4135743  81.6959513  79.9225402
  79.7685131  81.9230986  80.7819867  80.0607874  82.0277890  79.3002657
  85.1433480  84.8177949  70.6274731  85.0051378  85.0079545  69.6995920
  84.7869699  85.5797332  71.0842782  85.1702859  86.8854476  75.6386002
  85.6039366  86.7929765  76.4869056  85.8834440  86.8611976  75.0006018
  78.9030754  90.4856570  77.1719103  78.9567777  91.0547506  77.9396819
  78.0345536  90.6558455  76.8073140  86.0318409  86.9278177  78.1718888
  86.2254299  87.8323987  78.4178162  85.9319027  86.4685596  79.0057473
  77.6854720  76.8136067  80.6709215  77.0382635  77.5126017  80.5773691
  78.4555735  77.2472211  81.0385463  81.0933518  87.0784919  83.7459768
  80.9419024  86.8495471  82.8289852  81.0838197  88.0355521  83.7591113
  77.8618854  84.6516832  78.7306035  78.7910914  84.8027992  78.5575002
  77.4409884  84.7400853  77.8754681  76.6607186  88.6767496  76.5004572
  76.5218272  88.3086281  77.3730510  75.8721782  89.1915136  76.3288530
  77.2555338  93.7776593  67.8430109  77.4307093  93.3064636  68.6575731
  76.5688126  94.4042359  68.0711369  78.2112401  88.0549099  73.8893410
  77.8762234  88.0149869  74.7851060  77.7116347  87.3893815  73.4163820
  81.1471593  85.4005134  64.1630470  80.5300763  84.6751962  64.0663522
  80.6788081  86.1614494  63.8197544  74.8138946  83.1736689  78.9029671
  75.5238564  82.5329881  78.8616289  74.7708254  83.4249583  79.8255852
  82.8025724  90.1104042  81.8236250  82.7438270  89.4263262  81.1566833
  83.2045243  90.8523032  81.3716876  71.8216423  96.9265956  74.6169969
  72.0613021  97.5584480  75.2948987  70.9785620  96.5753996  74.9035328
  82.8043132  88.0743626  80.0550230  81.9169910  87.7369548  80.1776629
  83.3741683  87.3426657  80.2918995  76.3344285  92.7345078  77.0211473
  76.2614456  93.5400050  77.5330777  75.8921678  92.9337044  76.1959494
  76.1234065  91.9716848  70.5314294  75.3401586  92.5138528  70.6252519
  76.8226810  92.4890828  70.9308536  87.2860472  83.4851843  74.8166791
  87.2750348  84.3676559  74.4460724  86.4177852  83.1323394  74.6221328
  78.7942968  92.6331912  79.1769632  79.5070941  93.2679377  79.1045533
  78.3032997  92.7295778  78.3609633  80.5160495  86.5383165  70.7486923
  79.5816774  86.6584627  70.5791628  80.6937164  85.6355632  70.4846933
  83.9033047  82.3800484  71.2836957  84.3693499  83.2128476  71.2097260
  84.3540547  81.9145466  71.9882216  73.8454882  90.3826356  79.9975202
  74.5464341  91.0162839  80.1504597  73.3749997  90.7241087  79.2370842
  81.9709278  88.7244305  68.2823109  82.2469122  88.6100900  69.1916983
  81.1013777  88.3261790  68.2435282  81.6456168  82.9370963  77.8227753
  80.9927618  83.1846871  77.1680205  82.0236548  82.1235101  77.4890230
  78.6063342  92.9730656  71.9255923  78.7885736  92.1552312  72.3883675
  79.4296328  93.1898349  71.4880813  78.9405507  91.8998841  69.1870971
  79.4693274  91.3891296  68.5741134  79.2033727  91.5841372  70.0516505
  77.6943741  83.6790774  84.3093790  77.0184378  83.5784903  84.9796165
  78.5171375  83.5229988  84.7729787  72.2961255  92.9513958  71.9468747
  71.6271631  93.4360086  71.4632787  72.1574125  93.1983179  72.8612126
  76.4366524  94.9857702  78.5451406  76.9884832  95.1489323  79.3100491
  76.7772717  95.5762139  77.8731431  81.2877398  89.8118959  84.4000060
  81.8317302  90.4248917  83.9055015  80.7064243  90.3698538  84.9167073
  79.5734911  92.9339677  75.5315088  79.4486051  92.1329417  75.0226033
  80.2314002  93.4285870  75.0429058  81.6369820  90.7348697  77.1594638
  80.6900155  90.6154048  77.0872965  81.9852593  89.8471195  77.2420899
  73.9969393  76.6242836  80.9832880  74.5203795  76.8705133  81.7459189
  73.7781726  77.4562871  80.5636017  78.6416253  90.5301413  73.3598990
  78.4941215  89.6018121  73.5406560  79.4669746  90.5521504  72.8756066
  82.2450375  91.3529972  74.4463863  83.1696922  91.1472833  74.3088314
  82.0765678  91.1046373  75.3553205  75.2021938  77.5656531  78.6682550
  74.8618758  76.7664344  79.0703230  74.4960944  77.8658242  78.0959384
  78.6377767  78.3839251  68.3531108  78.8541382  79.2663889  68.0519936
  78.1571834  77.9925464  67.6236749  75.2373371  78.3327512  74.9782742
  75.2234940  77.4368606  74.6415040  75.9545800  78.3398176  75.6121028
  77.0899502  78.7664852  77.0235869  76.8317280  79.6881923  77.0220200
  76.5584542  78.3695287  77.7136333  82.0345691  91.8715640  69.8025954
  82.2082568  91.3062062  69.0499807  82.5274582  92.6716534  69.6205444
  87.8885082  84.6352063  71.4216254  88.3316228  83.8859388  71.0235377
  87.0111592  84.6262199  71.0389986  83.0220863  91.1882404  66.9022853
  83.7171768  91.8089097  67.1210167  83.3644014  90.3377755  67.1775231
  84.9212286  88.6382110  68.4310184  85.4463611  88.9769382  67.7059504
  84.8334639  87.7029125  68.2473318  76.5832335  92.5516183  80.5600060
  76.8919462  92.3065330  81.4322760  77.3807817  92.7562822  80.0718930
  76.6052947  94.7054093  72.7905437  76.1657938  94.2130472  73.4838293
  77.3561064  94.1627060  72.5497512  74.0526819  90.2492102  74.8627738
  73.4306829  89.5862807  74.5629966  74.7231686  90.2753234  74.1801386
  74.1251347  78.7273890  84.4560244  74.1739502  79.6036013  84.0738014
  74.6673861  78.1851283  83.8831888  84.6106193  89.2715013  83.7361381
  83.8201736  89.2539152  83.1965881  84.3739547  89.8103307  84.4910418
  84.7304068  86.1207480  81.0494110  84.7802073  85.9557487  81.9909633
  84.6217991  85.2534739  80.6591991  82.0207830  82.1038408  82.3653417
  82.9217693  81.9644872  82.0737415  82.0955805  82.2692862  83.3051594
  76.3550635  79.4805262  81.2106603  75.4853945  79.7738828  80.9389192
  76.5910116  80.0645707  81.9313867  86.2322264  88.5404421  81.2936132
  85.9407073  88.9034402  82.1299593  85.6194396  87.8271429  81.1149464
  84.4809453  83.6637036  79.7616190  84.9563574  83.8564682  78.9535041
  83.5575018  83.7196222  79.5159573  79.0589669  75.6984879  78.7272023
  79.5771613  76.4345906  78.4018512  78.7044802  76.0048873  79.5618783
  77.1135732  91.2944156  65.8097946  76.5409699  91.9134343  65.3568418
  77.6868525  91.8443517  66.3437868  83.1811122  80.5402796  77.9944495
  84.1328545  80.6400893  78.0156719  83.0114572  79.7481064  78.5042580
  81.2025501  77.6258379  78.1803896  80.6075433  77.9063392  77.4850385
  80.9175198  78.1152280  78.9520637  80.3332992  91.5781306  66.9406529
  81.2663665  91.5126868  67.1439404  80.2456204  92.4137573  66.4821061
  82.9621008  90.8947176  63.9010476  82.8834640  90.5607040  64.7946234
  83.7830675  91.3868944  63.9001949  85.6599199  83.7608915  77.1086795
  85.6275520  82.8224916  77.2946479  86.2699823  83.8392952  76.3752620
  85.8093688  80.5519959  77.1545078  85.2932737  79.7678416  76.9675007
  86.6933636  80.2238676  77.3191597  83.4704415  74.2960974  73.1140891
  83.2729236  73.9876063  73.9984223  84.0804120  75.0222613  73.2438821
  91.4775749  84.8224922  76.2492832  92.2079138  84.5610210  76.8100535
  90.8682695  84.0853644  76.2894900  89.5591046  82.9632785  76.8467283
  88.8324210  82.8288750  76.2383774  89.1438333  83.2709614  77.6524001
  77.3821223  86.6822715  84.6114656  78.3024232  86.8601314  84.8054702
  77.3470806  85.7378760  84.4594355  77.2987513  75.0991835  69.2413125
  76.4888242  74.7538920  69.6168371  77.9871930  74.7899378  69.8300737
  75.2511161  80.1656955  86.6440186  75.1507888  81.1151312  86.5752277
  75.0332703  79.8375194  85.7716256  82.6056869  76.2870407  70.3716086
  82.0255538  76.9455211  69.9894139  82.3392801  75.4647751  69.9603504
  75.1142431  83.5954094  85.4605248  74.6309512  84.3954454  85.6669137
  75.2003370  83.6062039  84.5072692  81.3881747  78.4470497  69.4272435
  80.5007602  78.7320148  69.2092629  81.8035736  78.2864260  68.5799711
  84.7396283  78.4717018  73.1426774  85.5156673  78.9613470  73.4151391
  84.0144417  78.8975072  73.5998643  87.1768841  79.1844637  74.2000714
  87.7713332  78.9440373  73.4894023  87.2495425  78.4651768  74.8274251
  69.3965997  93.0278248  74.5143879  69.2620465  92.2678649  73.9481877
  68.9798059  93.7519148  74.0472668  80.5324960  88.2115172  63.5220455
  81.2360810  88.4165174  64.1378110  79.8087609  88.7791933  63.7869538
  81.3622770  83.9625033  69.6422725  81.3057972  84.4193584  68.8030357
  81.9151113  83.2015717  69.4645567  85.1727576  79.7514765  70.4672844
  84.9164510  79.3511400  71.2981052  84.5480444  80.4658559  70.3422983
  89.4839914  82.4910838  72.9744136  88.9239472  82.5604027  73.7475698
  88.8783417  82.3151823  72.2543632  72.5535123  93.9247565  74.7262322
  72.4367507  94.8692998  74.6241012  71.7327569  93.6221127  75.1148121
  82.4411657  88.6497701  65.5718915  83.2757261  88.2178899  65.3896389
  82.2796000  88.4779714  66.4995809  82.0957550  85.1529814  66.9375254
  82.0406353  84.9874086  65.9963698  81.4703605  85.8605847  67.0937444
  79.4103457  87.4578726  86.2628817  80.2794616  87.6319378  85.9015452
  78.9310208  88.2773143  86.1404546  73.5789637  94.5775827  77.9418250
  74.4816884  94.6099437  78.2584745  73.3527007  93.6476278  77.9564586
  75.3343239  93.3306813  74.6028329  74.3838870  93.3308675  74.4892701
  75.6375725  92.5839548  74.0864364  91.0695933  99.1667352  75.6674091
  91.7074343  99.0474099  74.9637431  90.9516775 100.1148196  75.7262043
  87.8785639  99.1194780  75.6035616  87.5404150  99.0035845  74.7156151
  88.7475407  98.7185945  75.5836622  83.7372455 100.9730256  71.5932507
  83.1737320 100.8820193  70.8248795  83.6224850 100.1530161  72.0734999
  88.3605422 100.2729632  81.5621822  88.3494063  99.8782430  80.6902325
  88.5226061  99.5395704  82.1555593  81.2836886 102.4681448  74.4316727
  82.0758178 102.1272273  74.0163027  81.5233537 102.5776423  75.3518881
  89.3172013 104.6401224  66.9046972  88.6659993 105.2255305  66.5180986
  90.1116376 105.1707419  66.9642009  83.2427640 101.7290361  67.3034106
  84.0158516 101.1819348  67.1646982  83.5953039 102.5934611  67.5148568
  85.0812683 103.0566744  80.5101006  84.7902549 103.9612374  80.3947672
  85.7169667 103.0983271  81.2245075  86.0068890 100.4343592  77.1002365
  86.6032462 100.2099614  76.3859328  86.0643861  99.6928338  77.7027813
  85.5793918  97.8883027  64.9352556  85.8319439  97.3664549  64.1736019
  84.6418477  97.7249173  65.0379240  90.6237201  96.8918806  72.7427299
  91.4100290  96.4738229  72.3917716  90.8875905  97.7964898  72.9108948
  90.7947278 102.3291656  67.4415956  90.1593111 102.4026283  68.1536861
  90.4644685 102.9185255  66.7635035  96.0245628  96.8294039  73.6460278
  96.7570800  96.2593256  73.8798107  95.2684984  96.4415639  74.0866783
  85.2990207  99.7911133  67.1376931  85.1826465  99.1156037  67.8058015
  85.4092467  99.3043507  66.3209084  87.6421748  99.2521280  70.8423620
  87.2779955  98.7251901  71.5536542  88.4988864  98.8619749  70.6690106
  93.5471049  90.5415613  78.1054886  93.2154373  91.4111024  77.8816101
  92.9516662  90.2251897  78.7848917  87.2827235  94.2811180  65.8384969
  87.4501637  95.1491417  66.2055440  87.0924404  94.4438462  64.9146258
  90.0402568 102.7428159  77.5050799  89.7403291 103.6453198  77.3966606
  89.6953628 102.4760342  78.3571952  83.4915050  99.1941956  73.5387504
  82.5665546  99.0618170  73.7465195  83.7399463  99.9736175  74.0357446
  93.4399712  95.2610699  75.1848237  92.5316589  95.1926108  74.8906997
  93.3887308  95.7382644  76.0130062  87.2616456  96.7368838  66.8231636
  87.1416081  97.1825888  67.6617116  86.5669044  97.0854155  66.2645174
  80.8523861  98.8375229  74.3731293  80.9816242  99.0909708  75.2870704
  80.1721312  99.4302937  74.0535948  85.0223348 109.5072479  70.4721767
  84.9447378 110.4580304  70.5510247  84.4184991 109.1618352  71.1296693
  87.5140578  96.6800345  83.1283134  86.7373912  97.2394265  83.1185998
  88.1531141  97.1657128  83.6498004  95.3061358  93.4627138  76.9626110
  94.6635738  93.7559671  76.3165905  94.8016287  93.3480058  77.7679307
  92.9601522  97.2090311  67.6511970  93.8719378  97.4417698  67.4759667
  92.4511169  97.7927355  67.0887048  85.7686950  99.4885798  82.6901101
  86.5101634 100.0270842  82.4135924  85.0623935 100.1152087  82.8472653
  91.2442290 101.6314939  81.2873262  91.6525646 101.1897349  80.5427895
  90.5219551 101.0567566  81.5407455  87.5973360  96.5687545  78.6606819
  88.4434555  96.9926959  78.8041468  87.5371997  95.9121170  79.3545382
  91.5671104 102.1916129  75.0425551  90.9379967 102.3561843  74.3401619
  91.1796766 102.6057739  75.8136515  95.4460336 103.1270567  72.3969915
  94.7611374 103.5069468  71.8466948  95.5304185 103.7365894  73.1301863
  90.7472805  94.2291914  80.3187993  90.5033737  94.9833974  79.7822269
  91.0232735  94.6077261  81.1535240  92.7011268 100.7730526  78.9965258
  92.9128163 101.4162286  78.3199640  92.6541016  99.9392843  78.5287189
  87.1199066 101.9290537  72.3075636  87.5837412 102.2078240  71.5180259
  86.8555864 101.0273982  72.1248727  84.0123147 101.4762019  75.2455400
  84.5824504 101.9049287  74.6072884  84.6031259 101.1944604  75.9439585
  86.0567952  98.0513690  69.1165201  86.7591995  98.5034733  69.5839128
  85.7248581  97.4097509  69.7445095  84.5048314  96.6425446  83.4916411
  83.8746974  97.3241727  83.7251808  84.3984402  96.5308528  82.5469549
  79.7993286  96.3097242  74.4182335  79.0092340  96.5654771  73.9422446
  80.2904533  97.1245580  74.5234376  93.8157096 103.6502482  77.1687616
  94.6374539 103.2482669  76.8870297  93.8119499 103.5470716  78.1203732
  81.7508031  96.6741822  71.3765812  80.9539195  96.7860516  71.8949307
  81.5233624  97.0128474  70.5106702  87.5813699 103.1986525  79.3248326
  87.6458132 103.6606932  80.1606498  86.8724623 102.5683890  79.4530636
  78.0830989  96.5627733  76.8497326  78.3339028  97.4474743  77.1154902
  78.6190537  96.3832334  76.0772418 101.9063089  99.9941230  73.5172587
 101.1526797  99.4248628  73.3616592 102.0410630  99.9603895  74.4643222
  87.2961717 104.8654632  69.1927307  87.1607392 105.7106168  69.6212154
  87.8371529 105.0673910  68.4293240  83.7829056  90.9446212  85.8541662
  83.3896002  90.3912411  86.5289306  84.5995197  91.2556791  86.2448179
  80.7491114 102.3830070  69.7655232  81.2615635 103.1773321  69.9160796
  81.4013827 101.6856361  69.6988833  82.5585999 105.4995827  71.8477985
  82.7352627 106.4213791  71.6598969  83.3542832 105.1854246  72.2772365
  86.6997017  92.3604091  83.4461918  87.4406731  92.9611244  83.3666381
  86.9314940  91.6181729  82.8879961  81.8438355  97.5460459  81.7240148
  81.7291871  96.6445716  82.0247247  80.9882873  97.7924155  81.3724965
  88.9230193 105.4878199  83.3227649  88.4794047 104.7014577  83.0048553
  89.5847407 105.6757349  82.6571539  83.6817314 107.0174000  77.8488327
  84.2324739 106.8891064  77.0765321  82.8428790 107.3168889  77.4983220
  91.0211431 105.7680999  81.3509050  91.0029907 106.5889880  80.8589319
  91.9431351 105.6435074  81.5759191  87.4784485 103.2825128  82.1932558
  88.0112822 102.5213416  81.9631866  86.9498566 102.9898780  82.9356713
  78.7140031 100.7118725  70.5414802  79.5515253 101.1215733  70.3248510
  78.8918299  99.7718167  70.5114996  90.6104463  98.3793805  66.2298635
  90.0951086  99.1498410  66.4687023  90.3381772  97.7058941  66.8531697
  88.1951574  93.2243506  71.2883874  87.3393170  92.8350356  71.1089512
  88.6078526  93.3035467  70.4283659  89.7250721  90.7589849  75.6875433
  89.2215516  90.7219985  74.8743239  90.0181328  91.6682592  75.7472090
  85.9693607  90.8428579  74.6941615  86.8346603  90.6471388  74.3347505
  86.0371116  90.6138931  75.6210972  95.5838737 101.1326160  68.1651809
  94.8068180 100.7937319  67.7206971  96.2630218 101.1378783  67.4906774
  90.3990766  96.2520897  68.0558416  90.0940902  96.5667047  68.9068560
  91.3521208  96.3302317  68.0985749  88.8437198 102.4111121  69.7051370
  88.3158560 101.6763880  69.3924608  88.3424701 103.1885797  69.4591339
  93.8230044 100.6060141  74.8218417  93.1653719 101.2959403  74.9098545
  94.6270443 100.9956573  75.1652403  83.5755926  93.0730787  72.0657982
  84.1499678  92.8505969  71.3331175  84.1626908  93.1419482  72.8186583
  92.6335503  98.9604514  72.8722358  93.1467385  99.5934506  73.3744068
  93.2836727  98.3605709  72.5065718  83.9025513  95.1035248  66.0853867
  83.0662825  95.4409935  66.4063142  83.7630282  94.9684228  65.1481004
  86.9889798 100.2291331  62.7086343  86.0816860  99.9980584  62.9077492
  87.4860830  99.4328950  62.8960325  89.8957877 108.9388838  65.6283030
  89.2219576 109.2420535  66.2367987  90.2823699 109.7417919  65.2788487
  89.1116334  96.4353969  75.1180699  88.1938895  96.6568916  74.9602387
  89.5276477  96.5100280  74.2592406  89.8951382  97.8345385  70.2483379
  90.6423200  98.3466782  69.9390501  90.1642971  97.5129438  71.1087773
  88.1678032 100.3303926  67.2310333  87.2589251 100.0462959  67.3282803
  88.1973115 100.7503004  66.3713640  93.3997299 103.9410515  71.0001501
  92.9459626 103.1001425  71.0566692  92.7691266 104.5771914  71.3376281
  92.3430219  94.8702501  72.2302168  91.6052975  94.3579888  72.5612411
  92.5956992  94.4302883  71.4185445  91.8430238 105.7787012  71.9351319
  92.1353213 106.3392069  71.2163685  92.3528859 106.0715573  72.6904478
  92.4441846  87.6478753  72.8243938  92.7500723  86.7876117  72.5369853
  93.1694451  88.2396374  72.6242932  78.7366202  98.0509440  71.2125536
  78.5390602  97.4578801  70.4876602  78.1812866  97.7461650  71.9301474
  86.7162926  97.9432546  73.3320129  86.7711536  96.9906383  73.2562605
  85.9054128  98.0991986  73.8161427  87.8654119 101.8712670  64.5698412
  87.4273549 101.1548528  64.1104049  88.6064560 102.0988784  64.0083503
  84.6555286  96.5609606  71.0910508  83.8423151  96.8603777  71.4975700
  85.1514280  96.1665295  71.8084990  86.8063864 106.5567363  73.0244772
  86.7640042 106.7828209  72.0953304  87.7226562 106.3230738  73.1730574
  90.2529497  97.0251431  79.9225402  90.6078885  97.2522904  80.7819867
  90.9001629  97.3569807  79.3002657  95.9827234 100.1469867  70.6274731
  95.8445133 100.3371463  69.6995920  95.6263453 100.9089249  71.0842782
  84.1469360  94.1327962  76.7071743  84.7868740  93.9916721  76.0094706
  83.3146891  93.8462475  76.3310345  96.0096614 102.2146394  75.6386002
  96.4433121 102.1221683  76.4869056  96.7228195 102.1903894  75.0006018
  84.9229664 103.4330392  72.8206735  85.7170263 102.9380712  72.6189310
  84.2121357 102.9048255  72.4574441  89.7424509 105.8148488  77.1719103
  89.7961531 106.3839424  77.9396819  88.8739290 105.9850373  76.8073140
  81.2312428  97.5773474  68.8966488  80.3010016  97.5157929  69.1136450
  81.3269900  97.0549427  68.1003129  81.1497977  94.1028287  71.4844729
  81.4104794  95.0173620  71.3753890  81.9715149  93.6352729  71.6341342
  82.6222902  95.5166044  78.6543554  83.2945956  95.3083406  78.0056203
  81.7952689  95.3188130  78.2148786  96.8712163 102.2570094  78.1718888
  97.0648054 103.1615905  78.4178162  96.7712782 101.7977513  79.0057473
  88.5248474  92.1427985  80.6709215  87.8776389  92.8417934  80.5773691
  89.2949490  92.5764129  81.0385463  91.9327272 102.4076837  83.7459768
  91.7812779 102.1787389  82.8289852  91.9231952 103.3647438  83.7591113
  88.7012609  99.9808750  78.7306035  89.6304669 100.1319909  78.5575002
  88.2803639 100.0692771  77.8754681  87.5000940 104.0059414  76.5004572
  87.3612026 103.6378199  77.3730510  86.7115537 104.5207054  76.3288530
  88.0949092 109.1068511  67.8430109  88.2700848 108.6356554  68.6575731
  87.4081880 109.7334277  68.0711369  89.0506155 103.3841017  73.8893410
  88.7155988 103.3441787  74.7851060  88.5510101 102.7185733  73.4163820
  83.0250399  98.7908647  79.4145991  82.8870197  98.0588886  80.0157530
  83.9355323  98.7017547  79.1330179  91.9865347 100.7297051  64.1630470
  91.3694518 100.0043879  64.0663522  91.5181836 101.4906411  63.8197544
  85.6532700  98.5028606  78.9029671  86.3632319  97.8621798  78.8616289
  85.6102008  98.7541501  79.8255852  93.6419479 105.4395960  81.8236250
  93.5832025 104.7555180  81.1566833  94.0438997 106.1814950  81.3716876
  84.3661634  95.4893824  80.7225310  83.8298991  95.0384563  81.3746907
  83.7778343  95.6239733  79.9795775  82.6610178 112.2557873  74.6169969
  82.9006776 112.8876398  75.2948987  81.8179374 111.9045913  74.9035328
  83.7763893  94.9482475  63.2851774  82.8993359  94.8271276  62.9214021
  84.2521646  94.1568554  63.0330663  93.6436886 103.4035543  80.0550230
  92.7563665 103.0661465  80.1776629  94.2135437 102.6718575  80.2918995
  75.2966033  99.7359635  73.3793281  75.9837073  99.4221365  72.7914296
  75.1414162 100.6401000  73.1060532  80.1000755  94.6249832  77.8078305
  80.0158944  94.0175501  77.0728715  79.2783462  95.1158850  77.8087801
  87.1738039 108.0636996  77.0211473  87.1008211 108.8691967  77.5330777
  86.7315433 108.2628962  76.1959494  86.9627819 107.3008766  70.5314294
  86.1795341 107.8430446  70.6252519  87.6620564 107.8182745  70.9308536
  90.2724469  93.1103395  73.1748500  90.7693169  92.3573358  72.8549570
  89.5011451  93.1467712  72.6091709  98.1254227  98.8143761  74.8166791
  98.1144103  99.6968476  74.4460724  97.2571606  98.4615312  74.6221328
  89.6336723 107.9623830  79.1769632  90.3464695 108.5971295  79.1045533
  89.1426752 108.0587696  78.3609633  91.3554250 101.8675083  70.7486923
  90.4210529 101.9876545  70.5791628  91.5330918 100.9647549  70.4846933
  86.8559438  95.2520778  72.9020184  86.4857225  94.6991819  73.5901090
  87.3518530  94.6478912  72.3495184  94.7426801  97.7092402  71.2836957
  95.2087253  98.5420393  71.2097260  95.1934302  97.2437383  71.9882216
  84.6848636 105.7118273  79.9975202  85.3858096 106.3454756  80.1504597
  84.2143751 106.0533005  79.2370842  92.8103032 104.0536223  68.2823109
  93.0862876 103.9392818  69.1916983  91.9407531 103.6553708  68.2435282
  92.7143464  90.0772989  75.3227859  91.8006544  90.3077216  75.4910066
  93.1436565  90.1611433  76.1741891  92.4849922  98.2662881  77.8227753
  91.8321373  98.5138788  77.1680205  92.8630302  97.4527019  77.4890230
  89.4457096 108.3022574  71.9255923  89.6279491 107.4844230  72.3883675
  90.2690082 108.5190266  71.4880813  89.7799262 107.2290759  69.1870971
  90.3087028 106.7183214  68.5741134  90.0427481 106.9133289  70.0516505
  88.5337495  99.0082692  84.3093790  87.8578132  98.9076821  84.9796165
  89.3565129  98.8521906  84.7729787  80.2816355 105.2454628  76.9306305
  80.8669791 104.4998316  77.0634209  80.0841193 105.5558585  77.8142969
  83.1355010 108.2805876  71.9468747  82.4665385 108.7652003  71.4632787
  82.9967879 108.5275096  72.8612126  74.8734009  97.8160229  75.6510748
  74.9118109  97.2823819  76.4447866  74.3674302  97.2895434  75.0321725
  87.2760278 110.3149619  78.5451406  87.8278586 110.4781241  79.3100491
  87.6166472 110.9054057  77.8731431  82.2524772  92.6624769  79.1473290
  82.3166098  93.5239600  78.7350688  82.1891892  92.0498771  78.4145649
  92.1271153 105.1410877  84.4000060  92.6711057 105.7540835  83.9055015
  91.5457998 105.6990455  84.9167073  78.5042587  96.5424331  68.7264680
  78.7996028  95.6335009  68.6731733  77.6030623  96.5212070  68.4045682
  90.4128666 108.2631595  75.5315088  90.2879805 107.4621335  75.0226033
  91.0707757 108.7577788  75.0429058  82.0336834  94.6180327  74.7092228
  81.3123420  95.2316295  74.5699701  82.8230090  95.1538092  74.6308874
  92.4763574 106.0640615  77.1594638  91.5293910 105.9445966  77.0872965
  92.8246347 105.1763113  77.2420899  80.2330428  94.2238428  68.8504005
  79.9043135  93.3435807  68.6679111  80.5869799  94.1686097  69.7380394
  89.4810007 105.8593331  73.3598990  89.3334970 104.9310039  73.5406560
  90.3063501 105.8813422  72.8756066  83.3472252  94.5111398  69.2179482
  83.6868324  95.0397319  68.4958091  83.7944372  94.8491804  69.9938049
  93.0844129 106.6821890  74.4463863  94.0090677 106.4764751  74.3088314
  92.9159433 106.4338291  75.3553205  86.0415692  92.8948449  78.6682550
  85.7012513  92.0956262  79.0703230  85.3354699  93.1950160  78.0959384
  85.3340399  93.0086020  67.4172775  86.0548761  93.3867273  66.9136492
  84.7105703  93.7274897  67.5207753  89.4771522  93.7131169  68.3531108
  89.6935136  94.5955807  68.0519936  88.9965589  93.3217382  67.6236749
  84.2170743  96.6716882  74.9301852  84.0715324  96.9857185  75.8226134
  83.7395947  97.2901782  74.3772751  86.0767126  93.6619430  74.9782742
  86.0628695  92.7660523  74.6415040  86.7939554  93.6690094  75.6121028
  87.9293257  94.0956770  77.0235869  87.6711034  95.0173841  77.0220200
  87.3978297  93.6987205  77.7136333  92.8739445 107.2007557  69.8025954
  93.0476323 106.6353980  69.0499807  93.3668337 108.0008452  69.6205444
  78.6916405  99.2122226  77.8689513  78.1469873  99.9882034  78.0009788
  79.5695755  99.5593031  77.7108635  85.4804022  92.5433810  70.2470312
  85.6019933  91.6150456  70.4461199  85.1906064  92.5572496  69.3348627
  98.7278837  99.9643980  71.4216254  99.1709983  99.2151305  71.0235377
  97.8505347  99.9554117  71.0389986  93.8614618 106.5174322  66.9022853
  94.5565522 107.1381014  67.1210167  94.2037768 105.6669673  67.1775231
  79.4782427  98.3392123  80.7619670  78.7364163  98.4874758  81.3484301
  79.1575171  98.6000388  79.8986420  95.7606041 103.9674027  68.4310184
  96.2857365 104.3061300  67.7059504  95.6728394 103.0321043  68.2473318
  87.4226090 107.8808101  80.5600060  87.7313216 107.6357248  81.4322760
  88.2201572 108.0854739  80.0718930  87.4446702 110.0346010  72.7905437
  87.0051692 109.5422389  73.4838293  88.1954819 109.4918978  72.5497512
  79.9239041 106.2257551  72.7930065  80.7497061 105.9261323  72.4128708
  79.5733093 105.4565174  73.2419853  84.8920574 105.5784020  74.8627738
  84.2700583 104.9154725  74.5629966  85.5625441 105.6045151  74.1801386
  78.1247646 104.1443878  73.7518998  77.2879554 103.7166052  73.5703000
  78.0971291 104.3376321  74.6889790  84.9645101  94.0565808  84.4560244
  85.0133257  94.9327930  84.0738014  85.5067616  93.5143201  83.8831888
  95.4499947 104.6006931  83.7361381  94.6595491 104.5831070  83.1965881
  95.2133302 105.1395225  84.4910418  95.5697822 101.4499397  81.0494110
  95.6195827 101.2849405  81.9909633  95.4611745 100.5826656  80.6591991
  84.4534081 104.1287943  68.3386199  84.6022201 104.8123407  67.6852872
  85.2600524 104.1093033  68.8535655  92.8601584  97.4330325  82.3653417
  93.7611447  97.2936790  82.0737415  92.9349559  97.5984780  83.3051594
  87.1944390  94.8097180  81.2106603  86.3247699  95.1030746  80.9389192
  87.4303870  95.3937625  81.9313867  97.0716019 103.8696339  81.2936132
  96.7800827 104.2326319  82.1299593  96.4588150 103.1563347  81.1149464
  98.2711701 101.4349219  73.8138702  99.1058593 101.8739023  73.9776262
  98.4070830 100.9587872  72.9946948  95.3203207  98.9928953  79.7616190
  95.7957329  99.1856600  78.9535041  94.3968773  99.0488139  79.5159573
  82.2086714 100.1553121  69.3447268  81.9632756  99.2515451  69.5427478
  82.3782628 100.1570271  68.4026746  89.8983424  91.0276797  78.7272023
  90.4165368  91.7637824  78.4018512  89.5438556  91.3340790  79.5618783
  81.4782361  95.8881478  66.8433429  80.7851606  95.9625833  66.1873465
  81.2334113  95.1241822  67.3654946  90.1496018  87.4477079  74.2472920
  90.4297772  86.7800269  74.8733347  90.9346625  87.6406175  73.7347584
  87.9529486 106.6236073  65.8097946  87.3803453 107.2426261  65.3568418
  88.5262280 107.1735435  66.3437868  94.0204876  95.8694713  77.9944495
  94.9722299  95.9692811  78.0156719  93.8508327  95.0772982  78.5042580
  92.0419256  92.9550297  78.1803896  91.4469188  93.2355309  77.4850385
  91.7568952  93.4444198  78.9520637  91.1726746 106.9073224  66.9406529
  92.1057419 106.8418785  67.1439404  91.0849959 107.7429490  66.4821061
  93.8014763 106.2239094  63.9010476  93.7228394 105.8898957  64.7946234
  94.6224430 106.7160862  63.9001949  96.4992954  99.0900833  77.1086795
  96.4669274  98.1516834  77.2946479  97.1093578  99.1684870  76.3752620
  88.3376285  97.9596886  63.1513999  89.2835390  97.8303094  63.2202417
  87.9590530  97.2211548  63.6283427  96.6487442  95.8811877  77.1545078
  96.1326491  95.0970333  76.9675007  97.5327391  95.5530593  77.3191597
  94.3098169  89.6252892  73.1140891  94.1122990  89.3167980  73.9984223
  94.9197875  90.3514531  73.2438821 102.3169504 100.1516840  76.2492832
 103.0472892  99.8902128  76.8100535 101.7076449  99.4145562  76.2894900
 100.3984801  98.2924703  76.8467283  99.6717965  98.1580668  76.2383774
  99.9832088  98.6001531  77.6524001  88.2214977 102.0114632  84.6114656
  89.1417987 102.1893231  84.8054702  88.1864560 101.0670678  84.4594355
  86.5219202  95.8846863  63.0868884  85.6150657  95.5879975  63.1631598
  86.7995183  95.5876681  62.2203170  77.4397142  97.2053226  73.5367930
  77.1199927  96.3518534  73.2442304  76.8930571  97.4201804  74.2925898
  81.2177050  99.9215667  77.2537437  81.4363060 100.8532775  77.2725471
  81.6302824  99.5623641  78.0392241  88.1381268  90.4283752  69.2413125
  87.3281996  90.0830837  69.6168371  88.8265685  90.1191296  69.8300737
  86.0904915  95.4948873  86.6440186  85.9901642  96.4443230  86.5752277
  85.8726457  95.1667112  85.7716256  85.2917987  92.7433798  63.2280863
  86.1537151  93.0688696  63.4876681  85.4768331  91.9565294  62.7153929
  77.3085402 100.8256137  75.5061052  76.6148874 100.4110090  74.9931006
  78.0558393 100.8676674  74.9094471  93.4450623  91.6162324  70.3716086
  92.8649292  92.2747128  69.9894139  93.1786556  90.7939669  69.9603504
  91.8954189  91.0167382  72.5737407  92.3953968  91.1283916  71.7651725
  92.5389797  90.7128435  73.2138215  85.9536185  98.9246012  85.4605248
  85.4703267  99.7246372  85.6669137  86.0397124  98.9353956  84.5072692
  79.2222145 100.7574391  73.3827067  79.1992833 100.8562078  72.4308950
  79.5322781 101.6039542  73.7044233  81.8809523 102.8150546  77.4973681
  82.8352776 102.7834489  77.4303613  81.6822046 102.3541170  78.3123907
  82.4708905 101.3851662  80.0644479  83.2901794 101.8795741  80.0879316
  82.7445713 100.4683630  80.0362047  92.2275501  93.7762415  69.4272435
  91.3401356  94.0612065  69.2092629  92.6429490  93.6156178  68.5799711
  95.5790037  93.8008936  73.1426774  96.3550427  94.2905388  73.4151391
  94.8538171  94.2266990  73.5998643  98.0162596  94.5136555  74.2000714
  98.6107087  94.2732291  73.4894023  98.0889180  93.7943685  74.8274251
  80.2359752 108.3570166  74.5143879  80.1014219 107.5970567  73.9481877
  79.8191814 109.0811066  74.0472668  91.3718715 103.5407089  63.5220455
  92.0754565 103.7457092  64.1378110  90.6481363 104.1083851  63.7869538
  92.2016525  99.2916951  69.6422725  92.1451726  99.7485502  68.8030357
  92.7544867  98.5307635  69.4645567  96.0121331  95.0806682  70.4672844
  95.7558265  94.6803318  71.2981052  95.3874199  95.7950476  70.3422983
 100.3233669  97.8202756  72.9744136  99.7633227  97.8895945  73.7475698
  99.7177172  97.6443740  72.2543632  83.3928877 109.2539483  74.7262322
  83.2761262 110.1984915  74.6241012  82.5721324 108.9513044  75.1148121
  93.2805412 103.9789618  65.5718915  94.1151016 103.5470817  65.3896389
  93.1189755 103.8071632  66.4995809  92.9351304 100.4821732  66.9375254
  92.8800108 100.3166003  65.9963698  92.3097359 101.1897765  67.0937444
  77.7243819  95.7189796  80.7636676  78.3702683  95.2088750  81.2523901
  77.5160970  96.4558478  81.3380101  90.2497211 102.7870644  86.2628817
  91.1188371 102.9611296  85.9015452  89.7703963 103.6065060  86.1404546
  86.2447430  89.9829841  66.5160572  86.2326099  90.9271681  66.6728843
  87.1370851  89.7999986  66.2220033  84.4183392 109.9067745  77.9418250
  85.3210638 109.9391355  78.2584745  84.1920762 108.9768196  77.9564586
  86.1736994 108.6598731  74.6028329  85.2232625 108.6600593  74.4892701
  86.4769480 107.9131466  74.0864364  82.0641310  92.8657413  84.8611690
  82.9272772  92.5094218  85.0715015  81.4906721  92.5271308  85.5487095
 101.9089687 114.4959270  75.6674091 102.5468097 114.3766017  74.9637431
 101.7910530 115.4440114  75.7262043  98.7179393 114.4486698  75.6035616
  98.3797905 114.3327762  74.7156151  99.5869162 114.0477863  75.5836622
  94.5766209 116.3022174  71.5932507  94.0131074 116.2112111  70.8248795
  94.4618604 115.4822079  72.0734999  99.1999176 115.6021549  81.5621822
  99.1887817 115.2074348  80.6902325  99.3619816 114.8687622  82.1555593
  92.1230641 117.7973366  74.4316727  92.9151933 117.4564190  74.0163027
  92.3627291 117.9068341  75.3518881  94.0821395 117.0582279  67.3034106
  94.8552271 116.5111266  67.1646982  94.4346794 117.9226528  67.5148568
  95.9206437 118.3858661  80.5101006  95.6296303 119.2904292  80.3947672
  96.5563422 118.4275189  81.2245075  96.8462644 115.7635510  77.1002365
  97.4426217 115.5391532  76.3859328  96.9037616 115.0220255  77.7027813
  96.4187673 113.2174945  64.9352556  96.6713193 112.6956466  64.1736019
  95.4812232 113.0541090  65.0379240 101.4630956 112.2210723  72.7427299
 102.2494045 111.8030147  72.3917716 101.7269660 113.1256816  72.9108948
 106.8639383 112.1585957  73.6460278 107.5964555 111.5885173  73.8798107
 106.1078738 111.7707557  74.0866783  96.1383961 115.1203051  67.1376931
  96.0220220 114.4447954  67.8058015  96.2486221 114.6335425  66.3209084
  98.4815502 114.5813198  70.8423620  98.1173710 114.0543819  71.5536542
  99.3382618 114.1911667  70.6690106 104.3864803 105.8707531  78.1054886
 104.0548128 106.7402942  77.8816101 103.7910416 105.5543815  78.7848917
  98.1220989 109.6103098  65.8384969  98.2895392 110.4783334  66.2055440
  97.9318158 109.7730380  64.9146258  94.3308804 114.5233874  73.5387504
  93.4059300 114.3910088  73.7465195  94.5793217 115.3028093  74.0357446
 104.2793466 110.5902617  75.1848237 103.3710344 110.5218025  74.8906997
 104.2281062 111.0674562  76.0130062  98.1010210 112.0660755  66.8231636
  97.9809835 112.5117806  67.6617116  97.4062799 112.4146073  66.2645174
  91.6917615 114.1667147  74.3731293  91.8209996 114.4201626  75.2870704
  91.0115066 114.7594855  74.0535948  98.3534332 112.0092262  83.1283134
  97.5767666 112.5686183  83.1185998  98.9924895 112.4949045  83.6498004
 106.1455113 108.7919055  76.9626110 105.5029493 109.0851588  76.3165905
 105.6410041 108.6771976  77.7679307 103.7995276 112.5382228  67.6511970
 104.7113133 112.7709615  67.4759667 103.2904923 113.1219273  67.0887048
  96.6080704 114.8177716  82.6901101  97.3495389 115.3562760  82.4135924
  95.9017690 115.4444005  82.8472653 102.0836044 116.9606856  81.2873262
 102.4919400 116.5189267  80.5427895 101.3613306 116.3859484  81.5407455
  98.4367114 111.8979463  78.6606819  99.2828309 112.3218877  78.8041468
  98.3765752 111.2413087  79.3545382 101.5866559 109.5583831  80.3187993
 101.3427491 110.3125892  79.7822269 101.8626490 109.9369179  81.1535240
 101.1431251 108.7140264  75.9001831 100.2815730 109.0121518  76.1918568
 101.1693686 108.9310663  74.9682863  97.9592821 117.2582455  72.3075636
  98.4231166 117.5370158  71.5180259  97.6949619 116.3565900  72.1248727
  94.8516902 116.8053937  75.2455400  95.4218259 117.2341205  74.6072884
  95.4425013 116.5236521  75.9439585  96.8961707 113.3805607  69.1165201
  97.5985750 113.8326651  69.5839128  96.5642335 112.7389426  69.7445095
  95.3442068 111.9717364  83.4916411  94.7140729 112.6533645  83.7251808
  95.2378156 111.8600446  82.5469549  90.6387041 111.6389160  74.4182335
  89.8486095 111.8946689  73.9422446  91.1298288 112.4537498  74.5234376
  92.5901786 112.0033739  71.3765812  91.7932949 112.1152434  71.8949307
  92.3627378 112.3420392  70.5106702  98.4207454 118.5278443  79.3248326
  98.4851886 118.9898850  80.1606498  97.7118377 117.8975807  79.4530636
  88.9224744 111.8919650  76.8497326  89.1732782 112.7766660  77.1154902
  89.4584292 111.7124252  76.0772418  94.6222811 106.2738130  85.8541662
  94.2289756 105.7204328  86.5289306  95.4388951 106.5848708  86.2448179
  91.5884869 117.7121988  69.7655232  92.1009389 118.5065238  69.9160796
  92.2407581 117.0148278  69.6988833  93.3979753 120.8287744  71.8477985
  93.5746382 121.7505709  71.6598969  94.1936587 120.5146164  72.2772365
  97.5390772 107.6896009  83.4461918  98.2800485 108.2903162  83.3666381
  97.7708695 106.9473647  82.8879961  92.6832110 112.8752376  81.7240148
  92.5685625 111.9737633  82.0247247  91.8276628 113.1216073  81.3724965
  94.5211069 122.3465918  77.8488327  95.0718494 122.2182981  77.0765321
  93.6822545 122.6460807  77.4983220  98.3178240 118.6117046  82.1932558
  98.8506577 117.8505334  81.9631866  97.7892321 118.3190698  82.9356713
 101.4847935 103.7177112  77.7226200 101.1412204 104.6078754  77.6465311
 101.8526897 103.5278770  76.8595785  89.5533785 116.0410642  70.5414802
  90.3909007 116.4507651  70.3248510  89.7312053 115.1010085  70.5114996
 101.4498218 113.7085723  66.2298635 100.9344841 114.4790328  66.4687023
 101.1775526 113.0350859  66.8531697  99.0345329 108.5535424  71.2883874
  98.1786925 108.1642274  71.1089512  99.4472280 108.6327385  70.4283659
 100.5644475 106.0881767  75.6875433 100.0609271 106.0511902  74.8743239
 100.8575082 106.9974510  75.7472090  96.8087361 106.1720497  74.6941615
  97.6740358 105.9763305  74.3347505  96.8764870 105.9430849  75.6210972
 101.2384521 111.5812815  68.0558416 100.9334656 111.8958964  68.9068560
 102.1914963 111.6594235  68.0985749  99.6830953 117.7403038  69.7051370
  99.1552314 117.0055798  69.3924608  99.1818455 118.5177715  69.4591339
  94.4149680 108.4022705  72.0657982  94.9893432 108.1797886  71.3331175
  95.0020663 108.4711399  72.8186583 103.4729257 114.2896432  72.8722358
 103.9861139 114.9226423  73.3744068 104.1230481 113.6897627  72.5065718
  94.7419267 110.4327166  66.0853867  93.9056580 110.7701852  66.4063142
  94.6024037 110.2976146  65.1481004  96.7172348 105.2763954  70.7933051
  96.0636760 104.9612971  70.1689666  96.6752822 104.6539694  71.5192874
  97.8283553 115.5583249  62.7086343  96.9210614 115.3272502  62.9077492
  98.3254585 114.7620868  62.8960325  99.9510088 111.7645887  75.1180699
  99.0332650 111.9860834  74.9602387 100.3670232 111.8392198  74.2592406
 100.7345136 113.1637303  70.2483379 101.4816955 113.6758700  69.9390501
 101.0036726 112.8421356  71.1087773  99.0071786 115.6595844  67.2310333
  98.0983005 115.3754876  67.3282803  99.0366870 116.0794922  66.3713640
 103.1823973 110.1994419  72.2302168 102.4446730 109.6871805  72.5612411
 103.4350747 109.7594801  71.4185445 103.2835600 102.9770671  72.8243938
 103.5894477 102.1168035  72.5369853 104.0088205 103.5688291  72.6242932
  89.5759957 113.3801358  71.2125536  89.3784356 112.7870718  70.4876602
  89.0206621 113.0753568  71.9301474  97.5556680 113.2724464  73.3320129
  97.6105290 112.3198301  73.2562605  96.7447882 113.4283903  73.8161427
  98.7047874 117.2004587  64.5698412  98.2667304 116.4840446  64.1104049
  99.4458315 117.4280702  64.0083503  95.4949040 111.8901524  71.0910508
  94.6816906 112.1895694  71.4975700  95.9908034 111.4957213  71.8084990
 101.0923252 112.3543348  79.9225402 101.4472640 112.5814821  80.7819867
 101.7395383 112.6861725  79.3002657  94.9863115 109.4619879  76.7071743
  95.6262494 109.3208639  76.0094706  94.1540645 109.1754393  76.3310345
  95.7623419 118.7622310  72.8206735  96.5564017 118.2672630  72.6189310
  95.0515111 118.2340173  72.4574441  92.0706182 112.9065392  68.8966488
  91.1403770 112.8449847  69.1136450  92.1663654 112.3841344  68.1003129
  91.9891731 109.4320204  71.4844729  92.2498549 110.3465538  71.3753890
  92.8108904 108.9644647  71.6341342  93.4616657 110.8457962  78.6543554
  94.1339710 110.6375324  78.0056203  92.6346443 110.6480048  78.2148786
  99.3642229 107.4719902  80.6709215  98.7170144 108.1709852  80.5773691
 100.1343244 107.9056046  81.0385463  99.5406363 115.3100667  78.7306035
 100.4698423 115.4611827  78.5575002  99.1197393 115.3984688  77.8754681
  98.3394695 119.3351332  76.5004572  98.2005780 118.9670116  77.3730510
  97.5509291 119.8498971  76.3288530  99.8899910 118.7132935  73.8893410
  99.5549743 118.6733704  74.7851060  99.3903856 118.0477650  73.4163820
  93.8644154 114.1200565  79.4145991  93.7263952 113.3880803  80.0157530
  94.7749077 114.0309465  79.1330179 102.8259102 116.0588969  64.1630470
 102.2088272 115.3335797  64.0663522 102.3575590 116.8198329  63.8197544
  96.4926455 113.8320524  78.9029671  97.2026073 113.1913716  78.8616289
  96.4495763 114.0833419  79.8255852  95.2055389 110.8185742  80.7225310
  94.6692746 110.3676480  81.3746907  94.6172097 110.9531651  79.9795775
  94.6157648 110.2774393  63.2851774  93.7387114 110.1563194  62.9214021
  95.0915401 109.4860471  63.0330663  86.1359788 115.0651553  73.3793281
  86.8230827 114.7513283  72.7914296  85.9807916 115.9692918  73.1060532
  90.9394510 109.9541749  77.8078305  90.8552699 109.3467419  77.0728715
  90.1177216 110.4450768  77.8087801 101.1118224 108.4395313  73.1748500
 101.6086923 107.6865275  72.8549570 100.3405205 108.4759630  72.6091709
 102.1948004 117.1967000  70.7486923 101.2604283 117.3168463  70.5791628
 102.3724673 116.2939467  70.4846933  97.6953192 110.5812696  72.9020184
  97.3250980 110.0283736  73.5901090  98.1912285 109.9770829  72.3495184
 105.5820556 113.0384319  71.2836957 106.0481008 113.8712311  71.2097260
 106.0328056 112.5729301  71.9882216  95.5242391 121.0410191  79.9975202
  96.2251850 121.6746674  80.1504597  95.0537506 121.3824923  79.2370842
 103.5537218 105.4064906  75.3227859 102.6400298 105.6369133  75.4910066
 103.9830320 105.4903351  76.1741891 103.3243677 113.5954798  77.8227753
 102.6715127 113.8430706  77.1680205 103.7024057 112.7818937  77.4890230
  99.3731250 114.3374609  84.3093790  98.6971887 114.2368739  84.9796165
 100.1958884 114.1813823  84.7729787  91.1210109 120.5746546  76.9306305
  91.7063546 119.8290234  77.0634209  90.9234947 120.8850503  77.8142969
  85.7127764 113.1452146  75.6510748  85.7511863 112.6115737  76.4447866
  85.2068057 112.6187352  75.0321725  93.0918526 107.9916687  79.1473290
  93.1559853 108.8531518  78.7350688  93.0285646 107.3790688  78.4145649
  92.5670799 110.0639819  82.7946325  93.1942837 109.6816897  83.4083849
  91.7098717 109.8454021  83.1602017  89.3436341 111.8716248  68.7264680
  89.6389782 110.9626927  68.6731733  88.4424377 111.8503988  68.4045682
  92.8730588 109.9472245  74.7092228  92.1517174 110.5608213  74.5699701
  93.6623844 110.4830010  74.6308874  95.6756902 107.2826671  80.9832880
  96.1991304 107.5288968  81.7459189  95.4569235 108.1146706  80.5636017
  91.0724183 109.5530346  68.8504005  90.7436889 108.6727725  68.6679111
  91.4263554 109.4978015  69.7380394  94.1866006 109.8403316  69.2179482
  94.5262079 110.3689237  68.4958091  94.6338127 110.1783722  69.9938049
  96.8809447 108.2240367  78.6682550  96.5406267 107.4248180  79.0703230
  96.1748453 108.5242077  78.0959384  97.5325919 105.3089679  77.1209873
  98.3551988 104.8350157  76.9988764  97.7763982 106.0880163  77.6208560
  96.1734153 108.3377937  67.4172775  96.8942516 108.7159190  66.9136492
  95.5499457 109.0566814  67.5207753 100.3165276 109.0423086  68.3531108
 100.5328891 109.9247724  68.0519936  99.8359343 108.6509300  67.6236749
  95.0564498 112.0008800  74.9301852  94.9109078 112.3149103  75.8226134
  94.5789701 112.6193700  74.3772751  96.9160880 108.9911348  74.9782742
  96.9022449 108.0952441  74.6415040  97.6333308 108.9982011  75.6121028
  98.7687011 109.4248688  77.0235869  98.5104789 110.3465758  77.0220200
  98.2372051 109.0279122  77.7136333  89.5310160 114.5414144  77.8689513
  88.9863628 115.3173952  78.0009788  90.4089510 114.8884949  77.7108635
  96.3197776 107.8725728  70.2470312  96.4413688 106.9442374  70.4461199
  96.0299819 107.8864414  69.3348627  99.1888967 105.5580638  73.3837032
  99.2110664 105.6219971  72.4289011  99.6057026 104.7185147  73.5777538
  90.3176182 113.6684040  80.7619670  89.5757918 113.8166676  81.3484301
  89.9968926 113.9292306  79.8986420  90.7632795 121.5549469  72.7930065
  91.5890815 121.2553241  72.4128708  90.4126847 120.7857091  73.2419853
  95.7314328 120.9075937  74.8627738  95.1094338 120.2446642  74.5629966
  96.4019195 120.9337069  74.1801386  88.9641400 119.4735795  73.7518998
  88.1273309 119.0457970  73.5703000  88.9365046 119.6668239  74.6889790
  95.8038856 109.3857725  84.4560244  95.8527011 110.2619848  84.0738014
  96.3461370 108.8435118  83.8831888  95.2927835 119.4579861  68.3386199
  95.4415956 120.1415325  67.6852872  96.0994279 119.4384951  68.8535655
 103.6995339 112.7622243  82.3653417 104.6005202 112.6228708  82.0737415
 103.7743313 112.9276698  83.3051594  98.0338144 110.1389098  81.2106603
  97.1641454 110.4322664  80.9389192  98.2697625 110.7229543  81.9313867
  93.0480468 115.4845038  69.3447268  92.8026510 114.5807368  69.5427478
  93.2176383 115.4862189  68.4026746 100.7377178 106.3568715  78.7272023
 101.2559122 107.0929742  78.4018512 100.3832311 106.6632708  79.5618783
  92.3176116 111.2173396  66.8433429  91.6245361 111.2917751  66.1873465
  92.0727868 110.4533739  67.3654946 100.9889772 102.7768997  74.2472920
 101.2691526 102.1092186  74.8733347 101.7740379 102.9698093  73.7347584
 104.8598631 111.1986631  77.9944495 105.8116054 111.2984729  78.0156719
 104.6902081 110.4064900  78.5042580 102.8813010 108.2842214  78.1803896
 102.2862942 108.5647227  77.4850385 102.5962707 108.7736115  78.9520637
  99.1770039 113.2888804  63.1513999 100.1229144 113.1595012  63.2202417
  98.7984284 112.5503466  63.6283427 107.4881197 111.2103794  77.1545078
 106.9720246 110.4262251  76.9675007 108.3721145 110.8822511  77.3191597
 105.1491924 104.9544810  73.1140891 104.9516745 104.6459898  73.9984223
 105.7591629 105.6806449  73.2438821  99.0608732 117.3406550  84.6114656
  99.9811741 117.5185149  84.8054702  99.0258315 116.3962595  84.4594355
  97.3612956 111.2138780  63.0868884  96.4544412 110.9171893  63.1631598
  97.6388937 110.9168598  62.2203170  88.2790897 112.5345144  73.5367930
  87.9593681 111.6810452  73.2442304  87.7324325 112.7493722  74.2925898
  92.0570804 115.2507585  77.2537437  92.2756814 116.1824692  77.2725471
  92.4696578 114.8915559  78.0392241  98.9775022 105.7575670  69.2413125
  98.1675750 105.4122755  69.6168371  99.6659439 105.4483214  69.8300737
 100.9065570 104.8353717  70.8637422 101.4596609 105.2549170  71.5227445
 101.1435657 103.9089465  70.9060378  96.9298670 110.8240790  86.6440186
  96.8295397 111.7735147  86.5752277  96.7120212 110.4959029  85.7716256
  96.1311741 108.0725715  63.2280863  96.9930905 108.3980614  63.4876681
  96.3162085 107.2857211  62.7153929  88.1479157 116.1548055  75.5061052
  87.4542628 115.7402008  74.9931006  88.8952148 116.1968592  74.9094471
 104.2844378 106.9454242  70.3716086 103.7043047 107.6039046  69.9894139
 104.0180310 106.1231586  69.9603504 102.7347944 106.3459300  72.5737407
 103.2347722 106.4575834  71.7651725 103.3783552 106.0420352  73.2138215
  96.7929940 114.2537929  85.4605248  96.3097021 115.0538289  85.6669137
  96.8790879 114.2645874  84.5072692  90.0615899 116.0866309  73.3827067
  90.0386587 116.1853996  72.4308950  90.3716536 116.9331460  73.7044233
  92.7203277 118.1442464  77.4973681  93.6746531 118.1126406  77.4303613
  92.5215801 117.6833088  78.3123907  93.3102659 116.7143580  80.0644479
  94.1295548 117.2087659  80.0879316  93.5839467 115.7975548  80.0362047
 103.0669256 109.1054332  69.4272435 102.1795111 109.3903983  69.2092629
 103.4823245 108.9448096  68.5799711 106.4183792 109.1300853  73.1426774
 107.1944182 109.6197306  73.4151391 105.6931926 109.5558907  73.5998643
 108.8556350 109.8428472  74.2000714 109.4500841 109.6024208  73.4894023
 108.9282934 109.1235603  74.8274251  91.0753506 123.6862083  74.5143879
  90.9407974 122.9262484  73.9481877  90.6585568 124.4102983  74.0472668
 103.0410279 114.6208868  69.6422725 102.9845481 115.0777420  68.8030357
 103.5938622 113.8599553  69.4645567 106.8515085 110.4098600  70.4672844
 106.5952019 110.0095236  71.2981052 106.2267953 111.1242394  70.3422983
 103.7745059 115.8113649  66.9375254 103.7193862 115.6457921  65.9963698
 103.1491114 116.5189682  67.0937444  88.5637574 111.0481714  80.7636676
  89.2096437 110.5380668  81.2523901  88.3554725 111.7850395  81.3380101
  97.0841184 105.3121758  66.5160572  97.0719854 106.2563598  66.6728843
  97.9764606 105.1291904  66.2220033 100.8993304 101.9064535  70.7706509
 100.1325699 101.3523022  70.9163191 101.3104009 101.9786404  71.6320661
  92.9035065 108.1949331  84.8611690  93.7666526 107.8386136  85.0715015
  92.3300475 107.8563226  85.5487095  36.8727161  -0.4730114  62.3919398
  37.5105571  -0.5923367  61.6882738  36.7548004   0.4750730  62.4507350
  33.6816868  -0.5202686  62.3280923  33.3435379  -0.6361621  61.4401458
  34.5506636  -0.9211521  62.3081929  29.5403683   1.3332791  58.3177814
  28.9768548   1.2422728  57.5494101  29.4256078   0.5132695  58.7980306
  34.1636651   0.6332166  68.2867128  34.1525291   0.2384964  67.4147632
  34.3257290  -0.1001761  68.8800900  27.0868115   2.8283982  61.1562034
  27.8789407   2.4874807  60.7408333  27.3264765   2.9378957  62.0764187
  35.1203242   5.0003758  53.6292279  34.4691222   5.5857839  53.2426292
  35.9147605   5.5309953  53.6887316  29.0458869   2.0892895  54.0279413
  29.8189745   1.5421883  53.8892289  29.3984268   2.9537145  54.2393874
  30.8843912   3.4169278  67.2346312  30.5933778   4.3214909  67.1192978
  31.5200896   3.4585805  67.9490382  31.8100119   0.7946126  63.8247672
  32.4063691   0.5702149  63.1104635  31.8675090   0.0530872  64.4273120
  31.3825147  -1.7514438  51.6597863  31.6350668  -2.2732917  50.8981326
  30.4449706  -1.9148293  51.7624546  36.4268430  -2.7478660  59.4672606
  37.2131519  -3.1659237  59.1163023  36.6907134  -1.8432568  59.6354254
  36.5978507   2.6894190  54.1661263  35.9624340   2.7628817  54.8782167
  36.2675914   3.2787789  53.4880342  41.8276857  -2.8103427  60.3705585
  42.5602029  -3.3804210  60.6043414  41.0716213  -3.1981826  60.8112090
  31.1021436   0.1513668  53.8622238  30.9857694  -0.5241429  54.5303322
  31.2123696  -0.3353959  53.0454391  33.4452977  -0.3876185  57.5668927
  33.0811184  -0.9145564  58.2781848  34.3020093  -0.7777716  57.3935412
  35.8433797   3.1030693  64.2296106  35.5434520   4.0055732  64.1211913
  35.4984856   2.8362876  65.0817259  29.2946278  -0.4455510  60.2632810
  28.3696775  -0.5779296  60.4710502  29.5430692   0.3338709  60.7602753
  39.2430941  -4.3786767  61.9093543  38.3347818  -4.4471358  61.6152304
  39.1918536  -3.9014822  62.7375369  33.0647685  -2.9028628  53.5476942
  32.9447310  -2.4571577  54.3862423  32.3700273  -2.5543310  52.9890480
  30.8254577   9.8675014  57.1967074  30.7478606  10.8182839  57.2755554
  30.2216220   9.5220886  57.8542000  33.3171806  -2.9597121  69.8528440
  32.5405140  -2.4003201  69.8431305  33.9562369  -2.4740338  70.3743311
  41.1092587  -6.1770328  63.6871417  40.4666967  -5.8837795  63.0411212
  40.6047516  -6.2917408  64.4924614  38.7632751  -2.4307155  54.3757276
  39.6750607  -2.1979768  54.2004974  38.2542398  -1.8470111  53.8132355
  31.5718179  -0.1511668  69.4146407  32.3132863   0.3873376  69.1381231
  30.8655164   0.4754621  69.5717959  37.0473518   1.9917473  68.0118569
  37.4556874   1.5499883  67.2673201  36.3250780   1.4170100  68.2652762
  33.4004588  -3.0709920  65.3852126  34.2465784  -2.6470507  65.5286775
  33.3403226  -3.7276296  66.0790689  37.3702333   2.5518663  61.7670858
  36.7411195   2.7164378  61.0646926  36.9827995   2.9660273  62.5381822
  41.2491565   3.4873101  59.1215222  40.5642603   3.8672003  58.5712255
  41.3335414   4.0968428  59.8547169  36.5504034  -5.4105552  67.0433300
  36.3064966  -4.6563491  66.5067575  36.8263964  -5.0320204  67.8780547
  38.5042497   1.1333060  65.7210565  38.7159392   1.7764820  65.0444946
  38.4572245   0.2995377  65.2532495  36.1068725  -6.2549119  62.6247137
  35.2453205  -5.9567865  62.9163875  36.1331160  -6.0378720  61.6928170
  32.9230295   2.2893072  59.0320943  33.3868640   2.5680775  58.2425565
  32.6587093   1.3876516  58.8494034  29.8154376   1.8364553  61.9700706
  30.3855733   2.2651821  61.3318191  30.4062488   1.5547138  62.6684892
  31.8599181  -1.5883776  55.8410508  32.5623224  -1.1362732  56.3084434
  31.5279809  -2.2299957  56.4690401  39.6188324   4.0105016  63.8932922
  40.4405768   3.6085203  63.6115604  39.6150727   3.9073250  64.8449038
  33.3844928   3.5589059  66.0493633  33.4489360   4.0209466  66.8851805
  32.6755852   2.9286424  66.1775943  47.7094318   0.3543764  60.2417894
  46.9558026  -0.2148838  60.0861898  47.8441859   0.3206429  61.1888529
  33.0992946   5.2257167  55.9172613  32.9638620   6.0708702  56.3457461
  33.6402758   5.4276444  55.1538547  26.5522343   2.7432605  56.4900538
  27.0646864   3.5375855  56.6406103  27.2045056   2.0458895  56.4234140
  28.3617228   5.8598361  58.5723292  28.5383856   6.7816326  58.3844275
  29.1574061   5.5456780  59.0017671  34.7261422   5.8480733  70.0472955
  34.2825276   5.0617112  69.7293860  35.3878636   6.0359884  69.3816846
  29.4848543   7.3776535  64.5733634  30.0355968   7.2493598  63.8010628
  28.6460019   7.6771424  64.2228527  36.8242660   6.1283533  68.0754357
  36.8061135   6.9492414  67.5834626  37.7462580   6.0037608  68.3004498
  33.2815714   3.6427662  68.9177865  33.8144051   2.8815951  68.6877173
  32.7529795   3.3501314  69.6602019  36.4135692  -1.2603660  52.9543942
  35.8982315  -0.4899056  53.1932329  36.1413000  -1.9338524  53.5777003
  41.3869966   1.4928694  54.8897115  40.6099409   1.1539854  54.4452277
  42.0661447   1.4981317  54.2152080  36.2021995  -3.3876568  54.7803723
  35.8972131  -3.0730419  55.6313866  37.1552437  -3.3095148  54.8231056
  34.6468427   2.7713655  56.4296677  34.1189788   2.0366415  56.1169914
  34.1455930   3.5488331  56.1836645  39.6261273   0.9662675  61.5463723
  38.9684947   1.6561937  61.6343852  40.4301672   1.3559107  61.8897710
  38.4366732  -0.6792952  59.5967665  38.9498613  -0.0462960  60.0989375
  39.0867956  -1.2791756  59.2311025  32.7921027   0.5893865  49.4331650
  31.8848089   0.3583119  49.6322799  33.2892059  -0.2068516  49.6205632
  35.6989106   9.2991372  52.3528336  35.0250805   9.6023069  52.9613294
  36.0854928  10.1020453  52.0033793  34.9147563  -3.2043496  61.8426006
  33.9970124  -2.9828549  61.6847694  35.3307706  -3.1297186  60.9837713
  35.6982610  -1.8052081  56.9728686  36.4454429  -1.2930683  56.6635808
  35.9674200  -2.1268028  57.8333079  33.9709261   0.6906460  53.9555640
  33.0620480   0.4065493  54.0528110  34.0004344   1.1105539  53.0958947
  39.2028528   4.3013050  57.7246808  38.7490855   3.4603959  57.7811998
  38.5722495   4.9374448  58.0621588  38.1461447  -4.7694964  58.9547475
  37.4084204  -5.2817578  59.2857718  38.3988221  -5.2094583  58.1430752
  37.6461467   6.1389546  58.6596626  37.9384442   6.6994603  57.9408991
  38.1560088   6.4318107  59.4149785  32.5194155  -1.6964919  60.0565435
  32.5742764  -2.6491083  59.9807912  31.7085357  -1.5405480  60.5406734
  33.6685348   2.2315204  51.2943719  33.2304778   1.5151063  50.8349356
  34.4095789   2.4591319  50.7328810  32.6095092   6.9169897  59.7490079
  32.5671271   7.1430744  58.8198611  33.5257791   6.6833272  59.8975880
  36.0560726  -2.6146035  66.6470708  36.4110114  -2.3874562  67.5065174
  36.7032857  -2.2827658  66.0247964  41.7858463   0.5072401  57.3520037
  41.6476362   0.6973997  56.4241226  41.4294682   1.2691784  57.8088088
  41.8127843   2.5748928  62.3631309  42.2464349   2.4824217  63.2114363
  42.5259423   2.5506428  61.7251325  30.7260893   3.7932926  59.5452042
  31.5201492   3.2983247  59.3434617  30.0152586   3.2650790  59.1819747
  35.5455738   6.1751022  63.8964409  35.5992760   6.7441958  64.6642125
  34.6770519   6.3452907  63.5318447  42.6743392   2.6172628  64.8964194
  42.8679282   3.5218439  65.1423469  42.5744010   2.1580048  65.7302779
  37.7358501   2.7679371  70.4705075  37.5844007   2.5389923  69.5535158
  37.7263180   3.7249973  70.4836420  34.5043837   0.3411284  65.4551341
  35.4335897   0.4922444  65.2820309  34.0834867   0.4295305  64.5999988
  33.3032169   4.3661948  63.2249879  33.1643255   3.9980733  64.0975817
  32.5146765   4.8809588  63.0533837  33.8980321   9.4671045  54.5675415
  34.0732077   8.9959088  55.3821038  33.2113109  10.0936811  54.7956676
  34.8537384   3.7443551  60.6138717  34.5187217   3.7044321  61.5096367
  34.3541330   3.0788267  60.1409127  28.8281628  -0.8488819  66.1391298
  28.6901426  -1.5808580  66.7402837  29.7386552  -0.9379919  65.8575486
  37.7896576   1.0899585  50.8875776  37.1725747   0.3646414  50.7908829
  37.3213064   1.8508946  50.5442851  31.4563929  -1.1368860  65.6274977
  32.1663547  -1.7775667  65.5861596  31.4133237  -0.8855965  66.5501158
  39.4450708   5.7998494  68.5481557  39.3863254   5.1157714  67.8812140
  39.8470226   6.5417484  68.0962183  28.4641406  12.6160408  61.3415276
  28.7038005  13.2478932  62.0194294  27.6210603  12.2648448  61.6280635
  39.4468115   3.7638078  66.7795536  38.5594894   3.4263999  66.9021935
  40.0166666   3.0321109  67.0164302  32.9769268   8.4239530  63.7456780
  32.9039440   9.2294502  64.2576084  32.5346661   8.6231496  62.9204801
  32.7659048   7.6611300  57.2559601  31.9826570   8.2032980  57.3497826
  33.4651793   8.1785280  57.6553842  36.0755698  -6.5294070  59.8993806
  36.5724398  -7.2824108  59.5794877  35.3042679  -6.4929754  59.3337016
  43.9285455  -0.8253705  61.5412098  43.9175332   0.0571010  61.1706031
  43.0602835  -1.1782154  61.3466635  35.4367952   8.3226364  65.9014938
  36.1495924   8.9573829  65.8290840  34.9457980   8.4190230  65.0854940
  37.1585479   2.2277617  57.4732230  36.2241757   2.3479079  57.3036934
  37.3362147   1.3250084  57.2092240  40.5458030  -1.9305064  58.0082264
  41.0118482  -1.0977072  57.9342567  40.9965531  -2.3960082  58.7127522
  30.4879865   6.0720808  66.7220509  31.1889325   6.7057290  66.8749903
  30.0174980   6.4135539  65.9616148  38.6134261   4.4138757  55.0068416
  38.8894105   4.2995352  55.9162290  37.7438760   4.0156242  54.9680589
  38.2881151  -1.3734585  64.5473059  37.6352602  -1.1258678  63.8925512
  38.6661531  -2.1870447  64.2135537  35.2488325   8.6625108  58.6501230
  35.4310720   7.8446764  59.1128982  36.0721311   8.8792800  58.2126120
  35.5830491   7.5893293  55.9116278  36.1118257   7.0785748  55.2986440
  35.8458710   7.2735823  56.7761811  34.3368724  -0.6314774  71.0339096
  33.6609361  -0.7320645  71.7041472  35.1596358  -0.7875560  71.4975094
  26.0847583   5.6057163  63.6551612  26.6701020   4.8600850  63.7879516
  25.8872422   5.9161119  64.5388276  28.9386239   8.6408410  58.6714054
  28.2696614   9.1254538  58.1878094  28.7999108   8.8877630  59.5857433
  33.0791507  10.6752153  65.2696712  33.6309815  10.8383775  66.0345798
  33.4197701  11.2656591  64.5976737  37.9302381   5.5013411  71.1245367
  38.4742285   6.1143369  70.6300322  37.3489226   6.0592989  71.6412380
  36.2159894   8.6234129  62.2560395  36.0911034   7.8223869  61.7471340
  36.8738986   9.1180322  61.7674365  38.2794803   6.4243149  63.8839945
  37.3325138   6.3048500  63.8118271  38.6277576   5.5365647  63.9666206
  35.2841236   6.2195865  60.0844297  35.1366199   5.2912573  60.2651867
  36.1094730   6.2415956  59.6001372  38.8875358   7.0424424  61.1709170
  39.8121905   6.8367285  61.0333621  38.7190661   6.7940825  62.0798511
  38.6770674   7.5610091  56.5271261  38.8507552   6.9956514  55.7745114
  39.1699565   8.3610986  56.3450751  44.5310065   0.3246514  58.1461561
  44.9741211  -0.4246160  57.7480684  43.6536576   0.3156651  57.7635293
  39.6645847   6.8776856  53.6268159  40.3596751   7.4983549  53.8455474
  40.0068997   6.0272207  53.9020537  41.5637270   4.3276561  55.1555490
  42.0888594   4.6663834  54.4304810  41.4759622   3.3923577  54.9718625
  33.2257318   8.2410635  67.2845367  33.5344445   7.9959782  68.1568066
  34.0232801   8.4457274  66.7964237  33.2477931  10.3948545  59.5150743
  32.8082921   9.9024923  60.2083600  33.9986047   9.8521512  59.2742819
  25.7270270   6.5860086  59.5175371  26.5528289   6.2863857  59.1374015
  25.3764322   5.8167708  59.9665160  30.6951803   5.9386554  61.5873045
  30.0731812   5.2757259  61.2875273  31.3656670   5.9647686  60.9046693
  23.9278875   4.5046412  60.4764305  23.0910783   4.0768586  60.2948306
  23.9002520   4.6978855  61.4135096  41.2531176   4.9609465  70.4606688
  40.4626720   4.9433604  69.9211188  41.0164530   5.4997759  71.2155725
  41.3729051   1.8101931  67.7739417  41.4227056   1.6451939  68.7154939
  41.2642974   0.9429190  67.3837297  30.2565310   4.4890477  55.0631506
  30.4053430   5.1725942  54.4098178  31.0631753   4.4695567  55.5780961
  38.6632813  -2.2067141  69.0898723  39.5642676  -2.3460676  68.7982721
  38.7380788  -2.0412686  70.0296901  42.8747248   4.2298873  68.0181438
  42.5832056   4.5928854  68.8544899  42.2619379   3.5165881  67.8394770
  44.0742930   1.7951753  60.5384008  44.9089821   2.2341557  60.7021569
  44.2102059   1.3190406  59.7192254  41.1234436  -0.6468512  66.4861496
  41.5988558  -0.4540866  65.6780348  40.2000001  -0.5909327  66.2404880
  28.0117943   0.5155655  56.0692574  27.7663985  -0.3882015  56.2672785
  28.1813857   0.5172805  55.1272052  33.7560715   6.9838608  52.5343253
  33.1834682   7.6028795  52.0813725  34.3293509   7.5337969  53.0683175
  39.8236105  -3.7702752  64.7189802  40.7753528  -3.6704655  64.7402026
  39.6539555  -4.5624484  65.2287886  37.8450484  -6.6847169  64.9049203
  37.2500417  -6.4042156  64.2095691  37.5600181  -6.1953268  65.6765944
  36.9757975   7.2675758  53.6651835  37.9088648   7.2021319  53.8684711
  36.8881188   8.1032025  53.2066368  39.6045992   6.5841628  50.6255783
  39.5259623   6.2501492  51.5191541  40.4255658   7.0763396  50.6247255
  42.3024183  -0.5496633  63.8332101  42.2700503  -1.4880632  64.0191785
  42.9124806  -0.4712596  63.0997926  34.1407514  -1.6800580  49.8759305
  35.0866618  -1.8094372  49.9447724  33.7621759  -2.4185918  50.3528734
  42.4518671  -3.7585589  63.8790385  41.9357720  -4.5427133  63.6920313
  43.3358620  -4.0866873  64.0436904  48.1200733   0.5119374  62.9738138
  48.8504121   0.2504662  63.5345842  47.5107678  -0.2251904  63.0140206
  46.2016030  -1.3472763  63.5712589  45.4749193  -1.4816798  62.9629081
  45.7863317  -1.0395935  64.3769307  34.0246206   2.3717166  71.3359962
  34.9449216   2.5495765  71.5300009  33.9895789   1.4273212  71.1839662
  27.0208279   0.2818201  63.9782744  27.2394288   1.2135309  63.9970777
  27.4334053  -0.0773824  64.7637547  39.2481852  -8.0235142  57.0961393
  38.6680521  -7.3650338  56.7139445  38.9817785  -8.8457797  56.6848810
  31.7567414  -0.7151454  72.1850554  31.2734496   0.0848906  72.3914443
  31.8428353  -0.7043509  71.2317998  25.0253374   1.1176925  60.1072374
  25.0024062   1.2164613  59.1554257  25.3354010   1.9642076  60.4289540
  27.6840752   3.1753080  64.2218988  28.6384005   3.1437023  64.1548920
  27.4853275   2.7143704  65.0369214  28.2740134   1.7454196  66.7889786
  29.0933023   2.2398275  66.8124623  28.5476941   0.8286165  66.7607353
  38.0306730  -5.8635051  56.1517741  37.1432585  -5.5785401  55.9337936
  38.4460719  -6.0241288  55.3045018  41.3821266  -5.8388530  59.8672080
  42.1581656  -5.3492078  60.1396697  40.6569400  -5.4130476  60.3243950
  43.8193825  -5.1260911  60.9246021  44.4138315  -5.3665175  60.2139329
  43.8920408  -5.8453780  61.5519557  26.0390980   8.7172700  61.2389186
  25.9045448   7.9573101  60.6727184  25.6223043   9.4413600  60.7717975
  37.1749943   3.9009623  50.2465761  37.8785793   4.1059626  50.8623417
  36.4512592   4.4686385  50.5114845  38.0047754  -0.3480515  56.3668031
  37.9482955   0.1088036  55.5275664  38.5576096  -1.1089831  56.1890874
  41.8152560  -4.5590783  57.1918151  41.5589494  -4.9594148  58.0226359
  41.1905428  -3.8446989  57.0668290  46.1264897  -1.8194710  59.6989442
  45.5664455  -1.7501521  60.4721004  45.5208401  -1.9953726  58.9788938
  29.1960106   9.6142017  61.4507629  29.0792490  10.5587449  61.3486319
  28.3752552   9.3115578  61.8393428  39.0836641   4.3392153  52.2964221
  39.9182245   3.9073351  52.1141696  38.9220984   4.1674166  53.2241116
  38.7382533   0.8424266  53.6620561  38.6831337   0.6768537  52.7209005
  38.1128588   1.5500299  53.8182750  36.0528440   3.1473178  72.9874123
  36.9219600   3.3213830  72.6260758  35.5735192   3.9667595  72.8649853
  30.2214620  10.2670279  64.6663557  31.1241867  10.2993889  64.9830052
  29.9951990   9.3370730  64.6809893  31.9768222   9.0201265  61.3273636
  31.0263853   9.0203127  61.2138008  32.2800709   8.2734000  60.8109670
  47.7120916  14.8561804  62.3919398  48.3499326  14.7368551  61.6882738
  47.5941759  15.8042648  62.4507350  44.5210622  14.8089232  62.3280923
  44.1829134  14.6930297  61.4401458  45.3900390  14.4080397  62.3081929
  40.3797438  16.6624708  58.3177814  39.8162303  16.5714645  57.5494101
  40.2649833  15.8424613  58.7980306  45.0030405  15.9624084  68.2867128
  44.9919046  15.5676882  67.4147632  45.1651045  15.2290156  68.8800900
  37.9261870  18.1575900  61.1562034  38.7183162  17.8166725  60.7408333
  38.1658520  18.2670875  62.0764187  45.9596997  20.3295676  53.6292279
  45.3084976  20.9149756  53.2426292  46.7541359  20.8601871  53.6887316
  39.8852624  17.4184813  54.0279413  40.6583500  16.8713800  53.8892289
  40.2378023  18.2829062  54.2393874  41.7237666  18.7461195  67.2346312
  41.4327532  19.6506826  67.1192978  42.3594651  18.7877723  67.9490382
  42.6493873  16.1238044  63.8247672  43.2457445  15.8994066  63.1104635
  42.7068845  15.3822789  64.4273120  42.2218902  13.5777479  51.6597863
  42.4744422  13.0559001  50.8981326  41.2843461  13.4143625  51.7624546
  47.2662184  12.5813258  59.4672606  48.0525274  12.1632681  59.1163023
  47.5300889  13.4859350  59.6354254  47.4372262  18.0186108  54.1661263
  46.8018095  18.0920734  54.8782167  47.1069668  18.6079707  53.4880342
  52.6670611  12.5188491  60.3705585  53.3995783  11.9487708  60.6043414
  51.9109967  12.1310091  60.8112090  41.9415190  15.4805585  53.8622238
  41.8251448  14.8050489  54.5303322  42.0517450  14.9937959  53.0454391
  44.2846731  14.9415732  57.5668927  43.9204938  14.4146353  58.2781848
  45.1413847  14.5514201  57.3935412  50.1896032   6.2310065  64.8300193
  49.8579357   7.1005476  64.6061408  49.5941645   5.9146349  65.5094224
  43.9252218   9.9705632  52.5630275  44.0926621  10.8385868  52.9300747
  43.7349387  10.1332914  51.6391565  46.6827551  18.4322611  64.2296106
  46.3828274  19.3347650  64.1211913  46.3378611  18.1654794  65.0817259
  40.1340033  14.8836408  60.2632810  39.2090529  14.7512622  60.4710502
  40.3824446  15.6630627  60.7602753  50.0824695  10.9505151  61.9093543
  49.1741572  10.8820560  61.6152304  50.0312291  11.4277096  62.7375369
  43.9041439  12.4263290  53.5476942  43.7841064  12.8720340  54.3862423
  43.2094027  12.7748607  52.9890480  37.4948844  14.5269681  61.0976599
  37.6241225  14.7804160  62.0116011  36.8146295  15.1197389  60.7781254
  41.6648331  25.1966931  57.1967074  41.5872361  26.1474756  57.2755554
  41.0609975  24.8512804  57.8542000  44.1565561  12.3694797  69.8528440
  43.3798895  12.9288717  69.8431305  44.7956124  12.8551580  70.3743311
  51.9486342   9.1521590  63.6871417  51.3060722   9.4454123  63.0411212
  51.4441270   9.0374510  64.4924614  49.6026505  12.8984763  54.3757276
  50.5144361  13.1312149  54.2004974  49.0936152  13.4821807  53.8132355
  42.4111933  15.1780250  69.4146407  43.1526618  15.7165294  69.1381231
  41.7048919  15.8046539  69.5717959  47.8867273  17.3209391  68.0118569
  48.2950629  16.8791801  67.2673201  47.1644534  16.7462018  68.2652762
  44.2398343  12.2581997  65.3852126  45.0859538  12.6821411  65.5286775
  44.1796981  11.6015622  66.0790689  48.2096088  17.8810581  61.7670858
  47.5804950  18.0456295  61.0646926  47.8221750  18.2952191  62.5381822
  52.0885319  18.8165019  59.1215222  51.4036358  19.1963920  58.5712255
  52.1729169  19.4260346  59.8547169  47.3897788   9.9186366  67.0433300
  47.1458720  10.6728426  66.5067575  47.6657719  10.2971713  67.8780547
  49.3436251  16.4624978  65.7210565  49.5553146  17.1056738  65.0444946
  49.2965999  15.6287295  65.2532495  46.9462480   9.0742799  62.6247137
  46.0846959   9.3724052  62.9163875  46.9724915   9.2913198  61.6928170
  43.7624049  17.6184989  59.0320943  44.2262395  17.8972692  58.2425565
  43.4980847  16.7168434  58.8494034  40.6548130  17.1656471  61.9700706
  41.2249488  17.5943739  61.3318191  41.2456242  16.8839055  62.6684892
  42.6992935  13.7408142  55.8410508  43.4016979  14.1929185  56.3084434
  42.3673564  13.0991960  56.4690401  41.1473297  12.3319898  70.2161717
  40.5171958  13.0136179  70.4497114  41.0409385  12.2202980  69.2714856
  36.4418269  11.9991694  61.1427642  35.6517323  12.2549223  60.6667752
  36.9329517  12.8140032  61.2479682  50.4582079  19.3396933  63.8932922
  51.2799523  18.9377121  63.6115604  50.4544482  19.2365168  64.8449038
  38.3933015  12.3636274  58.1011118  37.5964178  12.4754968  58.6194614
  38.1658607  12.7022926  57.2352009  44.2238682  18.8880977  66.0493633
  44.2883115  19.3501384  66.8851805  43.5149606  18.2578342  66.1775943
  34.7255972  12.2522185  63.5742632  34.9764011  13.1369195  63.8400208
  35.2615521  12.0726786  62.8017724  58.5488072  15.6835682  60.2417894
  57.7951780  15.1143080  60.0861898  58.6835613  15.6498346  61.1888529
  43.9386700  20.5549084  55.9172613  43.8032375  21.4000620  56.3457461
  44.4796513  20.7568362  55.1538547  40.4254040   6.6340664  72.5786968
  40.0320985   6.0806863  73.2534613  41.2420180   6.9451243  72.9693486
  37.3916097  18.0724522  56.4900538  37.9040618  18.8667773  56.6406103
  38.0438810  17.3750813  56.4234140  39.2010982  21.1890279  58.5723292
  39.3777610  22.1108243  58.3844275  39.9967816  20.8748698  59.0017671
  43.3422001   8.0498543  70.1707225  44.0831714   8.6505696  70.0911688
  43.5739924   7.3076181  69.6125268  38.4863339  13.2354910  68.4485455
  38.3716854  12.3340168  68.7492554  37.6307856  13.4818607  68.0970271
  45.5655176  21.1772651  70.0472955  45.1219031  20.3909029  69.7293860
  46.2272390  21.3651801  69.3816846  40.3242298  22.7068452  64.5733634
  40.8749723  22.5785516  63.8010628  39.4853774  23.0063341  64.2228527
  47.6636415  21.4575451  68.0754357  47.6454890  22.2784332  67.5834626
  48.5856335  21.3329526  68.3004498  44.1209469  18.9719580  68.9177865
  44.6537805  18.2107868  68.6877173  43.5923550  18.6793232  69.6602019
  47.2879164   4.0779646  64.4471507  46.9443433   4.9681288  64.3710617
  47.6558126   3.8881304  63.5841092  35.3565014  16.4013177  57.2660109
  36.1940236  16.8110185  57.0493817  35.5343282  15.4612619  57.2360303
  47.2529446  14.0688257  52.9543942  46.7376070  14.8392862  53.1932329
  46.9806755  13.3953393  53.5777003  44.8376557   8.9137958  58.0129180
  43.9818154   8.5244808  57.8334819  45.2503509   8.9929919  57.1528966
  46.3675704   6.4484301  62.4120740  45.8640500   6.4114436  61.5988545
  46.6606311   7.3577044  62.4717397  42.6118590   6.5323031  61.4186922
  43.4771587   6.3365840  61.0592811  42.6796099   6.3033383  62.3456278
  52.2263720  16.8220612  54.8897115  51.4493163  16.4831771  54.4452277
  52.9055201  16.8273235  54.2152080  47.0415750  11.9415349  54.7803723
  46.7365885  12.2561498  55.6313866  47.9946192  12.0196769  54.8231056
  45.4862181  18.1005573  56.4296677  44.9583543  17.3658332  56.1169914
  44.9849684  18.8780249  56.1836645  50.4655027  16.2954593  61.5463723
  49.8078702  16.9853855  61.6343852  51.2695427  16.6851025  61.8897710
  40.2180909   8.7625239  58.7903289  40.7924661   8.5400420  58.0576481
  40.8051891   8.8313933  59.5431890  49.2760486  14.6498966  59.5967665
  49.7892368  15.2828958  60.0989375  49.9261710  14.0500161  59.2311025
  40.5450496  10.7929700  52.8099174  39.7087808  11.1304386  53.1308449
  40.4055266  10.6578680  51.8726311  42.5203577   5.6366488  57.5178358
  41.8667989   5.3215505  56.8934973  42.4784051   5.0142228  58.2438181
  43.6314782  15.9185783  49.4331650  42.7241843  15.6875036  49.6322799
  44.1285814  15.1223402  49.6205632  46.5382860  24.6283290  52.3528336
  45.8644559  24.9314987  52.9613294  46.9248682  25.4312370  52.0033793
  45.7541317  12.1248421  61.8426006  44.8363878  12.3463368  61.6847694
  46.1701461  12.1994732  60.9837713  46.5376365  13.5239837  56.9728686
  47.2848184  14.0361234  56.6635808  46.8067954  13.2023890  57.8333079
  44.8103015  16.0198378  53.9555640  43.9014234  15.7357411  54.0528110
  44.8398099  16.4397456  53.0958947  50.0422282  19.6304967  57.7246808
  49.5884610  18.7895877  57.7811998  49.4116249  20.2666366  58.0621588
  48.9855202  10.5596953  58.9547475  48.2477959  10.0474339  59.2857718
  49.2381976  10.1197335  58.1430752  48.4855222  21.4681464  58.6596626
  48.7778196  22.0286521  57.9408991  48.9953842  21.7610025  59.4149785
  49.0866829   3.3373205  59.5489244  49.3925706   2.4770569  59.2615159
  49.8119434   3.9290825  59.3488238  35.3791185  13.7403892  57.9370842
  35.1815585  13.1473253  57.2121909  34.8237849  13.4356102  58.6546781
  43.3587909  13.6326998  60.0565435  43.4136519  12.6800835  59.9807912
  42.5479111  13.7886437  60.5406734  44.5079103  17.5607121  51.2943719
  44.0698533  16.8442980  50.8349356  45.2489544  17.7883236  50.7328810
  41.2980269  12.2504058  57.8155814  40.4848134  12.5498229  58.2221006
  41.7939263  11.8559747  58.5330297  43.4488847  22.2461815  59.7490079
  43.4065026  22.4722661  58.8198611  44.3651546  22.0125190  59.8975880
  46.8954481  12.7145883  66.6470708  47.2503868  12.9417356  67.5065174
  47.5426612  13.0464259  66.0247964  52.6252218  15.8364318  57.3520037
  52.4870116  16.0265914  56.4241226  52.2688436  16.5983701  57.8088088
  40.7894344   9.8222414  63.4317049  41.4293723   9.6811173  62.7340013
  39.9571874   9.5356927  63.0555651  52.6521597  17.9040845  62.3631309
  53.0858104  17.8116135  63.2114363  53.3653178  17.8798346  61.7251325
  41.5654648  19.1224844  59.5452042  42.3595246  18.6275164  59.3434617
  40.8546340  18.5942707  59.1819747  46.3849492  21.5042940  63.8964409
  46.4386514  22.0733876  64.6642125  45.5164273  21.6744825  63.5318447
  37.8737411  13.2667926  55.6211794  36.9434999  13.2052381  55.8381757
  37.9694883  12.7443879  54.8248436  37.7922960   9.7922739  58.2090036
  38.0529777  10.7068072  58.0999197  38.6140132   9.3247181  58.3586649
  39.2647885  11.2060496  65.3788861  39.9370939  10.9977858  64.7301510
  38.4377672  11.0082582  64.9394093  53.5137147  17.9464546  64.8964194
  53.7073037  18.8510357  65.1423469  53.4137765  17.4871965  65.7302779
  45.1673457   7.8322437  67.3954522  44.5201373   8.5312386  67.3018998
  45.9374473   8.2658581  67.7630770  48.5752255  18.0971289  70.4705075
  48.4237762  17.8681841  69.5535158  48.5656935  19.0541890  70.4836420
  45.3437592  15.6703202  65.4551341  46.2729652  15.8214361  65.2820309
  44.9228622  15.7587222  64.5999988  44.1425924  19.6953866  63.2249879
  44.0037009  19.3272650  64.0975817  43.3540520  20.2101505  63.0533837
  44.7374076  24.7962962  54.5675415  44.9125831  24.3251006  55.3821038
  44.0506864  25.4228729  54.7956676  45.6931139  19.0735469  60.6138717
  45.3580971  19.0336239  61.5096367  45.1935084  18.4080185  60.1409127
  39.6675383  14.4803099  66.1391298  39.5295181  13.7483338  66.7402837
  40.5780306  14.3911999  65.8575486  48.6290330  16.4191503  50.8875776
  48.0119501  15.6938331  50.7908829  48.1606819  17.1800863  50.5442851
  42.2957683  14.1923058  65.6274977  43.0057302  13.5516250  65.5861596
  42.2526992  14.4435953  66.5501158  50.2844462  21.1290411  68.5481557
  50.2257008  20.4449632  67.8812140  50.6863980  21.8709401  68.0962183
  41.0086617  11.1788276  67.4470617  40.4723974  10.7279014  68.0992213
  40.4203326  11.3134185  66.7041081  39.3035161  27.9452325  61.3415276
  39.5431759  28.5770849  62.0194294  38.4604357  27.5940365  61.6280635
  40.4188876  10.6376927  50.0097081  39.5418343  10.5165728  49.6459327
  40.8946629   9.8463006  49.7575969  50.2861869  19.0929995  66.7795536
  49.3988648  18.7555917  66.9021935  50.8560420  18.3613027  67.0164302
  31.9391016  15.4254087  60.1038588  32.6262056  15.1115817  59.5159603
  31.7839145  16.3295452  59.8305839  36.7425739  10.3144284  64.5323611
  36.6583927   9.7069953  63.7974021  35.9208445  10.8053302  64.5333108
  43.8163023  23.7531448  63.7456780  43.7433194  24.5586419  64.2576084
  43.3740416  23.9523414  62.9204801  43.6052802  22.9903218  57.2559601
  42.8220324  23.5324898  57.3497826  44.3045548  23.5077197  57.6553842
  46.9149452   8.7997847  59.8993806  47.4118152   8.0467810  59.5794877
  46.1436434   8.8362164  59.3337016  54.7679210  14.5038213  61.5412098
  54.7569086  15.3862928  61.1706031  53.8996589  14.1509764  61.3466635
  46.2761706  23.6518282  65.9014938  46.9889678  24.2865747  65.8290840
  45.7851735  23.7482148  65.0854940  47.9979233  17.5569534  57.4732230
  47.0635512  17.6770997  57.3036934  48.1755902  16.6542001  57.2092240
  43.4984421  10.9415230  59.6265491  43.1282209  10.3886271  60.3146397
  43.9943514  10.3373364  59.0740491  51.3851785  13.3986854  58.0082264
  51.8512237  14.2314845  57.9342567  51.8359285  12.9331835  58.7127522
  41.3273620  21.4012725  66.7220509  42.0283079  22.0349208  66.8749903
  40.8568735  21.7427457  65.9616148  49.4528016  19.7430675  55.0068416
  49.7287860  19.6287270  55.9162290  48.5832514  19.3448160  54.9680589
  49.3568447   5.7667441  62.0473165  48.4431527   5.9971668  62.2155372
  49.7861549   5.8505885  62.8987198  49.1274906  13.9557333  64.5473059
  48.4746356  14.2033240  63.8925512  49.5055286  13.1421471  64.2135537
  46.0882080  23.9917026  58.6501230  46.2704474  23.1738682  59.1128982
  46.9115066  24.2084718  58.2126120  46.4224245  22.9185211  55.9116278
  46.9512012  22.4077666  55.2986440  46.6852465  22.6027741  56.7761811
  45.1762479  14.6977144  71.0339096  44.5003116  14.5971273  71.7041472
  45.9990113  14.5416357  71.4975094  36.9241338  20.9349080  63.6551612
  37.5094775  20.1892768  63.7879516  36.7266176  21.2453037  64.5388276
  39.7779993  23.9700328  58.6714054  39.1090368  24.4546455  58.1878094
  39.6392863  24.2169548  59.5857433  31.5158993  13.5054680  62.3756055
  31.5543092  12.9718271  63.1693173  31.0099285  12.9789886  61.7567032
  43.9185262  26.0044071  65.2696712  44.4703570  26.1675693  66.0345798
  44.2591455  26.5948509  64.5976737  38.8949755   8.3519221  65.8718597
  38.9591081   9.2134052  65.4595995  38.8316875   7.7393223  65.1390956
  38.3702027  10.4242354  69.5191631  38.9974066  10.0419431  70.1329156
  37.5129946  10.2056555  69.8847324  48.7696136  20.8305329  71.1245367
  49.3136040  21.4435287  70.6300322  48.1882981  21.3884907  71.6412380
  35.1467570  12.2318783  55.4509986  35.4421011  11.3229461  55.3977040
  34.2455606  12.2106522  55.1290989  47.0553649  23.9526047  62.2560395
  46.9304788  23.1515787  61.7471340  47.7132740  24.4472240  61.7674365
  38.6761817  10.3074779  61.4337535  37.9548403  10.9210747  61.2945008
  39.4655073  10.8432544  61.3554181  49.1188557  21.7535067  63.8839945
  48.1718893  21.6340418  63.8118271  49.4671330  20.8657565  63.9666206
  41.4788131   7.6429206  67.7078187  42.0022532   7.8891502  68.4704496
  41.2600464   8.4749241  67.2881324  36.8755412   9.9132880  55.5749311
  36.5468118   9.0330259  55.3924417  37.2294782   9.8580549  56.4625701
  46.1234991  21.5487783  60.0844297  45.9759953  20.6204490  60.2651867
  46.9488484  21.5707874  59.6001372  39.9897235  10.2005850  55.9424789
  40.3293307  10.7291771  55.2203397  40.4369355  10.5386256  56.7183356
  49.7269112  22.3716342  61.1709170  50.6515660  22.1659203  61.0333621
  49.5584416  22.1232743  62.0798511  42.6840676   8.5842901  65.3927857
  42.3437496   7.7850714  65.7948537  41.9779682   8.8844612  64.8204690
  43.3357148   5.6692213  63.8455180  44.1583217   5.1952691  63.7234070
  43.5795211   6.4482697  64.3453866  41.9765382   8.6980472  54.1418082
  42.6973745   9.0761724  53.6381799  41.3530686   9.4169348  54.2453060
  46.1196505   9.4025621  55.0776414  46.3360119  10.2850259  54.7765242
  45.6390572   9.0111834  54.3482056  40.8595726  12.3611334  61.6547159
  40.7140307  12.6751637  62.5471440  40.3820930  12.9796234  61.1018057
  42.7192109   9.3513882  61.7028048  42.7053678   8.4554975  61.3660346
  43.4364537   9.3584546  62.3366334  44.5718240   9.7851222  63.7481176
  44.3136018  10.7068293  63.7465506  44.0403280   9.3881657  64.4381640
  49.5164429  22.8902009  56.5271261  49.6901306  22.3248432  55.7745114
  50.0093320  23.6902904  56.3450751  35.3341388  14.9016678  64.5934820
  34.7894857  15.6776486  64.7255094  36.2120738  15.2487483  64.4353941
  42.1229005   8.2328262  56.9715618  42.2444916   7.3044908  57.1706506
  41.8331047   8.2466948  56.0593934  44.9920196   5.9183173  60.1082338
  45.0141892   5.9822506  59.1534318  45.4088255   5.0787681  60.3022844
  55.3703820  15.6538432  58.1461561  55.8134966  14.9045757  57.7480684
  54.4930330  15.6448568  57.7635293  50.5039601  22.2068774  53.6268159
  51.1990506  22.8275466  53.8455474  50.8462751  21.3564125  53.9020537
  36.1207410  14.0286575  67.4864977  35.3789146  14.1769210  68.0729607
  35.8000155  14.2894840  66.6231726  52.4031024  19.6568479  55.1555490
  52.9282348  19.9955752  54.4304810  52.3153377  18.7215494  54.9718625
  44.0651073  23.5702553  67.2845367  44.3738199  23.3251700  68.1568066
  44.8626555  23.7749191  66.7964237  44.0871685  25.7240462  59.5150743
  43.6476675  25.2316841  60.2083600  44.8379802  25.1813430  59.2742819
  36.5664024  21.9152003  59.5175371  37.3922044  21.6155775  59.1374015
  36.2158076  21.1459626  59.9665160  41.5345557  21.2678471  61.5873045
  40.9125566  20.6049176  61.2875273  42.2050424  21.2939603  60.9046693
  34.7672629  19.8338330  60.4764305  33.9304537  19.4060504  60.2948306
  34.7396274  20.0270773  61.4135096  41.6070085   9.7460259  71.1805551
  41.6558240  10.6222382  70.7983321  42.1492599   9.2037653  70.6077194
  52.0924930  20.2901383  70.4606688  51.3020474  20.2725522  69.9211188
  51.8558285  20.8289676  71.2155725  52.2122805  17.1393849  67.7739417
  52.2620810  16.9743857  68.7154939  52.1036729  16.2721108  67.3837297
  41.0959064  19.8182395  55.0631506  41.2447184  20.5017859  54.4098178
  41.9025508  19.7987485  55.5780961  49.5026568  13.1224777  69.0898723
  50.4036431  12.9831242  68.7982721  49.5774542  13.2879232  70.0296901
  43.8369373  10.4991632  67.9351910  42.9672683  10.7925198  67.6634498
  44.0728853  11.0832077  68.6559173  53.7141002  19.5590791  68.0181438
  53.4225811  19.9220771  68.8544899  53.1013134  18.8457799  67.8394770
  54.9136685  17.1243670  60.5384008  55.7483576  17.5633474  60.7021569
  55.0495813  16.6482324  59.7192254  51.9628190  14.6823405  66.4861496
  52.4382312  14.8751052  65.6780348  51.0393756  14.7382591  66.2404880
  38.8511697  15.8447572  56.0692574  38.6057739  14.9409902  56.2672785
  39.0207612  15.8464723  55.1272052  46.5408407   6.7171249  65.4517330
  47.0590351   7.4532276  65.1263819  46.1863540   7.0235242  66.2864089
  38.1207345  11.5775930  53.5678736  37.4276590  11.6520285  52.9118772
  37.8759097  10.8136274  54.0900253  46.7921001   3.1371531  60.9718227
  47.0722755   2.4694720  61.5978653  47.5771608   3.3300627  60.4592891
  44.5954470  22.3130525  52.5343253  44.0228437  22.9320712  52.0813725
  45.1687263  22.8629887  53.0683175  50.6629859  11.5589165  64.7189802
  51.6147282  11.6587263  64.7402026  50.4933310  10.7667434  65.2287886
  48.6844239   8.6444749  64.9049203  48.0894171   8.9249761  64.2095691
  48.3993936   9.1338649  65.6765944  47.8151729  22.5967675  53.6651835
  48.7482403  22.5313237  53.8684711  47.7274942  23.4323942  53.2066368
  50.4439746  21.9133546  50.6255783  50.3653378  21.5793409  51.5191541
  51.2649413  22.4055314  50.6247255  53.1417937  14.7795285  63.8332101
  53.1094257  13.8411286  64.0191785  53.7518561  14.8579322  63.0997926
  44.9801268  13.6491338  49.8759305  45.9260373  13.5197546  49.9447724
  44.6015513  12.9106000  50.3528734  53.2912426  11.5706328  63.8790385
  52.7751474  10.7864785  63.6920313  54.1752374  11.2425045  64.0436904
  50.9523153   5.3147344  59.8386197  50.7547974   5.0062432  60.7229529
  51.5622858   6.0408983  59.9684127  58.9594487  15.8411292  62.9738138
  59.6897876  15.5796580  63.5345842  58.3501433  15.1040014  63.0140206
  57.0409784  13.9819154  63.5712589  56.3142948  13.8475119  62.9629081
  56.6257071  14.2895983  64.3769307  44.8639961  17.7009084  71.3359962
  45.7842970  17.8787683  71.5300009  44.8289544  16.7565130  71.1839662
  43.1644185  11.5741314  49.8114191  42.2575641  11.2774427  49.8876904
  43.4420166  11.2771132  48.9448477  34.0822126  12.8947678  60.2613237
  33.7624910  12.0412986  59.9687611  33.5355554  13.1096256  61.0171204
  37.8602033  15.6110119  63.9782744  38.0788043  16.5427227  63.9970777
  38.2727807  15.2518093  64.7637547  44.7806251   6.1178204  55.9658432
  43.9706979   5.7725289  56.3413678  45.4690668   5.8085748  56.5546044
  46.7096799   5.1956251  57.5882729  47.2627838   5.6151704  58.2472752
  46.9466886   4.2691999  57.6305685  42.7329899  11.1843325  73.3685493
  42.6326625  12.1337682  73.2997584  42.5151441  10.8561563  72.4961563
  41.9342970   8.4328250  49.9526170  42.7962134   8.7583148  50.2121987
  42.1193314   7.6459746  49.4399236  33.9510386  16.5150589  62.2306359
  33.2573857  16.1004542  61.7176313  34.6983377  16.5571126  61.6339778
  50.0875606   7.3056776  57.0961393  49.5074275   7.9641580  56.7139445
  49.8211539   6.4834121  56.6848810  48.5379173   6.7061834  59.2982713
  49.0378951   6.8178368  58.4897032  49.1814781   6.4022887  59.9383522
  42.5961169  14.6140463  72.1850554  42.1128250  15.4140824  72.3914443
  42.6822108  14.6248408  71.2317998  35.8647128  16.4468843  60.1072374
  35.8417816  16.5456530  59.1554257  36.1747765  17.2933994  60.4289540
  38.5234506  18.5044998  64.2218988  39.4777760  18.4728940  64.1548920
  38.3247030  18.0435622  65.0369214  39.1133888  17.0746114  66.7889786
  39.9326777  17.5690193  66.8124623  39.3870696  16.1578082  66.7607353
  48.8700484   9.4656866  56.1517741  47.9826339   9.7506517  55.9337936
  49.2854473   9.3050630  55.3045018  52.2215021   9.4903387  59.8672080
  52.9975411   9.9799840  60.1396697  51.4963155   9.9161442  60.3243950
  54.6587579  10.2031007  60.9246021  55.2532070   9.9626743  60.2139329
  54.7314163   9.4838137  61.5519557  36.8784735  24.0464618  61.2389186
  36.7439203  23.2865018  60.6727184  36.4616797  24.7705517  60.7717975
  48.0143698  19.2301541  50.2465761  48.7179548  19.4351544  50.8623417
  47.2906347  19.7978303  50.5114845  48.8441508  14.9811402  56.3668031
  48.7876710  15.4379954  55.5275664  49.3969851  14.2202087  56.1890874
  52.6546314  10.7701134  57.1918151  52.3983248  10.3697770  58.0226359
  52.0299182  11.4844928  57.0668290  56.9658652  13.5097208  59.6989442
  56.4058210  13.5790397  60.4721004  56.3602155  13.3338192  58.9788938
  40.0353861  24.9433935  61.4507629  39.9186245  25.8879367  61.3486319
  39.2146307  24.6407496  61.8393428  49.9230395  19.6684070  52.2964221
  50.7575999  19.2365269  52.1141696  49.7614738  19.4966084  53.2241116
  49.5776287  16.1716184  53.6620561  49.5225091  16.0060455  52.7209005
  48.9522343  16.8792217  53.8182750  34.3668802  11.4084248  67.4881983
  35.0127666  10.8983202  67.9769208  34.1585954  12.1452930  68.0625408
  46.8922195  18.4765096  72.9874123  47.7613354  18.6505748  72.6260758
  46.4128946  19.2959512  72.8649853  42.8872413   5.6724293  53.2405879
  42.8751083   6.6166133  53.3974150  43.7795835   5.4894438  52.9465340
  41.0608375  25.5962197  64.6663557  41.9635622  25.6285807  64.9830052
  40.8345745  24.6662647  64.6809893  42.8161977  24.3493183  61.3273636
  41.8657608  24.3495045  61.2138008  43.1194463  23.6025918  60.8109670
  46.7024532   2.2667069  57.4951816  45.9356928   1.7125556  57.6408498
  47.1135237   2.3388938  58.3565967  38.7066293   8.5551865  71.5856997
  39.5697755   8.1988670  71.7960322  38.1331704   8.2165760  72.2732401
  58.5514670  30.1853721  62.3919398  59.1893080  30.0660469  61.6882738
  58.4335513  31.1334565  62.4507350  55.3604377  30.1381150  62.3280923
  55.0222888  30.0222214  61.4401458  56.2294145  29.7372315  62.3081929
  51.2191192  31.9916626  58.3177814  50.6556057  31.9006563  57.5494101
  51.1043587  31.1716530  58.7980306  55.8424160  31.2916001  68.2867128
  55.8312800  30.8968800  67.4147632  56.0044799  30.5582074  68.8800900
  56.7990751  35.6587594  53.6292279  56.1478731  36.2441674  53.2426292
  57.5935114  36.1893789  53.6887316  52.5631421  34.0753113  67.2346312
  52.2721287  34.9798744  67.1192978  53.1988405  34.1169641  67.9490382
  53.4887628  31.4529962  63.8247672  54.0851200  31.2285984  63.1104635
  53.5462599  30.7114707  64.4273120  53.0612656  28.9069397  51.6597863
  53.3138177  28.3850918  50.8981326  52.1237215  28.7435542  51.7624546
  58.1055939  27.9105175  59.4672606  58.8919028  27.4924598  59.1163023
  58.3694643  28.8151267  59.6354254  58.2766016  33.3478026  54.1661263
  57.6411849  33.4212652  54.8782167  57.9463423  33.9371624  53.4880342
  63.5064366  27.8480408  60.3705585  64.2389538  27.2779625  60.6043414
  62.7503722  27.4602009  60.8112090  52.7808945  30.8097503  53.8622238
  52.6645203  30.1342406  54.5303322  52.8911205  30.3229877  53.0454391
  55.1240486  30.2707650  57.5668927  54.7598693  29.7438271  58.2781848
  55.9807602  29.8806119  57.3935412  61.0289786  21.5601983  64.8300193
  60.6973111  22.4297394  64.6061408  60.4335400  21.2438267  65.5094224
  54.7645973  25.2997550  52.5630275  54.9320375  26.1677786  52.9300747
  54.5743142  25.4624831  51.6391565  57.5221306  33.7614529  64.2296106
  57.2222029  34.6639567  64.1211913  57.1772365  33.4946712  65.0817259
  50.9733787  30.2128325  60.2632810  50.0484284  30.0804540  60.4710502
  51.2218201  30.9922545  60.7602753  60.9218450  26.2797069  61.9093543
  60.0135327  26.2112477  61.6152304  60.8706045  26.7569014  62.7375369
  54.7435194  27.7555207  53.5476942  54.6234819  28.2012258  54.3862423
  54.0487782  28.1040525  52.9890480  48.3342598  29.8561599  61.0976599
  48.4634980  30.1096078  62.0116011  47.6540050  30.4489307  60.7781254
  54.9959315  27.6986714  69.8528440  54.2192649  28.2580635  69.8431305
  55.6349878  28.1843497  70.3743311  62.7880096  24.4813507  63.6871417
  62.1454476  24.7746040  63.0411212  62.2835025  24.3666428  64.4924614
  60.4420260  28.2276680  54.3757276  61.3538116  28.4604067  54.2004974
  59.9329907  28.8113725  53.8132355  53.2505688  30.5072168  69.4146407
  53.9920372  31.0457212  69.1381231  52.5442673  31.1338456  69.5717959
  58.7261027  32.6501308  68.0118569  59.1344383  32.2083719  67.2673201
  58.0038289  32.0753936  68.2652762  55.0792097  27.5873915  65.3852126
  55.9253293  28.0113329  65.5286775  55.0190735  26.9307539  66.0790689
  59.0489842  33.2102499  61.7670858  58.4198704  33.3748213  61.0646926
  58.6615504  33.6244108  62.5381822  62.9279074  34.1456937  59.1215222
  62.2430112  34.5255838  58.5712255  63.0122923  34.7552263  59.8547169
  58.2291543  25.2478283  67.0433300  57.9852475  26.0020344  66.5067575
  58.5051473  25.6263631  67.8780547  60.1830006  31.7916896  65.7210565
  60.3946901  32.4348656  65.0444946  60.1359754  30.9579212  65.2532495
  57.7856234  24.4034716  62.6247137  56.9240714  24.7015970  62.9163875
  57.8118669  24.6205115  61.6928170  54.6017804  32.9476907  59.0320943
  55.0656149  33.2264610  58.2425565  54.3374602  32.0460351  58.8494034
  53.5386690  29.0700059  55.8410508  54.2410733  29.5221103  56.3084434
  53.2067318  28.4283878  56.4690401  51.9867051  27.6611816  70.2161717
  51.3565712  28.3428097  70.4497114  51.8803139  27.5494898  69.2714856
  47.2812024  27.3283612  61.1427642  46.4911078  27.5841140  60.6667752
  47.7723271  28.1431950  61.2479682  61.2975833  34.6688851  63.8932922
  62.1193277  34.2669038  63.6115604  61.2938236  34.5657085  64.8449038
  49.2326769  27.6928191  58.1011118  48.4357933  27.8046885  58.6194614
  49.0052361  28.0314843  57.2352009  55.0632437  34.2172894  66.0493633
  55.1276869  34.6793302  66.8851805  54.3543361  33.5870259  66.1775943
  45.5649727  27.5814102  63.5742632  45.8157765  28.4661112  63.8400208
  46.1009275  27.4018704  62.8017724  69.3881827  31.0127600  60.2417894
  68.6345535  30.4434998  60.0861898  69.5229368  30.9790264  61.1888529
  51.2647794  21.9632582  72.5786968  50.8714740  21.4098780  73.2534613
  52.0813935  22.2743160  72.9693486  54.1815755  23.3790461  70.1707225
  54.9225469  23.9797614  70.0911688  54.4133678  22.6368099  69.6125268
  49.3257093  28.5646828  68.4485455  49.2110608  27.6632085  68.7492554
  48.4701611  28.8110525  68.0970271  56.4048931  36.5064568  70.0472955
  55.9612785  35.7200947  69.7293860  57.0666145  36.6943719  69.3816846
  58.5030169  36.7867368  68.0754357  58.4848644  37.6076249  67.5834626
  59.4250089  36.6621444  68.3004498  54.9603223  34.3011498  68.9177865
  55.4931560  33.5399786  68.6877173  54.4317304  34.0085150  69.6602019
  58.1272918  19.4071564  64.4471507  57.7837188  20.2973205  64.3710617
  58.4951881  19.2173221  63.5841092  58.0923201  29.3980175  52.9543942
  57.5769824  30.1684780  53.1932329  57.8200509  28.7245311  53.5777003
  55.6770312  24.2429876  58.0129180  54.8211908  23.8536726  57.8334819
  56.0897264  24.3221836  57.1528966  57.2069459  21.7776219  62.4120740
  56.7034254  21.7406354  61.5988545  57.5000065  22.6868962  62.4717397
  53.4512344  21.8614949  61.4186922  54.3165341  21.6657757  61.0592811
  53.5189853  21.6325300  62.3456278  63.0657475  32.1512530  54.8897115
  62.2886918  31.8123689  54.4452277  63.7448956  32.1565153  54.2152080
  57.8809504  27.2707267  54.7803723  57.5759640  27.5853416  55.6313866
  58.8339946  27.3488687  54.8231056  56.3255936  33.4297490  56.4296677
  55.7977297  32.6950250  56.1169914  55.8243439  34.2072167  56.1836645
  61.3048782  31.6246511  61.5463723  60.6472456  32.3145772  61.6343852
  62.1089181  32.0142943  61.8897710  51.0574663  24.0917157  58.7903289
  51.6318415  23.8692338  58.0576481  51.6445646  24.1605851  59.5431890
  60.1154241  29.9790883  59.5967665  60.6286122  30.6120875  60.0989375
  60.7655465  29.3792079  59.2311025  51.3844251  26.1221618  52.8099174
  50.5481563  26.4596304  53.1308449  51.2449020  25.9870597  51.8726311
  53.3597331  20.9658405  57.5178358  52.7061744  20.6507423  56.8934973
  53.3177805  20.3434146  58.2438181  54.4708536  31.2477701  49.4331650
  53.5635598  31.0166954  49.6322799  54.9679568  30.4515320  49.6205632
  57.3776615  39.9575208  52.3528336  56.7038314  40.2606905  52.9613294
  57.7642437  40.7604288  52.0033793  56.5935072  27.4540339  61.8426006
  55.6757633  27.6755286  61.6847694  57.0095215  27.5286650  60.9837713
  57.3770119  28.8531755  56.9728686  58.1241938  29.3653152  56.6635808
  57.6461709  28.5315807  57.8333079  55.6496769  31.3490295  53.9555640
  54.7407989  31.0649328  54.0528110  55.6791853  31.7689374  53.0958947
  60.8816037  34.9596885  57.7246808  60.4278364  34.1187795  57.7811998
  60.2510004  35.5958283  58.0621588  59.8248956  25.8888871  58.9547475
  59.0871713  25.3766257  59.2857718  60.0775730  25.4489253  58.1430752
  59.3248976  36.7973382  58.6596626  59.6171951  37.3578439  57.9408991
  59.8347597  37.0901943  59.4149785  59.9260584  18.6665123  59.5489244
  60.2319461  17.8062486  59.2615159  60.6513189  19.2582743  59.3488238
  46.2184940  29.0695810  57.9370842  46.0209340  28.4765170  57.2121909
  45.6631604  28.7648020  58.6546781  54.1981664  28.9618916  60.0565435
  54.2530273  28.0092752  59.9807912  53.3872866  29.1178355  60.5406734
  55.3472857  32.8899039  51.2943719  54.9092287  32.1734898  50.8349356
  56.0883298  33.1175154  50.7328810  52.1374023  27.5795976  57.8155814
  51.3241889  27.8790146  58.2221006  52.6333018  27.1851665  58.5330297
  57.7348235  28.0437800  66.6470708  58.0897623  28.2709273  67.5065174
  58.3820366  28.3756177  66.0247964  63.4645972  31.1656236  57.3520037
  63.3263871  31.3557832  56.4241226  63.1082191  31.9275619  57.8088088
  51.6288098  25.1514331  63.4317049  52.2687478  25.0103090  62.7340013
  50.7965629  24.8648845  63.0555651  63.4915352  33.2332763  62.3631309
  63.9251858  33.1408052  63.2114363  64.2046932  33.2090264  61.7251325
  57.2243247  36.8334857  63.8964409  57.2780269  37.4025794  64.6642125
  56.3558028  37.0036742  63.5318447  48.7131166  28.5959843  55.6211794
  47.7828754  28.5344299  55.8381757  48.8088638  28.0735796  54.8248436
  48.6316715  25.1214656  58.2090036  48.8923532  26.0359990  58.0999197
  49.4533887  24.6539099  58.3586649  50.1041640  26.5352413  65.3788861
  50.7764693  26.3269776  64.7301510  49.2771426  26.3374499  64.9394093
  64.3530901  33.2756464  64.8964194  64.5466791  34.1802274  65.1423469
  64.2531519  32.8163883  65.7302779  56.0067212  23.1614354  67.3954522
  55.3595127  23.8604304  67.3018998  56.7768227  23.5950498  67.7630770
  59.4146010  33.4263207  70.4705075  59.2631516  33.1973758  69.5535158
  59.4050689  34.3833808  70.4836420  56.1831346  30.9995119  65.4551341
  57.1123406  31.1506279  65.2820309  55.7622376  31.0879140  64.5999988
  54.9819678  35.0245784  63.2249879  54.8430764  34.6564568  64.0975817
  54.1934274  35.5393423  63.0533837  56.5324893  34.4027386  60.6138717
  56.1974726  34.3628156  61.5096367  56.0328839  33.7372102  60.1409127
  50.5069137  29.8095016  66.1391298  50.3688935  29.0775255  66.7402837
  51.4174061  29.7203917  65.8575486  59.4684085  31.7483421  50.8875776
  58.8513256  31.0230249  50.7908829  59.0000573  32.5092781  50.5442851
  53.1351438  29.5214976  65.6274977  53.8451056  28.8808168  65.5861596
  53.0920746  29.7727871  66.5501158  61.1238217  36.4582329  68.5481557
  61.0650763  35.7741549  67.8812140  61.5257735  37.2001319  68.0962183
  51.8480372  26.5080194  67.4470617  51.3117729  26.0570932  68.0992213
  51.2597080  26.6426102  66.7041081  51.2582631  25.9668845  50.0097081
  50.3812097  25.8457646  49.6459327  51.7340384  25.1754923  49.7575969
  61.1255624  34.4221913  66.7795536  60.2382403  34.0847835  66.9021935
  61.6954175  33.6904944  67.0164302  42.7784771  30.7546005  60.1038588
  43.4655811  30.4407735  59.5159603  42.6232900  31.6587369  59.8305839
  47.5819493  25.6436201  64.5323611  47.4977682  25.0361871  63.7974021
  46.7602199  26.1345220  64.5333108  57.7543207  24.1289765  59.8993806
  58.2511906  23.3759727  59.5794877  56.9830188  24.1654082  59.3337016
  65.6072964  29.8330130  61.5412098  65.5962841  30.7154846  61.1706031
  64.7390344  29.4801681  61.3466635  57.1155461  38.9810199  65.9014938
  57.8283433  39.6157664  65.8290840  56.6245489  39.0774065  65.0854940
  58.8372988  32.8861452  57.4732230  57.9029266  33.0062915  57.3036934
  59.0149656  31.9833919  57.2092240  54.3378176  26.2707148  59.6265491
  53.9675963  25.7178188  60.3146397  54.8337268  25.6665281  59.0740491
  62.2245539  28.7278771  58.0082264  62.6905991  29.5606763  57.9342567
  62.6753039  28.2623753  58.7127522  52.1667374  36.7304643  66.7220509
  52.8676834  37.3641126  66.8749903  51.6962489  37.0719374  65.9616148
  60.2921770  35.0722593  55.0068416  60.5681614  34.9579187  55.9162290
  59.4226269  34.6740078  54.9680589  60.1962202  21.0959358  62.0473165
  59.2825282  21.3263585  62.2155372  60.6255303  21.1797802  62.8987198
  59.9668660  29.2849250  64.5473059  59.3140110  29.5325158  63.8925512
  60.3449040  28.4713389  64.2135537  57.2618000  38.2477129  55.9116278
  57.7905766  37.7369583  55.2986440  57.5246219  37.9319659  56.7761811
  56.0156233  30.0269061  71.0339096  55.3396870  29.9263191  71.7041472
  56.8383867  29.8708275  71.4975094  42.3552747  28.8346598  62.3756055
  42.3936847  28.3010189  63.1693173  41.8493040  28.3081804  61.7567032
  49.7343509  23.6811139  65.8718597  49.7984836  24.5425970  65.4595995
  49.6710630  23.0685140  65.1390956  49.2095782  25.7534271  69.5191631
  49.8367821  25.3711349  70.1329156  48.3523701  25.5348473  69.8847324
  59.6089890  36.1597246  71.1245367  60.1529794  36.7727205  70.6300322
  59.0276735  36.7176825  71.6412380  45.9861325  27.5610700  55.4509986
  46.2814766  26.6521379  55.3977040  45.0849360  27.5398440  55.1290989
  49.5155572  25.6366697  61.4337535  48.7942157  26.2502665  61.2945008
  50.3048827  26.1724462  61.3554181  59.9582312  37.0826984  63.8839945
  59.0112647  36.9632336  63.8118271  60.3065085  36.1949482  63.9666206
  52.3181885  22.9721123  67.7078187  52.8416287  23.2183420  68.4704496
  52.0994218  23.8041158  67.2881324  47.7149166  25.2424798  55.5749311
  47.3861872  24.3622177  55.3924417  48.0688537  25.1872467  56.4625701
  50.8290989  25.5297768  55.9424789  51.1687062  26.0583689  55.2203397
  51.2763110  25.8678174  56.7183356  60.5662867  37.7008259  61.1709170
  61.4909414  37.4951121  61.0333621  60.3978170  37.4524661  62.0798511
  53.5234430  23.9134818  65.3927857  53.1831251  23.1142632  65.7948537
  52.8173436  24.2136529  64.8204690  54.1750902  20.9984131  63.8455180
  54.9976971  20.5244609  63.7234070  54.4188966  21.7774615  64.3453866
  52.8159137  24.0272389  54.1418082  53.5367499  24.4053642  53.6381799
  52.1924441  24.7461266  54.2453060  56.9590259  24.7317538  55.0776414
  57.1753874  25.6142176  54.7765242  56.4784327  24.3403752  54.3482056
  51.6989481  27.6903252  61.6547159  51.5534062  28.0043555  62.5471440
  51.2214684  28.3088152  61.1018057  53.5585864  24.6805800  61.7028048
  53.5447432  23.7846893  61.3660346  54.2758292  24.6876463  62.3366334
  55.4111994  25.1143140  63.7481176  55.1529772  26.0360210  63.7465506
  54.8797035  24.7173574  64.4381640  60.3558183  38.2193927  56.5271261
  60.5295061  37.6540349  55.7745114  60.8487074  39.0194822  56.3450751
  46.1735143  30.2308596  64.5934820  45.6288611  31.0068404  64.7255094
  47.0514493  30.5779400  64.4353941  52.9622760  23.5620180  56.9715618
  53.0838671  22.6336826  57.1706506  52.6724802  23.5758866  56.0593934
  55.8313950  21.2475090  60.1082338  55.8535647  21.3114423  59.1534318
  56.2482009  20.4079599  60.3022844  66.2097574  30.9830350  58.1461561
  66.6528720  30.2337675  57.7480684  65.3324085  30.9740486  57.7635293
  61.3433356  37.5360691  53.6268159  62.0384260  38.1567384  53.8455474
  61.6856506  36.6856042  53.9020537  46.9601165  29.3578492  67.4864977
  46.2182901  29.5061128  68.0729607  46.6393909  29.6186758  66.6231726
  63.2424779  34.9860397  55.1555490  63.7676103  35.3247670  54.4304810
  63.1547131  34.0507412  54.9718625  54.9044827  38.8994470  67.2845367
  55.2131954  38.6543617  68.1568066  55.7020309  39.1041109  66.7964237
  52.4463839  25.0752177  71.1805551  52.4951995  25.9514300  70.7983321
  52.9886353  24.5329570  70.6077194  62.9318685  35.6193300  70.4606688
  62.1414229  35.6017439  69.9211188  62.6952039  36.1581594  71.2155725
  63.0516560  32.4685767  67.7739417  63.1014565  32.3035774  68.7154939
  62.9430483  31.6013026  67.3837297  60.3420322  28.4516695  69.0898723
  61.2430185  28.3123160  68.7982721  60.4168297  28.6171150  70.0296901
  54.6763128  25.8283550  67.9351910  53.8066437  26.1217116  67.6634498
  54.9122608  26.4123995  68.6559173  64.5534757  34.8882708  68.0181438
  64.2619565  35.2512689  68.8544899  63.9406888  34.1749717  67.8394770
  65.7530439  32.4535588  60.5384008  66.5877330  32.8925392  60.7021569
  65.8889568  31.9774241  59.7192254  62.8021945  30.0115323  66.4861496
  63.2776067  30.2042969  65.6780348  61.8787510  30.0674509  66.2404880
  49.6905452  31.1739490  56.0692574  49.4451493  30.2701820  56.2672785
  49.8601366  31.1756641  55.1272052  57.3802161  22.0463167  65.4517330
  57.8984105  22.7824193  65.1263819  57.0257294  22.3527160  66.2864089
  48.9601099  26.9067848  53.5678736  48.2670344  26.9812203  52.9118772
  48.7152851  26.1428191  54.0900253  57.6314756  18.4663449  60.9718227
  57.9116509  17.7986638  61.5978653  58.4165363  18.6592545  60.4592891
  55.4348224  37.6422443  52.5343253  54.8622191  38.2612630  52.0813725
  56.0081018  38.1921805  53.0683175  61.5023614  26.8881083  64.7189802
  62.4541037  26.9879181  64.7402026  61.3327064  26.0959352  65.2287886
  59.5237993  23.9736666  64.9049203  58.9287926  24.2541679  64.2095691
  59.2387690  24.4630567  65.6765944  58.6545484  37.9259593  53.6651835
  59.5876157  37.8605155  53.8684711  58.5668697  38.7615860  53.2066368
  61.2833501  37.2425463  50.6255783  61.2047132  36.9085327  51.5191541
  62.1043167  37.7347231  50.6247255  63.9811692  30.1087203  63.8332101
  63.9488012  29.1703203  64.0191785  64.5912315  30.1871239  63.0997926
  55.8195023  28.9783256  49.8759305  56.7654127  28.8489464  49.9447724
  55.4409268  28.2397918  50.3528734  64.1306180  26.8998246  63.8790385
  63.6145229  26.1156703  63.6920313  65.0146129  26.5716963  64.0436904
  61.7916907  20.6439262  59.8386197  61.5941728  20.3354350  60.7229529
  62.4016613  21.3700901  59.9684127  69.7988242  31.1703210  62.9738138
  70.5291630  30.9088498  63.5345842  69.1895187  30.4331932  63.0140206
  67.8803539  29.3111072  63.5712589  67.1536702  29.1767037  62.9629081
  67.4650826  29.6187901  64.3769307  55.7033715  33.0301002  71.3359962
  56.6236725  33.2079601  71.5300009  55.6683298  32.0857047  71.1839662
  54.0037940  26.9033232  49.8114191  53.0969395  26.6066345  49.8876904
  54.2813921  26.6063050  48.9448477  44.9215880  28.2239595  60.2613237
  44.6018664  27.3704904  59.9687611  44.3749308  28.4388174  61.0171204
  48.6995788  30.9402036  63.9782744  48.9181797  31.8719144  63.9970777
  49.1121562  30.5810011  64.7637547  55.6200005  21.4470122  55.9658432
  54.8100734  21.1017207  56.3413678  56.3084422  21.1377666  56.5546044
  57.5490554  20.5248169  57.5882729  58.1021592  20.9443622  58.2472752
  57.7860640  19.5983917  57.6305685  53.5723653  26.5135242  73.3685493
  53.4720380  27.4629599  73.2997584  53.3545195  26.1853481  72.4961563
  52.7736724  23.7620167  49.9526170  53.6355888  24.0875066  50.2121987
  52.9587069  22.9751663  49.4399236  44.7904140  31.8442507  62.2306359
  44.0967612  31.4296460  61.7176313  45.5377131  31.8863043  61.6339778
  60.9269361  22.6348694  57.0961393  60.3468030  23.2933498  56.7139445
  60.6605294  21.8126038  56.6848810  59.3772927  22.0353751  59.2982713
  59.8772706  22.1470286  58.4897032  60.0208535  21.7314804  59.9383522
  53.4354923  29.9432381  72.1850554  52.9522005  30.7432741  72.3914443
  53.5215862  29.9540326  71.2317998  46.7040883  31.7760761  60.1072374
  46.6811571  31.8748448  59.1554257  47.0141519  32.6225912  60.4289540
  49.9527643  32.4038032  66.7889786  50.7720532  32.8982111  66.8124623
  50.2264450  31.4870000  66.7607353  59.7094239  24.7948784  56.1517741
  58.8220094  25.0798435  55.9337936  60.1248228  24.6342548  55.3045018
  63.0608775  24.8195305  59.8672080  63.8369165  25.3091758  60.1396697
  62.3356909  25.2453359  60.3243950  65.4981334  25.5322924  60.9246021
  66.0925824  25.2918660  60.2139329  65.5707917  24.8130055  61.5519557
  58.8537452  34.5593459  50.2465761  59.5573302  34.7643461  50.8623417
  58.1300101  35.1270221  50.5114845  59.6835263  30.3103320  56.3668031
  59.6270464  30.7671872  55.5275664  60.2363605  29.5494005  56.1890874
  63.4940069  26.0993052  57.1918151  63.2377003  25.6989688  58.0226359
  62.8692937  26.8136846  57.0668290  67.8052406  28.8389125  59.6989442
  67.2451964  28.9082315  60.4721004  67.1995910  28.6630110  58.9788938
  60.7624150  34.9975988  52.2964221  61.5969754  34.5657186  52.1141696
  60.6008493  34.8258002  53.2241116  60.4170042  31.5008101  53.6620561
  60.3618846  31.3352373  52.7209005  59.7916097  32.2084134  53.8182750
  45.2062557  26.7376166  67.4881983  45.8521421  26.2275120  67.9769208
  44.9979708  27.4744847  68.0625408  57.7315949  33.8057013  72.9874123
  58.6007109  33.9797665  72.6260758  57.2522701  34.6251430  72.8649853
  53.7266167  21.0016210  53.2405879  53.7144837  21.9458050  53.3974150
  54.6189589  20.8186356  52.9465340  57.5418287  17.5958987  57.4951816
  56.7750683  17.0417474  57.6408498  57.9528992  17.6680856  58.3565967
  49.5460048  23.8843783  71.5856997  50.4091509  23.5280588  71.7960322
  48.9725459  23.5457678  72.2732401  66.1998131  45.4673067  62.3280923
  65.8616643  45.3514132  61.4401458  67.0687899  45.0664232  62.3081929
  62.0584947  47.3208544  58.3177814  61.4949812  47.2298481  57.5494101
  61.9437342  46.5008448  58.7980306  66.6817914  46.6207919  68.2867128
  66.6706555  46.2260717  67.4147632  66.8438554  45.8873992  68.8800900
  67.6384506  50.9879511  53.6292279  66.9872485  51.5733592  53.2426292
  68.4328868  51.5185706  53.6887316  68.9449693  43.2397093  59.4672606
  69.7312783  42.8216516  59.1163023  69.2088398  44.1443185  59.6354254
  69.1159771  48.6769943  54.1661263  68.4805604  48.7504570  54.8782167
  68.7857177  49.2663542  53.4880342  74.3458120  43.1772326  60.3705585
  75.0783292  42.6071543  60.6043414  73.5897476  42.7893927  60.8112090
  63.6202699  46.1389421  53.8622238  63.5038957  45.4634324  54.5303322
  63.7304959  45.6521794  53.0454391  65.9634240  45.5999568  57.5668927
  65.5992447  45.0730189  58.2781848  66.8201356  45.2098037  57.3935412
  71.8683541  36.8893900  64.8300193  71.5366866  37.7589311  64.6061408
  71.2729154  36.5730184  65.5094224  65.6039727  40.6289467  52.5630275
  65.7714130  41.4969704  52.9300747  65.4136896  40.7916749  51.6391565
  71.7612204  41.6088986  61.9093543  70.8529081  41.5404395  61.6152304
  71.7099800  42.0860931  62.7375369  65.5828948  43.0847125  53.5476942
  65.4628573  43.5304176  54.3862423  64.8881536  43.4332443  52.9890480
  65.8353070  43.0278632  69.8528440  65.0586404  43.5872552  69.8431305
  66.4743633  43.5135415  70.3743311  73.6273851  39.8105425  63.6871417
  72.9848231  40.1037958  63.0411212  73.1228779  39.6958345  64.4924614
  71.2814014  43.5568598  54.3757276  72.1931870  43.7895985  54.2004974
  70.7723661  44.1405642  53.8132355  64.0899442  45.8364085  69.4146407
  64.8314127  46.3749129  69.1381231  63.3836428  46.4630374  69.5717959
  65.9185852  42.9165833  65.3852126  66.7647047  43.3405246  65.5286775
  65.8584490  42.2599457  66.0790689  73.7672828  49.4748854  59.1215222
  73.0823867  49.8547756  58.5712255  73.8516678  50.0844181  59.8547169
  69.0685297  40.5770201  67.0433300  68.8246229  41.3312262  66.5067575
  69.3445228  40.9555549  67.8780547  68.6249989  39.7326634  62.6247137
  67.7634468  40.0307888  62.9163875  68.6512424  39.9497033  61.6928170
  64.3780444  44.3991977  55.8410508  65.0804488  44.8513021  56.3084434
  64.0461073  43.7575796  56.4690401  62.8260806  42.9903734  70.2161717
  62.1959467  43.6720014  70.4497114  62.7196894  42.8786815  69.2714856
  60.0720524  43.0220109  58.1011118  59.2751687  43.1338803  58.6194614
  59.8446116  43.3606761  57.2352009  80.2275581  46.3419517  60.2417894
  79.4739289  45.7726915  60.0861898  80.3623122  46.3082182  61.1888529
  62.1041549  37.2924499  72.5786968  61.7108494  36.7390698  73.2534613
  62.9207689  37.6035078  72.9693486  65.0209510  38.7082379  70.1707225
  65.7619223  39.3089532  70.0911688  65.2527432  37.9660016  69.6125268
  67.2442685  51.8356486  70.0472955  66.8006540  51.0492865  69.7293860
  67.9059899  52.0235637  69.3816846  68.9666673  34.7363481  64.4471507
  68.6230942  35.6265123  64.3710617  69.3345635  34.5465139  63.5841092
  66.5164066  39.5721793  58.0129180  65.6605663  39.1828644  57.8334819
  66.9291018  39.6513754  57.1528966  68.0463213  37.1068137  62.4120740
  67.5428009  37.0698272  61.5988545  68.3393820  38.0160879  62.4717397
  64.2906099  37.1906866  61.4186922  65.1559096  36.9949675  61.0592811
  64.3583608  36.9617218  62.3456278  73.9051229  47.4804447  54.8897115
  73.1280672  47.1415607  54.4452277  74.5842710  47.4857070  54.2152080
  68.7203259  42.5999185  54.7803723  68.4153394  42.9145334  55.6313866
  69.6733701  42.6780605  54.8231056  67.1649690  48.7589408  56.4296677
  66.6371052  48.0242168  56.1169914  66.6637193  49.5364084  56.1836645
  61.8968418  39.4209074  58.7903289  62.4712170  39.1984256  58.0576481
  62.4839400  39.4897769  59.5431890  62.2238005  41.4513535  52.8099174
  61.3875317  41.7888222  53.1308449  62.0842775  41.3162515  51.8726311
  64.1991086  36.2950323  57.5178358  63.5455498  35.9799340  56.8934973
  64.1571560  35.6726064  58.2438181  67.4328826  42.7832257  61.8426006
  66.5151387  43.0047204  61.6847694  67.8488970  42.8578567  60.9837713
  68.2163874  44.1823672  56.9728686  68.9635693  44.6945070  56.6635808
  68.4855463  43.8607725  57.8333079  66.4890524  46.6782213  53.9555640
  65.5801743  46.3941246  54.0528110  66.5185608  47.0981292  53.0958947
  70.6642711  41.2180789  58.9547475  69.9265468  40.7058175  59.2857718
  70.9169484  40.7781170  58.1430752  70.7654338  33.9957041  59.5489244
  71.0713215  33.1354404  59.2615159  71.4906943  34.5874661  59.3488238
  65.0375418  44.2910834  60.0565435  65.0924028  43.3384670  59.9807912
  64.2266620  44.4470273  60.5406734  62.9767778  42.9087893  57.8155814
  62.1635643  43.2082064  58.2221006  63.4726772  42.5143582  58.5330297
  68.5741990  43.3729718  66.6470708  68.9291377  43.6001191  67.5065174
  69.2214121  43.7048095  66.0247964  74.3039727  46.4948154  57.3520037
  74.1657625  46.6849750  56.4241226  73.9475945  47.2567537  57.8088088
  62.4681853  40.4806249  63.4317049  63.1081232  40.3395008  62.7340013
  61.6359383  40.1940762  63.0555651  59.4710469  40.4506574  58.2090036
  59.7317286  41.3651907  58.0999197  60.2927641  39.9831017  58.3586649
  60.9435394  41.8644331  65.3788861  61.6158448  41.6561693  64.7301510
  60.1165181  41.6666417  64.9394093  66.8460966  38.4906272  67.3954522
  66.1988881  39.1896222  67.3018998  67.6161982  38.9242416  67.7630770
  70.2539764  48.7555124  70.4705075  70.1025271  48.5265676  69.5535158
  70.2444444  49.7125726  70.4836420  62.6874126  41.8372111  67.4470617
  62.1511483  41.3862850  68.0992213  62.0990835  41.9718020  66.7041081
  58.4213248  40.9728119  64.5323611  58.3371436  40.3653789  63.7974021
  57.5995954  41.4637137  64.5333108  68.5936961  39.4581683  59.8993806
  69.0905661  38.7051645  59.5794877  67.8223943  39.4945999  59.3337016
  76.4466719  45.1622048  61.5412098  76.4356595  46.0446764  61.1706031
  75.5784098  44.8093599  61.3466635  69.6766742  48.2153370  57.4732230
  68.7423021  48.3354832  57.3036934  69.8543411  47.3125837  57.2092240
  65.1771930  41.5999066  59.6265491  64.8069718  41.0470106  60.3146397
  65.6731023  40.9957199  59.0740491  73.0639293  44.0570689  58.0082264
  73.5299746  44.8898681  57.9342567  73.5146794  43.5915671  58.7127522
  71.1315525  50.4014510  55.0068416  71.4075368  50.2871105  55.9162290
  70.2620023  50.0031995  54.9680589  71.0355956  36.4251276  62.0473165
  70.1219036  36.6555503  62.2155372  71.4649058  36.5089720  62.8987198
  66.8549988  45.3560979  71.0339096  66.1790625  45.2555108  71.7041472
  67.6777622  45.2000193  71.4975094  60.5737264  39.0103056  65.8718597
  60.6378590  39.8717887  65.4595995  60.5104384  38.3977058  65.1390956
  60.0489536  41.0826189  69.5191631  60.6761575  40.7003266  70.1329156
  59.1917455  40.8640391  69.8847324  60.3549326  40.9658615  61.4337535
  59.6335912  41.5794582  61.2945008  61.1442582  41.5016379  61.3554181
  63.1575640  38.3013041  67.7078187  63.6810041  38.5475338  68.4704496
  62.9387973  39.1333076  67.2881324  58.5542921  40.5716716  55.5749311
  58.2255627  39.6914095  55.3924417  58.9082291  40.5164384  56.4625701
  61.6684744  40.8589685  55.9424789  62.0080816  41.3875607  55.2203397
  62.1156864  41.1970092  56.7183356  64.3628185  39.2426736  65.3927857
  64.0225005  38.4434549  65.7948537  63.6567191  39.5428447  64.8204690
  65.0144657  36.3276049  63.8455180  65.8370726  35.8536527  63.7234070
  65.2582720  37.1066532  64.3453866  63.6552891  39.3564307  54.1418082
  64.3761254  39.7345560  53.6381799  63.0318195  40.0753184  54.2453060
  67.7984014  40.0609456  55.0776414  68.0147628  40.9434094  54.7765242
  67.3178081  39.6695669  54.3482056  62.5383235  43.0195169  61.6547159
  62.3927816  43.3335472  62.5471440  62.0608439  43.6380070  61.1018057
  64.3979618  40.0097717  61.7028048  64.3841187  39.1138811  61.3660346
  65.1152046  40.0168381  62.3366334  66.2505749  40.4435057  63.7481176
  65.9923527  41.3652128  63.7465506  65.7190789  40.0465492  64.4381640
  63.8016514  38.8912097  56.9715618  63.9232425  37.9628744  57.1706506
  63.5118556  38.9050783  56.0593934  66.6707704  36.5767008  60.1082338
  66.6929401  36.6406341  59.1534318  67.0875764  35.7371517  60.3022844
  77.0491329  46.3122267  58.1461561  77.4922475  45.5629593  57.7480684
  76.1717839  46.3032404  57.7635293  63.2857594  40.4044095  71.1805551
  63.3345749  41.2806218  70.7983321  63.8280108  39.8621488  70.6077194
  71.1814077  43.7808612  69.0898723  72.0823940  43.6415077  68.7982721
  71.2562051  43.9463067  70.0296901  65.5156882  41.1575467  67.9351910
  64.6460191  41.4509033  67.6634498  65.7516362  41.7415912  68.6559173
  76.5924194  47.7827506  60.5384008  77.4271085  48.2217310  60.7021569
  76.7283322  47.3066159  59.7192254  73.6415699  45.3407241  66.4861496
  74.1169821  45.5334887  65.6780348  72.7181265  45.3966426  66.2404880
  68.2195916  37.3755084  65.4517330  68.7377860  38.1116111  65.1263819
  67.8651049  37.6819077  66.2864089  59.7994854  42.2359765  53.5678736
  59.1064099  42.3104120  52.9118772  59.5546605  41.4720109  54.0900253
  68.4708510  33.7955367  60.9718227  68.7510264  33.1278556  61.5978653
  69.2559117  33.9884462  60.4592891  66.2741979  52.9714361  52.5343253
  65.7015946  53.5904548  52.0813725  66.8474772  53.5213722  53.0683175
  72.3417368  42.2173001  64.7189802  73.2934791  42.3171098  64.7402026
  72.1720819  41.4251269  65.2287886  70.3631748  39.3028584  64.9049203
  69.7681680  39.5833597  64.2095691  70.0781445  39.7922485  65.6765944
  74.8205446  45.4379120  63.8332101  74.7881766  44.4995121  64.0191785
  75.4306070  45.5163157  63.0997926  74.9699935  42.2290164  63.8790385
  74.4538983  41.4448620  63.6920313  75.8539883  41.9008880  64.0436904
  72.6310662  35.9731179  59.8386197  72.4335483  35.6646268  60.7229529
  73.2410367  36.6992818  59.9684127  80.6381996  46.4995127  62.9738138
  81.3685385  46.2380415  63.5345842  80.0288942  45.7623849  63.0140206
  78.7197293  44.6402990  63.5712589  77.9930457  44.5058955  62.9629081
  78.3044580  44.9479818  64.3769307  66.5427470  48.3592919  71.3359962
  67.4630479  48.5371519  71.5300009  66.5077053  47.4148965  71.1839662
  66.4593760  36.7762039  55.9658432  65.6494488  36.4309124  56.3413678
  67.1478177  36.4669583  56.5546044  68.3884308  35.8540086  57.5882729
  68.9415347  36.2735540  58.2472752  68.6254395  34.9275834  57.6305685
  64.4117407  41.8427160  73.3685493  64.3114134  42.7921517  73.2997584
  64.1938950  41.5145399  72.4961563  63.6130479  39.0912085  49.9526170
  64.4749643  39.4166983  50.2121987  63.7980823  38.3043581  49.4399236
  71.7663115  37.9640611  57.0961393  71.1861784  38.6225415  56.7139445
  71.4999048  37.1417956  56.6848810  70.2166682  37.3645669  59.2982713
  70.7166460  37.4762204  58.4897032  70.8602290  37.0606722  59.9383522
  64.2748678  45.2724299  72.1850554  63.7915759  46.0724659  72.3914443
  64.3609617  45.2832244  71.2317998  70.5487993  40.1240702  56.1517741
  69.6613848  40.4090352  55.9337936  70.9641982  39.9634465  55.3045018
  73.9002530  40.1487223  59.8672080  74.6762920  40.6383675  60.1396697
  73.1750664  40.5745277  60.3243950  76.3375088  40.8614842  60.9246021
  76.9319579  40.6210578  60.2139329  76.4101672  40.1421973  61.5519557
  70.5229017  45.6395238  56.3668031  70.4664219  46.0963789  55.5275664
  71.0757360  44.8785922  56.1890874  74.3333823  41.4284970  57.1918151
  74.0770757  41.0281605  58.0226359  73.7086691  42.1428764  57.0668290
  78.6446161  44.1681043  59.6989442  78.0845719  44.2374232  60.4721004
  78.0389664  43.9922027  58.9788938  71.2563796  46.8300019  53.6620561
  71.2012600  46.6644290  52.7209005  70.6309852  47.5376052  53.8182750
  68.5709704  49.1348931  72.9874123  69.4400863  49.3089583  72.6260758
  68.0916455  49.9543348  72.8649853  64.5659922  36.3308128  53.2405879
  64.5538592  37.2749968  53.3974150  65.4583344  36.1478273  52.9465340
  68.3812041  32.9250905  57.4951816  67.6144437  32.3709391  57.6408498
  68.7922746  32.9972773  58.3565967  60.3853802  39.2135700  71.5856997
  61.2485264  38.8572505  71.7960322  59.8119213  38.8749595  72.2732401
  85.1851875  58.5064244  60.3705585  85.9177047  57.9363461  60.6043414
  84.4291231  58.1185844  60.8112090  82.7077295  52.2185818  64.8300193
  82.3760620  53.0881229  64.6061408  82.1122909  51.9022102  65.5094224
  82.6005959  56.9380904  61.9093543  81.6922836  56.8696313  61.6152304
  82.5493554  57.4152849  62.7375369  84.4667605  55.1397343  63.6871417
  83.8241985  55.4329876  63.0411212  83.9622534  55.0250263  64.4924614
  84.6066583  64.8040772  59.1215222  83.9217621  65.1839673  58.5712255
  84.6910432  65.4136099  59.8547169  79.4643743  55.0618552  62.6247137
  78.6028222  55.3599805  62.9163875  79.4906178  55.2788951  61.6928170
  91.0669335  61.6711435  60.2417894  90.3133044  61.1018833  60.0861898
  91.2016877  61.6374099  61.1888529  79.8060427  50.0655399  64.4471507
  79.4624696  50.9557041  64.3710617  80.1739390  49.8757057  63.5841092
  78.8856967  52.4360054  62.4120740  78.3821763  52.3990189  61.5988545
  79.1787574  53.3452797  62.4717397  84.7444984  62.8096365  54.8897115
  83.9674427  62.4707524  54.4452277  85.4236465  62.8148988  54.2152080
  75.0384840  51.6242241  57.5178358  74.3849253  51.3091258  56.8934973
  74.9965314  51.0017981  58.2438181  81.5036465  56.5472706  58.9547475
  80.7659222  56.0350093  59.2857718  81.7563239  56.1073088  58.1430752
  81.6048093  49.3248958  59.5489244  81.9106970  48.4646322  59.2615159
  82.3300698  49.9166579  59.3488238  85.1433481  61.8240071  57.3520037
  85.0051380  62.0141667  56.4241226  84.7869700  62.5859454  57.8088088
  85.1702861  63.8916598  62.3631309  85.6039367  63.7991888  63.2114363
  85.8834441  63.8674099  61.7251325  86.0318410  63.9340299  64.8964194
  86.2254300  64.8386110  65.1423469  85.9319028  63.4747718  65.7302779
  81.1471594  62.4067256  50.8875776  80.5300765  61.6814084  50.7908829
  80.6788082  63.1676616  50.5442851  79.4330716  54.7873600  59.8993806
  79.9299415  54.0343563  59.5794877  78.6617697  54.8237917  59.3337016
  87.2860473  60.4913966  61.5412098  87.2750350  61.3738681  61.1706031
  86.4177853  60.1385517  61.3466635  83.9033048  59.3862607  58.0082264
  84.3693500  60.2190598  57.9342567  84.3540548  58.9207588  58.7127522
  81.8749711  51.7543194  62.0473165  80.9612791  51.9847421  62.2155372
  82.3042812  51.8381638  62.8987198  81.6456169  59.9433086  64.5473059
  80.9927619  60.1908993  63.8925512  82.0236549  59.1297224  64.2135537
  82.0345692  68.8777762  56.5271261  82.2082570  68.3124185  55.7745114
  82.5274583  69.6778657  56.3450751  77.5101459  51.9058926  60.1082338
  77.5323156  51.9698259  59.1534318  77.9269518  51.0663434  60.3022844
  87.8885083  61.6414185  58.1461561  88.3316229  60.8921510  57.7480684
  87.0111594  61.6324322  57.7635293  83.0220865  68.1944527  53.6268159
  83.7171769  68.8151219  53.8455474  83.3644015  67.3439878  53.9020537
  84.9212288  65.6444232  55.1555490  85.4463612  65.9831505  54.4304810
  84.8334640  64.7091247  54.9718625  84.7304069  63.1269602  67.7739417
  84.7802074  62.9619610  68.7154939  84.6217992  62.2596861  67.3837297
  82.0207831  59.1100530  69.0898723  82.9217694  58.9706995  68.7982721
  82.0955806  59.2754985  70.0296901  86.2322266  65.5466544  68.0181438
  85.9407074  65.9096524  68.8544899  85.6194397  64.8333552  67.8394770
  87.4317948  63.1119423  60.5384008  88.2664839  63.5509228  60.7021569
  87.5677077  62.6358077  59.7192254  84.4809454  60.6699158  66.4861496
  84.9563576  60.8626805  65.6780348  83.5575019  60.7258344  66.2404880
  79.0589670  52.7047002  65.4517330  79.5771614  53.4408029  65.1263819
  78.7044803  53.0110995  66.2864089  79.3102265  49.1247284  60.9718227
  79.5904018  48.4570473  61.5978653  80.0952872  49.3176380  60.4592891
  83.1811123  57.5464918  64.7189802  84.1328546  57.6463016  64.7402026
  83.0114573  56.7543187  65.2287886  81.2025502  54.6320502  64.9049203
  80.6075435  54.9125514  64.2095691  80.9175199  55.1214403  65.6765944
  82.9621010  67.9009299  50.6255783  82.8834641  67.5669162  51.5191541
  83.7830676  68.3931067  50.6247255  85.6599201  60.7671038  63.8332101
  85.6275521  59.8287039  64.0191785  86.2699824  60.8455075  63.0997926
  85.8093689  57.5582081  63.8790385  85.2932738  56.7740538  63.6920313
  86.6933638  57.2300798  64.0436904  83.4704416  51.3023097  59.8386197
  83.2729237  50.9938185  60.7229529  84.0804122  52.0284736  59.9684127
  91.4775751  61.8287045  62.9738138  92.2079139  61.5672333  63.5345842
  90.8682696  61.0915767  63.0140206  89.5591048  59.9694907  63.5712589
  88.8324211  59.8350872  62.9629081  89.1438335  60.2771736  64.3769307
  79.2278063  51.1832004  57.5882729  79.7809101  51.6027457  58.2472752
  79.4648149  50.2567752  57.6305685  82.6056870  53.2932529  57.0961393
  82.0255539  53.9517333  56.7139445  82.3392803  52.4709874  56.6848810
  81.0560436  52.6937587  59.2982713  81.5560215  52.8054121  58.4897032
  81.6996044  52.3898640  59.9383522  84.7396284  55.4779140  59.8672080
  85.5156674  55.9675593  60.1396697  84.0144418  55.9037195  60.3243950
  87.1768843  56.1906760  60.9246021  87.7713333  55.9502496  60.2139329
  87.2495426  55.4713890  61.5519557  80.5324961  65.2177294  50.2465761
  81.2360811  65.4227297  50.8623417  79.8087610  65.7854056  50.5114845
  85.1727578  56.7576887  57.1918151  84.9164512  56.3573523  58.0226359
  84.5480446  57.4720681  57.0668290  89.4839915  59.4972961  59.6989442
  88.9239473  59.5666150  60.4721004  88.8783419  59.3213945  58.9788938
  82.4411659  65.6559823  52.2964221  83.2757263  65.2241022  52.1141696
  82.2796002  65.4841837  53.2241116  79.2205796  48.2542822  57.4951816
  78.4538192  47.7001309  57.6408498  79.6316501  48.3264691  58.3565967
  91.0695934  76.1729474  62.3919398  91.7074344  76.0536222  61.6882738
  90.9516777  77.1210318  62.4507350  87.8785640  76.1256903  62.3280923
  87.5404152  76.0097967  61.4401458  88.7475408  75.7248068  62.3081929
  83.7372456  77.9792379  58.3177814  83.1737321  77.8882316  57.5494101
  83.6224851  77.1592283  58.7980306  88.3605423  77.2791754  68.2867128
  88.3494064  76.8844553  67.4147632  88.5226063  76.5457827  68.8800900
  81.2836888  79.4743571  61.1562034  82.0758180  79.1334395  60.7408333
  81.5233538  79.5838546  62.0764187  89.3172015  81.6463347  53.6292279
  88.6659994  82.2317427  53.2426292  90.1116377  82.1769542  53.6887316
  83.2427642  78.7352484  54.0279413  84.0158518  78.1881471  53.8892289
  83.5953041  79.5996733  54.2393874  85.0812684  80.0628866  67.2346312
  84.7902550  80.9674497  67.1192978  85.7169669  80.1045394  67.9490382
  86.0068891  77.4405715  63.8247672  86.6032463  77.2161737  63.1104635
  86.0643863  76.6990460  64.4273120  85.5793919  74.8945150  51.6597863
  85.8319440  74.3726671  50.8981326  84.6418479  74.7311295  51.7624546
  90.6237202  73.8980928  59.4672606  91.4100292  73.4800351  59.1163023
  90.8875907  74.8027021  59.6354254  90.7947280  79.3353779  54.1661263
  90.1593113  79.4088405  54.8782167  90.4644686  79.9247377  53.4880342
  96.0245629  73.8356162  60.3705585  96.7570801  73.2655378  60.6043414
  95.2684985  73.4477762  60.8112090  85.2990208  76.7973256  53.8622238
  85.1826466  76.1218159  54.5303322  85.4092468  76.3105630  53.0454391
  87.6421749  76.2583403  57.5668927  87.2779956  75.7314024  58.2781848
  88.4988865  75.8681872  57.3935412  93.5471050  67.5477736  64.8300193
  93.2154375  68.4173147  64.6061408  92.9516663  67.2314020  65.5094224
  87.2827236  71.2873303  52.5630275  87.4501638  72.1553539  52.9300747
  87.0924405  71.4500584  51.6391565  90.0402569  79.7490282  64.2296106
  89.7403292  80.6515320  64.1211913  89.6953629  79.4822465  65.0817259
  83.4915051  76.2004078  60.2632810  82.5665547  76.0680293  60.4710502
  83.7399464  76.9798298  60.7602753  93.4399713  72.2672822  61.9093543
  92.5316590  72.1988230  61.6152304  93.3887309  72.7444767  62.7375369
  87.2616457  73.7430960  53.5476942  87.1416082  74.1888011  54.3862423
  86.5669045  74.0916278  52.9890480  80.8523862  75.8437352  61.0976599
  80.9816243  76.0971831  62.0116011  80.1721313  76.4365060  60.7781254
  85.0223349  86.5134602  57.1967074  84.9447379  87.4642427  57.2755554
  84.4184993  86.1680474  57.8542000  87.5140579  73.6862467  69.8528440
  86.7373913  74.2456388  69.8431305  88.1531142  74.1719250  70.3743311
  95.3061360  70.4689260  63.6871417  94.6635740  70.7621793  63.0411212
  94.8016288  70.3542181  64.4924614  92.9601523  74.2152433  54.3757276
  93.8719379  74.4479820  54.2004974  92.4511170  74.7989478  53.8132355
  85.7686951  76.4947921  69.4146407  86.5101636  77.0332965  69.1381231
  85.0623937  77.1214210  69.5717959  91.2442291  78.6377061  68.0118569
  91.6525647  78.1959472  67.2673201  90.5219552  78.0629689  68.2652762
  87.5973361  73.5749668  65.3852126  88.4434556  73.9989082  65.5286775
  87.5371999  72.9183292  66.0790689  91.5671105  79.1978252  61.7670858
  90.9379968  79.3623966  61.0646926  91.1796768  79.6119861  62.5381822
  90.7472806  71.2354036  67.0433300  90.5033738  71.9896097  66.5067575
  91.0232737  71.6139384  67.8780547  92.7011269  77.7792649  65.7210565
  92.9128164  78.4224409  65.0444946  92.6541017  76.9454965  65.2532495
  90.3037498  70.3910469  62.6247137  89.4421977  70.6891723  62.9163875
  90.3299933  70.6080868  61.6928170  87.1199067  78.9352660  59.0320943
  87.5837413  79.2140363  58.2425565  86.8555865  78.0336105  58.8494034
  84.0123148  78.4824141  61.9700706  84.5824505  78.9111410  61.3318191
  84.6031260  78.2006726  62.6684892  86.0567953  75.0575812  55.8410508
  86.7591997  75.5096856  56.3084434  85.7248582  74.4159631  56.4690401
  84.5048315  73.6487569  70.2161717  83.8746976  74.3303850  70.4497114
  84.3984403  73.5370651  69.2714856  93.8157097  80.6564604  63.8932922
  94.6374541  80.2544791  63.6115604  93.8119500  80.5532838  64.8449038
  87.5813700  80.2048647  66.0493633  87.6458133  80.6669055  66.8851805
  86.8724624  79.5746012  66.1775943 101.9063090  77.0003353  60.2417894
 101.1526798  76.4310751  60.0861898 102.0410631  76.9666017  61.1888529
  87.2961718  81.8716755  55.9172613  87.1607393  82.7168291  56.3457461
  87.8371531  82.0736033  55.1538547  80.7491115  79.3892193  56.4900538
  81.2615636  80.1835443  56.6406103  81.4013828  78.6918483  56.4234140
  82.5586000  82.5057949  58.5723292  82.7352628  83.4275914  58.3844275
  83.3542834  82.1916368  59.0017671  86.6997019  69.3666214  70.1707225
  87.4406732  69.9673367  70.0911688  86.9314941  68.6243852  69.6125268
  81.8438357  74.5522581  68.4485455  81.7291872  73.6507838  68.7492554
  80.9882874  74.7986278  68.0970271  88.9230194  82.4940321  70.0472955
  88.4794049  81.7076700  69.7293860  89.5847408  82.6819472  69.3816846
  83.6817316  84.0236123  64.5733634  84.2324741  83.8953186  63.8010628
  82.8428791  84.3231012  64.2228527  91.0211432  82.7743121  68.0754357
  91.0029908  83.5952002  67.5834626  91.9431353  82.6497197  68.3004498
  87.4784487  80.2887251  68.9177865  88.0112823  79.5275539  68.6877173
  86.9498568  79.9960903  69.6602019  90.6454182  65.3947317  64.4471507
  90.3018451  66.2848958  64.3710617  91.0133144  65.2048974  63.5841092
  90.6104464  75.3855928  52.9543942  90.0951088  76.1560533  53.1932329
  90.3381773  74.7121064  53.5777003  88.1951575  70.2305629  58.0129180
  87.3393172  69.8412479  57.8334819  88.6078527  70.3097590  57.1528966
  89.7250722  67.7651972  62.4120740  89.2215518  67.7282107  61.5988545
  90.0181329  68.6744715  62.4717397  85.9693608  67.8490702  61.4186922
  86.8346605  67.6533510  61.0592811  86.0371117  67.6201053  62.3456278
  95.5838738  78.1388283  54.8897115  94.8068181  77.7999442  54.4452277
  96.2630219  78.1440906  54.2152080  90.3990767  73.2583020  54.7803723
  90.0940903  73.5729169  55.6313866  91.3521210  73.3364440  54.8231056
  88.8437199  79.4173243  56.4296677  88.3158561  78.6826003  56.1169914
  88.3424702  80.1947920  56.1836645  93.8230045  77.6122264  61.5463723
  93.1653720  78.3021525  61.6343852  94.6270445  78.0018696  61.8897710
  83.5755927  70.0792910  58.7903289  84.1499679  69.8568091  58.0576481
  84.1626909  70.1481604  59.5431890  92.6335504  75.9666637  59.5967665
  93.1467386  76.5996628  60.0989375  93.2836728  75.3667832  59.2311025
  83.9025514  72.1097371  52.8099174  83.0662826  72.4472057  53.1308449
  83.7630284  71.9746350  51.8726311  85.8778595  66.9534159  57.5178358
  85.2243007  66.6383176  56.8934973  85.8359069  66.3309899  58.2438181
  86.9889800  77.2353454  49.4331650  86.0816861  77.0042707  49.6322799
  87.4860831  76.4391073  49.6205632  89.8957878  85.9450961  52.3528336
  89.2219577  86.2482658  52.9613294  90.2823700  86.7480041  52.0033793
  89.1116335  73.4416092  61.8426006  88.1938896  73.6631039  61.6847694
  89.5276479  73.5162403  60.9837713  89.8951383  74.8407508  56.9728686
  90.6423202  75.3528905  56.6635808  90.1642972  74.5191560  57.8333079
  88.1678033  77.3366048  53.9555640  87.2589252  77.0525081  54.0528110
  88.1973117  77.7565127  53.0958947  93.3997300  80.9472638  57.7246808
  92.9459627  80.1063548  57.7811998  92.7691267  81.5834036  58.0621588
  92.3430220  71.8764624  58.9547475  91.6052977  71.3642010  59.2857718
  92.5956993  71.4365006  58.1430752  92.4441847  64.6540876  59.5489244
  92.7500724  63.7938239  59.2615159  93.1694452  65.2458496  59.3488238
  86.7162927  74.9494669  60.0565435  86.7711537  73.9968505  59.9807912
  85.9054129  75.1054108  60.5406734  87.8654121  78.8774792  51.2943719
  87.4273551  78.1610651  50.8349356  88.6064562  79.1050907  50.7328810
  84.6555287  73.5671729  57.8155814  83.8423152  73.8665899  58.2221006
  85.1514281  73.1727418  58.5330297  86.8063865  83.5629486  59.7490079
  86.7640044  83.7890332  58.8198611  87.7226564  83.3292860  59.8975880
  90.2529499  74.0313553  66.6470708  90.6078886  74.2585026  67.5065174
  90.9001630  74.3631930  66.0247964  95.9827236  77.1531989  57.3520037
  95.8445134  77.3433585  56.4241226  95.6263454  77.9151372  57.8088088
  84.9229666  80.4392515  59.5452042  85.7170264  79.9442835  59.3434617
  84.2121358  79.9110378  59.1819747  89.7424510  82.8210610  63.8964409
  89.7961532  83.3901547  64.6642125  88.8739291  82.9912495  63.5318447
  81.2312429  74.5835596  55.6211794  80.3010017  74.5220052  55.8381757
  81.3269901  74.0611549  54.8248436  96.8712165  79.2632217  64.8964194
  97.0648055  80.1678027  65.1423469  96.7712783  78.8039636  65.7302779
  88.5248475  69.1490107  67.3954522  87.8776390  69.8480057  67.3018998
  89.2949491  69.5826251  67.7630770  91.9327273  79.4138960  70.4705075
  91.7812780  79.1849511  69.5535158  91.9231953  80.3709561  70.4836420
  88.7012610  76.9870872  65.4551341  89.6304670  77.1382032  65.2820309
  88.2803640  77.0754893  64.5999988  87.5000942  81.0121537  63.2249879
  87.3612027  80.6440321  64.0975817  86.7115538  81.5269176  63.0533837
  88.0949094  86.1130633  54.5675415  88.2700849  85.6418676  55.3821038
  87.4081882  86.7396399  54.7956676  89.0506157  80.3903139  60.6138717
  88.7155989  80.3503909  61.5096367  88.5510102  79.7247855  60.1409127
  83.0250401  75.7970769  66.1391298  82.8870199  75.0651008  66.7402837
  83.9355324  75.7079670  65.8575486  91.9865348  77.7359174  50.8875776
  91.3694519  77.0106002  50.7908829  91.5181837  78.4968534  50.5442851
  85.6532701  75.5090729  65.6274977  86.3632320  74.8683921  65.5861596
  85.6102010  75.7603624  66.5501158  84.3661635  72.4955947  67.4470617
  83.8298992  72.0446685  68.0992213  83.7778344  72.6301856  66.7041081
  82.6610179  89.2619996  61.3415276  82.9006777  89.8938520  62.0194294
  81.8179375  88.9108036  61.6280635  83.7763894  71.9544598  50.0097081
  82.8993361  71.8333399  49.6459327  84.2521647  71.1630676  49.7575969
  93.6436887  80.4097666  66.7795536  92.7563666  80.0723588  66.9021935
  94.2135438  79.6780697  67.0164302  87.1738041  85.0699118  63.7456780
  87.1008212  85.8754090  64.2576084  86.7315434  85.2691084  62.9204801
  86.9627820  84.3070888  57.2559601  86.1795342  84.8492569  57.3497826
  87.6620565  84.8244868  57.6553842  90.2724470  70.1165518  59.8993806
  90.7693170  69.3635480  59.5794877  89.5011452  70.1529835  59.3337016
  98.1254228  75.8205883  61.5412098  98.1144104  76.7030599  61.1706031
  97.2571607  75.4677434  61.3466635  89.6336724  84.9685952  65.9014938
  90.3464696  85.6033417  65.8290840  89.1426753  85.0649818  65.0854940
  91.3554251  78.8737205  57.4732230  90.4210530  78.9938668  57.3036934
  91.5330920  77.9709672  57.2092240  86.8559439  72.2582901  59.6265491
  86.4857227  71.7053941  60.3146397  87.3518532  71.6541034  59.0740491
  94.7426802  74.7154524  58.0082264  95.2087255  75.5482516  57.9342567
  95.1934303  74.2499506  58.7127522  84.6848638  82.7180396  66.7220509
  85.3858097  83.3516879  66.8749903  84.2143753  83.0595127  65.9616148
  92.8103034  81.0598346  55.0068416  93.0862877  80.9454940  55.9162290
  91.9407532  80.6615831  54.9680589  92.7143465  67.0835111  62.0473165
  91.8006545  67.3139338  62.2155372  93.1436567  67.1673555  62.8987198
  92.4849924  75.2725003  64.5473059  91.8321374  75.5200911  63.8925512
  92.8630304  74.4589142  64.2135537  89.4457098  85.3084697  58.6501230
  89.6279492  84.4906352  59.1128982  90.2690084  85.5252389  58.2126120
  89.7799263  84.2352882  55.9116278  90.3087030  83.7245336  55.2986440
  90.0427483  83.9195412  56.7761811  88.5337497  76.0144814  71.0339096
  87.8578134  75.9138944  71.7041472  89.3565131  75.8584028  71.4975094
  80.2816356  82.2516751  63.6551612  80.8669793  81.5060439  63.7879516
  80.0841194  82.5620708  64.5388276  83.1355011  85.2867998  58.6714054
  82.4665386  85.7714126  58.1878094  82.9967881  85.5337219  59.5857433
  87.2760280  87.3211742  65.2696712  87.8278588  87.4843363  66.0345798
  87.6166473  87.9116180  64.5976737  90.4128667  85.2693717  62.2560395
  90.2879806  84.4683457  61.7471340  91.0707758  85.7639911  61.7674365
  89.4810009  82.8655454  60.0844297  89.3334971  81.9372161  60.2651867
  90.3063502  82.8875544  59.6001372  83.3472253  71.5173521  55.9424789
  83.6868325  72.0459442  55.2203397  83.7944373  71.8553927  56.7183356
  93.0844130  83.6884012  61.1709170  94.0090678  83.4826874  61.0333621
  92.9159434  83.4400414  62.0798511  86.0415694  69.9010572  65.3927857
  85.7012514  69.1018385  65.7948537  85.3354700  70.2012282  64.8204690
  86.6932166  66.9859884  63.8455180  87.5158235  66.5120362  63.7234070
  86.9370229  67.7650368  64.3453866  85.3340400  70.0148142  54.1418082
  86.0548763  70.3929395  53.6381799  84.7105704  70.7337019  54.2453060
  89.4771523  70.7193291  55.0776414  89.6935137  71.6017929  54.7765242
  88.9965590  70.3279505  54.3482056  84.2170744  73.6779005  61.6547159
  84.0715325  73.9919308  62.5471440  83.7395948  74.2963905  61.1018057
  86.0767127  70.6681553  61.7028048  86.0628696  69.7722646  61.3660346
  86.7939555  70.6752216  62.3366334  87.9293258  71.1018893  63.7481176
  87.6711036  72.0235963  63.7465506  87.3978298  70.7049327  64.4381640
  92.8739447  84.2069680  56.5271261  93.0476324  83.6416102  55.7745114
  93.3668338  85.0070575  56.3450751  78.6916406  76.2184349  64.5934820
  78.1469875  76.9944157  64.7255094  79.5695756  76.5655153  64.4353941
  85.4804023  69.5495933  56.9715618  85.6019934  68.6212579  57.1706506
  85.1906065  69.5634619  56.0593934  88.3495213  67.2350843  60.1082338
  88.3716910  67.2990176  59.1534318  88.7663272  66.3955352  60.3022844
  98.7278838  76.9706103  58.1461561  99.1709984  76.2213428  57.7480684
  97.8505348  76.9616239  57.7635293  79.4782428  75.3454245  67.4864977
  78.7364164  75.4936881  68.0729607  79.1575173  75.6062511  66.6231726
  87.4226091  84.8870223  67.2845367  87.7313217  84.6419370  68.1568066
  88.2201573  85.0916862  66.7964237  87.4446703  87.0408133  59.5150743
  87.0051693  86.5484512  60.2083600  88.1954820  86.4981101  59.2742819
  79.9239042  83.2319674  59.5175371  80.7497062  82.9323446  59.1374015
  79.5733094  82.4627296  59.9665160  84.8920575  82.5846142  61.5873045
  84.2700584  81.9216847  61.2875273  85.5625442  82.6107274  60.9046693
  84.9645103  71.0627930  71.1805551  85.0133258  71.9390053  70.7983321
  85.5067617  70.5205323  70.6077194  95.4499948  81.6069053  70.4606688
  94.6595492  81.5893192  69.9211188  95.2133303  82.1457347  71.2155725
  95.5697823  78.4561520  67.7739417  95.6195828  78.2911527  68.7154939
  95.4611747  77.5888779  67.3837297  84.4534082  81.1350066  55.0631506
  84.6022202  81.8185530  54.4098178  85.2600525  81.1155156  55.5780961
  92.8601586  74.4392448  69.0898723  93.7611448  74.2998913  68.7982721
  92.9349560  74.6046903  70.0296901  87.1944391  71.8159303  67.9351910
  86.3247700  72.1092869  67.6634498  87.4303871  72.3999748  68.6559173
  97.0716020  80.8758461  68.0181438  96.7800828  81.2388442  68.8544899
  96.4588151  80.1625470  67.8394770  98.2711702  78.4411341  60.5384008
  99.1058594  78.8801145  60.7021569  98.4070831  77.9649994  59.7192254
  95.3203208  75.9991076  66.4861496  95.7957330  76.1918722  65.6780348
  94.3968774  76.0550262  66.2404880  82.2086715  77.1615243  56.0692574
  81.9632757  76.2577573  56.2672785  82.3782630  77.1632394  55.1272052
  89.8983425  68.0338920  65.4517330  90.4165369  68.7699946  65.1263819
  89.5438558  68.3402913  66.2864089  81.4782363  72.8943601  53.5678736
  80.7851607  72.9687956  52.9118772  81.2334114  72.1303944  54.0900253
  90.1496019  64.4539202  60.9718227  90.4297773  63.7862391  61.5978653
  90.9346626  64.6468298  60.4592891  87.9529488  83.6298196  52.5343253
  87.3803455  84.2488383  52.0813725  88.5262281  84.1797558  53.0683175
  94.0204877  72.8756836  64.7189802  94.9722300  72.9754934  64.7402026
  93.8508328  72.0835105  65.2287886  92.0419257  69.9612419  64.9049203
  91.4469189  70.2417432  64.2095691  91.7568954  70.4506320  65.6765944
  91.1726747  83.9135346  53.6651835  92.1057421  83.8480908  53.8684711
  91.0849960  84.7491613  53.2066368  93.8014764  83.2301216  50.6255783
  93.7228396  82.8961080  51.5191541  94.6224431  83.7222984  50.6247255
  88.3376286  74.9659009  49.8759305  89.2835391  74.8365217  49.9447724
  87.9590531  74.2273671  50.3528734  96.6487444  72.8873999  63.8790385
  96.1326492  72.1032456  63.6920313  97.5327392  72.5592716  64.0436904
  94.3098171  66.6315015  59.8386197  94.1122992  66.3230103  60.7229529
  94.9197876  67.3576654  59.9684127 102.3169505  77.1578963  62.9738138
 103.0472894  76.8964251  63.5345842 101.7076451  76.4207685  63.0140206
 100.3984802  75.2986825  63.5712589  99.6717966  75.1642790  62.9629081
  99.9832089  75.6063654  64.3769307  88.2214979  79.0176755  71.3359962
  89.1417988  79.1955354  71.5300009  88.1864562  78.0732800  71.1839662
  86.5219203  72.8908985  49.8114191  85.6150659  72.5942098  49.8876904
  86.7995184  72.5938803  48.9448477  81.2177051  76.9277790  63.9782744
  81.4363061  77.8594897  63.9970777  81.6302825  76.5685764  64.7637547
  88.1381269  67.4345875  55.9658432  87.3281997  67.0892960  56.3413678
  88.8265686  67.1253419  56.5546044  90.0671817  66.5123922  57.5882729
  90.6202856  66.9319375  58.2472752  90.3041904  65.5859670  57.6305685
  86.0904916  72.5010995  73.3685493  85.9901643  73.4505352  73.2997584
  85.8726459  72.1729234  72.4961563  85.2917988  69.7495920  49.9526170
  86.1537152  70.0750819  50.2121987  85.4768332  68.9627416  49.4399236
  93.4450624  68.6224447  57.0961393  92.8649293  69.2809251  56.7139445
  93.1786557  67.8001791  56.6848810  91.8954191  68.0229504  59.2982713
  92.3953969  68.1346039  58.4897032  92.5389799  67.7190557  59.9383522
  85.9536187  75.9308134  72.1850554  85.4703268  76.7308494  72.3914443
  86.0397126  75.9416079  71.2317998  81.8809524  79.8212669  64.2218988
  82.8352778  79.7896611  64.1548920  81.6822048  79.3603293  65.0369214
  82.4708906  78.3913785  66.7889786  83.2901795  78.8857864  66.8124623
  82.7445714  77.4745753  66.7607353  92.2275502  70.7824537  56.1517741
  91.3401357  71.0674188  55.9337936  92.6429491  70.6218301  55.3045018
  95.5790038  70.8071058  59.8672080  96.3550429  71.2967511  60.1396697
  94.8538173  71.2329112  60.3243950  80.2359753  85.3632288  61.2389186
  80.1014221  84.6032689  60.6727184  79.8191815  86.0873188  60.7717975
  91.3718716  80.5469212  50.2465761  92.0754566  80.7519214  50.8623417
  90.6481365  81.1145974  50.5114845  92.2016526  76.2979073  56.3668031
  92.1451727  76.7547625  55.5275664  92.7544869  75.5369758  56.1890874
  96.0121332  72.0868805  57.1918151  95.7558266  71.6865441  58.0226359
  95.3874200  72.8012599  57.0668290 100.3233670  74.8264878  59.6989442
  99.7633228  74.8958068  60.4721004  99.7177173  74.6505863  58.9788938
  83.3928879  86.2601605  61.4507629  83.2761263  87.2047038  61.3486319
  82.5721325  85.9575167  61.8393428  93.2805413  80.9851741  52.2964221
  94.1151017  80.5532940  52.1141696  93.1189756  80.8133755  53.2241116
  92.9351305  77.4883854  53.6620561  92.8800109  77.3228126  52.7209005
  92.3097361  78.1959887  53.8182750  90.2497213  79.7932766  72.9874123
  91.1188372  79.9673419  72.6260758  89.7703964  80.6127183  72.8649853
  86.2447431  66.9891963  53.2405879  86.2326101  67.9333803  53.3974150
  87.1370853  66.8062109  52.9465340  84.4183393  86.9129867  64.6663557
  85.3210640  86.9453477  64.9830052  84.1920763  85.9830318  64.6809893
  86.1736995  85.6660854  61.3273636  85.2232626  85.6662715  61.2138008
  86.4769481  84.9193588  60.8109670  90.0599550  63.5834740  57.4951816
  89.2931946  63.0293227  57.6408498  90.4710255  63.6556609  58.3565967
 101.9089688  91.5021392  62.3919398 102.5468098  91.3828140  61.6882738
 101.7910531  92.4502236  62.4507350  98.7179395  91.4548820  62.3280923
  98.3797906  91.3389885  61.4401458  99.5869163  91.0539985  62.3081929
  94.5766210  93.3084297  58.3177814  94.0131075  93.2174234  57.5494101
  94.4618605  92.4884201  58.7980306  99.1999178  92.6083672  68.2867128
  99.1887818  92.2136470  67.4147632  99.3619817  91.8749745  68.8800900
  92.1230642  94.8035488  61.1562034  92.9151934  94.4626313  60.7408333
  92.3627292  94.9130463  62.0764187 100.1565769  96.9755264  53.6292279
  99.5053749  97.5609345  53.2426292 100.9510132  97.5061459  53.6887316
  94.0821396  94.0644402  54.0279413  94.8552272  93.5173389  53.8892289
  94.4346795  94.9288651  54.2393874  95.9206439  95.3920784  67.2346312
  95.6296305  96.2966415  67.1192978  96.5563423  95.4337311  67.9490382
  96.8462646  92.7697632  63.8247672  97.4426218  92.5453655  63.1104635
  96.9037617  92.0282378  64.4273120  96.4187674  90.2237068  51.6597863
  96.6713195  89.7018589  50.8981326  95.4812233  90.0603213  51.7624546
 101.4630957  89.2272846  59.4672606 102.2494046  88.8092269  59.1163023
 101.7269661  90.1318938  59.6354254 101.6341034  94.6645696  54.1661263
 100.9986867  94.7380323  54.8782167 101.3038441  95.2539295  53.4880342
 106.8639384  89.1648079  60.3705585 107.5964556  88.5947296  60.6043414
 106.1078740  88.7769680  60.8112090  96.1383963  92.1265174  53.8622238
  96.0220221  91.4510077  54.5303322  96.2486223  91.6397548  53.0454391
  98.4815504  91.5875321  57.5668927  98.1173711  91.0605942  58.2781848
  99.3382620  91.1973790  57.3935412 104.3864804  82.8769653  64.8300193
 104.0548129  83.7465064  64.6061408 103.7910418  82.5605937  65.5094224
  98.1220991  86.6165220  52.5630275  98.2895393  87.4845457  52.9300747
  97.9318160  86.7792502  51.6391565 100.8796324  95.0782199  64.2296106
 100.5797047  95.9807238  64.1211913 100.5347383  94.8114383  65.0817259
  94.3308805  91.5295996  60.2632810  93.4059302  91.3972210  60.4710502
  94.5793218  92.3090215  60.7602753 104.2793468  87.5964739  61.9093543
 103.3710345  87.5280148  61.6152304 104.2281063  88.0736684  62.7375369
  98.1010211  89.0722878  53.5476942  97.9809837  89.5179929  54.3862423
  97.4062800  89.4208196  52.9890480  91.6917616  91.1729270  61.0976599
  91.8209997  91.4263749  62.0116011  91.0115068  91.7656978  60.7781254
  95.8617104 101.8426520  57.1967074  95.7841133 102.7934345  57.2755554
  95.2578747 101.4972392  57.8542000  98.3534333  89.0154385  69.8528440
  97.5767667  89.5748305  69.8431305  98.9924896  89.5011168  70.3743311
 106.1455114  85.7981178  63.6871417 105.5029494  86.0913711  63.0411212
 105.6410043  85.6834098  64.4924614 103.7995278  89.5444351  54.3757276
 104.7113134  89.7771738  54.2004974 103.2904925  90.1281395  53.8132355
  96.6080706  91.8239838  69.4146407  97.3495390  92.3624882  69.1381231
  95.9017691  92.4506127  69.5717959 102.0836045  93.9668979  68.0118569
 102.4919401  93.5251389  67.2673201 101.3613307  93.3921606  68.2652762
  98.4367115  88.9041586  65.3852126  99.2828311  89.3280999  65.5286775
  98.3765753  88.2475210  66.0790689 102.4064860  94.5270170  61.7670858
 101.7773722  94.6915884  61.0646926 102.0190522  94.9411779  62.5381822
 106.2854092  95.4624607  59.1215222 105.6005130  95.8423509  58.5712255
 106.3697941  96.0719934  59.8547169 101.5866561  86.5645954  67.0433300
 101.3427493  87.3188015  66.5067575 101.8626491  86.9431302  67.8780547
 103.5405023  93.1084566  65.7210565 103.7521919  93.7516326  65.0444946
 103.4934772  92.2746883  65.2532495 101.1431252  85.7202387  62.6247137
 100.2815731  86.0183641  62.9163875 101.1693687  85.9372786  61.6928170
  97.9592822  94.2644578  59.0320943  98.4231167  94.5432281  58.2425565
  97.6949620  93.3628022  58.8494034  94.8516903  93.8116059  61.9700706
  95.4218260  94.2403328  61.3318191  95.4425015  93.5298644  62.6684892
  96.8961708  90.3867730  55.8410508  97.5985751  90.8388774  56.3084434
  96.5642336  89.7451549  56.4690401  95.3442069  88.9779487  70.2161717
  94.7140730  89.6595767  70.4497114  95.2378157  88.8662568  69.2714856
  90.6387042  88.6451283  61.1427642  89.8486096  88.9008811  60.6667752
  91.1298289  89.4599621  61.2479682 104.6550851  95.9856522  63.8932922
 105.4768295  95.5836709  63.6115604 104.6513254  95.8824756  64.8449038
  92.5901787  89.0095862  58.1011118  91.7932951  89.1214556  58.6194614
  92.3627379  89.3482514  57.2352009  98.4207455  95.5340565  66.0493633
  98.4851887  95.9960972  66.8851805  97.7118379  94.9037930  66.1775943
  88.9224745  88.8981773  63.5742632  89.1732783  89.7828783  63.8400208
  89.4584293  88.7186375  62.8017724 112.7456844  92.3295270  60.2417894
 111.9920553  91.7602668  60.0861898 112.8804386  92.2957935  61.1888529
  98.1355473  97.2008673  55.9172613  98.0001147  98.0460208  56.3457461
  98.6765285  97.4027950  55.1538547  94.6222812  83.2800252  72.5786968
  94.2289758  82.7266451  73.2534613  95.4388952  83.5910831  72.9693486
  91.5884870  94.7184111  56.4900538  92.1009390  95.5127361  56.6406103
  92.2407583  94.0210401  56.4234140  93.3979755  97.8349867  58.5723292
  93.5746383  98.7567832  58.3844275  94.1936588  97.5208286  59.0017671
  97.5390773  84.6958132  70.1707225  98.2800487  85.2965285  70.0911688
  97.7708696  83.9535769  69.6125268  92.6832111  89.8814499  68.4485455
  92.5685626  88.9799756  68.7492554  91.8276629  90.1278196  68.0970271
  99.7623949  97.8232239  70.0472955  99.3187803  97.0368618  69.7293860
 100.4241162  98.0111390  69.3816846  94.5211070  99.3528041  64.5733634
  95.0718495  99.2245104  63.8010628  93.6822546  99.6522930  64.2228527
 101.8605187  98.1035039  68.0754357 101.8423662  98.9243920  67.5834626
 102.7825107  97.9789114  68.3004498  98.3178241  95.6179169  68.9177865
  98.8506578  94.8567457  68.6877173  97.7892322  95.3252820  69.6602019
 101.4847936  80.7239234  64.4471507 101.1412205  81.6140876  64.3710617
 101.8526899  80.5340892  63.5841092  89.5533787  93.0472765  57.2660109
  90.3909009  93.4569773  57.0493817  89.7312054  92.1072207  57.2360303
 101.4498219  90.7147846  52.9543942 100.9344842  91.4852450  53.1932329
 101.1775527  90.0412982  53.5777003  99.0345330  85.5597546  58.0129180
  98.1786926  85.1704397  57.8334819  99.4472282  85.6389507  57.1528966
 100.5644476  83.0943890  62.4120740 100.0609272  83.0574025  61.5988545
 100.8575083  84.0036632  62.4717397  96.8087362  83.1782619  61.4186922
  97.6740359  82.9825428  61.0592811  96.8764871  82.9492971  62.3456278
 106.4232493  93.4680200  54.8897115 105.6461936  93.1291360  54.4452277
 107.1023974  93.4732823  54.2152080 101.2384522  88.5874938  54.7803723
 100.9334658  88.9021087  55.6313866 102.1914964  88.6656358  54.8231056
  99.6830954  94.7465161  56.4296677  99.1552315  94.0117921  56.1169914
  99.1818457  95.5239837  56.1836645 104.6623800  92.9414181  61.5463723
 104.0047474  93.6313443  61.6343852 105.4664199  93.3310613  61.8897710
  94.4149681  85.4084827  58.7903289  94.9893433  85.1860009  58.0576481
  95.0020664  85.4773522  59.5431890 103.4729259  91.2958554  59.5967665
 103.9861140  91.9288546  60.0989375 104.1230483  90.6959750  59.2311025
  94.7419269  87.4389288  52.8099174  93.9056581  87.7763975  53.1308449
  94.6024038  87.3038268  51.8726311  96.7172349  82.2826076  57.5178358
  96.0636761  81.9675093  56.8934973  96.6752823  81.6601817  58.2438181
  97.8283554  92.5645371  49.4331650  96.9210616  92.3334625  49.6322799
  98.3254586  91.7682991  49.6205632 100.7351633 101.2742878  52.3528336
 100.0613332 101.5774575  52.9613294 101.1217455 102.0771959  52.0033793
  99.9510090  88.7708010  61.8426006  99.0332651  88.9922957  61.6847694
 100.3670233  88.8454320  60.9837713 100.7345137  90.1699425  56.9728686
 101.4816956  90.6820823  56.6635808 101.0036727  89.8483478  57.8333079
  99.0071787  92.6657966  53.9555640  98.0983007  92.3816999  54.0528110
  99.0366871  93.0857045  53.0958947 104.2391055  96.2764556  57.7246808
 103.7853382  95.4355466  57.7811998 103.6085022  96.9125954  58.0621588
 103.1823974  87.2056542  58.9547475 102.4446731  86.6933928  59.2857718
 103.4350748  86.7656923  58.1430752 102.6823994  98.1141052  58.6596626
 102.9746968  98.6746109  57.9408991 103.1922615  98.4069613  59.4149785
 103.2835602  79.9832794  59.5489244 103.5894479  79.1230157  59.2615159
 104.0088207  80.5750414  59.3488238  89.5759958  90.3863480  57.9370842
  89.3784358  89.7932841  57.2121909  89.0206622  90.0815690  58.6546781
  97.5556681  90.2786587  60.0565435  97.6105291  89.3260423  59.9807912
  96.7447884  90.4346026  60.5406734  98.7047875  94.2066710  51.2943719
  98.2667305  93.4902569  50.8349356  99.4458316  94.4342825  50.7328810
  95.4949041  88.8963646  57.8155814  94.6816907  89.1957817  58.2221006
  95.9908036  88.5019335  58.5330297  97.6457619  98.8921403  59.7490079
  97.6033798  99.1182250  58.8198611  98.5620318  98.6584778  59.8975880
 101.0923253  89.3605471  66.6470708 101.4472641  89.5876944  67.5065174
 101.7395384  89.6923848  66.0247964 106.8220990  92.4823907  57.3520037
 106.6838889  92.6725503  56.4241226 106.4657209  93.2443290  57.8088088
  94.9863116  86.4682002  63.4317049  95.6262495  86.3270761  62.7340013
  94.1540647  86.1816515  63.0555651 106.8490370  94.5500434  62.3631309
 107.2826876  94.4575723  63.2114363 107.5621950  94.5257934  61.7251325
  95.7623420  95.7684432  59.5452042  96.5564019  95.2734753  59.3434617
  95.0515112  95.2402296  59.1819747 100.5818265  98.1502528  63.8964409
 100.6355287  98.7193464  64.6642125  99.7133046  98.3204413  63.5318447
  92.0706184  89.9127514  55.6211794  91.1403772  89.8511970  55.8381757
  92.1663656  89.3903467  54.8248436  91.9891733  86.4382327  58.2090036
  92.2498550  87.3527660  58.0999197  92.8108905  85.9706770  58.3586649
  93.4616658  87.8520084  65.3788861  94.1339711  87.6437446  64.7301510
  92.6346444  87.6542170  64.9394093 107.7105919  94.5924135  64.8964194
 107.9041809  95.4969945  65.1423469 107.6106537  94.1331554  65.7302779
  99.3642230  84.4782025  67.3954522  98.7170145  85.1771975  67.3018998
 100.1343245  84.9118169  67.7630770 102.7721028  94.7430877  70.4705075
 102.6206534  94.5141429  69.5535158 102.7625707  95.7001479  70.4836420
  99.5406364  92.3162790  65.4551341 100.4698424  92.4673950  65.2820309
  99.1197394  92.4046811  64.5999988  98.3394696  96.3413454  63.2249879
  98.2005782  95.9732239  64.0975817  97.5509292  96.8561094  63.0533837
  98.9342848 101.4422551  54.5675415  99.1094604 100.9710594  55.3821038
  98.2475636 102.0688317  54.7956676  99.8899911  95.7195057  60.6138717
  99.5549744  95.6795827  61.5096367  99.3903857  95.0539773  60.1409127
  93.8644155  91.1262687  66.1391298  93.7263953  90.3942926  66.7402837
  94.7749079  91.0371587  65.8575486 102.8259103  93.0651091  50.8875776
 102.2088273  92.3397920  50.7908829 102.3575591  93.8260452  50.5442851
  96.4926456  90.8382646  65.6274977  97.2026074  90.1975839  65.5861596
  96.4495764  91.0895541  66.5501158 104.4813235  97.7750000  68.5481557
 104.4225781  97.0909220  67.8812140 104.8832753  98.5168990  68.0962183
  95.2055390  87.8247864  67.4470617  94.6692747  87.3738603  68.0992213
  94.6172098  87.9593773  66.7041081  93.5003933 104.5911914  61.3415276
  93.7400532 105.2230438  62.0194294  92.6573130 104.2399954  61.6280635
  94.6157649  87.2836516  50.0097081  93.7387115  87.1625317  49.6459327
  95.0915402  86.4922594  49.7575969 104.4830642  95.7389584  66.7795536
 103.5957421  95.4015506  66.9021935 105.0529193  95.0072615  67.0164302
  86.1359789  92.0713675  60.1038588  86.8230829  91.7575406  59.5159603
  85.9807918  92.9755040  59.8305839  90.9394511  86.9603872  64.5323611
  90.8552700  86.3529542  63.7974021  90.1177217  87.4512890  64.5333108
  98.0131795 100.3991036  63.7456780  97.9401967 101.2046008  64.2576084
  97.5709188 100.5983002  62.9204801  97.8021575  99.6362806  57.2559601
  97.0189097 100.1784486  57.3497826  98.5014320 100.1536786  57.6553842
 101.1118225  85.4457436  59.8993806 101.6086924  84.6927398  59.5794877
 100.3405206  85.4821752  59.3337016 108.9647982  91.1497801  61.5412098
 108.9537859  92.0322517  61.1706031 108.0965362  90.7969352  61.3466635
 100.4730479 100.2977870  65.9014938 101.1858451 100.9325335  65.8290840
  99.9820507 100.3941736  65.0854940 102.1948006  94.2029123  57.4732230
 101.2604284  94.3230585  57.3036934 102.3724674  93.3001590  57.2092240
  97.6953194  87.5874819  59.6265491  97.3250981  87.0345859  60.3146397
  98.1912286  86.9832952  59.0740491 105.5820557  90.0446442  58.0082264
 106.0481009  90.8774434  57.9342567 106.0328057  89.5791424  58.7127522
  95.5242392  98.0472314  66.7220509  96.2251852  98.6808797  66.8749903
  95.0537507  98.3887045  65.9616148 103.6496788  96.3890263  55.0068416
 103.9256632  96.2746858  55.9162290 102.7801287  95.9907748  54.9680589
 103.5537220  82.4127029  62.0473165 102.6400299  82.6431256  62.2155372
 103.9830321  82.4965473  62.8987198 103.3243678  90.6016921  64.5473059
 102.6715128  90.8492828  63.8925512 103.7024058  89.7881059  64.2135537
 100.2850852 100.6376614  58.6501230 100.4673247  99.8198270  59.1128982
 101.1083838 100.8544306  58.2126120 100.6193018  99.5644799  55.9116278
 101.1480784  99.0537254  55.2986440 100.8821237  99.2487330  56.7761811
  99.3731251  91.3436732  71.0339096  98.6971888  91.2430861  71.7041472
 100.1958885  91.1875946  71.4975094  91.1210110  97.5808669  63.6551612
  91.7063547  96.8352357  63.7879516  90.9234949  97.8912625  64.5388276
  93.9748766 100.6159916  58.6714054  93.3059141 101.1006044  58.1878094
  93.8361635 100.8629136  59.5857433  85.7127765  90.1514269  62.3756055
  85.7511865  89.6177860  63.1693173  85.2068058  89.6249474  61.7567032
  98.1154034 102.6503660  65.2696712  98.6672342 102.8135281  66.0345798
  98.4560228 103.2408097  64.5976737  93.0918527  84.9978809  65.8718597
  93.1559854  85.8593640  65.4595995  93.0285648  84.3852811  65.1390956
  92.5670800  87.0701942  69.5191631  93.1942839  86.6879019  70.1329156
  91.7098719  86.8516144  69.8847324 102.9664908  97.4764917  71.1245367
 103.5104812  98.0894875  70.6300322 102.3851753  98.0344495  71.6412380
  89.3436343  88.8778371  55.4509986  89.6389784  87.9689049  55.3977040
  88.4424378  88.8566110  55.1290989 101.2522421 100.5985635  62.2560395
 101.1273561  99.7975375  61.7471340 101.9101512 101.0931828  61.7674365
  92.8730590  86.9534368  61.4337535  92.1517175  87.5670335  61.2945008
  93.6623845  87.4892132  61.3554181 103.3157330  98.3994655  63.8839945
 102.3687665  98.2800006  63.8118271 103.6640103  97.5117153  63.9666206
  95.6756903  84.2888794  67.7078187  96.1991305  84.5351091  68.4704496
  95.4569236  85.1208829  67.2881324  91.0724184  86.5592469  55.5749311
  90.7436890  85.6789848  55.3924417  91.4263555  86.5040137  56.4625701
 100.3203763  98.1947371  60.0844297 100.1728725  97.2664079  60.2651867
 101.1457257  98.2167462  59.6001372  94.1866007  86.8465438  55.9424789
  94.5262080  87.3751360  55.2203397  94.6338128  87.1845845  56.7183356
 103.9237885  99.0175930  61.1709170 104.8484432  98.8118791  61.0333621
 103.7553188  98.7692331  62.0798511  96.8809448  85.2302489  65.3927857
  96.5406269  84.4310302  65.7948537  96.1748454  85.5304200  64.8204690
  97.5325920  82.3151802  63.8455180  98.3551989  81.8412280  63.7234070
  97.7763984  83.0942285  64.3453866  96.1734154  85.3440060  54.1418082
  96.8942517  85.7221313  53.6381799  95.5499459  86.0628937  54.2453060
 100.3165277  86.0485209  55.0776414 100.5328892  86.9309847  54.7765242
  99.8359345  85.6571422  54.3482056  95.0564499  89.0070922  61.6547159
  94.9109079  89.3211225  62.5471440  94.5789702  89.6255823  61.1018057
  96.9160882  85.9973470  61.7028048  96.9022450  85.1014564  61.3660346
  97.6333310  86.0044134  62.3366334  98.7687012  86.4310810  63.7481176
  98.5104790  87.3527881  63.7465506  98.2372053  86.0341245  64.4381640
 103.7133201  99.5361598  56.5271261 103.8870079  98.9708020  55.7745114
 104.2062092 100.3362492  56.3450751  89.5310161  91.5476267  64.5934820
  88.9863629  92.3236075  64.7255094  90.4089511  91.8947071  64.4353941
  96.3197778  84.8787851  56.9715618  96.4413689  83.9504497  57.1706506
  96.0299820  84.8926536  56.0593934  99.1888968  82.5642761  60.1082338
  99.2110665  82.6282094  59.1534318  99.6057027  81.7247270  60.3022844
 109.5672592  92.2998020  58.1461561 110.0103738  91.5505346  57.7480684
 108.6899103  92.2908157  57.7635293 104.7008374  98.8528362  53.6268159
 105.3959278  99.4735055  53.8455474 105.0431524  98.0023713  53.9020537
  90.3176183  90.6746163  67.4864977  89.5757919  90.8228798  68.0729607
  89.9968927  90.9354429  66.6231726 106.5999797  96.3028067  55.1555490
 107.1251121  96.6415340  54.4304810 106.5122149  95.3675083  54.9718625
  98.2619845 100.2162141  67.2845367  98.5706972  99.9711288  68.1568066
  99.0595327 100.4208780  66.7964237  98.2840457 102.3700051  59.5150743
  97.8445448 101.8776429  60.2083600  99.0348574 101.8273018  59.2742819
  90.7632796  98.5611592  59.5175371  91.5890816  98.2615363  59.1374015
  90.4126848  97.7919214  59.9665160  95.7314330  97.9138060  61.5873045
  95.1094339  97.2508765  61.2875273  96.4019197  97.9399192  60.9046693
  88.9641402  96.4797918  60.4764305  88.1273310  96.0520092  60.2948306
  88.9365047  96.6730361  61.4135096  95.8038857  86.3919848  71.1805551
  95.8527013  87.2681971  70.7983321  96.3461371  85.8497241  70.6077194
 106.2893703  96.9360971  70.4606688 105.4989246  96.9185110  69.9211188
 106.0527057  97.4749265  71.2155725 106.4091578  93.7853438  67.7739417
 106.4589583  93.6203445  68.7154939 106.3005501  92.9180697  67.3837297
  95.2927837  96.4641983  55.0631506  95.4415957  97.1477448  54.4098178
  96.0994280  96.4447073  55.5780961 103.6995340  89.7684366  69.0898723
 104.6005203  89.6290830  68.7982721 103.7743315  89.9338820  70.0296901
  98.0338146  87.1451220  67.9351910  97.1641455  87.4384786  67.6634498
  98.2697626  87.7291665  68.6559173 107.9109775  96.2050379  68.0181438
 107.6194583  96.5680360  68.8544899 107.2981906  95.4917387  67.8394770
 109.1105457  93.7703259  60.5384008 109.9452348  94.2093063  60.7021569
 109.2464586  93.2941912  59.7192254 106.1596963  91.3282994  66.4861496
 106.6351085  91.5210640  65.6780348 105.2362528  91.3842179  66.2404880
  93.0480470  92.4907161  56.0692574  92.8026511  91.5869491  56.2672785
  93.2176384  92.4924311  55.1272052 100.7377179  83.3630837  65.4517330
 101.2559123  84.0991864  65.1263819 100.3832312  83.6694831  66.2864089
  92.3176117  88.2235518  53.5678736  91.6245362  88.2979873  52.9118772
  92.0727869  87.4595862  54.0900253 100.9889774  79.7831120  60.9718227
 101.2691527  79.1154309  61.5978653 101.7740380  79.9760215  60.4592891
  98.7923242  98.9590114  52.5343253  98.2197209  99.5780301  52.0813725
  99.3656036  99.5089475  53.0683175 104.8598632  88.2048754  64.7189802
 105.8116055  88.3046851  64.7402026 104.6902082  87.4127022  65.2287886
 102.8813011  85.2904337  64.9049203 102.2862943  85.5709350  64.2095691
 102.5962708  85.7798238  65.6765944 102.0120502  99.2427264  53.6651835
 102.9451175  99.1772825  53.8684711 101.9243715 100.0783531  53.2066368
 104.6408519  98.5593134  50.6255783 104.5622150  98.2252998  51.5191541
 105.4618185  99.0514902  50.6247255 107.3386710  91.4254873  63.8332101
 107.3063030  90.4870874  64.0191785 107.9487333  91.5038910  63.0997926
  99.1770041  90.2950926  49.8759305 100.1229145  90.1657135  49.9447724
  98.7984286  89.5565588  50.3528734 107.4881198  88.2165917  63.8790385
 106.9720247  87.4324373  63.6920313 108.3721147  87.8884633  64.0436904
 105.1491925  81.9606932  59.8386197 104.9516746  81.6522021  60.7229529
 105.7591631  82.6868571  59.9684127 113.1563260  92.4870880  62.9738138
 113.8866648  92.2256168  63.5345842 112.5470205  91.7499602  63.0140206
 111.2378557  90.6278743  63.5712589 110.5111720  90.4934708  62.9629081
 110.8225844  90.9355571  64.3769307  99.0608733  94.3468673  71.3359962
  99.9811743  94.5247272  71.5300009  99.0258316  93.4024718  71.1839662
  97.3612958  88.2200903  49.8114191  96.4544413  87.9234015  49.8876904
  97.6388939  87.9230721  48.9448477  88.2790898  89.5407266  60.2613237
  87.9593682  88.6872574  59.9687611  87.7324326  89.7555844  61.0171204
  92.0570806  92.2569707  63.9782744  92.2756815  93.1886815  63.9970777
  92.4696579  91.8977682  64.7637547  98.9775023  82.7637792  55.9658432
  98.1675752  82.4184877  56.3413678  99.6659440  82.4545336  56.5546044
 100.9065572  81.8415839  57.5882729 101.4596610  82.2611293  58.2472752
 101.1435658  80.9151587  57.6305685  96.9298671  87.8302913  73.3685493
  96.8295398  88.7797270  73.2997584  96.7120213  87.5021152  72.4961563
  96.1311742  85.0787838  49.9526170  96.9930906  85.4042736  50.2121987
  96.3162086  84.2919334  49.4399236  88.1479158  93.1610178  62.2306359
  87.4542630  92.7464130  61.7176313  88.8952149  93.2030714  61.6339778
 104.2844379  83.9516364  57.0961393 103.7043048  84.6101168  56.7139445
 104.0180311  83.1293709  56.6848810 102.7347945  83.3521422  59.2982713
 103.2347724  83.4637957  58.4897032 103.3783553  83.0482475  59.9383522
  96.7929941  91.2600052  72.1850554  96.3097023  92.0600412  72.3914443
  96.8790880  91.2707997  71.2317998  90.0615901  93.0928431  60.1072374
  90.0386589  93.1916119  59.1554257  90.3716537  93.9393582  60.4289540
  92.7203278  95.1504586  64.2218988  93.6746532  95.1188529  64.1548920
  92.5215802  94.6895210  65.0369214  93.3102661  93.7205703  66.7889786
  94.1295550  94.2149781  66.8124623  93.5839468  92.8037671  66.7607353
 103.0669257  86.1116455  56.1517741 102.1795112  86.3966105  55.9337936
 103.4823246  85.9510218  55.3045018 106.4183793  86.1362976  59.8672080
 107.1944183  86.6259428  60.1396697 105.6931927  86.5621030  60.3243950
 108.8556352  86.8490595  60.9246021 109.4500842  86.6086331  60.2139329
 108.9282935  86.1297726  61.5519557  91.0753507 100.6924206  61.2389186
  90.9407975  99.9324607  60.6727184  90.6585570 101.4165106  60.7717975
 102.2112470  95.8761130  50.2465761 102.9148320  96.0811132  50.8623417
 101.4875119  96.4437891  50.5114845 103.0410281  91.6270991  56.3668031
 102.9845482  92.0839542  55.5275664 103.5938623  90.8661675  56.1890874
 106.8515086  87.4160723  57.1918151 106.5952021  87.0157358  58.0226359
 106.2267955  88.1304517  57.0668290 111.1627424  90.1556796  59.6989442
 110.6026982  90.2249985  60.4721004 110.5570928  89.9797781  58.9788938
  94.2322633 101.5893523  61.4507629  94.1155017 102.5338955  61.3486319
  93.4115079 101.2867085  61.8393428 104.1199168  96.3143659  52.2964221
 104.9544772  95.8824857  52.1141696 103.9583511  96.1425672  53.2241116
 103.7745060  92.8175772  53.6620561 103.7193864  92.6520043  52.7209005
 103.1491115  93.5251805  53.8182750  88.5637575  88.0543836  67.4881983
  89.2096438  87.5442790  67.9769208  88.3554726  88.7912518  68.0625408
 101.0890967  95.1224684  72.9874123 101.9582127  95.2965336  72.6260758
 100.6097719  95.9419101  72.8649853  97.0841185  82.3183881  53.2405879
  97.0719855  83.2625721  53.3974150  97.9764607  82.1354026  52.9465340
  95.2577147 102.2421785  64.6663557  96.1604394 102.2745395  64.9830052
  95.0314517 101.3122236  64.6809893  97.0130749 100.9952771  61.3273636
  96.0626380 100.9954633  61.2138008  97.3163235 100.2485506  60.8109670
 100.8993305  78.9126658  57.4951816 100.1325701  78.3585144  57.6408498
 101.3104010  78.9848526  58.3565967  92.9035066  85.2011453  71.5856997
  93.7666527  84.8448258  71.7960322  92.3300477  84.8625348  72.2732401
 112.7483443 106.8313310  62.3919398 113.3861853 106.7120057  61.6882738
 112.6304286 107.7794154  62.4507350 109.5573149 106.7840738  62.3280923
 109.2191661 106.6681803  61.4401458 110.4262917 106.3831903  62.3081929
 105.4159965 108.6376214  58.3177814 104.8524830 108.5466151  57.5494101
 105.3012360 107.8176119  58.7980306 110.0392932 107.9375590  68.2867128
 110.0281573 107.5428388  67.4147632 110.2013572 107.2041662  68.8800900
 102.9624397 110.1327406  61.1562034 103.7545689 109.7918231  60.7408333
 103.2021047 110.2422381  62.0764187 104.9215151 109.3936319  54.0279413
 105.6946027 108.8465306  53.8892289 105.2740550 110.2580569  54.2393874
 106.7600193 110.7212701  67.2346312 106.4690059 111.6258332  67.1192978
 107.3957178 110.7629229  67.9490382 107.6856400 108.0989550  63.8247672
 108.2819972 107.8745572  63.1104635 107.7431372 107.3574295  64.4273120
 107.2581428 105.5528985  51.6597863 107.5106949 105.0310507  50.8981326
 106.3205988 105.3895131  51.7624546 112.3024711 104.5564764  59.4672606
 113.0887801 104.1384187  59.1163023 112.5663416 105.4610856  59.6354254
 117.7033138 104.4939997  60.3705585 118.4358310 103.9239214  60.6043414
 116.9472494 104.1061597  60.8112090 106.9777717 107.4557091  53.8622238
 106.8613975 106.7801995  54.5303322 107.0879977 106.9689465  53.0454391
 109.3209258 106.9167238  57.5668927 108.9567465 106.3897859  58.2781848
 110.1776374 106.5265707  57.3935412 115.2258559  98.2061571  64.8300193
 114.8941884  99.0756982  64.6061408 114.6304172  97.8897855  65.5094224
 108.9614745 101.9457138  52.5630275 109.1289147 102.8137374  52.9300747
 108.7711914 102.1084420  51.6391565 105.1702560 106.8587914  60.2632810
 104.2453056 106.7264128  60.4710502 105.4186973 107.6382133  60.7602753
 115.1187222 102.9256657  61.9093543 114.2104099 102.8572066  61.6152304
 115.0674818 103.4028602  62.7375369 108.9403966 104.4014796  53.5476942
 108.8203591 104.8471846  54.3862423 108.2456554 104.7500113  52.9890480
 102.5311371 106.5021187  61.0976599 102.6603752 106.7555666  62.0116011
 101.8508822 107.0948895  60.7781254 109.1928088 104.3446303  69.8528440
 108.4161422 104.9040223  69.8431305 109.8318651 104.8303086  70.3743311
 116.9848868 101.1273096  63.6871417 116.3423249 101.4205629  63.0411212
 116.4803797 101.0126016  64.4924614 114.6389032 104.8736269  54.3757276
 115.5506888 105.1063656  54.2004974 114.1298679 105.4573313  53.8132355
 107.4474460 107.1531756  69.4146407 108.1889145 107.6916800  69.1381231
 106.7411446 107.7798045  69.5717959 112.9229800 109.2960897  68.0118569
 113.3313156 108.8543307  67.2673201 112.2007061 108.7213524  68.2652762
 109.2760870 104.2333503  65.3852126 110.1222065 104.6572917  65.5286775
 109.2159508 103.5767128  66.0790689 112.4260315 101.8937872  67.0433300
 112.1821247 102.6479932  66.5067575 112.7020246 102.2723219  67.8780547
 111.9825007 101.0494305  62.6247137 111.1209486 101.3475558  62.9163875
 112.0087442 101.2664704  61.6928170 108.7986576 109.5936495  59.0320943
 109.2624922 109.8724198  58.2425565 108.5343374 108.6919940  58.8494034
 105.6910657 109.1407977  61.9700706 106.2612014 109.5695245  61.3318191
 106.2818769 108.8590562  62.6684892 107.7355462 105.7159648  55.8410508
 108.4379506 106.1680691  56.3084434 107.4036091 105.0743467  56.4690401
 106.1835824 104.3071404  70.2161717 105.5534484 104.9887685  70.4497114
 106.0771912 104.1954486  69.2714856 101.4780796 103.9743200  61.1427642
 100.6879850 104.2300729  60.6667752 101.9692044 104.7891538  61.2479682
 103.4295542 104.3387780  58.1011118 102.6326705 104.4506474  58.6194614
 103.2021134 104.6774432  57.2352009 109.2601209 110.8632483  66.0493633
 109.3245642 111.3252890  66.8851805 108.5512133 110.2329848  66.1775943
  99.7618499 104.2273691  63.5742632 100.0126538 105.1120701  63.8400208
 100.2978048 104.0478292  62.8017724 105.4616567  98.6092170  72.5786968
 105.0683512  98.0558369  73.2534613 106.2782707  98.9202749  72.9693486
 102.4278624 110.0476028  56.4900538 102.9403145 110.8419279  56.6406103
 103.0801337 109.3502319  56.4234140 104.2373509 113.1641785  58.5723292
 104.4140137 114.0859749  58.3844275 105.0330343 112.8500204  59.0017671
 108.3784528 100.0250049  70.1707225 109.1194241 100.6257202  70.0911688
 108.6102450  99.2827687  69.6125268 103.5225866 105.2106416  68.4485455
 103.4079381 104.3091674  68.7492554 102.6670383 105.4570113  68.0970271
 105.3604825 114.6819958  64.5733634 105.9112250 114.5537022  63.8010628
 104.5216300 114.9814847  64.2228527 109.1571996 110.9471086  68.9177865
 109.6900332 110.1859374  68.6877173 108.6286077 110.6544738  69.6602019
 112.3241691  96.0531152  64.4471507 111.9805960  96.9432794  64.3710617
 112.6920653  95.8632810  63.5841092 100.3927541 108.3764683  57.2660109
 101.2302763 108.7861691  57.0493817 100.5705809 107.4364125  57.2360303
 112.2891973 106.0439763  52.9543942 111.7738597 106.8144368  53.1932329
 112.0169282 105.3704899  53.5777003 109.8739084 100.8889464  58.0129180
 109.0180681 100.4996314  57.8334819 110.2866036 100.9681425  57.1528966
 111.4038231  98.4235807  62.4120740 110.9003027  98.3865942  61.5988545
 111.6968838  99.3328550  62.4717397 107.6481117  98.5074537  61.4186922
 108.5134114  98.3117346  61.0592811 107.7158626  98.2784889  62.3456278
 112.0778276 103.9166855  54.7803723 111.7728412 104.2313005  55.6313866
 113.0308719 103.9948275  54.8231056 110.5224708 110.0757079  56.4296677
 109.9946070 109.3409838  56.1169914 110.0212211 110.8531755  56.1836645
 105.2543436 100.7376745  58.7903289 105.8287188 100.5151926  58.0576481
 105.8414418 100.8065439  59.5431890 114.3123013 106.6250472  59.5967665
 114.8254895 107.2580464  60.0989375 114.9624237 106.0251667  59.2311025
 105.5813023 102.7681206  52.8099174 104.7450335 103.1055893  53.1308449
 105.4417793 102.6330186  51.8726311 107.5566104  97.6117994  57.5178358
 106.9030516  97.2967011  56.8934973 107.5146578  96.9893734  58.2438181
 108.6677308 107.8937289  49.4331650 107.7604370 107.6626542  49.6322799
 109.1648340 107.0974908  49.6205632 110.7903844 104.0999927  61.8426006
 109.8726405 104.3214874  61.6847694 111.2063988 104.1746238  60.9837713
 111.5738892 105.4991343  56.9728686 112.3210711 106.0112740  56.6635808
 111.8430481 105.1775396  57.8333079 109.8465542 107.9949884  53.9555640
 108.9376761 107.7108917  54.0528110 109.8760626 108.4148962  53.0958947
 114.0217729 102.5348459  58.9547475 113.2840486 102.0225846  59.2857718
 114.2744502 102.0948841  58.1430752 114.1229356  95.3124711  59.5489244
 114.4288233  94.4522075  59.2615159 114.8481961  95.9042332  59.3488238
 100.4153712 105.7155398  57.9370842 100.2178112 105.1224759  57.2121909
  99.8600376 105.4107608  58.6546781 108.3950436 105.6078504  60.0565435
 108.4499046 104.6552341  59.9807912 107.5841638 105.7637944  60.5406734
 109.5441630 109.5358627  51.2943719 109.1061060 108.8194486  50.8349356
 110.2852071 109.7634742  50.7328810 106.3342796 104.2255564  57.8155814
 105.5210661 104.5249735  58.2221006 106.8301790 103.8311253  58.5330297
 111.9317008 104.6897389  66.6470708 112.2866395 104.9168862  67.5065174
 112.5789139 105.0215765  66.0247964 105.8256871 101.7973920  63.4317049
 106.4656250 101.6562679  62.7340013 104.9934401 101.5108433  63.0555651
 106.6017175 111.0976350  59.5452042 107.3957773 110.6026670  59.3434617
 105.8908867 110.5694213  59.1819747 102.9099938 105.2419432  55.6211794
 101.9797526 105.1803887  55.8381757 103.0057410 104.7195385  54.8248436
 102.8285487 101.7674245  58.2090036 103.0892304 102.6819578  58.0999197
 103.6502659 101.2998687  58.3586649 104.3010412 103.1812002  65.3788861
 104.9733466 102.9729364  64.7301510 103.4740199 102.9834088  64.9394093
 110.2035984  99.8073943  67.3954522 109.5563899 100.5063892  67.3018998
 110.9737000 100.2410087  67.7630770 110.3800119 107.6454708  65.4551341
 111.3092179 107.7965867  65.2820309 109.9591149 107.7338728  64.5999988
 109.1788451 111.6705372  63.2249879 109.0399536 111.3024156  64.0975817
 108.3903047 112.1853012  63.0533837 110.7293666 111.0486975  60.6138717
 110.3943498 111.0087745  61.5096367 110.2297611 110.3831691  60.1409127
 104.7037910 106.4554605  66.1391298 104.5657708 105.7234844  66.7402837
 105.6142833 106.3663505  65.8575486 113.6652857 108.3943009  50.8875776
 113.0482028 107.6689837  50.7908829 113.1969346 109.1552369  50.5442851
 107.3320210 106.1674564  65.6274977 108.0419829 105.5267756  65.5861596
 107.2889518 106.4187459  66.5501158 106.0449144 103.1539782  67.4470617
 105.5086501 102.7030520  68.0992213 105.4565853 103.2885691  66.7041081
 105.4551403 102.6128433  50.0097081 104.5780870 102.4917234  49.6459327
 105.9309156 101.8214512  49.7575969  96.9753543 107.4005593  60.1038588
  97.6624583 107.0867323  59.5159603  96.8201672 108.3046958  59.8305839
 101.7788266 102.2895790  64.5323611 101.6946454 101.6821459  63.7974021
 100.9570972 102.7804808  64.5333108 111.9511979 100.7749353  59.8993806
 112.4480679 100.0219316  59.5794877 111.1798961 100.8113670  59.3337016
 113.0341760 109.5321040  57.4732230 112.0998039 109.6522503  57.3036934
 113.2118429 108.6293507  57.2092240 108.5346948 102.9166736  59.6265491
 108.1644736 102.3637777  60.3146397 109.0306041 102.3124870  59.0740491
 116.4214311 105.3738360  58.0082264 116.8874764 106.2066351  57.9342567
 116.8721812 104.9083341  58.7127522 106.3636147 113.3764231  66.7220509
 107.0645606 114.0100714  66.8749903 105.8931262 113.7178963  65.9616148
 114.3930974  97.7418947  62.0473165 113.4794054  97.9723174  62.2155372
 114.8224076  97.8257391  62.8987198 114.1637433 105.9308839  64.5473059
 113.5108883 106.1784746  63.8925512 114.5417813 105.1172977  64.2135537
 110.2125006 106.6728650  71.0339096 109.5365643 106.5722779  71.7041472
 111.0352640 106.5167864  71.4975094 101.9603865 112.9100586  63.6551612
 102.5457302 112.1644274  63.7879516 101.7628703 113.2204543  64.5388276
  96.5521520 105.4806187  62.3756055  96.5905619 104.9469777  63.1693173
  96.0461812 104.9541392  61.7567032 103.9312282 100.3270727  65.8718597
 103.9953608 101.1885558  65.4595995 103.8679402  99.7144729  65.1390956
 103.4064554 102.3993860  69.5191631 104.0336593 102.0170937  70.1329156
 102.5492473 102.1808062  69.8847324 100.1830097 104.2070289  55.4509986
 100.4783538 103.2980967  55.3977040  99.2818133 104.1858028  55.1290989
 103.7124344 102.2826285  61.4337535 102.9910930 102.8962253  61.2945008
 104.5017600 102.8184050  61.3554181 106.5150658  99.6180712  67.7078187
 107.0385059  99.8643008  68.4704496 106.2962991 100.4500747  67.2881324
 101.9117939 101.8884386  55.5749311 101.5830645 101.0081765  55.3924417
 102.2657309 101.8332055  56.4625701 105.0259762 102.1757356  55.9424789
 105.3655834 102.7043277  55.2203397 105.4731882 102.5137762  56.7183356
 107.7203203 100.5594407  65.3927857 107.3800023  99.7602220  65.7948537
 107.0142209 100.8596118  64.8204690 108.3719674  97.6443719  63.8455180
 109.1945744  97.1704197  63.7234070 108.6157738  98.4234203  64.3453866
 107.0127909 100.6731978  54.1418082 107.7336271 101.0513231  53.6381799
 106.3893213 101.3920855  54.2453060 111.1559032 101.3777127  55.0776414
 111.3722646 102.2601765  54.7765242 110.6753099 100.9863340  54.3482056
 105.8958253 104.3362840  61.6547159 105.7502834 104.6503143  62.5471440
 105.4183457 104.9547740  61.1018057 107.7554636 101.3265388  61.7028048
 107.7416205 100.4306481  61.3660346 108.4727064 101.3336052  62.3366334
 109.6080767 101.7602728  63.7481176 109.3498545 102.6819799  63.7465506
 109.0765807 101.3633163  64.4381640 100.3703915 106.8768184  64.5934820
  99.8257383 107.6527992  64.7255094 101.2483265 107.2238989  64.4353941
 107.1591532 100.2079768  56.9715618 107.2807443  99.2796414  57.1706506
 106.8693574 100.2218454  56.0593934 110.0282722  97.8934679  60.1082338
 110.0504419  97.9574012  59.1534318 110.4450781  97.0539187  60.3022844
 101.1569937 106.0038081  67.4864977 100.4151673 106.1520716  68.0729607
 100.8362682 106.2646346  66.6231726 101.6026551 113.8903509  59.5175371
 102.4284571 113.5907281  59.1374015 101.2520603 113.1211132  59.9665160
 106.5708084 113.2429978  61.5873045 105.9488093 112.5800683  61.2875273
 107.2412951 113.2691109  60.9046693  99.8035156 111.8089836  60.4764305
  98.9667064 111.3812010  60.2948306  99.7758801 112.0022279  61.4135096
 106.6432612 101.7211766  71.1805551 106.6920767 102.5973888  70.7983321
 107.1855126 101.1789159  70.6077194 106.1321591 111.7933901  55.0631506
 106.2809711 112.4769365  54.4098178 106.9388034 111.7738991  55.5780961
 114.5389095 105.0976283  69.0898723 115.4398957 104.9582748  68.7982721
 114.6137069 105.2630738  70.0296901 108.8731900 102.4743138  67.9351910
 108.0035209 102.7676704  67.6634498 109.1091380 103.0583583  68.6559173
 103.8874224 107.8199079  56.0692574 103.6420266 106.9161409  56.2672785
 104.0570139 107.8216229  55.1272052 111.5770934  98.6922755  65.4517330
 112.0952878  99.4283782  65.1263819 111.2226067  98.9986748  66.2864089
 103.1569872 103.5527436  53.5678736 102.4639116 103.6271791  52.9118772
 102.9121623 102.7887780  54.0900253 111.8283528  95.1123037  60.9718227
 112.1085282  94.4446226  61.5978653 112.6134135  95.3052133  60.4592891
 115.6992386 103.5340671  64.7189802 116.6509809 103.6338769  64.7402026
 115.5295837 102.7418940  65.2287886 113.7206766 100.6196255  64.9049203
 113.1256698 100.9001267  64.2095691 113.4356463 101.1090156  65.6765944
 110.0163795 105.6242844  49.8759305 110.9622900 105.4949052  49.9447724
 109.6378040 104.8857506  50.3528734 118.3274953 103.5457835  63.8790385
 117.8114001 102.7616291  63.6920313 119.2114901 103.2176551  64.0436904
 115.9885680  97.2898850  59.8386197 115.7910501  96.9813938  60.7229529
 116.5985385  98.0160489  59.9684127 109.9002488 109.6760590  71.3359962
 110.8205497 109.8539189  71.5300009 109.8652071 108.7316636  71.1839662
 108.2006712 103.5492820  49.8114191 107.2938168 103.2525933  49.8876904
 108.4782693 103.2522639  48.9448477  99.1184653 104.8699184  60.2613237
  98.7987437 104.0164492  59.9687611  98.5718081 105.0847762  61.0171204
 102.8964560 107.5861625  63.9782744 103.1150570 108.5178733  63.9970777
 103.3090334 107.2269599  64.7637547 109.8168778  98.0929710  55.9658432
 109.0069506  97.7476795  56.3413678 110.5053195  97.7837254  56.5546044
 111.7459326  97.1707757  57.5882729 112.2990365  97.5903210  58.2472752
 111.9829413  96.2443505  57.6305685 107.7692425 103.1594831  73.3685493
 107.6689152 104.1089188  73.2997584 107.5513967 102.8313070  72.4961563
 106.9705497 100.4079756  49.9526170 107.8324661 100.7334654  50.2121987
 107.1555841  99.6211252  49.4399236  98.9872913 108.4902095  62.2306359
  98.2936384 108.0756048  61.7176313  99.7345904 108.5322632  61.6339778
 115.1238133  99.2808282  57.0961393 114.5436802  99.9393086  56.7139445
 114.8574066  98.4585627  56.6848810 113.5741700  98.6813340  59.2982713
 114.0741478  98.7929874  58.4897032 114.2177308  98.3774393  59.9383522
 107.6323696 106.5891969  72.1850554 107.1490777 107.3892330  72.3914443
 107.7184635 106.5999914  71.2317998 100.9009655 108.4220349  60.1072374
 100.8780343 108.5208036  59.1554257 101.2110292 109.2685500  60.4289540
 103.5597033 110.4796504  64.2218988 104.5140287 110.4480446  64.1548920
 103.3609557 110.0187128  65.0369214 104.1496415 109.0497620  66.7889786
 104.9689304 109.5441699  66.8124623 104.4233223 108.1329588  66.7607353
 113.9063011 101.4408373  56.1517741 113.0188866 101.7258023  55.9337936
 114.3217000 101.2802136  55.3045018 117.2577547 101.4654894  59.8672080
 118.0337938 101.9551346  60.1396697 116.5325682 101.8912948  60.3243950
 119.6950106 102.1782513  60.9246021 120.2894597 101.9378249  60.2139329
 119.7676690 101.4589643  61.5519557 101.9147262 116.0216124  61.2389186
 101.7801730 115.2616525  60.6727184 101.4979324 116.7457024  60.7717975
 113.8804035 106.9562908  56.3668031 113.8239236 107.4131460  55.5275664
 114.4332378 106.1953593  56.1890874 117.6908841 102.7452640  57.1918151
 117.4345775 102.3449276  58.0226359 117.0661709 103.4596434  57.0668290
 114.6138814 108.1467690  53.6620561 114.5587618 107.9811961  52.7209005
 113.9884870 108.8543723  53.8182750  99.4031329 103.3835754  67.4881983
 100.0490193 102.8734708  67.9769208  99.1948480 104.1204436  68.0625408
 107.9234940  97.6475799  53.2405879 107.9113610  98.5917639  53.3974150
 108.8158362  97.4645944  52.9465340 111.7387059  94.2418575  57.4951816
 110.9719455  93.6877062  57.6408498 112.1497764  94.3140444  58.3565967
 103.7428820 100.5303371  71.5856997 104.6060282 100.1740176  71.7960322
 103.1694231 100.1917266  72.2732401  44.5210623  -8.1848646  49.0526229
  44.1829135  -8.3007581  48.1646764  45.3900392  -8.5857480  49.0327235
  40.3797439  -6.3313169  45.0423120  39.8162304  -6.4223232  44.2739408
  40.2649834  -7.1513265  45.5225613  45.0030406  -7.0313794  55.0112435
  44.9919047  -7.4260996  54.1392938  45.1651046  -7.7647721  55.6046206
  37.9261871  -4.8361978  47.8807341  38.7183163  -5.1771153  47.4653640
  38.1658521  -4.7267002  48.8009494  45.9596998  -2.6642201  40.3537585
  45.3084978  -2.0788121  39.9671599  46.7541361  -2.1336007  40.4132623
  39.8852625  -5.5753064  40.7524719  40.6583501  -6.1224077  40.6137595
  40.2378024  -4.7108815  40.9639181  41.7237668  -4.2476682  53.9591619
  41.4327534  -3.3431051  53.8438285  42.3594652  -4.2060154  54.6735688
  42.6493874  -6.8699833  50.5492978  43.2457447  -7.0943811  49.8349941
  42.7068846  -7.6115088  51.1518426  47.4372263  -4.9751769  40.8906569
  46.8018096  -4.9017143  41.6027474  47.1069669  -4.3858171  40.2125649
  41.9415192  -7.5132292  40.5867544  41.8251450  -8.1887389  41.2548629
  42.0517451  -7.9999918  39.7699697  44.2846732  -8.0522145  44.2914234
  43.9204940  -8.5791524  45.0027155  45.1413848  -8.4423676  44.1180719
  46.6827553  -4.5615266  50.9541412  46.3828276  -3.6590228  50.8457220
  46.3378612  -4.8283083  51.8062565  40.1340034  -8.1101470  46.9878117
  39.2090531  -8.2425256  47.1955809  40.3824447  -7.3307250  47.4848059
  41.6648332   2.2029054  43.9212380  41.5872362   3.1536879  44.0000861
  41.0609976   1.8574926  44.5787306  42.4111934  -7.8157627  56.1391714
  43.1526619  -7.2772583  55.8626538  41.7048920  -7.1891339  56.2963266
  47.8867274  -5.6728487  54.7363876  48.2950630  -6.1146076  53.9918508
  47.1644536  -6.2475859  54.9898068  48.2096089  -5.1127296  48.4916164
  47.5804951  -4.9481582  47.7892232  47.8221751  -4.6985687  49.2627128
  52.0885321  -4.1772858  45.8460528  51.4036359  -3.7973957  45.2957562
  52.1729170  -3.5677532  46.5792476  49.3436252  -6.5312899  52.4455872
  49.5553148  -5.8881139  51.7690253  49.2966001  -7.3650583  51.9777802
  43.7624051  -5.3752888  45.7566250  44.2262396  -5.0965185  44.9670872
  43.4980849  -6.2769444  45.5739340  40.6548132  -5.8281407  48.6946013
  41.2249489  -5.3994138  48.0563497  41.2456244  -6.1098822  49.3930198
  50.4582080  -3.6540944  50.6178229  51.2799524  -4.0560757  50.3360911
  50.4544483  -3.7572710  51.5694345  44.2238684  -4.1056901  52.7738940
  44.2883116  -3.6436493  53.6097111  43.5149608  -4.7359536  52.9021249
  43.9386701  -2.4388793  42.6417920  43.8032376  -1.5937257  43.0702768
  44.4796514  -2.2369516  41.8783854  37.3916099  -4.9213355  43.2145845
  37.9040619  -4.1270105  43.3651410  38.0438812  -5.6187065  43.1479446
  39.2010983  -1.8047599  45.2968598  39.3777612  -0.8829634  45.1089582
  39.9967817  -2.1189180  45.7262978  45.5655178  -1.8165227  56.7718262
  45.1219032  -2.6028848  56.4539166  46.2272391  -1.6286076  56.1062153
  40.3242299  -0.2869425  51.2978940  40.8749724  -0.4152362  50.5255934
  39.4853775   0.0125464  50.9473833  47.6636416  -1.5362427  54.7999663
  47.6454891  -0.7153546  54.3079932  48.5856336  -1.6608352  55.0249804
  44.1209470  -4.0218297  55.6423172  44.6537807  -4.7830009  55.4122480
  43.5923551  -4.3144645  56.3847326  45.4862183  -4.8932305  43.1541984
  44.9583544  -5.6279545  42.8415221  44.9849685  -4.1157628  42.9081952
  50.4655029  -6.6983284  48.2709030  49.8078703  -6.0084023  48.3589159
  51.2695428  -6.3086852  48.6143016  43.6314783  -7.0752095  36.1576957
  42.7241845  -7.3062841  36.3568106  44.1285815  -7.8714475  36.3450938
  46.5382862   1.6345413  39.0773643  45.8644560   1.9377109  39.6858601
  46.9248684   2.4374493  38.7279100  44.8103016  -6.9739500  40.6800947
  43.9014236  -7.2580467  40.7773417  44.8398100  -6.5540421  39.8204254
  50.0422284  -3.3632910  44.4492114  49.5884611  -4.2042000  44.5057305
  49.4116250  -2.7271512  44.7866894  48.4855223  -1.5256413  45.3841932
  48.7778197  -0.9651356  44.6654298  48.9953843  -1.2327852  46.1395092
  44.5079104  -5.4330756  38.0189025  44.0698534  -6.1494897  37.5594663
  45.2489545  -5.2054641  37.4574117  43.4488848  -0.7476062  46.4735386
  43.4065027  -0.5215216  45.5443918  44.3651547  -0.9812688  46.6221187
  52.6521598  -5.0897032  49.0876615  53.0858105  -5.1821743  49.9359669
  53.3653179  -5.1139531  48.4496631  41.5654649  -3.8713033  46.2697348
  42.3595247  -4.3662713  46.0679923  40.8546341  -4.3995170  45.9065054
  46.3849493  -1.4894938  50.6209716  46.4386516  -0.9204002  51.3887432
  45.5164275  -1.3193053  50.2563753  53.5137148  -5.0473331  51.6209501
  53.7073038  -4.1427521  51.8668776  53.4137766  -5.5065912  52.4548086
  48.5752257  -4.8966589  57.1950381  48.4237763  -5.1256037  56.2780465
  48.5656936  -3.9395987  57.2081726  45.3437593  -7.3234676  52.1796648
  46.2729653  -7.1723516  52.0065615  44.9228623  -7.2350655  51.3245294
  44.1425925  -3.2984011  49.9495185  44.0037011  -3.6665227  50.8221124
  43.3540521  -2.7836372  49.7779143  44.7374077   1.8025085  41.2920722
  44.9125833   1.3313128  42.1066345  44.0506865   2.4290851  41.5201983
  45.6931140  -3.9202409  47.3384023  45.3580973  -3.9601639  48.2341673
  45.1935086  -4.5857693  46.8654433  39.6675384  -8.5134779  52.8636604
  39.5295182  -9.2454540  53.4648143  40.5780307  -8.6025879  52.5820792
  48.6290332  -6.5746374  37.6121083  48.0119502  -7.2999546  37.5154136
  48.1606820  -5.8137014  37.2688157  42.2957685  -8.8014819  52.3520284
  43.0057303  -9.4421627  52.3106902  42.2526993  -8.5501924  53.2746465
  50.2844463  -1.8647466  55.2726863  50.2257009  -2.5488246  54.6057446
  50.6863982  -1.1228476  54.8207489  39.3035162   4.9514448  48.0660582
  39.5431760   5.5832972  48.7439601  38.4604359   4.6002488  48.3525941
  50.2861871  -3.9007882  53.5040843  49.3988649  -4.2381960  53.6267242
  50.8560422  -4.6324851  53.7409608  43.8163024   0.7593570  50.4702086
  43.7433195   1.5648542  50.9821391  43.3740417   0.9585536  49.6450108
  43.6052804  -0.0034660  43.9804908  42.8220326   0.5387021  44.0743132
  44.3045549   0.5139320  44.3799149  46.2761708   0.6580404  52.6260245
  46.9889680   1.2927869  52.5536146  45.7851736   0.7544270  51.8100247
  47.9979234  -5.4368343  44.1977536  47.0635513  -5.3166881  44.0282241
  48.1755903  -6.3395876  43.9337546  41.3273621  -1.5925152  53.4465816
  42.0283081  -0.9588669  53.5995210  40.8568736  -1.2510421  52.6861455
  49.4528017  -3.2507202  41.7313723  49.7287861  -3.3650608  42.6407597
  48.5832516  -3.6489718  41.6925896  46.0882081   0.9979148  45.3746536
  46.2704475   0.1800804  45.8374289  46.9115067   1.2146841  44.9371426
  46.4224246  -0.0752666  42.6361585  46.9512013  -0.5860212  42.0231747
  46.6852466  -0.3910136  43.5007118  45.1762480  -8.2960734  57.7584403
  44.5003117  -8.3966604  58.4286778  45.9990114  -8.4521520  58.2220400
  36.9241339  -2.0588797  50.3796918  37.5094776  -2.8045109  50.5124823
  36.7266178  -1.7484840  51.2633582  39.7779994   0.9762450  45.3959361
  39.1090370   1.4608578  44.9123401  39.6392864   1.2231671  46.3102739
  43.9185263   3.0106194  51.9942019  44.4703571   3.1737815  52.7591104
  44.2591456   3.6010632  51.3222044  48.7696137  -2.1632549  57.8490673
  49.3136041  -1.5502590  57.3545628  48.1882982  -1.6052970  58.3657687
  47.0553650   0.9588169  48.9805701  46.9304790   0.1577909  48.4716647
  47.7132741   1.4534363  48.4919671  49.1188559  -1.2402811  50.6085251
  48.1718894  -1.3597459  50.5363578  49.4671332  -2.1280313  50.6911513
  46.1234992  -1.4450094  46.8089604  45.9759954  -2.3733387  46.9897174
  46.9488485  -1.4230004  46.3246679  49.7269114  -0.6221536  47.8954476
  50.6515661  -0.8278674  47.7578927  49.5584417  -0.8705135  48.8043818
  49.5164430  -0.1035868  43.2516568  49.6901307  -0.6689446  42.4990420
  50.0093321   0.6965027  43.0696058  50.5039602  -0.7869104  40.3513466
  51.1990507  -0.1662411  40.5700781  50.8462753  -1.6373753  40.6265844
  52.4031026  -3.3369398  41.8800797  52.9282350  -2.9982126  41.1550117
  52.3153378  -4.2722383  41.6963931  44.0651074   0.5764675  54.0090673
  44.3738201   0.3313822  54.8813373  44.8626556   0.7811314  53.5209544
  44.0871686   2.7302585  46.2396050  43.6476677   2.2378964  46.9328907
  44.8379803   2.1875553  45.9988125  36.5664025  -1.0785874  46.2420678
  37.3922045  -1.3782102  45.8619322  36.2158077  -1.8478252  46.6910467
  41.5345558  -1.7259406  48.3118352  40.9125568  -2.3888701  48.0120580
  42.2050425  -1.6998274  47.6291999  34.7672630  -3.1599548  47.2009612
  33.9304539  -3.5877373  47.0193613  34.7396276  -2.9667104  48.1380403
  52.0924932  -2.7036495  57.1851995  51.3020475  -2.7212356  56.6456494
  51.8558286  -2.1648201  57.9401031  41.0959065  -3.1755483  41.7876812
  41.2447186  -2.4920018  41.1343485  41.9025509  -3.1950393  42.3026268
  53.7141003  -3.4347087  54.7426745  53.4225812  -3.0717106  55.5790206
  53.1013135  -4.1480078  54.5640077  38.8511698  -7.1490305  42.7937881
  38.6057740  -8.0527975  42.9918091  39.0207613  -7.1473155  41.8517359
  44.5954471  -0.6807352  39.2588560  44.0228438  -0.0617165  38.8059031
  45.1687265  -0.1307990  39.7928482  47.8151731  -0.3970202  40.3897142
  48.7482404  -0.4624640  40.5930017  47.7274943   0.4386065  39.9311675
  50.4439747  -1.0804332  37.3501089  50.3653379  -1.4144468  38.2436847
  51.2649414  -0.5882564  37.3492562  44.8639962  -5.2928793  58.0605269
  45.7842971  -5.1150194  58.2545316  44.8289545  -6.2372748  57.9084968
  37.8602034  -7.3827759  50.7028050  38.0788044  -6.4510651  50.7216084
  38.2727808  -7.7419784  51.4882854  42.5961170  -8.3797414  58.9095861
  42.1128252  -7.5797054  59.1159750  42.6822109  -8.3689469  57.9563305
  35.8647129  -6.5469034  46.8317680  35.8417818  -6.4481347  45.8799563
  36.1747766  -5.7003884  47.1534846  38.5234507  -4.4892879  50.9464295
  39.4777761  -4.5208937  50.8794226  38.3247031  -4.9502256  51.7614521
  39.1133889  -5.9191763  53.5135092  39.9326778  -5.4247685  53.5369930
  39.3870697  -6.8359795  53.4852660  36.8784736   1.0526740  47.9634492
  36.7439204   0.2927141  47.3972491  36.4616798   1.7767640  47.4963281
  48.0143699  -3.7636336  36.9711068  48.7179549  -3.5586334  37.5868723
  47.2906348  -3.1959574  37.2360151  40.0353862   1.9496057  48.1752935
  39.9186246   2.8941490  48.0731625  39.2146308   1.6469619  48.5638734
  49.9230397  -3.3253807  39.0209528  50.7576000  -3.7572609  38.8387003
  49.7614739  -3.4971793  39.9486422  49.5776289  -6.8221694  40.3865867
  49.5225092  -6.9877422  39.4454311  48.9522344  -6.1145661  40.5428057
  46.8922196  -4.5172782  59.7119430  47.7613356  -4.3432130  59.3506065
  46.4128947  -3.6978365  59.5895159  41.0608376   2.6024319  51.3908864
  41.9635623   2.6347929  51.7075359  40.8345746   1.6724770  51.4055199
  42.8161978   1.3555306  48.0518942  41.8657609   1.3557167  47.9383314
  43.1194464   0.6088040  47.5354977  58.5514672   7.1915844  49.1164705
  59.1893082   7.0722591  48.4128045  58.4335514   8.1396688  49.1752657
  55.3604378   7.1443272  49.0526229  55.0222889   7.0284337  48.1646764
  56.2294146   6.7434437  49.0327235  51.2191194   8.9978749  45.0423120
  50.6556059   8.9068686  44.2739408  51.1043589   8.1778653  45.5225613
  55.8424161   8.2978124  55.0112435  55.8312802   7.9030922  54.1392938
  56.0044800   7.5644196  55.6046206  48.7655626  10.4929940  47.8807341
  49.5576917  10.1520765  47.4653640  49.0052276  10.6024915  48.8009494
  56.7990752  12.6649716  40.3537585  56.1478732  13.2503797  39.9671599
  57.5935115  13.1955911  40.4132623  50.7246379   9.7538853  40.7524719
  51.4977255   9.2067840  40.6137595  51.0771778  10.6183103  40.9639181
  52.5631422  11.0815236  53.9591619  52.2721288  11.9860867  53.8438285
  53.1988406  11.1231763  54.6735688  53.4887629   8.4592084  50.5492978
  54.0851201   8.2348107  49.8349941  53.5462600   7.7176830  51.1518426
  53.0612657   5.9131520  38.3843169  53.3138178   5.3913041  37.6226632
  52.1237216   5.7497665  38.4869853  58.1055940   4.9167298  46.1917913
  58.8919029   4.4986721  45.8408330  58.3694644   5.8213390  46.3599561
  58.2766017  10.3540148  40.8906569  57.6411850  10.4274775  41.6027474
  57.9463424  10.9433747  40.2125649  63.5064367   4.8542531  47.0950891
  64.2389539   4.2841748  47.3288721  62.7503723   4.4664132  47.5357397
  52.7808946   7.8159625  40.5867544  52.6645204   7.1404529  41.2548629
  52.8911206   7.3291999  39.7699697  55.1240487   7.2769773  44.2914234
  54.7598694   6.7500394  45.0027155  55.9807603   6.8868242  44.1180719
  61.0289788  -1.4335895  51.5545500  60.6973112  -0.5640484  51.3306715
  60.4335401  -1.7499611  52.2339530  54.7645974   2.3059672  39.2875582
  54.9320376   3.1739909  39.6546053  54.5743143   2.4686954  38.3636871
  57.5221307  10.7676651  50.9541412  57.2222030  11.6701690  50.8457220
  57.1772367  10.5008834  51.8062565  50.9733789   7.2190448  46.9878117
  50.0484285   7.0866662  47.1955809  51.2218202   7.9984667  47.4848059
  60.9218451   3.2859191  48.6338850  60.0135328   3.2174600  48.3397611
  60.8706047   3.7631136  49.4620675  54.7435195   4.7617330  40.2722249
  54.6234820   5.2074381  41.1107729  54.0487783   5.1102647  39.7135787
  48.3342600   6.8623722  47.8221906  48.4634981   7.1158201  48.7361318
  47.6540051   7.4551430  47.5026561  52.5042087  17.5320972  43.9212380
  52.4266117  18.4828797  44.0000861  51.9003730  17.1866844  44.5787306
  54.9959317   4.7048837  56.5773747  54.2192651   5.2642757  56.5676612
  55.6349880   5.1905620  57.0988617  62.7880097   1.4875630  50.4116724
  62.1454478   1.7808163  49.7656518  62.2835026   1.3728550  51.2169920
  60.4420261   5.2338803  41.1002583  61.3538117   5.4666190  40.9250281
  59.9329908   5.8175847  40.5377662  53.2505689   7.5134290  56.1391714
  53.9920373   8.0519334  55.8626538  52.5442674   8.1400579  56.2963266
  58.7261029   9.6563431  54.7363876  59.1344385   9.2145841  53.9918508
  58.0038290   9.0816058  54.9898068  55.0792099   4.5936038  52.1097433
  55.9253294   5.0175451  52.2532082  55.0190736   3.9369662  52.8035996
  59.0489843  10.2164621  48.4916164  58.4198706  10.3810336  47.7892232
  58.6615505  10.6306231  49.2627128  62.9279075  11.1519059  45.8460528
  62.2430113  11.5317961  45.2957562  63.0122924  11.7614386  46.5792476
  58.2291544   2.2540406  53.7678606  57.9852476   3.0082466  53.2312882
  58.5051475   2.6325754  54.6025853  60.1830007   8.7979018  52.4455872
  60.3946902   9.4410778  51.7690253  60.1359755   7.9641335  51.9777802
  57.7856236   1.4096839  49.3492444  56.9240715   1.7078093  49.6409181
  57.8118670   1.6267238  48.4173477  54.6017805   9.9539030  45.7566250
  55.0656151  10.2326732  44.9670872  54.3374603   9.0522474  45.5739340
  51.4941886   9.5010511  48.6946013  52.0643243   9.9297779  48.0563497
  52.0849998   9.2193096  49.3930198  53.5386691   6.0762182  42.5655815
  54.2410735   6.5283226  43.0329741  53.2067320   5.4346001  43.1935708
  51.9867053   4.6673939  56.9407024  51.3565713   5.3490219  57.1742421
  51.8803141   4.5557020  55.9960162  47.2812025   4.3345735  47.8672948
  46.4911079   4.5903263  47.3913059  47.7723273   5.1494072  47.9724989
  61.2975835  11.6750974  50.6178229  62.1193278  11.2731161  50.3360911
  61.2938238  11.5719208  51.5694345  49.2326771   4.6990314  44.8256425
  48.4357934   4.8109008  45.3439921  49.0052363   5.0376966  43.9597315
  55.0632438  11.2235017  52.7738940  55.1276871  11.6855424  53.6097111
  54.3543362  10.5932382  52.9021249  45.5649728   4.5876225  50.2987939
  45.8157767   5.4723235  50.5645515  46.1009277   4.4080827  49.5263031
  69.3881828   8.0189722  46.9663201  68.6345536   7.4497120  46.8107205
  69.5229369   7.9852387  47.9133835  54.7780456  12.8903125  42.6417920
  54.6426131  13.7354660  43.0702768  55.3190268  13.0922402  41.8783854
  51.2647795  -1.0305296  59.3032275  50.8714741  -1.5839097  59.9779919
  52.0813936  -0.7194717  59.6938793  48.2309853  10.4078563  43.2145845
  48.7434374  11.2021813  43.3651410  48.8832566   9.7104853  43.1479446
  50.0404738  13.5244319  45.2968598  50.2171366  14.4462284  45.1089582
  50.8361571  13.2102738  45.7262978  54.1815756   0.3852583  56.8952532
  54.9225470   0.9859737  56.8156994  54.4133679  -0.3569779  56.3370574
  49.3257094   5.5708951  55.1730761  49.2110610   4.6694208  55.4737860
  48.4701612   5.8172647  54.8215578  56.4048932  13.5126691  56.7718262
  55.9612786  12.7263070  56.4539166  57.0666146  13.7005842  56.1062153
  51.1636053  15.0422493  51.2978940  51.7143478  14.9139556  50.5255934
  50.3247529  15.3417382  50.9473833  58.5030170  13.7929491  54.7999663
  58.4848646  14.6138372  54.3079932  59.4250090  13.6683566  55.0249804
  54.9603224  11.3073620  55.6423172  55.4931561  10.5461909  55.4122480
  54.4317306  11.0147272  56.3847326  58.1272919  -3.5866314  51.1716813
  57.7837189  -2.6964672  51.0955924  58.4951882  -3.7764656  50.3086398
  46.1958770   8.7367217  43.9905416  47.0333992   9.1464225  43.7739123
  46.3737038   7.7966659  43.9605609  58.0923202   6.4042297  39.6789248
  57.5769826   7.1746902  39.9177636  57.8200511   5.7307434  40.3022310
  55.6770313   1.2491998  44.7374487  54.8211909   0.8598849  44.5580126
  56.0897265   1.3283959  43.8774272  57.2069460  -1.2161658  49.1366047
  56.7034255  -1.2531523  48.3233852  57.5000067  -0.3068916  49.1962703
  53.4512346  -1.1322929  48.1432228  54.3165342  -1.3280120  47.7838118
  53.5189855  -1.3612577  49.0701585  63.0657476   9.1574652  41.6142422
  62.2886919   8.8185812  41.1697584  63.7448957   9.1627275  40.9397387
  57.8809505   4.2769390  41.5049030  57.5759641   4.5915539  42.3559173
  58.8339947   4.3550809  41.5476363  56.3255937  10.4359613  43.1541984
  55.7977299   9.7012372  42.8415221  55.8243440  11.2134289  42.9081952
  61.3048783   8.6308633  48.2709030  60.6472458   9.3207895  48.3589159
  62.1089182   9.0205065  48.6143016  51.0574665   1.0979279  45.5148595
  51.6318417   0.8754461  44.7821788  51.6445647   1.1667974  46.2677196
  60.1154242   6.9853006  46.3212972  60.6286124   7.6182998  46.8234681
  60.7655466   6.3854202  45.9556332  51.3844252   3.1283740  39.5344480
  50.5481564   3.4658427  39.8553755  51.2449021   2.9932720  38.5971617
  53.3597332  -2.0279472  44.2423665  52.7061745  -2.3430455  43.6180279
  53.3177807  -2.6503731  44.9683488  54.4708537   8.2539823  36.1576957
  53.5635599   8.0229077  36.3568106  54.9679569   7.4577442  36.3450938
  57.3776616  16.9637330  39.0773643  56.7038315  17.2669027  39.6858601
  57.7642438  17.7666411  38.7279100  56.5935073   4.4602462  48.5671312
  55.6757634   4.6817409  48.4093000  57.0095216   4.5348772  47.7083020
  57.3770121   5.8593877  43.6973992  58.1241940   6.3715275  43.3881115
  57.6461710   5.5377930  44.5578386  55.6496771   8.3552418  40.6800947
  54.7407990   8.0711451  40.7773417  55.6791855   8.7751497  39.8204254
  60.8816038  11.9659008  44.4492114  60.4278365  11.1249917  44.5057305
  60.2510005  12.6020406  44.7866894  59.8248958   2.8950994  45.6792782
  59.0871715   2.3828380  46.0103024  60.0775731   2.4551375  44.8676059
  59.3248977  13.8035504  45.3841932  59.6171952  14.3640561  44.6654298
  59.8347598  14.0964065  46.1395092  46.2184941   6.0757932  44.6616149
  46.0209341   5.4827293  43.9367216  45.6631605   5.7710142  45.3792088
  54.1981665   5.9681039  46.7810742  54.2530275   5.0154875  46.7053219
  53.3872867   6.1240478  47.2652041  55.3472859   9.8961162  38.0189025
  54.9092288   9.1797021  37.5594663  56.0883299  10.1237277  37.4574117
  52.1374025   4.5858098  44.5401121  51.3241890   4.8852269  44.9466313
  52.6333019   4.1913787  45.2575603  54.2882603  14.5815855  46.4735386
  54.2458781  14.8076702  45.5443918  55.2045301  14.3479230  46.6221187
  57.7348236   5.0499923  53.3716015  58.0897624   5.2771396  54.2310481
  58.3820368   5.3818300  52.7493270  63.4645973   8.1718359  44.0765344
  63.3263872   8.3619955  43.1486533  63.1082192   8.9337742  44.5333395
  51.6288099   2.1576454  50.1562356  52.2687479   2.0165213  49.4585319
  50.7965630   1.8710967  49.7800958  63.4915353  10.2394886  49.0876615
  63.9251860  10.1470175  49.9359669  64.2046934  10.2152386  48.4496631
  52.4048403  11.4578884  46.2697348  53.1989002  10.9629204  46.0679923
  51.6940096  10.9296747  45.9065054  57.2243248  13.8396980  50.6209716
  57.2780270  14.4087916  51.3887432  56.3558029  14.0098865  50.2563753
  48.7131167   5.6021966  42.3457101  47.7828755   5.5406422  42.5627063
  48.8088639   5.0797919  41.5493742  48.6316716   2.1276779  44.9335343
  48.8923533   3.0422112  44.8244503  49.4533888   1.6601221  45.0831956
  50.1041641   3.5414536  52.1034167  50.7764695   3.3331898  51.4546816
  49.2771428   3.3436622  51.6639400  64.3530903  10.2818586  51.6209501
  64.5466793  11.1864397  51.8668776  64.2531521   9.8226005  52.4548086
  56.0067213   0.1676477  54.1199828  55.3595128   0.8666427  54.0264305
  56.7768229   0.6012621  54.4876076  59.4146011  10.4325329  57.1950381
  59.2631518  10.2035881  56.2780465  59.4050691  11.3895931  57.2081726
  56.1831348   8.0057242  52.1796648  57.1123408   8.1568402  52.0065615
  55.7622378   8.0941263  51.3245294  54.9819679  12.0307906  49.9495185
  54.8430765  11.6626691  50.8221124  54.1934276  12.5455546  49.7779143
  55.5767831  17.1317003  41.2920722  55.7519587  16.6605046  42.1066345
  54.8900619  17.7582769  41.5201983  56.5324895  11.4089509  47.3384023
  56.1974727  11.3690279  48.2341673  56.0328840  10.7434225  46.8654433
  50.5069138   6.8157139  52.8636604  50.3688936   6.0837378  53.4648143
  51.4174062   6.7266039  52.5820792  59.4684086   8.7545543  37.6121083
  58.8513257   8.0292372  37.5154136  59.0000575   9.5154904  37.2688157
  53.1351439   6.5277098  52.3520284  53.8451058   5.8870291  52.3106902
  53.0920747   6.7789993  53.2746465  61.1238218  13.4644452  55.2726863
  61.0650764  12.7803672  54.6057446  61.5257736  14.2063442  54.8207489
  51.8480373   3.5142316  54.1715924  51.3117730   3.0633055  54.8237520
  51.2597082   3.6488225  53.4286388  50.1428917  20.2806366  48.0660582
  50.3825515  20.9124890  48.7439601  49.2998113  19.9294406  48.3525941
  51.2582632   2.9730968  36.7342387  50.3812098   2.8519768  36.3704634
  51.7340385   2.1817046  36.4821276  61.1255625  11.4284036  53.5040843
  60.2382404  11.0909957  53.6267242  61.6954176  10.6967067  53.7409608
  42.7784772   7.7608127  46.8283894  43.4655812   7.4469857  46.2404910
  42.6232901   8.6649492  46.5551146  47.5819494   2.6498324  51.2568918
  47.4977683   2.0423993  50.5219328  46.7602201   3.1407342  51.2578414
  54.6556778  16.0885488  50.4702086  54.5826950  16.8940459  50.9821391
  54.2134172  16.2877454  49.6450108  54.4446558  15.3257258  43.9804908
  53.6614080  15.8678938  44.0743132  55.1439303  15.8431238  44.3799149
  57.7543208   1.1351887  46.6239113  58.2511908   0.3821850  46.3040183
  56.9830190   1.1716204  46.0582322  65.6072966   6.8392253  48.2657405
  65.5962842   7.7216968  47.8951338  64.7390345   6.4863804  48.0711942
  57.1155462  15.9872322  52.6260245  57.8283434  16.6219787  52.5536146
  56.6245491  16.0836188  51.8100247  58.8372989   9.8923575  44.1977536
  57.9029268  10.0125037  44.0282241  59.0149657   8.9896041  43.9337546
  54.3378177   3.2769270  46.3510798  53.9675964   2.7240311  47.0391703
  54.8337269   2.6727404  45.7985798  62.2245540   5.7340894  44.7327571
  62.6905992   6.5668886  44.6587873  62.6753041   5.2685876  45.4372829
  52.1667376  13.7366765  53.4465816  52.8676835  14.3703248  53.5995210
  51.6962491  14.0781497  52.6861455  60.2921771  12.0784715  41.7313723
  60.5681615  11.9641310  42.6407597  59.4226270  11.6802200  41.6925896
  60.1962203  -1.8978519  48.7718472  59.2825283  -1.6674292  48.9400679
  60.6255304  -1.8140075  49.6232504  59.9668662   6.2911373  51.2718366
  59.3140112   6.5387280  50.6170819  60.3449041   5.4775511  50.9380843
  56.9275835  16.3271066  45.3746536  57.1098230  15.5092722  45.8374289
  57.7508821  16.5438758  44.9371426  57.2618001  15.2539251  42.6361585
  57.7905767  14.7431706  42.0231747  57.5246220  14.9381781  43.5007118
  56.0156235   7.0331184  57.7584403  55.3396872   6.9325313  58.4286778
  56.8383868   6.8770398  58.2220400  47.7635094  13.2703121  50.3796918
  48.3488530  12.5246808  50.5124823  47.5659932  13.5807077  51.2633582
  50.6173749  16.3054368  45.3959361  49.9484124  16.7900496  44.9123401
  50.4786619  16.5523588  46.3102739  42.3552748   5.8408721  49.1001361
  42.3936848   5.3072311  49.8938480  41.8493041   5.3143926  48.4812339
  54.7579017  18.3398111  51.9942019  55.3097325  18.5029733  52.7591104
  55.0985211  18.9302549  51.3222044  49.7343511   0.6873261  52.5963904
  49.7984837   1.5488092  52.1841301  49.6710631   0.0747263  51.8636262
  49.2095783   2.7596394  56.2436938  49.8367822   2.3773471  56.8574462
  48.3523702   2.5410596  56.6092631  59.6089892  13.1659369  57.8490673
  60.1529796  13.7789327  57.3545628  59.0276737  13.7238947  58.3657687
  45.9861326   4.5672823  42.1755293  46.2814767   3.6583501  42.1222347
  45.0849362   4.5460562  41.8536295  57.8947405  16.2880087  48.9805701
  57.7698544  15.4869827  48.4716647  58.5526496  16.7826280  48.4919671
  49.5155573   2.6428819  48.1582841  48.7942159   3.2564787  48.0190315
  50.3048829   3.1786584  48.0799487  59.9582313  14.0889107  50.6085251
  59.0112649  13.9694458  50.5363578  60.3065086  13.2011605  50.6911513
  52.3181886  -0.0216754  54.4323493  52.8416288   0.2245543  55.1949803
  52.0994220   0.8103281  54.0126631  47.7149168   2.2486921  42.2994618
  47.3861874   1.3684299  42.1169724  48.0688538   2.1934589  43.1871007
  56.9628746  13.8841823  46.8089604  56.8153709  12.9558531  46.9897174
  57.7882240  13.9061914  46.3246679  50.8290991   2.5359890  42.6670096
  51.1687063   3.0645812  41.9448704  51.2763111   2.8740296  43.4428662
  60.5662868  14.7070382  47.8954476  61.4909416  14.5013243  47.7578927
  60.3978172  14.4586783  48.8043818  53.5234431   0.9196941  52.1173164
  53.1831252   0.1204754  52.5193844  52.8173438   1.2198652  51.5449997
  54.1750903  -1.9953747  50.5700487  54.9976973  -2.4693268  50.4479377
  54.4188967  -1.2163263  51.0699173  52.8159138   1.0334512  40.8663388
  53.5367500   1.4115765  40.3627105  52.1924442   1.7523389  40.9698366
  56.9590261   1.7379661  41.8021721  57.1753875   2.6204299  41.5010549
  56.4784328   1.3465874  41.0727363  51.6989482   4.6965374  48.3792465
  51.5534063   5.0105677  49.2716747  51.2214686   5.3150274  47.8263364
  53.5585865   1.6867922  48.4273355  53.5447434   0.7909015  48.0905653
  54.2758293   1.6938586  49.0611641  55.4111996   2.1205262  50.4726482
  55.1529773   3.0422333  50.4710813  54.8797036   1.7235697  51.1626947
  60.3558184  15.2256049  43.2516568  60.5295062  14.6602472  42.4990420
  60.8487076  16.0256944  43.0696058  46.1735144   7.2370719  51.3180127
  45.6288612   8.0130526  51.4500401  47.0514494   7.5841523  51.1599248
  52.9622761   0.5682302  43.6960925  53.0838672  -0.3601051  43.8951813
  52.6724803   0.5820988  42.7839240  55.8313951  -1.7462787  46.8327645
  55.8535648  -1.6823454  45.8779624  56.2482010  -2.5858279  47.0268151
  66.2097576   7.9892472  44.8706867  66.6528722   7.2399798  44.4725991
  65.3324086   7.9802609  44.4880599  61.3433357  14.5422814  40.3513466
  62.0384262  15.1629507  40.5700781  61.6856507  13.6918165  40.6265844
  46.9601166   6.3640615  54.2110283  46.2182902   6.5123250  54.7974914
  46.6393910   6.6248880  53.3477033  63.2424780  11.9922519  41.8800797
  63.7676104  12.3309792  41.1550117  63.1547133  11.0569535  41.6963931
  54.9044829  15.9056593  54.0090673  55.2131955  15.6605740  54.8813373
  55.7020311  16.1103231  53.5209544  54.9265441  18.0594503  46.2396050
  54.4870431  17.5670881  46.9328907  55.6773558  17.5167470  45.9988125
  47.4057780  14.2506044  46.2420678  48.2315800  13.9509815  45.8619322
  47.0551832  13.4813666  46.6910467  52.3739313  13.6032512  48.3118352
  51.7519322  12.9403217  48.0120580  53.0444180  13.6293644  47.6291999
  45.6066385  12.1692370  47.2009612  44.7698293  11.7414544  47.0193613
  45.5790030  12.3624813  48.1380403  52.4463840   2.0814300  57.9050858
  52.4951996   2.9576423  57.5228627  52.9886355   1.5391693  57.3322501
  62.9318686  12.6255423  57.1851995  62.1414230  12.6079562  56.6456494
  62.6952041  13.1643717  57.9401031  63.0516561   9.4747889  54.4984723
  63.1014566   9.3097897  55.4400246  62.9430484   8.6075148  54.1082604
  51.9352820  12.1536435  41.7876812  52.0840940  12.8371899  41.1343485
  52.7419263  12.1341525  42.3026268  60.3420324   5.4578817  55.8144030
  61.2430186   5.3185282  55.5228028  60.4168298   5.6233272  56.7542207
  54.6763129   2.8345672  54.6597216  53.8066438   3.1279238  54.3879805
  54.9122609   3.4186117  55.3804480  64.5534758  11.8944831  54.7426745
  64.2619566  12.2574811  55.5790206  63.9406889  11.1811839  54.5640077
  65.7530440   9.4597711  47.2629315  66.5877332   9.8987515  47.4266875
  65.8889569   8.9836364  46.4437561  62.8021946   7.0177446  53.2106803
  63.2776068   7.2105092  52.4025654  61.8787512   7.0736631  52.9650186
  49.6905453   8.1801613  42.7937881  49.4451495   7.2763943  42.9918091
  49.8601367   8.1818763  41.8517359  57.3802163  -0.9474711  52.1762637
  57.8984107  -0.2113684  51.8509125  57.0257295  -0.6410718  53.0109396
  48.9601100   3.9129970  40.2924043  48.2670345   3.9874325  39.6364079
  48.7152852   3.1490314  40.8145559  55.4348225  14.6484566  39.2588560
  54.8622192  15.2674753  38.8059031  56.0081019  15.1983927  39.7928482
  61.5023615   3.8943206  51.4435108  62.4541038   3.9941303  51.4647332
  61.3327066   3.1021474  51.9533193  59.5237995   0.9798789  51.6294509
  58.9287927   1.2603802  50.9340998  59.2387691   1.4692690  52.4011250
  58.6545485  14.9321716  40.3897142  59.5876158  14.8667277  40.5930017
  58.5668698  15.7677983  39.9311675  61.2833502  14.2487586  37.3501089
  61.2047133  13.9147450  38.2436847  62.1043169  14.7409354  37.3492562
  63.9811693   7.1149325  50.5577408  63.9488013   6.1765326  50.7437092
  64.5912317   7.1933362  49.8243233  55.8195024   5.9845378  36.6004612
  56.7654129   5.8551586  36.6693030  55.4409269   5.2460040  37.0774040
  64.1306181   3.9060369  50.6035691  63.6145230   3.1218825  50.4165620
  65.0146130   3.5779085  50.7682211  61.7916908  -2.3498616  46.5631504
  61.5941730  -2.6583527  47.4474836  62.4016614  -1.6236977  46.6929434
  69.7988243   8.1765332  49.6983445  70.5291631   7.9150620  50.2591148
  69.1895188   7.4394054  49.7385513  67.8803540   6.3173195  50.2957896
  67.1536704   6.1829160  49.6874388  67.4650827   6.6250023  51.1014614
  55.7033716  10.0363124  58.0605269  56.6236726  10.2141723  58.2545316
  55.6683299   9.0919170  57.9084968  54.0037941   3.9095355  36.5359497
  53.0969396   3.6128467  36.6122211  54.2813922   3.6125173  35.6693784
  44.9215881   5.2301718  46.9858544  44.6018666   4.3767026  46.6932918
  44.3749310   5.4450296  47.7416511  48.6995789   7.9464159  50.7028050
  48.9181799   8.8781267  50.7216084  49.1121563   7.5872133  51.4882854
  55.6200007  -1.5467756  42.6903739  54.8100735  -1.8920671  43.0658985
  56.3084424  -1.8560212  43.2791350  57.5490555  -2.4689709  44.3128035
  58.1021594  -2.0494255  44.9718058  57.7860641  -3.3953961  44.3550991
  53.5723654   3.5197365  60.0930799  53.4720381   4.4691722  60.0242890
  53.3545196   3.1915604  59.2206869  52.7736726   0.7682290  36.6771477
  53.6355890   1.0937188  36.9367294  52.9587070  -0.0186214  36.1644542
  44.7904141   8.8504630  48.9551665  44.0967613   8.4358582  48.4421620
  45.5377132   8.8925166  48.3585084  60.9269362  -0.3589184  43.8206700
  60.3468031   0.2995620  43.4384752  60.6605295  -1.1811839  43.4094117
  59.3772928  -0.9584126  46.0228020  59.8772707  -0.8467591  45.2142339
  60.0208536  -1.2623073  46.6628828  53.4354924   6.9494504  58.9095861
  52.9522006   7.7494864  59.1159750  53.5215863   6.9602449  57.9563305
  46.7040884   8.7822883  46.8317680  46.6811572   8.8810571  45.8799563
  47.0141520   9.6288034  47.1534846  49.3628262  10.8399038  50.9464295
  50.3171515  10.8082981  50.8794226  49.1640785  10.3789662  51.7614521
  49.9527644   9.4100154  53.5135092  50.7720533   9.9044233  53.5369930
  50.2264452   8.4932123  53.4852660  59.7094240   1.8010907  42.8763048
  58.8220095   2.0860557  42.6583243  60.1248229   1.6404670  42.0290325
  63.0608776   1.8257428  46.5917387  63.8369166   2.3153880  46.8642004
  62.3356910   2.2515482  47.0489257  65.4981335   2.5385047  47.6491328
  66.0925826   2.2980783  46.9384636  65.5707919   1.8192178  48.2764864
  47.7178491  16.3818658  47.9634492  47.5832959  15.6219059  47.3972491
  47.3010553  17.1059558  47.4963281  58.8537454  11.5655581  36.9711068
  59.5573304  11.7705584  37.5868723  58.1300102  12.1332343  37.2360151
  59.6835264   7.3165443  43.0913338  59.6270465   7.7733994  42.2520970
  60.2363606   6.5556127  42.9136181  63.4940070   3.1055175  43.9163457
  63.2377004   2.7051810  44.7471665  62.8692938   3.8198968  43.7913597
  67.8052408   5.8451248  46.4234749  67.2451966   5.9144437  47.1966311
  67.1995911   5.6692232  45.7034245  50.8747616  17.2787975  48.1752935
  50.7580001  18.2233407  48.0731625  50.0540063  16.9761536  48.5638734
  60.7624151  12.0038111  39.0209528  61.5969755  11.5719309  38.8387003
  60.6008494  11.8320124  39.9486422  60.4170043   8.5070224  40.3865867
  60.3618847   8.3414495  39.4454311  59.7916098   9.2146257  40.5428057
  45.2062558   3.7438288  54.2127289  45.8521422   3.2337242  54.7014515
  44.9979709   4.4806970  54.7870715  57.7315950  10.8119136  59.7119430
  58.6007110  10.9859788  59.3506065  57.2522702  11.6313553  59.5895159
  53.7266169  -1.9921667  39.9651186  53.7144838  -1.0479827  40.1219456
  54.6189591  -2.1751522  39.6710647  51.9002131  17.9316237  51.3908864
  52.8029377  17.9639847  51.7075359  51.6739501  17.0016688  51.4055199
  53.6555733  16.6847223  48.0518942  52.7051364  16.6849085  47.9383314
  53.9588219  15.9379958  47.5354977  49.5460049   0.8905905  58.3102304
  50.4091511   0.5342710  58.5205628  48.9725460   0.5519800  58.9977708
  69.3908426  22.5207762  49.1164705  70.0286836  22.4014509  48.4128045
  69.2729269  23.4688606  49.1752657  66.1998132  22.4735190  49.0526229
  65.8616644  22.3576255  48.1646764  67.0687901  22.0726355  49.0327235
  62.0584948  24.3270666  45.0423120  61.4949813  24.2360603  44.2739408
  61.9437343  23.5070571  45.5225613  66.6817915  23.6270042  55.0112435
  66.6706556  23.2322840  54.1392938  66.8438555  22.8936114  55.6046206
  59.6049380  25.8221858  47.8807341  60.3970672  25.4812682  47.4653640
  59.8446030  25.9316833  48.8009494  67.6384507  27.9941634  40.3537585
  66.9872487  28.5795714  39.9671599  68.4328870  28.5247829  40.4132623
  61.5640134  25.0830771  40.7524719  62.3371010  24.5359758  40.6137595
  61.9165533  25.9475020  40.9639181  63.4025177  26.4107153  53.9591619
  63.1115042  27.3152784  53.8438285  64.0382161  26.4523681  54.6735688
  64.3281383  23.7884002  50.5492978  64.9244956  23.5640024  49.8349941
  64.3856355  23.0468747  51.1518426  63.9006412  21.2423437  38.3843169
  64.1531932  20.7204958  37.6226632  62.9630971  21.0789583  38.4869853
  68.9449695  20.2459216  46.1917913  69.7312784  19.8278639  45.8408330
  69.2088399  21.1505308  46.3599561  69.1159772  25.6832066  40.8906569
  68.4805605  25.7566692  41.6027474  68.7857178  26.2725665  40.2125649
  74.3458122  20.1834449  47.0950891  75.0783294  19.6133666  47.3288721
  73.5897477  19.7956049  47.5357397  63.6202701  23.1451543  40.5867544
  63.5038959  22.4696447  41.2548629  63.7304960  22.6583917  39.7699697
  65.9634241  22.6061690  44.2914234  65.5992449  22.0792311  45.0027155
  66.8201357  22.2160159  44.1180719  71.8683542  13.8956023  51.5545500
  71.5366867  14.7651434  51.3306715  71.2729155  13.5792307  52.2339530
  65.6039728  17.6351590  39.2875582  65.7714131  18.5031826  39.6546053
  65.4136897  17.7978872  38.3636871  68.3615062  26.0968569  50.9541412
  68.0615785  26.9993608  50.8457220  68.0166121  25.8300752  51.8062565
  61.8127543  22.5482366  46.9878117  60.8878040  22.4158580  47.1955809
  62.0611956  23.3276585  47.4848059  71.7612205  18.6151109  48.6338850
  70.8529083  18.5466517  48.3397611  71.7099801  19.0923054  49.4620675
  65.5828949  20.0909247  40.2722249  65.4628574  20.5366298  41.1107729
  64.8881538  20.4394565  39.7135787  59.1736354  22.1915639  47.8221906
  59.3028735  22.4450118  48.7361318  58.4933805  22.7843347  47.5026561
  63.3435841  32.8612889  43.9212380  63.2659871  33.8120714  44.0000861
  62.7397485  32.5158762  44.5787306  65.8353071  20.0340755  56.5773747
  65.0586405  20.5934675  56.5676612  66.4743634  20.5197538  57.0988617
  73.6273852  16.8167547  50.4116724  72.9848232  17.1100081  49.7656518
  73.1228780  16.7020468  51.2169920  71.2814015  20.5630721  41.1002583
  72.1931872  20.7958107  40.9250281  70.7723663  21.1467765  40.5377662
  64.0899443  22.8426208  56.1391714  64.8314128  23.3811252  55.8626538
  63.3836429  23.4692497  56.2963266  69.5654783  24.9855348  54.7363876
  69.9738139  24.5437759  53.9918508  68.8432045  24.4107976  54.9898068
  65.9185853  19.9227955  52.1097433  66.7647048  20.3467369  52.2532082
  65.8584491  19.2661580  52.8035996  69.8883598  25.5456539  48.4916164
  69.2592460  25.7102253  47.7892232  69.5009260  25.9598149  49.2627128
  69.0685298  17.5832324  53.7678606  68.8246230  18.3374384  53.2312882
  69.3445229  17.9617671  54.6025853  71.0223761  24.1270936  52.4455872
  71.2340656  24.7702696  51.7690253  70.9753510  23.2933253  51.9777802
  68.6249990  16.7388757  49.3492444  67.7634469  17.0370010  49.6409181
  68.6512425  16.9559156  48.4173477  65.4411560  25.2830947  45.7566250
  65.9049905  25.5618650  44.9670872  65.1768358  24.3814392  45.5739340
  62.3335641  24.8302429  48.6946013  62.9036998  25.2589697  48.0563497
  62.9243753  24.5485013  49.3930198  64.3780446  21.4054100  42.5655815
  65.0804489  21.8575143  43.0329741  64.0461074  20.7637918  43.1935708
  62.8260807  19.9965856  56.9407024  62.1959468  20.6782137  57.1742421
  62.7196895  19.8848938  55.9960162  58.1205780  19.6637652  47.8672948
  57.3304834  19.9195181  47.3913059  58.6117027  20.4785990  47.9724989
  72.1369589  27.0042891  50.6178229  72.9587033  26.6023079  50.3360911
  72.1331992  26.9011126  51.5694345  60.0720525  20.0282231  44.8256425
  59.2751688  20.1400926  45.3439921  59.8446117  20.3668884  43.9597315
  65.9026193  26.5526935  52.7738940  65.9670625  27.0147342  53.6097111
  65.1937117  25.9224300  52.9021249  56.4043483  19.9168143  50.2987939
  56.6551521  20.8015153  50.5645515  56.9403031  19.7372744  49.5263031
  65.6174210  28.2195042  42.6417920  65.4819885  29.0646578  43.0702768
  66.1584023  28.4214320  41.8783854  62.1041550  14.2986622  59.3032275
  61.7108496  13.7452821  59.9779919  62.9207690  14.6097200  59.6938793
  59.0703608  25.7370480  43.2145845  59.5828128  26.5313730  43.3651410
  59.7226321  25.0396771  43.1479446  60.8798492  28.8536236  45.2968598
  61.0565121  29.7754201  45.1089582  61.6755326  28.5394656  45.7262978
  65.0209511  15.7144501  56.8952532  65.7619224  16.3151654  56.8156994
  65.2527434  14.9722139  56.3370574  60.1650849  20.9000868  55.1730761
  60.0504364  19.9986126  55.4737860  59.3095367  21.1464565  54.8215578
  67.2442687  28.8418609  56.7718262  66.8006541  28.0554987  56.4539166
  67.9059900  29.0297759  56.1062153  62.0029808  30.3714410  51.2978940
  62.5537233  30.2431474  50.5255934  61.1641284  30.6709299  50.9473833
  69.3423925  29.1221409  54.7999663  69.3242400  29.9430290  54.3079932
  70.2643845  28.9975484  55.0249804  65.7996979  26.6365538  55.6423172
  66.3325316  25.8753826  55.4122480  65.2711060  26.3439190  56.3847326
  68.9666674  11.7425604  51.1716813  68.6230943  12.6327246  51.0955924
  69.3345636  11.5527262  50.3086398  57.0352524  24.0659135  43.9905416
  57.8727746  24.4756143  43.7739123  57.2130792  23.1258577  43.9605609
  68.9316957  21.7334215  39.6789248  68.4163580  22.5038820  39.9177636
  68.6594265  21.0599351  40.3022310  66.5164068  16.5783916  44.7374487
  65.6605664  16.1890766  44.5580126  66.9291019  16.6575877  43.8774272
  68.0463214  14.1130259  49.1366047  67.5428010  14.0760394  48.3233852
  68.3393821  15.0223002  49.1962703  64.2906100  14.1968989  48.1432228
  65.1559097  14.0011798  47.7838118  64.3583609  13.9679341  49.0701585
  68.7203260  19.6061307  41.5049030  68.4153395  19.9207456  42.3559173
  69.6733702  19.6842727  41.5476363  67.1649692  25.7651531  43.1541984
  66.6371053  25.0304290  42.8415221  66.6637194  26.5426207  42.9081952
  61.8968419  16.4271197  45.5148595  62.4712171  16.2046378  44.7821788
  62.4839402  16.4959891  46.2677196  70.9547996  22.3144924  46.3212972
  71.4679878  22.9474916  46.8234681  71.6049220  21.7146119  45.9556332
  62.2238006  18.4575658  39.5344480  61.3875319  18.7950344  39.8553755
  62.0842776  18.3224638  38.5971617  64.1991087  13.3012446  44.2423665
  63.5455499  12.9861463  43.6180279  64.1571561  12.6788186  44.9683488
  65.3102292  23.5831741  36.1576957  64.4029354  23.3520994  36.3568106
  65.8073324  22.7869360  36.3450938  67.4328827  19.7894379  48.5671312
  66.5151389  20.0109326  48.4093000  67.8488971  19.8640690  47.7083020
  68.2163875  21.1885795  43.6973992  68.9635694  21.7007192  43.3881115
  68.4855465  20.8669848  44.5578386  66.4890525  23.6844336  40.6800947
  65.5801744  23.4003369  40.7773417  66.5185609  24.1043414  39.8204254
  70.6642712  18.2242911  45.6792782  69.9265469  17.7120297  46.0103024
  70.9169486  17.7843293  44.8676059  70.7654340  11.0019163  46.2734551
  71.0713216  10.1416527  45.9860466  71.4906944  11.5936783  46.0733545
  57.0578696  21.4049850  44.6616149  56.8603095  20.8119211  43.9367216
  56.5025360  21.1002060  45.3792088  65.0375419  21.2972956  46.7810742
  65.0924029  20.3446793  46.7053219  64.2266621  21.4532395  47.2652041
  66.1866613  25.2253079  38.0189025  65.7486043  24.5088938  37.5594663
  66.9277054  25.4529194  37.4574117  62.9767779  19.9150016  44.5401121
  62.1635645  20.2144187  44.9466313  63.4726773  19.5205705  45.2575603
  65.1276357  29.9107773  46.4735386  65.0852536  30.1368619  45.5443918
  66.0439056  29.6771148  46.6221187  68.5741991  20.3791841  53.3716015
  68.9291379  20.6063314  54.2310481  69.2214122  20.7110217  52.7493270
  62.4681854  17.4868372  50.1562356  63.1081233  17.3457131  49.4585319
  61.6359384  17.2002885  49.7800958  63.2442158  26.7870802  46.2697348
  64.0382756  26.2921122  46.0679923  62.5333850  26.2588665  45.9065054
  68.0637002  29.1688898  50.6209716  68.1174025  29.7379834  51.3887432
  67.1951784  29.3390783  50.2563753  59.5524921  20.9313884  42.3457101
  58.6222509  20.8698339  42.5627063  59.6482393  20.4089836  41.5493742
  59.4710470  17.4568697  44.9335343  59.7317288  18.3714030  44.8244503
  60.2927643  16.9893139  45.0831956  60.9435396  18.8706454  52.1034167
  61.6158449  18.6623816  51.4546816  60.1165182  18.6728540  51.6639400
  75.1924657  25.6110504  51.6209501  75.3860547  26.5156315  51.8668776
  75.0925275  25.1517923  52.4548086  66.8460968  15.4968395  54.1199828
  66.1988883  16.1958344  54.0264305  67.6161983  15.9304539  54.4876076
  70.2539766  25.7617247  57.1950381  70.1025272  25.5327799  56.2780465
  70.2444445  26.7187848  57.2081726  67.0225102  23.3349160  52.1796648
  67.9517162  23.4860319  52.0065615  66.6016132  23.4233180  51.3245294
  65.8213434  27.3599824  49.9495185  65.6824520  26.9918608  50.8221124
  65.0328030  27.8747463  49.7779143  67.3718649  26.7381427  47.3384023
  67.0368482  26.6982197  48.2341673  66.8722595  26.0726143  46.8654433
  61.3462893  22.1449057  52.8636604  61.2082691  21.4129296  53.4648143
  62.2567816  22.0557957  52.5820792  70.3077841  24.0837461  37.6121083
  69.6907011  23.3584289  37.5154136  69.8394329  24.8446821  37.2688157
  63.9745194  21.8569016  52.3520284  64.6844812  21.2162208  52.3106902
  63.9314502  22.1081911  53.2746465  71.9631972  28.7936369  55.2726863
  71.9044518  28.1095590  54.6057446  72.3651491  29.5355359  54.8207489
  62.6874128  18.8434234  54.1715924  62.1511485  18.3924972  54.8237520
  62.0990836  18.9780143  53.4286388  60.9822671  35.6098283  48.0660582
  61.2219269  36.2416807  48.7439601  60.1391868  35.2586323  48.3525941
  62.0976387  18.3022885  36.7342387  61.2205853  18.1811686  36.3704634
  62.5734140  17.5108964  36.4821276  71.9649380  26.7575953  53.5040843
  71.0776158  26.4201875  53.6267242  72.5347931  26.0258985  53.7409608
  53.6178527  23.0900045  46.8283894  54.3049567  22.7761775  46.2404910
  53.4626655  23.9941410  46.5551146  58.4213249  17.9790242  51.2568918
  58.3371438  17.3715911  50.5219328  57.5995955  18.4699260  51.2578414
  65.4950533  31.4177406  50.4702086  65.4220704  32.2232377  50.9821391
  65.0527926  31.6169371  49.6450108  68.5936963  16.4643805  46.6239113
  69.0905662  15.7113767  46.3040183  67.8223944  16.5008122  46.0582322
  76.4466720  22.1684171  48.2657405  76.4356596  23.0508886  47.8951338
  75.5784100  21.8155722  48.0711942  67.9549216  31.3164240  52.6260245
  68.6677189  31.9511705  52.5536146  67.4639245  31.4128106  51.8100247
  65.1771931  18.6061188  46.3510798  64.8069719  18.0532229  47.0391703
  65.6731024  18.0019322  45.7985798  73.0639295  21.0632812  44.7327571
  73.5299747  21.8960803  44.6587873  73.5146795  20.5977793  45.4372829
  63.0061130  29.0658683  53.4465816  63.7070590  29.6995166  53.5995210
  62.5356245  29.4073415  52.6861455  71.0355957  13.4313399  48.7718472
  70.1219037  13.6617625  48.9400679  71.4649059  13.5151843  49.6232504
  70.8062416  21.6203291  51.2718366  70.1533866  21.8679198  50.6170819
  71.1842796  20.8067429  50.9380843  66.8549989  22.3623102  57.7584403
  66.1790626  22.2617231  58.4286778  67.6777623  22.2062315  58.2220400
  58.6028848  28.5995038  50.3796918  59.1882285  27.8538726  50.5124823
  58.4053687  28.9098995  51.2633582  61.4567503  31.6346286  45.3959361
  60.7877879  32.1192413  44.9123401  61.3180373  31.8815506  46.3102739
  53.1946503  21.1700638  49.1001361  53.2330602  20.6364229  49.8938480
  52.6886796  20.6435844  48.4812339  65.5972772  33.6690029  51.9942019
  66.1491080  33.8321651  52.7591104  65.9378965  34.2594467  51.3222044
  60.5737265  16.0165179  52.5963904  60.6378592  16.8780010  52.1841301
  60.5104385  15.4039181  51.8636262  60.0489538  18.0888311  56.2436938
  60.6761576  17.7065389  56.8574462  59.1917457  17.8702513  56.6092631
  70.4483646  28.4951287  57.8490673  70.9923550  29.1081245  57.3545628
  69.8670491  29.0530865  58.3657687  56.8255080  19.8964741  42.1755293
  57.1208521  18.9875419  42.1222347  55.9243116  19.8752480  41.8536295
  68.7341159  31.6172005  48.9805701  68.6092299  30.8161744  48.4716647
  69.3920250  32.1118198  48.4919671  60.3549327  17.9720737  48.1582841
  59.6335913  18.5856705  48.0190315  61.1442583  18.5078502  48.0799487
  70.7976068  29.4181025  50.6085251  69.8506403  29.2986376  50.5363578
  71.1458841  28.5303523  50.6911513  63.1575641  15.3075164  54.4323493
  63.6810043  15.5537460  55.1949803  62.9387974  16.1395198  54.0126631
  58.5542922  17.5778838  42.2994618  58.2255628  16.6976217  42.1169724
  58.9082293  17.5226507  43.1871007  61.6684745  17.8651808  42.6670096
  62.0080818  18.3937729  41.9448704  62.1156866  18.2032214  43.4428662
  64.3628186  16.2488859  52.1173164  64.0225006  15.4496672  52.5193844
  63.6567192  16.5490570  51.5449997  65.0144658  13.3338171  50.5700487
  65.8370727  12.8598649  50.4479377  65.2582721  14.1128655  51.0699173
  63.6552892  16.3626430  40.8663388  64.3761255  16.7407682  40.3627105
  63.0318196  17.0815306  40.9698366  67.7984015  17.0671579  41.8021721
  68.0147630  17.9496216  41.5010549  67.3178082  16.6757792  41.0727363
  62.5383237  20.0257292  48.3792465  62.3927817  20.3397595  49.2716747
  62.0608440  20.6442192  47.8263364  64.3979619  17.0159840  48.4273355
  64.3841188  16.1200933  48.0905653  65.1152048  17.0230504  49.0611641
  66.2505750  17.4497180  50.4726482  65.9923528  18.3714251  50.4710813
  65.7190791  17.0527615  51.1626947  57.0128899  22.5662636  51.3180127
  56.4682367  23.3422444  51.4500401  57.8908249  22.9133441  51.1599248
  63.8016515  15.8974220  43.6960925  63.9232427  14.9690866  43.8951813
  63.5118558  15.9112906  42.7839240  66.6707706  13.5829131  46.8327645
  66.6929403  13.6468464  45.8779624  67.0875765  12.7433639  47.0268151
  57.7994921  21.6932532  54.2110283  57.0576657  21.8415168  54.7974914
  57.4787665  21.9540798  53.3477033  65.7438583  31.2348511  54.0090673
  66.0525710  30.9897657  54.8813373  66.5414065  31.4395149  53.5209544
  65.7659195  33.3886420  46.2396050  65.3264186  32.8962799  46.9328907
  66.5167312  32.8459388  45.9988125  58.2451534  29.5797961  46.2420678
  59.0709554  29.2801733  45.8619322  57.8945586  28.8105584  46.6910467
  63.2133067  28.9324429  48.3118352  62.5913077  28.2695134  48.0120580
  63.8837934  28.9585561  47.6291999  56.4460139  27.4984288  47.2009612
  55.6092048  27.0706462  47.0193613  56.4183785  27.6916731  48.1380403
  63.2857595  17.4106217  57.9050858  63.3345750  18.2868340  57.5228627
  63.8280109  16.8683610  57.3322501  73.7712441  27.9547341  57.1851995
  72.9807984  27.9371480  56.6456494  73.5345795  28.4935634  57.9401031
  73.8910316  24.8039807  54.4984723  73.9408321  24.6389815  55.4400246
  73.7824239  23.9367066  54.1082604  62.7746574  27.4828353  41.7876812
  62.9234695  28.1663817  41.1343485  63.5813018  27.4633443  42.3026268
  71.1814078  20.7870735  55.8144030  72.0823941  20.6477200  55.5228028
  71.2562053  20.9525190  56.7542207  65.5156883  18.1637590  54.6597216
  64.6460193  18.4571156  54.3879805  65.7516364  18.7478035  55.3804480
  75.3928512  27.2236749  54.7426745  75.1013321  27.5866729  55.5790206
  74.7800644  26.5103757  54.5640077  73.6415701  22.3469363  53.2106803
  74.1169822  22.5397010  52.4025654  72.7181266  22.4028549  52.9650186
  60.5299207  23.5093530  42.7937881  60.2845249  22.6055860  42.9918091
  60.6995122  23.5110681  41.8517359  68.2195917  14.3817207  52.1762637
  68.7377861  15.1178234  51.8509125  67.8651050  14.6881200  53.0109396
  59.7994855  19.2421888  40.2924043  59.1064100  19.3166243  39.6364079
  59.5546607  18.4782232  40.8145559  68.4708511  10.8017489  47.6963533
  68.7510265  10.1340678  48.3223960  69.2559118  10.9946585  47.1838197
  66.2741980  29.9776483  39.2588560  65.7015947  30.5966670  38.8059031
  66.8474774  30.5275845  39.7928482  72.3417370  19.2235123  51.4435108
  73.2934793  19.3233221  51.4647332  72.1720820  18.4313392  51.9533193
  70.3631749  16.3090707  51.6294509  69.7681681  16.5895719  50.9340998
  70.0781446  16.7984607  52.4011250  74.8205447  22.4441243  50.5577408
  74.7881768  21.5057244  50.7437092  75.4306071  22.5225280  49.8243233
  66.6588778  21.3137296  36.6004612  67.6047883  21.1843504  36.6693030
  66.2803023  20.5751958  37.0774040  74.9699936  19.2352286  50.6035691
  74.4538985  18.4510743  50.4165620  75.8539884  18.9071003  50.7682211
  72.6310663  12.9793302  46.5631504  72.4335484  12.6708390  47.4474836
  73.2410368  13.7054941  46.6929434  78.7197294  21.6465112  50.2957896
  77.9930458  21.5121077  49.6874388  78.3044581  21.9541941  51.1014614
  66.5427471  25.3655042  58.0605269  67.4630480  25.5433641  58.2545316
  66.5077054  24.4211087  57.9084968  64.8431696  19.2387272  36.5359497
  63.9363151  18.9420385  36.6122211  65.1207677  18.9417090  35.6693784
  55.7609636  20.5593636  46.9858544  55.4412420  19.7058944  46.6932918
  55.2143064  20.7742214  47.7416511  59.5389543  23.2756077  50.7028050
  59.7575553  24.2073185  50.7216084  59.9515317  22.9164051  51.4882854
  66.4593761  13.7824162  42.6903739  65.6494490  13.4371247  43.0658985
  67.1478178  13.4731706  43.2791350  68.3884310  12.8602209  44.3128035
  68.9415348  13.2797662  44.9718058  68.6254396  11.9337957  44.3550991
  64.4117409  18.8489283  60.0930799  64.3114136  19.7983639  60.0242890
  64.1938951  18.5207521  59.2206869  63.6130480  16.0974208  36.6771477
  64.4749644  16.4229106  36.9367294  63.7980824  15.3105703  36.1644542
  55.6297896  24.1796547  48.9551665  54.9361367  23.7650500  48.4421620
  56.3770887  24.2217084  48.3585084  71.7663117  14.9702734  43.8206700
  71.1861786  15.6287538  43.4384752  71.4999049  14.1480079  43.4094117
  70.2166683  14.3707792  46.0228020  70.7166461  14.4824326  45.2142339
  70.8602291  14.0668845  46.6628828  64.2748679  22.2786421  58.9095861
  63.7915761  23.0786781  59.1159750  64.3609618  22.2894366  57.9563305
  57.5434638  24.1114801  46.8317680  57.5205327  24.2102488  45.8799563
  57.8535275  24.9579952  47.1534846  60.2022016  26.1690956  50.9464295
  61.1565270  26.1374898  50.8794226  60.0034540  25.7081580  51.7614521
  60.7921398  24.7392072  53.5135092  61.6114287  25.2336151  53.5369930
  61.0658206  23.8224040  53.4852660  70.5487995  17.1302824  42.8763048
  69.6613850  17.4152475  42.6583243  70.9641984  16.9696588  42.0290325
  73.9002531  17.1549345  46.5917387  74.6762921  17.6445798  46.8642004
  73.1750665  17.5807400  47.0489257  76.3375089  17.8676965  47.6491328
  76.9319580  17.6272701  46.9384636  76.4101673  17.1484095  48.2764864
  58.5572245  31.7110576  47.9634492  58.4226713  30.9510976  47.3972491
  58.1404307  32.4351475  47.4963281  69.6931208  26.8947499  36.9711068
  70.3967058  27.0997502  37.5868723  68.9693857  27.4624261  37.2360151
  70.5229018  22.6457360  43.0913338  70.4664220  23.1025912  42.2520970
  71.0757361  21.8848045  42.9136181  74.3333824  18.4347092  43.9163457
  74.0770759  18.0343728  44.7471665  73.7086692  19.1490886  43.7913597
  78.6446162  21.1743165  46.4234749  78.0845720  21.2436355  47.1966311
  78.0389665  20.9984150  45.7034245  61.7141371  32.6079893  48.1752935
  61.5973755  33.5525325  48.0731625  60.8933817  32.3053454  48.5638734
  71.2563798  23.8362142  40.3865867  71.2012601  23.6706413  39.4454311
  70.6309853  24.5438175  40.5428057  56.0456313  19.0730206  54.2127289
  56.6915176  18.5629160  54.7014515  55.8373464  19.8098888  54.7870715
  68.5709705  26.1411053  59.7119430  69.4400864  26.3151706  59.3506065
  68.0916456  26.9605470  59.5895159  64.5659923  13.3370251  39.9651186
  64.5538593  14.2812091  40.1219456  65.4583345  13.1540396  39.6710647
  62.7395885  33.2608154  51.3908864  63.6423132  33.2931765  51.7075359
  62.5133255  32.3308605  51.4055199  64.4949487  32.0139141  48.0518942
  63.5445118  32.0141003  47.9383314  64.7981973  31.2671876  47.5354977
  68.3812043   9.9313027  44.2197122  67.6144438   9.3771514  44.3653805
  68.7922748  10.0034896  45.0811274  60.3853804  16.2197823  58.3102304
  61.2485265  15.8634628  58.5205628  59.8119214  15.8811718  58.9977708
  73.6654562  35.3257774  56.9407024  73.0353222  36.0074055  57.1742421
  73.5590650  35.2140855  55.9960162  68.9599534  34.9929570  47.8672948
  68.1698588  35.2487098  47.3913059  69.4510782  35.8077908  47.9724989
  67.2437237  35.2460060  50.2987939  67.4945276  36.1307070  50.5645515
  67.7796786  35.0664662  49.5263031  72.9435304  29.6278540  59.3032275
  72.5502250  29.0744738  59.9779919  73.7601445  29.9389118  59.6938793
  75.8603265  31.0436419  56.8952532  76.6012979  31.6443572  56.8156994
  76.0921188  30.3014057  56.3370574  71.0044603  36.2292786  55.1730761
  70.8898119  35.3278043  55.4737860  70.1489121  36.4756483  54.8215578
  78.0836441  44.1710526  56.7718262  77.6400295  43.3846905  56.4539166
  78.7453655  44.3589677  56.1062153  76.6390733  41.9657456  55.6423172
  77.1719070  41.2045744  55.4122480  76.1104814  41.6731108  56.3847326
  71.7829150  34.1998371  52.1034167  72.4552204  33.9915734  51.4546816
  70.9558937  34.0020457  51.6639400  72.1856647  37.4740974  52.8636604
  72.0476445  36.7421213  53.4648143  73.0961571  37.3849874  52.5820792
  73.5267882  34.1726152  54.1715924  72.9905239  33.7216890  54.8237520
  72.9384591  34.3072060  53.4286388  69.2607003  33.3082159  51.2568918
  69.1765192  32.7007829  50.5219328  68.4389710  33.7991178  51.2578414
  64.0340257  36.4992556  49.1001361  64.0724357  35.9656147  49.8938480
  63.5280550  35.9727762  48.4812339  71.4131020  31.3457097  52.5963904
  71.4772346  32.2071927  52.1841301  71.3498140  30.7331098  51.8636262
  70.8883292  33.4180229  56.2436938  71.5155331  33.0357306  56.8574462
  70.0311211  33.1994431  56.6092631  71.1943082  33.3012655  48.1582841
  70.4729668  33.9148623  48.0190315  71.9836338  33.8370420  48.0799487
  73.9969395  30.6367081  54.4323493  74.5203797  30.8829378  55.1949803
  73.7781729  31.4687116  54.0126631  75.2021940  31.5780776  52.1173164
  74.8618761  30.7788589  52.5193844  74.4960947  31.8782487  51.5449997
  75.8538412  28.6630089  50.5700487  76.6764482  28.1890567  50.4479377
  76.0976476  29.4420573  51.0699173  67.8522653  37.8954554  51.3180127
  67.3076121  38.6714362  51.4500401  68.7302003  38.2425358  51.1599248
  68.6388675  37.0224450  54.2110283  67.8970411  37.1707086  54.7974914
  68.3181419  37.2832716  53.3477033  74.1251349  32.7398135  57.9050858
  74.1739505  33.6160258  57.5228627  74.6673864  32.1975528  57.3322501
  75.2511163  34.1781200  60.0930799  75.1507890  35.1275557  60.0242890
  75.0332705  33.8499439  59.2206869  75.1142433  37.6078339  58.9095861
  74.6309515  38.4078699  59.1159750  75.2003372  37.6186284  57.9563305
  71.6315153  40.0683990  53.5135092  72.4508042  40.5628068  53.5369930
  71.9051961  39.1515958  53.4852660  66.8850067  34.4022124  54.2127289
  67.5308931  33.8921078  54.7014515  66.6767218  35.1390805  54.7870715
  79.4103459  41.4702971  59.7119430  80.2794619  41.6443623  59.3506065
  78.9310211  42.2897388  59.5895159  71.2247558  31.5489741  58.3102304
  72.0879020  31.1926546  58.5205628  70.6512969  31.2103636  58.9977708
  91.0695935  53.1791597  49.1164705  91.7074345  53.0598344  48.4128045
  90.9516778  54.1272441  49.1752657  87.8785641  53.1319025  49.0526229
  87.5404153  53.0160090  48.1646764  88.7475410  52.7310190  49.0327235
  83.7372457  54.9854502  45.0423120  83.1737322  54.8944439  44.2739408
  83.6224852  54.1654406  45.5225613  88.3605424  54.2853877  55.0112435
  88.3494065  53.8906675  54.1392938  88.5226064  53.5519950  55.6046206
  81.2836889  56.4805693  47.8807341  82.0758181  56.1396518  47.4653640
  81.5233539  56.5900668  48.8009494  89.3172016  58.6525469  40.3537585
  88.6659996  59.2379550  39.9671599  90.1116379  59.1831664  40.4132623
  85.0812685  57.0690989  53.9591619  84.7902551  57.9736620  53.8438285
  85.7169670  57.1107516  54.6735688  86.0068892  54.4467837  50.5492978
  86.6032465  54.2223860  49.8349941  86.0643864  53.7052583  51.1518426
  90.6237204  50.9043051  46.1917913  91.4100293  50.4862474  45.8408330
  90.8875908  51.8089143  46.3599561  90.7947281  56.3415901  40.8906569
  90.1593114  56.4150528  41.6027474  90.4644687  56.9309500  40.2125649
  96.0245631  50.8418284  47.0950891  96.7570803  50.2717501  47.3288721
  95.2684986  50.4539885  47.5357397  87.6421750  53.2645526  44.2914234
  87.2779958  52.7376147  45.0027155  88.4988866  52.8743995  44.1180719
  93.5471051  44.5539858  51.5545500  93.2154376  45.4235269  51.3306715
  92.9516664  44.2376142  52.2339530  90.0402571  56.7552404  50.9541412
  89.7403294  57.6577443  50.8457220  89.6953630  56.4884587  51.8062565
  83.4915052  53.2066201  46.9878117  82.5665549  53.0742415  47.1955809
  83.7399465  53.9860420  47.4848059  93.4399714  49.2734944  48.6338850
  92.5316592  49.2050353  48.3397611  93.3887310  49.7506889  49.4620675
  80.8523863  52.8499475  47.8221906  80.9816244  53.1033954  48.7361318
  80.1721314  53.4427183  47.5026561  85.0223350  63.5196725  43.9212380
  84.9447380  64.4704550  44.0000861  84.4184994  63.1742597  44.5787306
  87.5140580  50.6924590  56.5773747  86.7373914  51.2518510  56.5676612
  88.1531143  51.1781373  57.0988617  95.3061361  47.4751383  50.4116724
  94.6635741  47.7683916  49.7656518  94.8016289  47.3604303  51.2169920
  92.9601524  51.2214556  41.1002583  93.8719381  51.4541943  40.9250281
  92.4511171  51.8051600  40.5377662  85.7686952  53.5010043  56.1391714
  86.5101637  54.0395087  55.8626538  85.0623938  54.1276332  56.2963266
  91.2442292  55.6439184  54.7363876  91.6525648  55.2021594  53.9918508
  90.5219554  55.0691811  54.9898068  87.5973362  50.5811791  52.1097433
  88.4434557  51.0051204  52.2532082  87.5372000  49.9245415  52.8035996
  91.5671107  56.2040374  48.4916164  90.9379969  56.3686089  47.7892232
  91.1796769  56.6181984  49.2627128  95.4460339  57.1394812  45.8460528
  94.7611377  57.5193714  45.2957562  95.5304188  57.7490139  46.5792476
  90.7472807  48.2416159  53.7678606  90.5033739  48.9958219  53.2312882
  91.0232738  48.6201507  54.6025853  92.7011270  54.7854771  52.4455872
  92.9128165  55.4286531  51.7690253  92.6541018  53.9517088  51.9777802
  90.3037499  47.3972592  49.3492444  89.4421978  47.6953846  49.6409181
  90.3299934  47.6142991  48.4173477  87.1199069  55.9414783  45.7566250
  87.5837414  56.2202486  44.9670872  86.8555867  55.0398227  45.5739340
  84.0123150  55.4886264  48.6946013  84.5824507  55.9173532  48.0563497
  84.6031262  55.2068849  49.3930198  86.0567955  52.0637935  42.5655815
  86.7591998  52.5158979  43.0329741  85.7248583  51.4221754  43.1935708
  84.5048316  50.6549692  56.9407024  83.8746977  51.3365972  57.1742421
  84.3984404  50.5432773  55.9960162  79.7993289  50.3221488  47.8672948
  79.0092343  50.5779016  47.3913059  80.2904536  51.1369825  47.9724989
  93.8157098  57.6626727  50.6178229  94.6374542  57.2606914  50.3360911
  93.8119501  57.5594961  51.5694345  87.5813702  57.2110770  52.7738940
  87.6458134  57.6731177  53.6097111  86.8724626  56.5808135  52.9021249
  78.0830992  50.5751978  50.2987939  78.3339030  51.4598988  50.5645515
  78.6190540  50.3956580  49.5263031 101.9063091  54.0065475  46.9663201
 101.1526800  53.4372873  46.8107205 102.0410632  53.9728140  47.9133835
  87.2961719  58.8778878  42.6417920  87.1607394  59.7230413  43.0702768
  87.8371532  59.0798155  41.8783854  83.7829059  44.9570457  59.3032275
  83.3896004  44.4036656  59.9779919  84.5995199  45.2681036  59.6938793
  86.6997020  46.3728336  56.8952532  87.4406733  46.9735490  56.8156994
  86.9314943  45.6305974  56.3370574  81.8438358  51.5584704  55.1730761
  81.7291873  50.6569961  55.4737860  80.9882876  51.8048400  54.8215578
  88.9230196  59.5002444  56.7718262  88.4794050  58.7138823  56.4539166
  89.5847409  59.6881595  56.1062153  83.6817317  61.0298246  51.2978940
  84.2324742  60.9015309  50.5255934  82.8428793  61.3293135  50.9473833
  91.0211434  59.7805244  54.7999663  91.0029909  60.6014125  54.3079932
  91.9431354  59.6559319  55.0249804  87.4784488  57.2949373  55.6423172
  88.0112825  56.5337662  55.4122480  86.9498569  57.0023025  56.3847326
  90.6104466  52.3918051  39.6789248  90.0951089  53.1622655  39.9177636
  90.3381774  51.7183187  40.3022310  95.5838740  55.1450405  41.6142422
  94.8068182  54.8061565  41.1697584  96.2630221  55.1503028  40.9397387
  90.3990769  50.2645143  41.5049030  90.0940904  50.5791292  42.3559173
  91.3521211  50.3426563  41.5476363  88.8437201  56.4235366  43.1541984
  88.3158562  55.6888126  42.8415221  88.3424703  57.2010042  42.9081952
  93.8230047  54.6184386  48.2709030  93.1653721  55.3083648  48.3589159
  94.6270446  55.0080818  48.6143016  92.6335505  52.9728759  46.3212972
  93.1467387  53.6058751  46.8234681  93.2836729  52.3729955  45.9556332
  89.8957880  62.9513083  39.0773643  89.2219578  63.2544780  39.6858601
  90.2823702  63.7542164  38.7279100  89.1116336  50.4478215  48.5671312
  88.1938898  50.6693162  48.4093000  89.5276480  50.5224525  47.7083020
  89.8951384  51.8469630  43.6973992  90.6423203  52.3591028  43.3881115
  90.1642974  51.5253683  44.5578386  88.1678034  54.3428171  40.6800947
  87.2589253  54.0587204  40.7773417  88.1973118  54.7627250  39.8204254
  93.3997302  57.9534761  44.4492114  92.9459629  57.1125670  44.5057305
  92.7691268  58.5896159  44.7866894  92.3430221  48.8826747  45.6792782
  91.6052978  48.3704133  46.0103024  92.5956995  48.4427128  44.8676059
  91.8430241  59.7911257  45.3841932  92.1353215  60.3516314  44.6654298
  92.3528861  60.0839818  46.1395092  78.7366205  52.0633685  44.6616149
  78.5390604  51.4703046  43.9367216  78.1812869  51.7585895  45.3792088
  86.7162928  51.9556792  46.7810742  86.7711538  51.0030628  46.7053219
  85.9054130  52.1116231  47.2652041  87.8654122  55.8836915  38.0189025
  87.4273552  55.1672774  37.5594663  88.6064563  56.1113030  37.4574117
  84.6555288  50.5733851  44.5401121  83.8423154  50.8728022  44.9466313
  85.1514282  50.1789540  45.2575603  86.8063866  60.5691608  46.4735386
  86.7640045  60.7952455  45.5443918  87.7226565  60.3354983  46.6221187
  90.2529500  51.0375676  53.3716015  90.6078888  51.2647149  54.2310481
  90.9001631  51.3694053  52.7493270  95.9827237  54.1594112  44.0765344
  95.8445135  54.3495708  43.1486533  95.6263456  54.9213495  44.5333395
  96.0096616  56.2270639  49.0876615  96.4433123  56.1345928  49.9359669
  96.7228197  56.2028139  48.4496631  84.9229667  57.4454637  46.2697348
  85.7170265  56.9504957  46.0679923  84.2121359  56.9172500  45.9065054
  89.7424511  59.8272733  50.6209716  89.7961534  60.3963669  51.3887432
  88.8739293  59.9974618  50.2563753  82.6222905  49.5290289  52.1034167
  83.2945958  49.3207651  51.4546816  81.7952691  49.3312375  51.6639400
  96.8712166  56.2694339  51.6209501  97.0648056  57.1740150  51.8668776
  96.7712784  55.8101759  52.4548086  91.9327275  56.4201082  57.1950381
  91.7812781  56.1911634  56.2780465  91.9231954  57.3771684  57.2081726
  88.7012611  53.9932995  52.1796648  89.6304671  54.1444155  52.0065615
  88.2803641  54.0817016  51.3245294  87.5000943  58.0183659  49.9495185
  87.3612029  57.6502444  50.8221124  86.7115539  58.5331299  49.7779143
  88.0949095  63.1192756  41.2920722  88.2700850  62.6480799  42.1066345
  87.4081883  63.7458522  41.5201983  89.0506158  57.3965262  47.3384023
  88.7155991  57.3566032  48.2341673  88.5510104  56.7309978  46.8654433
  83.0250402  52.8032892  52.8636604  82.8870200  52.0713131  53.4648143
  83.9355325  52.7141792  52.5820792  91.9865350  54.7421296  37.6121083
  91.3694520  54.0168125  37.5154136  91.5181838  55.5030657  37.2688157
  85.6532703  52.5152851  52.3520284  86.3632321  51.8746044  52.3106902
  85.6102011  52.7665746  53.2746465  93.6419481  59.4520205  55.2726863
  93.5832027  58.7679425  54.6057446  94.0439000  60.1939195  54.8207489
  82.6610180  66.2682119  48.0660582  82.9006778  66.9000643  48.7439601
  81.8179377  65.9170159  48.3525941  93.6436889  57.4159789  53.5040843
  92.7563667  57.0785710  53.6267242  94.2135440  56.6842820  53.7409608
  80.1000758  48.6374077  51.2568918  80.0158947  48.0299747  50.5219328
  79.2783464  49.1283095  51.2578414  87.1738042  62.0761241  50.4702086
  87.1008213  62.8816213  50.9821391  86.7315435  62.2753207  49.6450108
  86.9627822  61.3133011  43.9804908  86.1795343  61.8554691  44.0743132
  87.6620567  61.8306991  44.3799149  98.1254229  52.8268006  48.2657405
  98.1144105  53.7092721  47.8951338  97.2571609  52.4739557  48.0711942
  89.6336725  61.9748075  52.6260245  90.3464698  62.6095540  52.5536146
  89.1426754  62.0711941  51.8100247  91.3554252  55.8799328  44.1977536
  90.4210531  56.0000790  44.0282241  91.5330921  54.9771794  43.9337546
  86.8559440  49.2645023  46.3510798  86.4857228  48.7116064  47.0391703
  87.3518533  48.6603157  45.7985798  94.7426804  51.7216647  44.7327571
  95.2087256  52.5544639  44.6587873  95.1934304  51.2561629  45.4372829
  84.6848639  59.7242519  53.4465816  85.3858098  60.3579001  53.5995210
  84.2143754  60.0657250  52.6861455  92.8103035  58.0660468  41.7313723
  93.0862879  57.9517063  42.6407597  91.9407534  57.6677953  41.6925896
  92.4849925  52.2787126  51.2718366  91.8321375  52.5263033  50.6170819
  92.8630305  51.4651264  50.9380843  89.4457099  62.3146819  45.3746536
  89.6279493  61.4968475  45.8374289  90.2690085  62.5314511  44.9371426
  89.7799264  61.2415004  42.6361585  90.3087031  60.7307459  42.0231747
  90.0427484  60.9257534  43.5007118  88.5337498  53.0206937  57.7584403
  87.8578135  52.9201066  58.4286778  89.3565132  52.8646151  58.2220400
  83.1355012  62.2930121  45.3959361  82.4665388  62.7776249  44.9123401
  82.9967882  62.5399341  46.3102739  87.2760281  64.3273864  51.9942019
  87.8278589  64.4905486  52.7591104  87.6166474  64.9178302  51.3222044
  81.7277047  48.7472147  56.2436938  82.3549085  48.3649224  56.8574462
  80.8704965  48.5286349  56.6092631  92.1271155  59.1535122  57.8490673
  92.6711059  59.7665080  57.3545628  91.5458000  59.7114700  58.3657687
  90.4128668  62.2755840  48.9805701  90.2879808  61.4745580  48.4716647
  91.0707759  62.7702033  48.4919671  82.0336836  48.6304572  48.1582841
  81.3123422  49.2440540  48.0190315  82.8230092  49.1662337  48.0799487
  92.4763577  60.0764860  50.6085251  91.5293912  59.9570211  50.5363578
  92.8246350  59.1887358  50.6911513  89.4810010  59.8717576  46.8089604
  89.3334972  58.9434284  46.9897174  90.3063503  59.8937667  46.3246679
  93.0844132  60.6946135  47.8954476  94.0090679  60.4888996  47.7578927
  92.9159435  60.4462536  48.8043818  84.2170746  50.6841127  48.3792465
  84.0715326  50.9981430  49.2716747  83.7395949  51.3026027  47.8263364
  86.0767128  47.6743675  48.4273355  86.0628697  46.7784768  48.0905653
  86.7939557  47.6814339  49.0611641  87.9293259  48.1081015  50.4726482
  87.6711037  49.0298086  50.4710813  87.3978300  47.7111450  51.1626947
  92.8739448  61.2131802  43.2516568  93.0476325  60.6478225  42.4990420
  93.3668339  62.0132697  43.0696058  98.7278839  53.9768225  44.8706867
  99.1709985  53.2275551  44.4725991  97.8505349  53.9678362  44.4880599
  93.8614620  60.5298567  40.3513466  94.5565525  61.1505260  40.5700781
  94.2037771  59.6793918  40.6265844  95.7606043  57.9798272  41.8800797
  96.2857368  58.3185545  41.1550117  95.6728396  57.0445288  41.6963931
  87.4226092  61.8932346  54.0090673  87.7313219  61.6481493  54.8813373
  88.2201574  62.0978985  53.5209544  87.4446704  64.0470256  46.2396050
  87.0051695  63.5546634  46.9328907  88.1954821  63.5043223  45.9988125
  84.8920576  59.5908265  48.3118352  84.2700586  58.9278970  48.0120580
  85.5625443  59.6169397  47.6291999  84.9645104  48.0690053  57.9050858
  85.0133259  48.9452176  57.5228627  85.5067618  47.5267446  57.3322501
  95.5697825  55.4623642  54.4984723  95.6195830  55.2973650  55.4400246
  95.4611748  54.5950901  54.1082604  92.8601587  51.4454570  55.8144030
  93.7611450  51.3061035  55.5228028  92.9349562  51.6109025  56.7542207
  97.0716021  57.8820584  54.7426745  96.7800830  58.2450564  55.5790206
  96.4588153  57.1687592  54.5640077  98.2711704  55.4473464  47.2629315
  99.1058595  55.8863268  47.4266875  98.4070833  54.9712117  46.4437561
  95.3203210  53.0053199  53.2106803  95.7957331  53.1980845  52.4025654
  94.3968775  53.0612384  52.9650186  87.9529489  60.6360319  39.2588560
  87.3803456  61.2550506  38.8059031  88.5262282  61.1859680  39.7928482
  94.0204879  49.8818959  51.4435108  94.9722302  49.9817056  51.4647332
  93.8508329  49.0897227  51.9533193  92.0419258  46.9674542  51.6294509
  91.4469190  47.2479555  50.9340998  91.7568955  47.4568443  52.4011250
  91.1726749  60.9197469  40.3897142  92.1057422  60.8543030  40.5930017
  91.0849961  61.7553736  39.9311675  93.8014765  60.2363339  37.3501089
  93.7228397  59.9023203  38.2436847  94.6224432  60.7285107  37.3492562
  96.4992956  53.1025078  50.5577408  96.4669277  52.1641079  50.7437092
  97.1093580  53.1809115  49.8243233  88.3376287  51.9721131  36.6004612
  89.2835392  51.8427339  36.6693030  87.9590532  51.2335793  37.0774040
  96.6487445  49.8936122  50.6035691  96.1326494  49.1094578  50.4165620
  97.5327393  49.5654838  50.7682211 102.3169506  54.1641085  49.6983445
 103.0472895  53.9026373  50.2591148 101.7076452  53.4269807  49.7385513
 100.3984803  52.3048948  50.2957896  99.6717967  52.1704913  49.6874388
  99.9832090  52.6125776  51.1014614  88.2214980  56.0238877  58.0605269
  89.1417989  56.2017476  58.2545316  88.1864563  55.0794923  57.9084968
  81.2177052  53.9339912  50.7028050  81.4363062  54.8657020  50.7216084
  81.6302826  53.5747887  51.4882854  86.0904918  49.5073118  60.0930799
  85.9901645  50.4567475  60.0242890  85.8726460  49.1791357  59.2206869
  85.9536188  52.9370257  58.9095861  85.4703269  53.7370617  59.1159750
  86.0397127  52.9478202  57.9563305  95.5790040  47.8133181  46.5917387
  96.3550430  48.3029633  46.8642004  94.8538174  48.2391235  47.0489257
  98.0162598  48.5260800  47.6491328  98.6107089  48.2856536  46.9384636
  98.0889182  47.8067931  48.2764864  80.2359754  62.3694411  47.9634492
  80.1014222  61.6094812  47.3972491  79.8191816  63.0935311  47.4963281
  91.3718717  57.5531334  36.9711068  92.0754567  57.7581337  37.5868723
  90.6481366  58.1208096  37.2360151  92.2016527  53.3041196  43.0913338
  92.1451729  53.7609747  42.2520970  92.7544870  52.5431880  42.9136181
  96.0121333  49.0930928  43.9163457  95.7558267  48.6927563  44.7471665
  95.3874201  49.8074722  43.7913597 100.3233671  51.8327001  46.4234749
  99.7633229  51.9020190  47.1966311  99.7177174  51.6567985  45.7034245
  83.3928880  63.2663728  48.1752935  83.2761264  64.2109160  48.0731625
  82.5721326  62.9637289  48.5638734  93.2805414  57.9913864  39.0209528
  94.1151018  57.5595062  38.8387003  93.1189757  57.8195877  39.9486422
  92.9351307  54.4945977  40.3865867  92.8800110  54.3290248  39.4454311
  92.3097362  55.2022010  40.5428057  90.2497214  56.7994889  59.7119430
  91.1188373  56.9735541  59.3506065  89.7703965  57.6189306  59.5895159
  84.4183394  63.9191990  51.3908864  85.3210641  63.9515600  51.7075359
  84.1920764  62.9892441  51.4055199  86.1736996  62.6722976  48.0518942
  85.2232627  62.6724838  47.9383314  86.4769482  61.9255711  47.5354977
  82.0641313  46.8781658  58.3102304  82.9272774  46.5218463  58.5205628
  81.4906723  46.5395553  58.9977708 101.9089690  68.5083515  49.1164705
 102.5468100  68.3890262  48.4128045 101.7910532  69.4564359  49.1752657
  98.7179396  68.4610943  49.0526229  98.3797907  68.3452008  48.1646764
  99.5869164  68.0602108  49.0327235  94.5766212  70.3146419  45.0423120
  94.0131077  70.2236356  44.2739408  94.4618607  69.4946324  45.5225613
  99.1999179  69.6145795  55.0112435  99.1887820  69.2198593  54.1392938
  99.3619818  68.8811867  55.6046206  92.1230643  71.8097611  47.8807341
  92.9151935  71.4688436  47.4653640  92.3627294  71.9192586  48.8009494
 100.1565770  73.9817387  40.3537585  99.5053750  74.5671467  39.9671599
 100.9510133  74.5123582  40.4132623  94.0821397  71.0706524  40.7524719
  94.8552273  70.5235511  40.6137595  94.4346796  71.9350773  40.9639181
  95.9206440  72.3982906  53.9591619  95.6296306  73.3028537  53.8438285
  96.5563424  72.4399434  54.6735688  96.8462647  69.7759755  50.5492978
  97.4426219  69.5515777  49.8349941  96.9037618  69.0344500  51.1518426
  96.4187675  67.2299190  38.3843169  96.6713196  66.7080712  37.6226632
  95.4812234  67.0665336  38.4869853 101.4630958  66.2334969  46.1917913
 102.2494047  65.8154392  45.8408330 101.7269662  67.1381061  46.3599561
 101.6341035  71.6707819  40.8906569 100.9986868  71.7442445  41.6027474
 101.3038442  72.2601418  40.2125649 106.8639385  66.1710202  47.0950891
 107.5964557  65.6009419  47.3288721 106.1078741  65.7831802  47.5357397
  96.1383964  69.1327296  40.5867544  96.0220222  68.4572200  41.2548629
  96.2486224  68.6459670  39.7699697  98.4815505  68.5937443  44.2914234
  98.1173712  68.0668064  45.0027155  99.3382621  68.2035912  44.1180719
 104.3864806  59.8831776  51.5545500 104.0548130  60.7527187  51.3306715
 103.7910419  59.5668060  52.2339530  98.1220992  63.6227343  39.2875582
  98.2895394  64.4907579  39.6546053  97.9318161  63.7854625  38.3636871
 100.8796325  72.0844322  50.9541412 100.5797048  72.9869361  50.8457220
 100.5347385  71.8176505  51.8062565  94.3308807  68.5358119  46.9878117
  93.4059303  68.4034333  47.1955809  94.5793220  69.3152338  47.4848059
 104.2793469  64.6026862  48.6338850 103.3710346  64.5342271  48.3397611
 104.2281065  65.0798807  49.4620675  98.1010213  66.0785000  40.2722249
  97.9809838  66.5242051  41.1107729  97.4062801  66.4270318  39.7135787
  91.6917618  68.1791392  47.8221906  91.8209999  68.4325871  48.7361318
  91.0115069  68.7719100  47.5026561  95.8617105  78.8488642  43.9212380
  95.7841135  79.7996467  44.0000861  95.2578748  78.5034515  44.5787306
 106.1455115  62.8043300  50.4116724 105.5029495  63.0975834  49.7656518
 105.6410044  62.6896221  51.2169920 103.7995279  66.5506474  41.1002583
 104.7113135  66.7833860  40.9250281 103.2904926  67.1343518  40.5377662
  96.6080707  68.8301961  56.1391714  97.3495391  69.3687005  55.8626538
  95.9017692  69.4568250  56.2963266 102.0836047  70.9731102  54.7363876
 102.4919403  70.5313512  53.9918508 101.3613308  70.3983729  54.9898068
  98.4367117  65.9103708  52.1097433  99.2828312  66.3343122  52.2532082
  98.3765754  65.2537333  52.8035996 102.4064861  71.5332292  48.4916164
 101.7773724  71.6978006  47.7892232 102.0190523  71.9473902  49.2627128
 106.2854093  72.4686730  45.8460528 105.6005131  72.8485631  45.2957562
 106.3697942  73.0782057  46.5792476 101.5866562  63.5708077  53.7678606
 101.3427494  64.3250137  53.2312882 101.8626492  63.9493424  54.6025853
 103.5405025  70.1146689  52.4455872 103.7521920  70.7578449  51.7690253
 103.4934773  69.2809006  51.9777802 101.1431254  62.7264510  49.3492444
 100.2815733  63.0245763  49.6409181 101.1693688  62.9434909  48.4173477
  97.9592823  71.2706700  45.7566250  98.4231169  71.5494403  44.9670872
  97.6949621  70.3690145  45.5739340  94.8516904  70.8178182  48.6946013
  95.4218261  71.2465450  48.0563497  95.4425016  70.5360766  49.3930198
  96.8961709  67.3929853  42.5655815  97.5985752  67.8450896  43.0329741
  96.5642338  66.7513671  43.1935708  95.3442071  65.9841609  56.9407024
  94.7140731  66.6657890  57.1742421  95.2378159  65.8724691  55.9960162
  90.6387043  65.6513405  47.8672948  89.8486097  65.9070934  47.3913059
  91.1298290  66.4661743  47.9724989 104.6550853  72.9918644  50.6178229
 105.4768296  72.5898832  50.3360911 104.6513256  72.8886879  51.5694345
  92.5901788  66.0157984  44.8256425  91.7932952  66.1276679  45.3439921
  92.3627381  66.3544637  43.9597315  98.4207456  72.5402688  52.7738940
  98.4851889  73.0023095  53.6097111  97.7118380  71.9100053  52.9021249
  88.9224746  65.9043896  50.2987939  89.1732785  66.7890906  50.5645515
  89.4584294  65.7248497  49.5263031 112.7456846  69.3357393  46.9663201
 111.9920554  68.7664791  46.8107205 112.8804387  69.3020057  47.9133835
  98.1355474  74.2070795  42.6417920  98.0001149  75.0522331  43.0702768
  98.6765286  74.4090073  41.8783854  94.6222813  60.2862375  59.3032275
  94.2289759  59.7328574  59.9779919  95.4388954  60.5972954  59.6938793
  91.5884871  71.7246233  43.2145845  92.1009392  72.5189483  43.3651410
  92.2407584  71.0272524  43.1479446  93.3979756  74.8411990  45.2968598
  93.5746384  75.7629954  45.1089582  94.1936589  74.5270409  45.7262978
  92.6832112  66.8876621  55.1730761  92.5685628  65.9861879  55.4737860
  91.8276630  67.1340318  54.8215578  99.7623950  74.8294362  56.7718262
  99.3187804  74.0430740  56.4539166 100.4241164  75.0173512  56.1062153
  94.5211071  76.3590163  51.2978940  95.0718496  76.2307227  50.5255934
  93.6822547  76.6585052  50.9473833 101.8605188  75.1097162  54.7999663
 101.8423664  75.9306043  54.3079932 102.7825108  74.9851237  55.0249804
  98.3178242  72.6241291  55.6423172  98.8506579  71.8629579  55.4122480
  97.7892323  72.3314943  56.3847326 101.4847937  57.7301357  51.1716813
 101.1412207  58.6202999  51.0955924 101.8526900  57.5403015  50.3086398
  89.5533788  70.0534888  43.9905416  90.3909010  70.4631896  43.7739123
  89.7312056  69.1134330  43.9605609 101.4498220  67.7209968  39.6789248
 100.9344843  68.4914573  39.9177636 101.1775529  67.0475104  40.3022310
  99.0345331  62.5659669  44.7374487  98.1786927  62.1766519  44.5580126
  99.4472283  62.6451630  43.8774272 100.5644478  60.1006012  49.1366047
 100.0609273  60.0636147  48.3233852 100.8575085  61.0098755  49.1962703
  96.8087364  60.1844742  48.1432228  97.6740360  59.9887551  47.7838118
  96.8764873  59.9555094  49.0701585 106.4232494  70.4742323  41.6142422
 105.6461937  70.1353482  41.1697584 107.1023975  70.4794946  40.9397387
 101.2384523  65.5937060  41.5049030 100.9334659  65.9083209  42.3559173
 102.1914965  65.6718480  41.5476363  99.6830955  71.7527284  43.1541984
  99.1552317  71.0180043  42.8415221  99.1818458  72.5301960  42.9081952
 104.6623801  69.9476304  48.2709030 104.0047476  70.6375565  48.3589159
 105.4664200  70.3372736  48.6143016  94.4149683  62.4146950  45.5148595
  94.9893435  62.1922131  44.7821788  95.0020665  62.4835644  46.2677196
 103.4729260  68.3020677  46.3212972 103.9861142  68.9350669  46.8234681
 104.1230484  67.7021872  45.9556332  94.7419270  64.4451411  39.5344480
  93.9056582  64.7826097  39.8553755  94.6024039  64.3100391  38.5971617
  96.7172350  59.2888199  44.2423665  96.0636763  58.9737216  43.6180279
  96.6752825  58.6663939  44.9683488  97.8283555  69.5707494  36.1576957
  96.9210617  69.3396747  36.3568106  98.3254587  68.7745113  36.3450938
 100.7351634  78.2805001  39.0773643 100.0613333  78.5836698  39.6858601
 101.1217456  79.0834081  38.7279100  99.9510091  65.7770132  48.5671312
  99.0332652  65.9985079  48.4093000 100.3670234  65.8516443  47.7083020
 100.7345139  67.1761548  43.6973992 101.4816957  67.6882945  43.3881115
 101.0036728  66.8545601  44.5578386  99.0071789  69.6720089  40.6800947
  98.0983008  69.3879122  40.7773417  99.0366873  70.0919167  39.8204254
 104.2391056  73.2826678  44.4492114 103.7853383  72.4417588  44.5057305
 103.6085023  73.9188077  44.7866894 103.1823976  64.2118664  45.6792782
 102.4446732  63.6996050  46.0103024 103.4350749  63.7719046  44.8676059
 102.6823995  75.1203175  45.3841932 102.9746970  75.6808232  44.6654298
 103.1922616  75.4131736  46.1395092 103.2835603  56.9894916  46.2734551
 103.5894480  56.1292280  45.9860466 104.0088208  57.5812536  46.0733545
  89.5759959  67.3925603  44.6616149  89.3784359  66.7994964  43.9367216
  89.0206623  67.0877813  45.3792088  97.5556683  67.2848709  46.7810742
  97.6105293  66.3322546  46.7053219  96.7447885  67.4408148  47.2652041
  98.7047877  71.2128832  38.0189025  98.2667306  70.4964691  37.5594663
  99.4458317  71.4404947  37.4574117  95.4949043  65.9025769  44.5401121
  94.6816908  66.2019940  44.9466313  95.9908037  65.5081458  45.2575603
  97.6457621  75.8983526  46.4735386  97.6033799  76.1244372  45.5443918
  98.5620319  75.6646901  46.6221187 101.0923254  66.3667594  53.3716015
 101.4472642  66.5939067  54.2310481 101.7395386  66.6985970  52.7493270
 106.8220991  69.4886029  44.0765344 106.6838890  69.6787625  43.1486533
 106.4657210  70.2505412  44.5333395  94.9863117  63.4744125  50.1562356
  95.6262497  63.3332884  49.4585319  94.1540648  63.1878638  49.7800958
 106.8490371  71.5562556  49.0876615 107.2826878  71.4637846  49.9359669
 107.5621952  71.5320057  48.4496631  95.7623421  72.7746555  46.2697348
  96.5564020  72.2796875  46.0679923  95.0515114  72.2464418  45.9065054
 100.5818266  75.1564651  50.6209716 100.6355288  75.7255587  51.3887432
  99.7133047  75.3266536  50.2563753  92.0706185  66.9189637  42.3457101
  91.1403773  66.8574092  42.5627063  92.1663657  66.3965590  41.5493742
  91.9891734  63.4444450  44.9335343  92.2498551  64.3589783  44.8244503
  92.8108906  62.9768892  45.0831956  93.4616659  64.8582207  52.1034167
  94.1339713  64.6499569  51.4546816  92.6346446  64.6604293  51.6639400
 107.7105920  71.5986257  51.6209501 107.9041811  72.5032068  51.8668776
 107.6106539  71.1393676  52.4548086  99.3642231  61.4844148  54.1199828
  98.7170146  62.1834097  54.0264305 100.1343247  61.9180292  54.4876076
 102.7721029  71.7493000  57.1950381 102.6206536  71.5203552  56.2780465
 102.7625709  72.7063601  57.2081726  99.5406366  69.3224913  52.1796648
 100.4698426  69.4736072  52.0065615  99.1197396  69.4108933  51.3245294
  98.3394697  73.3475577  49.9495185  98.2005783  72.9794361  50.8221124
  97.5509294  73.8623216  49.7779143  98.9342849  78.4484673  41.2920722
  99.1094605  77.9772717  42.1066345  98.2475637  79.0750440  41.5201983
  99.8899912  72.7257180  47.3384023  99.5549745  72.6857950  48.2341673
  99.3903858  72.0601896  46.8654433  93.8644156  68.1324810  52.8636604
  93.7263954  67.4005049  53.4648143  94.7749080  68.0433710  52.5820792
 102.8259104  70.0713214  37.6121083 102.2088275  69.3460042  37.5154136
 102.3575593  70.8322574  37.2688157  96.4926457  67.8444769  52.3520284
  97.2026076  67.2037961  52.3106902  96.4495765  68.0957664  53.2746465
 104.4813236  74.7812122  55.2726863 104.4225782  74.0971343  54.6057446
 104.8832754  75.5231112  54.8207489  95.2055391  64.8309987  54.1715924
  94.6692748  64.3800725  54.8237520  94.6172100  64.9655896  53.4286388
  93.5003935  81.5974036  48.0660582  93.7400533  82.2292560  48.7439601
  92.6573131  81.2462076  48.3525941  94.6157650  64.2898638  36.7342387
  93.7387116  64.1687439  36.3704634  95.0915403  63.4984717  36.4821276
 104.4830643  72.7451706  53.5040843 103.5957422  72.4077628  53.6267242
 105.0529194  72.0134738  53.7409608  86.1359790  69.0775798  46.8283894
  86.8230830  68.7637528  46.2404910  85.9807919  69.9817163  46.5551146
  90.9394512  63.9665995  51.2568918  90.8552701  63.3591664  50.5219328
  90.1177219  64.4575013  51.2578414  98.0131796  77.4053159  50.4702086
  97.9401968  78.2108130  50.9821391  97.5709190  77.6045125  49.6450108
  97.8021576  76.6424929  43.9804908  97.0189098  77.1846609  44.0743132
  98.5014321  77.1598908  44.3799149 101.1118226  62.4519558  46.6239113
 101.6086926  61.6989521  46.3040183 100.3405208  62.4883875  46.0582322
 108.9647984  68.1559924  48.2657405 108.9537860  69.0384639  47.8951338
 108.0965363  67.8031475  48.0711942 100.4730480  77.3039993  52.6260245
 101.1858452  77.9387458  52.5536146  99.9820509  77.4003859  51.8100247
 102.1948007  71.2091245  44.1977536 101.2604286  71.3292708  44.0282241
 102.3724675  70.3063712  43.9337546  97.6953195  64.5936941  46.3510798
  97.3250982  64.0407982  47.0391703  98.1912287  63.9895075  45.7985798
 105.5820558  67.0508565  44.7327571 106.0481010  67.8836556  44.6587873
 106.0328059  66.5853546  45.4372829  95.5242393  75.0534436  53.4465816
  96.2251853  75.6870919  53.5995210  95.0537508  75.3949168  52.6861455
 103.6496789  73.3952386  41.7313723 103.9256633  73.2808981  42.6407597
 102.7801288  72.9969871  41.6925896 103.5537221  59.4189152  48.7718472
 102.6400301  59.6493379  48.9400679 103.9830322  59.5027596  49.6232504
 103.3243679  67.6079044  51.2718366 102.6715130  67.8554951  50.6170819
 103.7024059  66.7943182  50.9380843 100.2850853  77.6438737  45.3746536
 100.4673248  76.8260393  45.8374289 101.1083839  77.8606429  44.9371426
 100.6193019  76.5706922  42.6361585 101.1480785  76.0599377  42.0231747
 100.8821238  76.2549452  43.5007118  99.3731252  68.3498855  57.7584403
  98.6971890  68.2492984  58.4286778 100.1958886  68.1938068  58.2220400
  91.1210112  74.5870791  50.3796918  91.7063548  73.8414479  50.5124823
  90.9234950  74.8974748  51.2633582  93.9748767  77.6222039  45.3959361
  93.3059142  78.1068166  44.9123401  93.8361636  77.8691259  46.3102739
  85.7127766  67.1576391  49.1001361  85.7511866  66.6239982  49.8938480
  85.2068059  66.6311597  48.4812339  98.1154035  79.6565782  51.9942019
  98.6672343  79.8197404  52.7591104  98.4560229  80.2470220  51.3222044
  93.0918529  62.0040932  52.5963904  93.1559855  62.8655763  52.1841301
  93.0285649  61.3914934  51.8636262  92.5670801  64.0764064  56.2436938
  93.1942840  63.6941142  56.8574462  91.7098720  63.8578266  56.6092631
 102.9664910  74.4827040  57.8490673 103.5104814  75.0956998  57.3545628
 102.3851755  75.0406618  58.3657687  89.3436344  65.8840494  42.1755293
  89.6389785  64.9751172  42.1222347  88.4424380  65.8628233  41.8536295
 101.2522423  77.6047758  48.9805701 101.1273562  76.8037498  48.4716647
 101.9101514  78.0993951  48.4919671  92.8730591  63.9596490  48.1582841
  92.1517177  64.5732458  48.0190315  93.6623847  64.4954255  48.0799487
 103.3157331  75.4056778  50.6085251 102.3687667  75.2862129  50.5363578
 103.6640104  74.5179276  50.6911513  95.6756904  61.2950917  54.4323493
  96.1991306  61.5413213  55.1949803  95.4569238  62.1270951  54.0126631
  91.0724185  63.5654591  42.2994618  90.7436892  62.6851970  42.1169724
  91.4263556  63.5102260  43.1871007 100.3203764  75.2009494  46.8089604
 100.1728727  74.2726201  46.9897174 101.1457258  75.2229585  46.3246679
  94.1866009  63.8527561  42.6670096  94.5262081  64.3813482  41.9448704
  94.6338129  64.1907967  43.4428662 103.9237886  76.0238053  47.8954476
 104.8484434  75.8180914  47.7578927 103.7553190  75.7754454  48.8043818
  96.8809449  62.2364612  52.1173164  96.5406270  61.4372425  52.5193844
  96.1748456  62.5366323  51.5449997  97.5325921  59.3213924  50.5700487
  98.3551991  58.8474402  50.4479377  97.7763985  60.1004408  51.0699173
  96.1734156  62.3502183  40.8663388  96.8942518  62.7283435  40.3627105
  95.5499460  63.0691059  40.9698366 100.3165279  63.0547332  41.8021721
 100.5328893  63.9371969  41.5010549  99.8359346  62.6633545  41.0727363
  95.0564500  66.0133045  48.3792465  94.9109081  66.3273348  49.2716747
  94.5789704  66.6317945  47.8263364  96.9160883  63.0035593  48.4273355
  96.9022452  62.1076686  48.0905653  97.6333311  63.0106257  49.0611641
  98.7687014  63.4372933  50.4726482  98.5104791  64.3590004  50.4710813
  98.2372054  63.0403368  51.1626947 103.7133202  76.5423720  43.2516568
 103.8870080  75.9770143  42.4990420 104.2062094  77.3424615  43.0696058
  89.5310162  68.5538389  51.3180127  88.9863630  69.3298197  51.4500401
  90.4089512  68.9009194  51.1599248  96.3197779  61.8849973  43.6960925
  96.4413690  60.9566619  43.8951813  96.0299821  61.8988659  42.7839240
  99.1888969  59.5704884  46.8327645  99.2110666  59.6344217  45.8779624
  99.6057028  58.7309392  47.0268151 109.5672594  69.3060143  44.8706867
 110.0103740  68.5567468  44.4725991 108.6899104  69.2970279  44.4880599
 104.7008375  75.8590485  40.3513466 105.3959279  76.4797177  40.5700781
 105.0431525  75.0085836  40.6265844  90.3176184  67.6808286  54.2110283
  89.5757920  67.8290921  54.7974914  89.9968928  67.9416551  53.3477033
 106.5999798  73.3090190  41.8800797 107.1251122  73.6477463  41.1550117
 106.5122151  72.3737205  41.6963931  98.2619847  77.2224264  54.0090673
  98.5706973  76.9773410  54.8813373  99.0595329  77.4270902  53.5209544
  98.2840459  79.3762173  46.2396050  97.8445449  78.8838552  46.9328907
  99.0348576  78.8335141  45.9988125  90.7632798  75.5673714  46.2420678
  91.5890818  75.2677486  45.8619322  90.4126850  74.7981337  46.6910467
  95.7314331  74.9200182  48.3118352  95.1094340  74.2570887  48.0120580
  96.4019198  74.9461314  47.6291999  88.9641403  73.4860041  47.2009612
  88.1273311  73.0582215  47.0193613  88.9365048  73.6792484  48.1380403
  95.8038858  63.3981970  57.9050858  95.8527014  64.2744093  57.5228627
  96.3461373  62.8559364  57.3322501 106.2893704  73.9423094  57.1851995
 105.4989248  73.9247233  56.6456494 106.0527059  74.4811387  57.9401031
 106.4091579  70.7915560  54.4984723 106.4589584  70.6265568  55.4400246
 106.3005502  69.9242819  54.1082604  95.2927838  73.4704106  41.7876812
  95.4415958  74.1539570  41.1343485  96.0994281  73.4509196  42.3026268
 103.6995341  66.7746488  55.8144030 104.6005204  66.6352953  55.5228028
 103.7743316  66.9400943  56.7542207  98.0338147  64.1513343  54.6597216
  97.1641456  64.4446909  54.3879805  98.2697627  64.7353788  55.3804480
 107.9109776  73.2112502  54.7426745 107.6194584  73.5742482  55.5790206
 107.2981907  72.4979510  54.5640077 109.1105458  70.7765381  47.2629315
 109.9452350  71.2155185  47.4266875 109.2464587  70.3004035  46.4437561
 106.1596964  68.3345116  53.2106803 106.6351086  68.5272763  52.4025654
 105.2362530  68.3904302  52.9650186  93.0480471  69.4969283  42.7937881
  92.8026513  68.5931613  42.9918091  93.2176385  69.4986434  41.8517359
 100.7377181  60.3692960  52.1762637 101.2559125  61.1053987  51.8509125
 100.3832313  60.6756953  53.0109396  92.3176118  65.2297641  40.2924043
  91.6245363  65.3041996  39.6364079  92.0727870  64.4657985  40.8145559
 100.9889775  56.7893242  47.6963533 101.2691529  56.1216431  48.3223960
 101.7740382  56.9822338  47.1838197  98.7923243  75.9652236  39.2588560
  98.2197210  76.5842423  38.8059031  99.3656037  76.5151598  39.7928482
 104.8598633  65.2110876  51.4435108 105.8116056  65.3108974  51.4647332
 104.6902084  64.4189145  51.9533193 102.8813013  62.2966460  51.6294509
 102.2862945  62.5771472  50.9340998 102.5962709  62.7860360  52.4011250
 102.0120503  76.2489386  40.3897142 102.9451176  76.1834948  40.5930017
 101.9243716  77.0845653  39.9311675 104.6408520  75.5655257  37.3501089
 104.5622151  75.2315120  38.2436847 105.4618187  76.0577025  37.3492562
 107.3386711  68.4316996  50.5577408 107.3063031  67.4932997  50.7437092
 107.9487335  68.5101033  49.8243233  99.1770042  67.3013049  36.6004612
 100.1229147  67.1719257  36.6693030  98.7984287  66.5627711  37.0774040
 107.4881199  65.2228039  50.6035691 106.9720248  64.4386496  50.4165620
 108.3721148  64.8946756  50.7682211 105.1491926  58.9669055  46.5631504
 104.9516747  58.6584143  47.4474836 105.7591632  59.6930694  46.6929434
 113.1563261  69.4933003  49.6983445 113.8866649  69.2318291  50.2591148
 112.5470206  68.7561725  49.7385513 111.2378558  67.6340865  50.2957896
 110.5111722  67.4996830  49.6874388 110.8225845  67.9417694  51.1014614
  99.0608734  71.3530795  58.0605269  99.9811744  71.5309394  58.2545316
  99.0258317  70.4086840  57.9084968  97.3612959  65.2263025  36.5359497
  96.4544414  64.9296138  36.6122211  97.6388940  64.9292843  35.6693784
  88.2790899  66.5469389  46.9858544  87.9593684  65.6934697  46.6932918
  87.7324328  66.7617967  47.7416511  92.0570807  69.2631830  50.7028050
  92.2756817  70.1948938  50.7216084  92.4696581  68.9039804  51.4882854
  98.9775025  59.7699915  42.6903739  98.1675753  59.4247000  43.0658985
  99.6659442  59.4607459  43.2791350 100.9065573  58.8477962  44.3128035
 101.4596612  59.2673415  44.9718058 101.1435659  57.9213710  44.3550991
  96.9298672  64.8365036  60.0930799  96.8295399  65.7859393  60.0242890
  96.7120214  64.5083274  59.2206869  96.1311744  62.0849961  36.6771477
  96.9930908  62.4104859  36.9367294  96.3162088  61.2981456  36.1644542
  88.1479159  70.1672300  48.9551665  87.4542631  69.7526253  48.4421620
  88.8952150  70.2092837  48.3585084 104.2844380  60.9578487  43.8206700
 103.7043049  61.6163291  43.4384752 104.0180313  60.1355832  43.4094117
 102.7347946  60.3583545  46.0228020 103.2347725  60.4700079  45.2142339
 103.3783554  60.0544598  46.6628828  96.7929942  68.2662174  58.9095861
  96.3097024  69.0662534  59.1159750  96.8790881  68.2770119  57.9563305
  90.0615902  70.0990554  46.8317680  90.0386590  70.1978241  45.8799563
  90.3716538  70.9455705  47.1534846  92.7203280  72.1566709  50.9464295
  93.6746533  72.1250651  50.8794226  92.5215803  71.6957333  51.7614521
  93.3102662  70.7267825  53.5135092  94.1295551  71.2211904  53.5369930
  93.5839470  69.8099793  53.4852660 103.0669258  63.1178577  42.8763048
 102.1795113  63.4028228  42.6583243 103.4823247  62.9572341  42.0290325
 106.4183794  63.1425098  46.5917387 107.1944184  63.6321551  46.8642004
 105.6931928  63.5683153  47.0489257 108.8556353  63.8552718  47.6491328
 109.4500844  63.6148454  46.9384636 108.9282937  63.1359848  48.2764864
  91.0753509  77.6986329  47.9634492  90.9407976  76.9386729  47.3972491
  90.6585571  78.4227228  47.4963281 102.2112472  72.8823252  36.9711068
 102.9148322  73.0873255  37.5868723 101.4875120  73.4500014  37.2360151
 103.0410282  68.6333113  43.0913338 102.9845483  69.0901665  42.2520970
 103.5938624  67.8723798  42.9136181 106.8515088  64.4222845  43.9163457
 106.5952022  64.0219481  44.7471665 106.2267956  65.1366639  43.7913597
 111.1627426  67.1618918  46.4234749 110.6026984  67.2312108  47.1966311
 110.5570929  66.9859903  45.7034245  94.2322634  78.5955646  48.1752935
  94.1155019  79.5401078  48.0731625  93.4115081  78.2929207  48.5638734
 104.1199169  73.3205781  39.0209528 104.9544773  72.8886980  38.8387003
 103.9583512  73.1487795  39.9486422 103.7745061  69.8237895  40.3865867
 103.7193865  69.6582166  39.4454311 103.1491116  70.5313928  40.5428057
  88.5637576  65.0605959  54.2127289  89.2096440  64.5504913  54.7014515
  88.3554727  65.7974641  54.7870715 101.0890968  72.1286806  59.7119430
 101.9582128  72.3027459  59.3506065 100.6097720  72.9481223  59.5895159
  97.0841187  59.3246004  39.9651186  97.0719856  60.2687844  40.1219456
  97.9764608  59.1416149  39.6710647  95.2577149  79.2483907  51.3908864
  96.1604395  79.2807518  51.7075359  95.0314519  78.3184358  51.4055199
  97.0130751  78.0014894  48.0518942  96.0626382  78.0016756  47.9383314
  97.3163237  77.2547629  47.5354977 100.8993306  55.9188780  44.2197122
 100.1325702  55.3647267  44.3653805 101.3104011  55.9910649  45.0811274
  92.9035067  62.2073576  58.3102304  93.7666529  61.8510381  58.5205628
  92.3300478  61.8687471  58.9977708 112.7483444  83.8375432  49.1164705
 113.3861854  83.7182180  48.4128045 112.6304287  84.7856276  49.1752657
 109.5573150  83.7902861  49.0526229 109.2191662  83.6743925  48.1646764
 110.4262919  83.3894026  49.0327235 105.4159966  85.6438337  45.0423120
 104.8524831  85.5528274  44.2739408 105.3012361  84.8238241  45.5225613
 110.0392933  84.9437712  55.0112435 110.0281574  84.5490511  54.1392938
 110.2013573  84.2103785  55.6046206 102.9624398  87.1389529  47.8807341
 103.7545690  86.7980353  47.4653640 103.2021048  87.2484504  48.8009494
 110.9959525  89.3109305  40.3537585 110.3447505  89.8963385  39.9671599
 111.7903888  89.8415500  40.4132623 104.9215152  86.3998442  40.7524719
 105.6946028  85.8527429  40.6137595 105.2740551  87.2642691  40.9639181
 106.7600194  87.7274824  53.9591619 106.4690060  88.6320455  53.8438285
 107.3957179  87.7691352  54.6735688 107.6856401  85.1051673  50.5492978
 108.2819974  84.8807695  49.8349941 107.7431373  84.3636418  51.1518426
 107.2581430  82.5591108  38.3843169 107.5106950  82.0372629  37.6226632
 106.3205989  82.3957253  38.4869853 112.3024713  81.5626886  46.1917913
 113.0887802  81.1446309  45.8408330 112.5663417  82.4672978  46.3599561
 112.4734790  86.9999737  40.8906569 111.8380623  87.0734363  41.6027474
 112.1432196  87.5893335  40.2125649 117.7033140  81.5002119  47.0950891
 118.4358312  80.9301336  47.3288721 116.9472495  81.1123720  47.5357397
 106.9777718  84.4619214  40.5867544 106.8613977  83.7864117  41.2548629
 107.0879978  83.9751588  39.7699697 109.3209259  83.9229361  44.2914234
 108.9567467  83.3959982  45.0027155 110.1776375  83.5327830  44.1180719
 115.2258560  75.2123694  51.5545500 114.8941885  76.0819105  51.3306715
 114.6304173  74.8959978  52.2339530 108.9614746  78.9519261  39.2875582
 109.1289149  79.8199497  39.6546053 108.7711915  79.1146542  38.3636871
 111.7190080  87.4136240  50.9541412 111.4190803  88.3161278  50.8457220
 111.3741139  87.1468423  51.8062565 105.1702561  83.8650036  46.9878117
 104.2453058  83.7326251  47.1955809 105.4186974  84.6444256  47.4848059
 115.1187223  79.9318780  48.6338850 114.2104101  79.8634188  48.3397611
 115.0674819  80.4090725  49.4620675 108.9403967  81.4076918  40.2722249
 108.8203592  81.8533969  41.1107729 108.2456556  81.7562236  39.7135787
 102.5311372  83.5083310  47.8221906 102.6603753  83.7617789  48.7361318
 101.8508823  84.1011018  47.5026561 106.7010859  94.1780560  43.9212380
 106.6234889  95.1288385  44.0000861 106.0972503  93.8326432  44.5787306
 109.1928089  81.3508425  56.5773747 108.4161423  81.9102345  56.5676612
 109.8318652  81.8365208  57.0988617 116.9848870  78.1335218  50.4116724
 116.3423250  78.4267751  49.7656518 116.4803798  78.0188138  51.2169920
 114.6389033  81.8798391  41.1002583 115.5506890  82.1125778  40.9250281
 114.1298680  82.4635436  40.5377662 107.4474461  84.1593879  56.1391714
 108.1889146  84.6978923  55.8626538 106.7411447  84.7860167  56.2963266
 112.9229801  86.3023019  54.7363876 113.3313157  85.8605430  53.9918508
 112.2007063  85.7275647  54.9898068 109.2760871  81.2395626  52.1097433
 110.1222066  81.6635040  52.2532082 109.2159509  80.5829250  52.8035996
 113.2458616  86.8624210  48.4916164 112.6167478  87.0269924  47.7892232
 112.8584278  87.2765819  49.2627128 117.1247848  87.7978648  45.8460528
 116.4398886  88.1777549  45.2957562 117.2091697  88.4073974  46.5792476
 112.4260316  78.8999994  53.7678606 112.1821248  79.6542055  53.2312882
 112.7020247  79.2785342  54.6025853 114.3798779  85.4438607  52.4455872
 114.5915674  86.0870367  51.7690253 114.3328527  84.6100923  51.9777802
 111.9825008  78.0556427  49.3492444 111.1209487  78.3537681  49.6409181
 112.0087443  78.2726826  48.4173477 108.7986578  86.5998618  45.7566250
 109.2624923  86.8786321  44.9670872 108.5343376  85.6982062  45.5739340
 105.6910659  86.1470099  48.6946013 106.2612016  86.5757368  48.0563497
 106.2818770  85.8652684  49.3930198 107.7355464  82.7221770  42.5655815
 108.4379507  83.1742814  43.0329741 107.4036092  82.0805589  43.1935708
 106.1835825  81.3133527  56.9407024 105.5534486  81.9949808  57.1742421
 106.0771913  81.2016608  55.9960162 101.4780798  80.9805323  47.8672948
 100.6879852  81.2362851  47.3913059 101.9692045  81.7953661  47.9724989
 115.4944607  88.3210562  50.6178229 116.3162051  87.9190749  50.3360911
 115.4907010  88.2178796  51.5694345 103.4295543  81.3449902  44.8256425
 102.6326706  81.4568596  45.3439921 103.2021135  81.6836554  43.9597315
 109.2601211  87.8694605  52.7738940 109.3245643  88.3315013  53.6097111
 108.5512134  87.2391970  52.9021249  99.7618501  81.2335813  50.2987939
 100.0126539  82.1182823  50.5645515 100.2978049  81.0540415  49.5263031
 108.9749228  89.5362713  42.6417920 108.8394903  90.3814249  43.0702768
 109.5159041  89.7381991  41.8783854 105.4616568  75.6154293  59.3032275
 105.0683513  75.0620491  59.9779919 106.2782708  75.9264871  59.6938793
 102.4278626  87.0538151  43.2145845 102.9403146  87.8481401  43.3651410
 103.0801338  86.3564441  43.1479446 104.2373510  90.1703907  45.2968598
 104.4140139  91.0921872  45.1089582 105.0330344  89.8562326  45.7262978
 108.3784529  77.0312172  56.8952532 109.1194242  77.6319325  56.8156994
 108.6102452  76.2889810  56.3370574 103.5225867  82.2168539  55.1730761
 103.4079382  81.3153796  55.4737860 102.6670385  82.4632236  54.8215578
 110.6017705  90.1586279  56.7718262 110.1581559  89.3722658  56.4539166
 111.2634918  90.3465430  56.1062153 105.3604826  91.6882081  51.2978940
 105.9112251  91.5599144  50.5255934 104.5216302  91.9876970  50.9473833
 112.6998943  90.4389079  54.7999663 112.6817418  91.2597960  54.3079932
 113.6218863  90.3143155  55.0249804 109.1571997  87.9533209  55.6423172
 109.6900334  87.1921497  55.4122480 108.6286078  87.6606861  56.3847326
 112.3241692  73.0593275  51.1716813 111.9805961  73.9494916  51.0955924
 112.6920654  72.8694932  50.3086398 100.3927542  85.3826805  43.9905416
 101.2302764  85.7923814  43.7739123 100.5705810  84.4426247  43.9605609
 112.2891975  83.0501886  39.6789248 111.7738598  83.8206491  39.9177636
 112.0169283  82.3767022  40.3022310 109.8739086  77.8951587  44.7374487
 109.0180682  77.5058437  44.5580126 110.2866037  77.9743547  43.8774272
 111.4038232  75.4297930  49.1366047 110.9003028  75.3928065  48.3233852
 111.6968839  76.3390673  49.1962703 107.6481118  75.5136660  48.1432228
 108.5134115  75.3179468  47.7838118 107.7158627  75.2847011  49.0701585
 117.2626249  85.8034241  41.6142422 116.4855691  85.4645400  41.1697584
 117.9417730  85.8086864  40.9397387 112.0778278  80.9228978  41.5049030
 111.7728413  81.2375127  42.3559173 113.0308720  81.0010398  41.5476363
 110.5224710  87.0819201  43.1541984 109.9946071  86.3471961  42.8415221
 110.0212212  87.8593878  42.9081952 115.5017556  85.2768222  48.2709030
 114.8441230  85.9667483  48.3589159 116.3057955  85.6664654  48.6143016
 105.2543437  77.7438868  45.5148595 105.8287189  77.5214049  44.7821788
 105.8414420  77.8127562  46.2677196 114.3123014  83.6312594  46.3212972
 114.8254896  84.2642586  46.8234681 114.9624238  83.0313790  45.9556332
 105.5813024  79.7743329  39.5344480 104.7450337  80.1118015  39.8553755
 105.4417794  79.6392308  38.5971617 107.5566105  74.6180116  44.2423665
 106.9030517  74.3029134  43.6180279 107.5146579  73.9955857  44.9683488
 108.6677310  84.8999412  36.1576957 107.7604371  84.6688665  36.3568106
 109.1648342  84.1037031  36.3450938 111.5745389  93.6096919  39.0773643
 110.9007087  93.9128615  39.6858601 111.9611211  94.4125999  38.7279100
 110.7903845  81.1062050  48.5671312 109.8726407  81.3276997  48.4093000
 111.2063989  81.1808360  47.7083020 111.5738893  82.5053466  43.6973992
 112.3210712  83.0174863  43.3881115 111.8430483  82.1837518  44.5578386
 109.8465543  85.0012006  40.6800947 108.9376762  84.7171039  40.7773417
 109.8760627  85.4211085  39.8204254 115.0784811  88.6118596  44.4492114
 114.6247138  87.7709506  44.5057305 114.4478777  89.2479994  44.7866894
 114.0217730  79.5410582  45.6792782 113.2840487  79.0287968  46.0103024
 114.2744504  79.1010964  44.8676059 113.5217750  90.4495093  45.3841932
 113.8140724  91.0100150  44.6654298 114.0316370  90.7423654  46.1395092
 114.1229357  72.3186834  46.2734551 114.4288234  71.4584197  45.9860466
 114.8481962  72.9104454  46.0733545 100.4153714  82.7217521  44.6616149
 100.2178113  82.1286881  43.9367216  99.8600378  82.4169731  45.3792088
 108.3950437  82.6140627  46.7810742 108.4499047  81.6614463  46.7053219
 107.5841639  82.7700066  47.2652041 109.5441631  86.5420750  38.0189025
 109.1061061  85.8256609  37.5594663 110.2852072  86.7696865  37.4574117
 106.3342797  81.2317687  44.5401121 105.5210663  81.5311857  44.9466313
 106.8301791  80.8373376  45.2575603 108.4851375  91.2275444  46.4735386
 108.4427554  91.4536290  45.5443918 109.4014074  90.9938818  46.6221187
 111.9317009  81.6959511  53.3716015 112.2866397  81.9230984  54.2310481
 112.5789140  82.0277888  52.7493270 117.6614746  84.8177947  44.0765344
 117.5232644  85.0079543  43.1486533 117.3050965  85.5797330  44.5333395
 105.8256872  78.8036042  50.1562356 106.4656251  78.6624801  49.4585319
 104.9934402  78.5170556  49.7800958 117.6884125  86.8854474  49.0876615
 118.1220632  86.7929763  49.9359669 118.4015706  86.8611975  48.4496631
 106.6017176  88.1038473  46.2697348 107.3957774  87.6088793  46.0679923
 105.8908868  87.5756336  45.9065054 111.4212020  90.4856568  50.6209716
 111.4749043  91.0547505  51.3887432 110.5526802  90.6558453  50.2563753
 102.9099939  82.2481554  42.3457101 101.9797527  82.1866010  42.5627063
 103.0057411  81.7257507  41.5493742 102.8285488  78.7736367  44.9335343
 103.0892306  79.6881701  44.8244503 103.6502661  78.3060810  45.0831956
 104.3010414  80.1874124  52.1034167 104.9733467  79.9791487  51.4546816
 103.4740200  79.9896210  51.6639400 118.5499675  86.9278175  51.6209501
 118.7435565  87.8323985  51.8668776 118.4500293  86.4685594  52.4548086
 110.2035986  76.8136065  54.1199828 109.5563901  77.5126015  54.0264305
 110.9737001  77.2472209  54.4876076 113.6114784  87.0784918  57.1950381
 113.4600290  86.8495469  56.2780465 113.6019463  88.0355519  57.2081726
 110.3800120  84.6516830  52.1796648 111.3092180  84.8027990  52.0065615
 109.9591150  84.7400851  51.3245294 109.1788452  88.6767495  49.9495185
 109.0399538  88.3086279  50.8221124 108.3903048  89.1915134  49.7779143
 109.7736604  93.7776591  41.2920722 109.9488359  93.3064634  42.1066345
 109.0869392  94.4042357  41.5201983 110.7293667  88.0549097  47.3384023
 110.3943500  88.0149867  48.2341673 110.2297613  87.3893813  46.8654433
 104.7037911  83.4616727  52.8636604 104.5657709  82.7296966  53.4648143
 105.6142834  83.3725628  52.5820792 113.6652859  85.4005132  37.6121083
 113.0482029  84.6751960  37.5154136 113.1969347  86.1614492  37.2688157
 107.3320212  83.1736687  52.3520284 108.0419830  82.5329879  52.3106902
 107.2889520  83.4249582  53.2746465 115.3206990  90.1104040  55.2726863
 115.2619536  89.4263260  54.6057446 115.7226509  90.8523030  54.8207489
 106.0449146  80.1601905  54.1715924 105.5086503  79.7092643  54.8237520
 105.4565854  80.2947813  53.4286388 104.3397689  96.9265954  48.0660582
 104.5794287  97.5584478  48.7439601 103.4966886  96.5753994  48.3525941
 105.4551405  79.6190556  36.7342387 104.5780871  79.4979357  36.3704634
 105.9309158  78.8276634  36.4821276 115.3224398  88.0743624  53.5040843
 114.4351176  87.7369546  53.6267242 115.8922949  87.3426655  53.7409608
  96.9753545  84.4067716  46.8283894  97.6624584  84.0929446  46.2404910
  96.8201673  85.3109080  46.5551146 101.7788267  79.2957912  51.2568918
 101.6946456  78.6883582  50.5219328 100.9570973  79.7866931  51.2578414
 108.8525551  92.7345076  50.4702086 108.7795722  93.5400048  50.9821391
 108.4102944  92.9337042  49.6450108 108.6415331  91.9716846  43.9804908
 107.8582852  92.5138527  44.0743132 109.3408076  92.4890826  44.3799149
 111.9511981  77.7811476  46.6239113 112.4480680  77.0281438  46.3040183
 111.1798962  77.8175793  46.0582322 119.8041738  83.4851841  48.2657405
 119.7931614  84.3676557  47.8951338 118.9359118  83.1323392  48.0711942
 111.3124234  92.6331910  52.6260245 112.0252207  93.2679375  52.5536146
 110.8214263  92.7295776  51.8100247 113.0341761  86.5383163  44.1977536
 112.0998040  86.6584626  44.0282241 113.2118430  85.6355630  43.9337546
 108.5346949  79.9228859  46.3510798 108.1644737  79.3699899  47.0391703
 109.0306042  79.3186992  45.7985798 116.4214313  82.3800482  44.7327571
 116.8874765  83.2128474  44.6587873 116.8721813  81.9145464  45.4372829
 106.3636148  90.3826354  53.4465816 107.0645607  91.0162837  53.5995210
 105.8931263  90.7241085  52.6861455 114.4890544  88.7244304  41.7313723
 114.7650388  88.6100898  42.6407597 113.6195043  88.3261788  41.6925896
 114.3930975  74.7481069  48.7718472 113.4794055  74.9785296  48.9400679
 114.8224077  74.8319513  49.6232504 114.1637434  82.9370961  51.2718366
 113.5108884  83.1846869  50.6170819 114.5417814  82.1235099  50.9380843
 111.1244608  92.9730654  45.3746536 111.3067002  92.1552310  45.8374289
 111.9477594  93.1898347  44.9371426 111.4586773  91.8998840  42.6361585
 111.9874540  91.3891294  42.0231747 111.7214993  91.5841370  43.5007118
 110.2125007  83.6790772  57.7584403 109.5365644  83.5784902  58.4286778
 111.0352641  83.5229986  58.2220400 101.9603866  89.9162709  50.3796918
 102.5457303  89.1706397  50.5124823 101.7628704  90.2266666  51.2633582
 104.8142521  92.9513956  45.3959361 104.1452897  93.4360084  44.9123401
 104.6755391  93.1983177  46.3102739  96.5521521  82.4868309  49.1001361
  96.5905620  81.9531900  49.8938480  96.0461814  81.9603515  48.4812339
 108.9547790  94.9857700  51.9942019 109.5066098  95.1489321  52.7591104
 109.2953983  95.5762138  51.3222044 103.9312283  77.3332850  52.5963904
 103.9953610  78.1947681  52.1841301 103.8679403  76.7206851  51.8636262
 103.4064556  79.4055982  56.2436938 104.0336594  79.0233059  56.8574462
 102.5492474  79.1870184  56.6092631 113.8058664  89.8118957  57.8490673
 114.3498568  90.4248916  57.3545628 113.2245509  90.3698536  58.3657687
 100.1830098  81.2132411  42.1755293 100.4783539  80.3043090  42.1222347
  99.2818134  81.1920151  41.8536295 112.0916177  92.9339675  48.9805701
 111.9667317  92.1329415  48.4716647 112.7495268  93.4285869  48.4919671
 103.7124345  79.2888408  48.1582841 102.9910931  79.9024376  48.0190315
 104.5017601  79.8246173  48.0799487 114.1551086  90.7348695  50.6085251
 113.2081421  90.6154047  50.5363578 114.5033859  89.8471193  50.6911513
 106.5150659  76.6242834  54.4323493 107.0385061  76.8705131  55.1949803
 106.2962992  77.4562869  54.0126631 101.9117940  78.8946509  42.2994618
 101.5830646  78.0143888  42.1169724 102.2657311  78.8394178  43.1871007
 111.1597519  90.5301412  46.8089604 111.0122481  89.6018119  46.9897174
 111.9851012  90.5521502  46.3246679 105.0259763  79.1819479  42.6670096
 105.3655836  79.7105400  41.9448704 105.4731884  79.5199885  43.4428662
 114.7631641  91.3529970  47.8954476 115.6878188  91.1472832  47.7578927
 114.5946944  91.1046372  48.8043818 107.7203204  77.5656529  52.1173164
 107.3800024  76.7664343  52.5193844 107.0142210  77.8658240  51.5449997
 108.3719676  74.6505842  50.5700487 109.1945745  74.1766320  50.4479377
 108.6157739  75.4296326  51.0699173 107.0127910  77.6794100  40.8663388
 107.7336273  78.0575353  40.3627105 106.3893214  78.3982977  40.9698366
 111.1559033  78.3839249  41.8021721 111.3722648  79.2663887  41.5010549
 110.6753100  77.9925463  41.0727363 105.8958255  81.3424963  48.3792465
 105.7502835  81.6565266  49.2716747 105.4183458  81.9609863  47.8263364
 107.7554637  78.3327511  48.4273355 107.7416206  77.4368604  48.0905653
 108.4727066  78.3398174  49.0611641 109.6080768  78.7664851  50.4726482
 109.3498546  79.6881921  50.4710813 109.0765808  78.3695285  51.1626947
 114.5526957  91.8715638  43.2516568 114.7263834  91.3062060  42.4990420
 115.0455848  92.6716533  43.0696058 100.3703917  83.8830307  51.3180127
  99.8257385  84.6590115  51.4500401 101.2483267  84.2301111  51.1599248
 107.1591533  77.2141891  43.6960925 107.2807445  76.2858537  43.8951813
 106.8693576  77.2280577  42.7839240 110.0282724  74.8996801  46.8327645
 110.0504421  74.9636134  45.8779624 110.4450783  74.0601310  47.0268151
 120.4066348  84.6352061  44.8706867 120.8497494  83.8859386  44.4725991
 119.5292858  84.6262197  44.4880599 115.5402129  91.1882402  40.3513466
 116.2353034  91.8089095  40.5700781 115.8825279  90.3377753  40.6265844
 101.1569939  83.0100203  54.2110283 100.4151675  83.1582839  54.7974914
 100.8362683  83.2708469  53.3477033 117.4393552  88.6382108  41.8800797
 117.9644877  88.9769381  41.1550117 117.3515905  87.7029123  41.6963931
 109.1013601  92.5516181  54.0090673 109.4100728  92.3065328  54.8813373
 109.8989083  92.7562820  53.5209544 109.1234213  94.7054091  46.2396050
 108.6839204  94.2130470  46.9328907 109.8742330  94.1627059  45.9988125
 101.6026552  90.8965632  46.2420678 102.4284572  90.5969404  45.8619322
 101.2520604  90.1273254  46.6910467 106.5708085  90.2492100  48.3118352
 105.9488095  89.5862805  48.0120580 107.2412952  90.2753232  47.6291999
  99.8035157  88.8151958  47.2009612  98.9667066  88.3874133  47.0193613
  99.7758803  89.0084402  48.1380403 106.6432613  78.7273888  57.9050858
 106.6920768  79.6036011  57.5228627 107.1855127  78.1851281  57.3322501
 117.1287459  89.2715011  57.1851995 116.3383002  89.2539150  56.6456494
 116.8920813  89.8103305  57.9401031 117.2485334  86.1207478  54.4984723
 117.2983339  85.9557485  55.4400246 117.1399257  85.2534737  54.1082604
 106.1321592  88.7996023  41.7876812 106.2809713  89.4831488  41.1343485
 106.9388036  88.7801114  42.3026268 114.5389096  82.1038406  55.8144030
 115.4398959  81.9644871  55.5228028 114.6137070  82.2692861  56.7542207
 108.8731901  79.4805261  54.6597216 108.0035211  79.7738827  54.3879805
 109.1091382  80.0645706  55.3804480 118.7503530  88.5404419  54.7426745
 118.4588339  88.9034400  55.5790206 118.1375662  87.8271428  54.5640077
 119.9499213  86.1057299  47.2629315 120.7846104  86.5447103  47.4266875
 120.0858342  85.6295952  46.4437561 116.9990719  83.6637034  53.2106803
 117.4744840  83.8564680  52.4025654 116.0756284  83.7196220  52.9650186
 103.8874225  84.8261201  42.7937881 103.6420267  83.9223531  42.9918091
 104.0570140  84.8278352  41.8517359 111.5770935  75.6984877  52.1762637
 112.0952879  76.4345904  51.8509125 111.2226068  76.0048871  53.0109396
 103.1569873  80.5589559  40.2924043 102.4639118  80.6333914  39.6364079
 102.9121625  79.7949902  40.8145559 111.8283529  72.1185160  47.6963533
 112.1085283  71.4508349  48.3223960 112.6134136  72.3114256  47.1838197
 109.6316998  91.2944154  39.2588560 109.0590965  91.9134341  38.8059031
 110.2049791  91.8443516  39.7928482 115.6992388  80.5402794  51.4435108
 116.6509811  80.6400892  51.4647332 115.5295838  79.7481063  51.9533193
 113.7206767  77.6258377  51.6294509 113.1256699  77.9063390  50.9340998
 113.4356464  78.1152278  52.4011250 112.8514258  91.5781304  40.3897142
 113.7844931  91.5126866  40.5930017 112.7637470  92.4137571  39.9311675
 115.4802274  90.8947174  37.3501089 115.4015906  90.5607038  38.2436847
 116.3011941  91.3868942  37.3492562 118.1780465  83.7608914  50.5577408
 118.1456786  82.8224914  50.7437092 118.7881089  83.8392950  49.8243233
 110.0163796  82.6304967  36.6004612 110.9622901  82.5011175  36.6693030
 109.6378041  81.8919629  37.0774040 118.3274954  80.5519957  50.6035691
 117.8114003  79.7678414  50.4165620 119.2114902  80.2238674  50.7682211
 115.9885681  74.2960973  46.5631504 115.7910502  73.9876061  47.4474836
 116.5985386  75.0222612  46.6929434 109.9002489  86.6822713  58.0605269
 110.8205498  86.8601312  58.2545316 109.8652072  85.7378758  57.9084968
 108.2006713  80.5554943  36.5359497 107.2938169  80.2588056  36.6122211
 108.4782694  80.2584761  35.6693784  99.1184654  81.8761306  46.9858544
  98.7987438  81.0226615  46.6932918  98.5718082  82.0909885  47.7416511
 102.8964561  84.5923747  50.7028050 103.1150571  85.5240855  50.7216084
 103.3090335  84.2331722  51.4882854 109.8168779  75.0991833  42.6903739
 109.0069508  74.7538918  43.0658985 110.5053196  74.7899377  43.2791350
 111.7459327  74.1769880  44.3128035 112.2990366  74.5965333  44.9718058
 111.9829414  73.2505628  44.3550991 107.7692427  80.1656953  60.0930799
 107.6689154  81.1151310  60.0242890 107.5513969  79.8375192  59.2206869
 106.9705498  77.4141878  36.6771477 107.8324662  77.7396777  36.9367294
 107.1555842  76.6273374  36.1644542  98.9872914  85.4964218  48.9551665
  98.2936385  85.0818171  48.4421620  99.7345905  85.5384754  48.3585084
 115.1238135  76.2870405  43.8206700 114.5436804  76.9455209  43.4384752
 114.8574067  75.4647749  43.4094117 113.5741701  75.6875462  46.0228020
 114.0741479  75.7991997  45.2142339 114.2177309  75.3836515  46.6628828
 107.6323697  83.5954092  58.9095861 107.1490778  84.3954452  59.1159750
 107.7184636  83.6062037  57.9563305 100.9009656  85.4282472  46.8317680
 100.8780344  85.5270159  45.8799563 101.2110293  86.2747623  47.1534846
 103.5597034  87.4858627  50.9464295 104.5140288  87.4542569  50.8794226
 103.3609558  87.0249251  51.7614521 104.1496416  86.0559743  53.5135092
 104.9689305  86.5503821  53.5369930 104.4233224  85.1391711  53.4852660
 113.9063013  78.4470495  42.8763048 113.0188868  78.7320146  42.6583243
 114.3217002  78.2864258  42.0290325 117.2577549  78.4717016  46.5917387
 118.0337939  78.9613469  46.8642004 116.5325683  78.8975070  47.0489257
 119.6950107  79.1844635  47.6491328 120.2894598  78.9440371  46.9384636
 119.7676691  78.4651766  48.2764864 101.9147263  93.0278246  47.9634492
 101.7801731  92.2678647  47.3972491 101.4979325  93.7519146  47.4963281
 113.0506226  88.2115170  36.9711068 113.7542076  88.4165172  37.5868723
 112.3268875  88.7791932  37.2360151 113.8804036  83.9625031  43.0913338
 113.8239238  84.4193582  42.2520970 114.4332379  83.2015716  42.9136181
 117.6908842  79.7514763  43.9163457 117.4345776  79.3511399  44.7471665
 117.0661710  80.4658557  43.7913597 105.0716389  93.9247563  48.1752935
 104.9548773  94.8692996  48.0731625 104.2508835  93.6221125  48.5638734
 114.9592923  88.6497699  39.0209528 115.7938527  88.2178897  38.8387003
 114.7977266  88.4779713  39.9486422 114.6138816  85.1529812  40.3865867
 114.5587619  84.9874084  39.4454311 113.9884871  85.8605845  40.5428057
  99.4031331  80.3897877  54.2127289 100.0490194  79.8796831  54.7014515
  99.1948482  81.1266558  54.7870715 111.9284723  87.4578724  59.7119430
 112.7975882  87.6319376  59.3506065 111.4491474  88.2773141  59.5895159
 107.9234941  74.6537921  39.9651186 107.9113611  75.5979761  40.1219456
 108.8158363  74.4708067  39.6710647 106.0970903  94.5775825  51.3908864
 106.9998150  94.6099435  51.7075359 105.8708273  93.6476276  51.4055199
 107.8524505  93.3306812  48.0518942 106.9020136  93.3308673  47.9383314
 108.1556991  92.5839546  47.5354977 111.7387061  71.2480698  44.2197122
 110.9719456  70.6939185  44.3653805 112.1497766  71.3202567  45.0811274
 103.7428822  77.5365494  58.3102304 104.6060283  77.1802299  58.5205628
 103.1694232  77.1979389  58.9977708 120.3966905  99.1194778  49.0526229
 120.0585416  99.0035843  48.1646764 121.2656673  98.7185943  49.0327235
 116.2553721 100.9730255  45.0423120 115.6918586 100.8820192  44.2739408
 116.1406116 100.1530159  45.5225613 120.8786688 100.2729630  55.0112435
 120.8675329  99.8782428  54.1392938 121.0407327  99.5395703  55.6046206
 113.8018152 102.4681446  47.8807341 114.5939444 102.1272271  47.4653640
 114.0414803 102.5776421  48.8009494 115.7608906 101.7290359  40.7524719
 116.5339782 101.1819347  40.6137595 116.1134305 102.5934609  40.9639181
 117.5993949 103.0566742  53.9591619 117.3083815 103.9612373  53.8438285
 118.2350933 103.0983269  54.6735688 118.5250156 100.4343590  50.5492978
 119.1213728 100.2099613  49.8349941 118.5825127  99.6928336  51.1518426
 118.0975184  97.8883026  38.3843169 118.3500705  97.3664547  37.6226632
 117.1599743  97.7249171  38.4869853 117.8171473  99.7911132  40.5867544
 117.7007731  99.1156035  41.2548629 117.9273733  99.3043505  39.7699697
 120.1603014  99.2521279  44.2914234 119.7961221  98.7251900  45.0027155
 121.0170130  98.8619748  44.1180719 119.8008501  94.2811178  39.2875582
 119.9682903  95.1491415  39.6546053 119.6105670  94.4438460  38.3636871
 116.0096316  99.1941954  46.9878117 115.0846812  99.0618168  47.1955809
 116.2580729  99.9736173  47.4848059 119.7797722  96.7368836  40.2722249
 119.6597347  97.1825887  41.1107729 119.0850310  97.0854154  39.7135787
 113.3705127  98.8375228  47.8221906 113.4997508  99.0909707  48.7361318
 112.6902578  99.4302936  47.5026561 120.0321844  96.6800343  56.5773747
 119.2555178  97.2394263  56.5676612 120.6712407  97.1657126  57.0988617
 118.2868216  99.4885796  56.1391714 119.0282900 100.0270840  55.8626538
 117.5805201 100.1152085  56.2963266 120.1154626  96.5687544  52.1097433
 120.9615821  96.9926957  52.2532082 120.0553263  95.9121168  52.8035996
 119.6380332 101.9290536  45.7566250 120.1018678 102.2078239  44.9670872
 119.3737130 101.0273980  45.5739340 116.5304413 101.4762017  48.6946013
 117.1005770 101.9049285  48.0563497 117.1212525 101.1944602  49.3930198
 118.5749218  98.0513688  42.5655815 119.2773261  98.5034732  43.0329741
 118.2429847  97.4097507  43.1935708 117.0229580  96.6425445  56.9407024
 116.3928240  97.3241725  57.1742421 116.9165668  96.5308526  55.9960162
 112.3174552  96.3097241  47.8672948 111.5273606  96.5654769  47.3913059
 112.8085799  97.1245578  47.9724989 114.2689297  96.6741820  44.8256425
 113.4720461  96.7860514  45.3439921 114.0414890  97.0128472  43.9597315
 120.0994965 103.1986523  52.7738940 120.1639398 103.6606930  53.6097111
 119.3905889 102.5683888  52.9021249 110.6012255  96.5627731  50.2987939
 110.8520293  97.4474741  50.5645515 111.1371803  96.3832333  49.5263031
 116.3010322  90.9446210  59.3032275 115.9077268  90.3912409  59.9779919
 117.1176463  91.2556789  59.6938793 113.2672380 102.3830069  43.2145845
 113.7796901 103.1773319  43.3651410 113.9195093 101.6856359  43.1479446
 115.0767265 105.4995825  45.2968598 115.2533893 106.4213790  45.1089582
 115.8724098 105.1854244  45.7262978 119.2178283  92.3604089  56.8952532
 119.9587997  92.9611243  56.8156994 119.4496206  91.6181727  56.3370574
 114.3619621  97.5460457  55.1730761 114.2473137  96.6445714  55.4737860
 113.5064139  97.7924154  54.8215578 116.1998580 107.0173999  51.2978940
 116.7506005 106.8891062  50.5255934 115.3610056 107.3168888  50.9473833
 119.9965751 103.2825126  55.6423172 120.5294088 102.5213415  55.4122480
 119.4679832 102.9898778  56.3847326 111.2321297 100.7118723  43.9905416
 112.0696519 101.1215731  43.7739123 111.4099565  99.7718165  43.9605609
 120.7132840  93.2243504  44.7374487 119.8574436  92.8350355  44.5580126
 121.1259792  93.3035465  43.8774272 118.4874873  90.8428577  48.1432228
 119.3527869  90.6471386  47.7838118 118.5552381  90.6138929  49.0701585
 121.3618464 102.4111119  43.1541984 120.8339826 101.6763879  42.8415221
 120.8605967 103.1885795  42.9081952 116.0937192  93.0730785  45.5148595
 116.6680944  92.8505967  44.7821788 116.6808174  93.1419480  46.2677196
 116.4206779  95.1035246  39.5344480 115.5844091  95.4409933  39.8553755
 116.2811548  94.9684226  38.5971617 118.3959859  89.9472034  44.2423665
 117.7424272  89.6321051  43.6180279 118.3540334  89.3247775  44.9683488
 119.5071064 100.2291329  36.1576957 118.5998126  99.9980583  36.3568106
 120.0042096  99.4328948  36.3450938 120.6859298 100.3303924  40.6800947
 119.7770517 100.0462957  40.7773417 120.7154381 100.7503003  39.8204254
 111.2547468  98.0509438  44.6616149 111.0571868  97.4578799  43.9367216
 110.6994132  97.7461648  45.3792088 119.2344192  97.9432545  46.7810742
 119.2892801  96.9906381  46.7053219 118.4235394  98.0991984  47.2652041
 120.3835385 101.8712668  38.0189025 119.9454815 101.1548527  37.5594663
 121.1245826 102.0988783  37.4574117 117.1736552  96.5609604  44.5401121
 116.3604417  96.8603775  44.9466313 117.6695546  96.1665293  45.2575603
 116.6650626  94.1327960  50.1562356 117.3050006  93.9916719  49.4585319
 115.8328157  93.8462473  49.7800958 117.4410930 103.4330390  46.2697348
 118.2351529 102.9380711  46.0679923 116.7302623 102.9048254  45.9065054
 113.7493694  97.5773472  42.3457101 112.8191282  97.5157928  42.5627063
 113.8451166  97.0549425  41.5493742 113.6679243  94.1028285  44.9335343
 113.9286060  95.0173618  44.8244503 114.4896415  93.6352728  45.0831956
 115.1404168  95.5166042  52.1034167 115.8127222  95.3083404  51.4546816
 114.3133955  95.3188128  51.6639400 120.0182206 104.0059412  49.9495185
 119.8793292 103.6378197  50.8221124 119.2296803 104.5207052  49.7779143
 121.5687421 103.3841015  47.3384023 121.2337254 103.3441785  48.2341673
 121.0691367 102.7185731  46.8654433 115.5431665  98.7908645  52.8636604
 115.4051463  98.0588884  53.4648143 116.4536589  98.7017545  52.5820792
 118.1713966  98.5028604  52.3520284 118.8813585  97.8621797  52.3106902
 118.1283274  98.7541499  53.2746465 116.8842900  95.4893822  54.1715924
 116.3480257  95.0384561  54.8237520 116.2959609  95.6239731  53.4286388
 116.2945159  94.9482474  36.7342387 115.4174625  94.8271274  36.3704634
 116.7702912  94.1568552  36.4821276 107.8147299  99.7359633  46.8283894
 108.5018339  99.4221363  46.2404910 107.6595428 100.6400998  46.5551146
 112.6182021  94.6249830  51.2568918 112.5340210  94.0175500  50.5219328
 111.7964728  95.1158848  51.2578414 119.3740704  95.2520777  46.3510798
 119.0038491  94.6991817  47.0391703 119.8699796  94.6478910  45.7985798
 117.2029902 105.7118272  53.4465816 117.9039362 106.3454755  53.5995210
 116.7325017 106.0533003  52.6861455 112.7997621 105.2454627  50.3796918
 113.3851057 104.4998314  50.5124823 112.6022459 105.5558583  51.2633582
 107.3915275  97.8160227  49.1001361 107.4299375  97.2823817  49.8938480
 106.8855568  97.2895432  48.4812339 114.7706038  92.6624767  52.5963904
 114.8347364  93.5239598  52.1841301 114.7073158  92.0498769  51.8636262
 114.2458310  94.7347900  56.2436938 114.8730349  94.3524977  56.8574462
 113.3886229  94.5162102  56.6092631 111.0223853  96.5424329  42.1755293
 111.3177294  95.6335007  42.1222347 110.1211889  96.5212068  41.8536295
 114.5518100  94.6180326  48.1582841 113.8304686  95.2316293  48.0190315
 115.3411356  95.1538090  48.0799487 117.3544413  91.9534752  54.4323493
 117.8778815  92.1997049  55.1949803 117.1356747  92.7854787  54.0126631
 112.7511694  94.2238427  42.2994618 112.4224401  93.3435806  42.1169724
 113.1051065  94.1686095  43.1871007 115.8653518  94.5111396  42.6670096
 116.2049590  95.0397318  41.9448704 116.3125638  94.8491803  43.4428662
 118.5596958  92.8948447  52.1173164 118.2193779  92.0956260  52.5193844
 117.8535965  93.1950158  51.5449997 119.2113430  89.9797760  50.5700487
 120.0339500  89.5058238  50.4479377 119.4551494  90.7588243  51.0699173
 117.8521665  93.0086018  40.8663388 118.5730027  93.3867271  40.3627105
 117.2286969  93.7274895  40.9698366 116.7352009  96.6716880  48.3792465
 116.5896590  96.9857183  49.2716747 116.2577213  97.2901781  47.8263364
 118.5948392  93.6619428  48.4273355 118.5809961  92.7660521  48.0905653
 119.3120820  93.6690092  49.0611641 120.4474523  94.0956768  50.4726482
 120.1892300  95.0173839  50.4710813 119.9159563  93.6987203  51.1626947
 111.2097671  99.2122225  51.3180127 110.6651139  99.9882033  51.4500401
 112.0877021  99.5593029  51.1599248 117.9985288  92.5433808  43.6960925
 118.1201199  91.6150455  43.8951813 117.7087330  92.5572494  42.7839240
 120.8676478  90.2288719  46.8327645 120.8898175  90.2928052  45.8779624
 121.2844537  89.3893228  47.0268151 111.9963693  98.3392121  54.2110283
 111.2545429  98.4874756  54.7974914 111.6756437  98.6000386  53.3477033
 112.4420307 106.2257550  46.2420678 113.2678327 105.9261321  45.8619322
 112.0914359 105.4565172  46.6910467 117.4101840 105.5784018  48.3118352
 116.7881849 104.9154723  48.0120580 118.0806707 105.6045150  47.6291999
 110.6428912 104.1443876  47.2009612 109.8060820 103.7166050  47.0193613
 110.6152557 104.3376319  48.1380403 117.4826367  94.0565806  57.9050858
 117.5314523  94.9327929  57.5228627 118.0248882  93.5143199  57.3322501
 116.9715347 104.1287941  41.7876812 117.1203467 104.8123406  41.1343485
 117.7781790 104.1093031  42.3026268 119.7125656  94.8097178  54.6597216
 118.8428965  95.1030744  54.3879805 119.9485136  95.3937623  55.3804480
 114.7267980 100.1553119  42.7937881 114.4814022  99.2515449  42.9918091
 114.8963894 100.1570269  41.8517359 113.9963627  95.8881476  40.2924043
 113.3032872  95.9625831  39.6364079 113.7515379  95.1241820  40.8145559
 119.0400468  95.8846861  36.5359497 118.1331923  95.5879973  36.6122211
 119.3176449  95.5876679  35.6693784 109.9578408  97.2053224  46.9858544
 109.6381193  96.3518532  46.6932918 109.4111837  97.4201802  47.7416511
 113.7358316  99.9215665  50.7028050 113.9544326 100.8532773  50.7216084
 114.1484090  99.5623640  51.4882854 120.6562534  90.4283750  42.6903739
 119.8463262  90.0830835  43.0658985 121.3446951  90.1191294  43.2791350
 118.6086181  95.4948871  60.0930799 118.5082908  96.4443228  60.0242890
 118.3907723  95.1667110  59.2206869 117.8099253  92.7433796  36.6771477
 118.6718417  93.0688694  36.9367294 117.9949597  91.9565292  36.1644542
 109.8266668 100.8256136  48.9551665 109.1330140 100.4110088  48.4421620
 110.5739659 100.8676672  48.3585084 118.4717451  98.9246010  58.9095861
 117.9884533  99.7246370  59.1159750 118.5578390  98.9353955  57.9563305
 111.7403411 100.7574389  46.8317680 111.7174099 100.8562077  45.8799563
 112.0504047 101.6039540  47.1534846 114.3990789 102.8150544  50.9464295
 115.3534042 102.7834487  50.8794226 114.2003312 102.3541168  51.7614521
 114.9890171 101.3851660  53.5135092 115.8083060 101.8795739  53.5369930
 115.2626979 100.4683629  53.4852660 112.7541018 108.3570164  47.9634492
 112.6195485 107.5970565  47.3972491 112.3373080 109.0811064  47.4963281
 110.2425085  95.7189794  54.2127289 110.8883949  95.2088748  54.7014515
 110.0342236  96.4558476  54.7870715 118.7628696  89.9829839  39.9651186
 118.7507365  90.9271679  40.1219456 119.6552117  89.7999984  39.6710647
 114.5822576  92.8657411  58.3102304 115.4454038  92.5094216  58.5205628
 114.0087987  92.5271306  58.9977708  52.5042088  -5.4616906  30.6457687
  52.4266118  -4.5109081  30.7246167  51.9003732  -5.8071033  31.3032613
  50.1428918  -2.7131512  34.7905889  50.3825516  -2.0812988  35.4684907
  49.2998114  -3.0643472  35.0771248  50.6173750  -6.6883509  32.1204667
  49.9484125  -6.2037382  31.6368707  50.4786620  -6.4414289  33.0348046
  54.7579019  -4.6539766  38.7187326  55.3097327  -4.4908144  39.4836411
  55.0985212  -4.0635328  38.0467351  47.7178492  -6.6119220  34.6879799
  47.5832960  -7.3718819  34.1217797  47.3010554  -5.8878320  34.2208588
  50.8747618  -5.7149903  34.8998242  50.7580002  -4.7704470  34.7976932
  50.0540064  -6.0176341  35.2884041  51.9002132  -5.0621641  38.1154170
  52.8029379  -5.0298030  38.4320665  51.6739502  -5.9921190  38.1300506
  66.1998134  -0.5202688  35.7771536  65.8616645  -0.6361623  34.8892071
  67.0687902  -0.9211522  35.7572542  62.0584949   1.3332789  31.7668427
  61.4949814   1.2422726  30.9984715  61.9437344   0.5132693  32.2470919
  66.6817917   0.6332164  41.7357741  66.6706557   0.2384962  40.8638245
  66.8438556  -0.1001763  42.3291513  59.6049381   2.8283980  34.6052647
  60.3970673   2.4874805  34.1898947  59.8446031   2.9378955  35.5254801
  67.6384508   5.0003757  27.0782892  66.9872488   5.5857837  26.6916906
  68.4328871   5.5309951  27.1377929  61.5640135   2.0892894  27.4770026
  62.3371011   1.5421881  27.3382902  61.9165534   2.9537143  27.6884488
  63.4025178   3.4169276  40.6836925  63.1115044   4.3214907  40.5683592
  64.0382162   3.4585804  41.3980995  64.3281385   0.7946124  37.2738285
  64.9244957   0.5702147  36.5595248  64.3856356   0.0530870  37.8763733
  69.1159773   2.6894188  27.6151876  68.4805606   2.7628815  28.3272781
  68.7857180   3.2787787  26.9370955  63.6202702   0.1513666  27.3112851
  63.5038960  -0.5241431  27.9793935  63.7304962  -0.3353960  26.4945004
  65.9634243  -0.3876187  31.0159540  65.5992450  -0.9145566  31.7272462
  66.8201359  -0.7777718  30.8426026  68.3615063   3.1030691  37.6786719
  68.0615786   4.0055730  37.5702526  68.0166122   2.8362875  38.5307872
  61.8127544  -0.4455512  33.7123424  60.8878041  -0.5779298  33.9201115
  62.0611958   0.3338708  34.2093366  59.1736355  -0.8022238  34.5467213
  59.3028737  -0.5487759  35.4606624  58.4933807  -0.2094530  34.2271868
  63.3435843   9.8675012  30.6457687  63.2659872  10.8182837  30.7246167
  62.7397486   9.5220884  31.3032613  64.0899445  -0.1511669  42.8637021
  64.8314129   0.3873375  42.5871844  63.3836430   0.4754619  43.0208572
  69.5654784   1.9917471  41.4609182  69.9738140   1.5499882  40.7163815
  68.8432046   1.4170099  41.7143375  69.8883599   2.5518662  35.2161471
  69.2592461   2.7164376  34.5137539  69.5009261   2.9660271  35.9872435
  73.7672831   3.4873100  32.5705835  73.0823869   3.8672001  32.0202868
  73.8516680   4.0968426  33.3037783  71.0223763   1.1333059  39.1701178
  71.2340658   1.7764818  38.4935559  70.9753511   0.2995375  38.7023108
  65.4411561   2.2893070  32.4811556  65.9049906   2.5680773  31.6916179
  65.1768359   1.3876514  32.2984647  62.3335642   1.8364551  35.4191319
  62.9036999   2.2651820  34.7808804  62.9243754   1.5547136  36.1175505
  58.1205781  -3.3300225  34.5918255  57.3304835  -3.0742697  34.1158365
  58.6117028  -2.5151887  34.6970295  72.1369590   4.0105014  37.3423536
  72.9587034   3.6085201  37.0606217  72.1331993   3.9073248  38.2939651
  60.0720526  -2.9655646  31.5501732  59.2751690  -2.8536952  32.0685227
  59.8446118  -2.6268994  30.6842622  65.9026194   3.5589057  39.4984246
  65.9670626   4.0209465  40.3342418  65.1937118   2.9286422  39.6266556
  56.4043484  -3.0769735  37.0233246  56.6551522  -2.1922725  37.2890822
  56.9403032  -3.2565133  36.2508337  65.6174212   5.2257165  29.3663227
  65.4819886   6.0708700  29.7948074  66.1584024   5.4276442  28.6029160
  59.0703609   2.7432603  29.9391152  59.5828130   3.5375853  30.0896716
  59.7226322   2.0458893  29.8724753  60.8798494   5.8598359  32.0213905
  61.0565122   6.7816324  31.8334889  61.6755327   5.5456778  32.4508285
  60.1650850  -2.0937009  41.8976068  60.0504365  -2.9951752  42.1983167
  59.3095368  -1.8473312  41.5460885  67.2442688   5.8480731  43.4963569
  66.8006542   5.0617110  43.1784473  67.9059902   6.0359882  42.8307459
  62.0029809   7.3776533  38.0224247  62.5537234   7.2493596  37.2501241
  61.1641285   7.6771422  37.6719140  69.3423926   6.1283531  41.5244970
  69.3242401   6.9492412  41.0325239  70.2643846   6.0037606  41.7495111
  65.7996980   3.6427661  42.3668478  66.3325317   2.8815949  42.1367786
  65.2711061   3.3501313  43.1092633  57.0352526   1.0721257  30.7150722
  57.8727748   1.4818265  30.4984430  57.2130793   0.1320699  30.6850916
  67.1649693   2.7713653  29.8787290  66.6371054   2.0366413  29.5660528
  66.6637196   3.5488330  29.6327259  72.1442539   0.9662674  34.9954337
  71.4866213   1.6561935  35.0834465  72.9482938   1.3559106  35.3388323
  65.3102293   0.5893863  22.8822263  64.4029355   0.3583117  23.0813412
  65.8073325  -0.2068517  23.0696245  68.2170372   9.2991371  25.8018949
  67.5432071   9.6023067  26.4103907  68.6036194  10.1020451  25.4524407
  66.4890526   0.6906458  27.4046253  65.5801746   0.4065491  27.5018723
  66.5185610   1.1105537  26.5449560  71.7209794   4.3013048  31.1737421
  71.2672121   3.4603958  31.2302611  71.0903761   4.9374446  31.5112201
  70.1642733   6.1389544  32.1087239  70.4565708   6.6994602  31.3899605
  70.6741354   6.4318105  32.8640398  57.0578697  -1.5888028  31.3861456
  56.8603097  -2.1818667  30.6612522  56.5025361  -1.8935817  32.1037394
  66.1866614   2.2315202  24.7434332  65.7486044   1.5151061  24.2839969
  66.9277055   2.4591317  24.1819423  65.1276358   6.9169896  33.1980692
  65.0852537   7.1430742  32.2689224  66.0439057   6.6833270  33.3466493
  74.3309109   2.5748926  35.8121922  74.7645615   2.4824215  36.6604976
  75.0440689   2.5506426  35.1741938  63.2442159   3.7932925  32.9942655
  64.0382758   3.2983245  32.7925230  62.5333851   3.2650788  32.6310361
  68.0637004   6.1751020  37.3455023  68.1174026   6.7441956  38.1132739
  67.1951785   6.3452905  36.9809060  59.5524923  -2.0623994  29.0702408
  58.6222511  -2.1239538  29.2872370  59.6482395  -2.5848041  28.2739049
  75.1924658   2.6172627  38.3454807  75.3860548   3.5218437  38.5914082
  75.0925276   2.1580046  39.1793392  70.2539767   2.7679369  43.9195688
  70.1025273   2.5389921  43.0025772  70.2444446   3.7249971  43.9327033
  67.0225103   0.3411282  38.9041954  67.9517163   0.4922442  38.7310922
  66.6016133   0.4295303  38.0490601  65.8213435   4.3661947  36.6740492
  65.6824521   3.9980731  37.5466430  65.0328031   4.8809586  36.5024450
  66.4161587   9.4671043  28.0166029  66.5913343   8.9959086  28.8311651
  65.7294375  10.0936809  28.2447289  67.3718650   3.7443549  34.0629330
  67.0368483   3.7044319  34.9586980  66.8722596   3.0788265  33.5899740
  61.3462894  -0.8488821  39.5881911  61.2082692  -1.5808582  40.1893450
  62.2567818  -0.9379921  39.3066099  70.3077842   1.0899584  24.3366390
  69.6907013   0.3646412  24.2399442  69.8394330   1.8508944  23.9933464
  63.9745195  -1.1368861  39.0765591  64.6844813  -1.7775669  39.0352209
  63.9314503  -0.8855967  39.9991771  71.9631974   5.7998492  41.9972170
  71.9044520   5.1157712  41.3302753  72.3651492   6.5417482  41.5452796
  60.9822672  12.6160406  34.7905889  61.2219271  13.2478930  35.4684907
  60.1391869  12.2648446  35.0771248  71.9649381   3.7638076  40.2286150
  71.0776160   3.4263998  40.3512548  72.5347932   3.0321107  40.4654915
  53.6178528   0.0962168  33.5529201  54.3049568  -0.2176102  32.9650216
  53.4626657   1.0003532  33.2796452  65.4950534   8.4239528  37.1947393
  65.4220706   9.2294500  37.7066697  65.0527927   8.6231494  36.3695414
  65.2840314   7.6611298  30.7050214  64.5007836   8.2032978  30.7988439
  65.9833059   8.1785278  31.1044456  67.9549218   8.3226362  39.3505551
  68.6677190   8.9573827  39.2781453  67.4639246   8.4190228  38.5345553
  69.6766745   2.2277615  30.9222843  68.7423023   2.3479077  30.7527547
  69.8543413   1.3250082  30.6582853  63.0061131   6.0720806  40.1711122
  63.7070591   6.7057289  40.3240516  62.5356246   6.4135537  39.4106762
  71.1315527   4.4138756  28.4559029  71.4075371   4.2995350  29.3652903
  70.2620026   4.0156240  28.4171202  67.7669591   8.6625106  32.0991843
  67.9491986   7.8446762  32.5619595  68.5902577   8.8792799  31.6616733
  68.1011757   7.5893292  29.3606891  68.6299523   7.0785746  28.7477054
  68.3639976   7.2735822  30.2252424  66.8549990  -0.6314776  44.4829710
  66.1790627  -0.7320646  45.1532085  67.6777624  -0.7875562  44.9465707
  58.6028849   5.6057161  37.1042225  59.1882286   4.8600849  37.2370129
  58.4053688   5.9161118  37.9878889  61.4567505   8.6408408  32.1204667
  60.7877880   9.1254536  31.6368707  61.3180374   8.8877629  33.0348046
  53.1946504  -1.8237239  35.8246668  53.2330604  -2.3573648  36.6183786
  52.6886797  -2.3502033  35.2057645  65.5972773  10.6752152  38.7187326
  66.1491081  10.8383773  39.4836411  65.9378967  11.2656590  38.0467351
  70.4483647   5.5013409  44.5735980  70.9923551   6.1143367  44.0790935
  69.8670492   6.0592988  45.0902993  56.8255082  -3.0973137  28.9000599
  57.1208523  -4.0062458  28.8467653  55.9243117  -3.1185397  28.5781602
  68.7341160   8.6234127  35.7051008  68.6092300   7.8223867  35.1961953
  69.3920252   9.1180321  35.2164978  70.7976069   6.4243147  37.3330558
  69.8506404   6.3048499  37.2608885  71.1458842   5.5365645  37.4156819
  67.8022502   6.2195864  33.5334910  67.6547465   5.2912571  33.7142480
  68.6275996   6.2415954  33.0491985  71.4056624   7.0424422  34.6199783
  72.3303171   6.8367284  34.4824234  71.2371927   6.7940823  35.5289124
  71.1951940   7.5610090  29.9761874  71.3688818   6.9956512  29.2235727
  71.6880831   8.3610985  29.7941364  57.0128900  -0.4275241  38.0425433
  56.4682368   0.3484567  38.1745708  57.8908250  -0.0804437  37.8844555
  72.1827113   6.8776854  27.0758773  72.8778017   7.4983547  27.2946087
  72.5250263   6.0272205  27.3511151  57.7994922  -1.3005345  40.9355590
  57.0576658  -1.1522710  41.5220220  57.4787666  -1.0397079  40.0722339
  74.0818536   4.3276560  28.6046103  74.6069860   4.6663832  27.8795423
  73.9940888   3.3923575  28.4209238  65.7438584   8.2410633  40.7335980
  66.0525711   7.9959780  41.6058680  66.5414066   8.4457272  40.2454850
  65.7659197  10.3948543  32.9641357  65.3264187   9.9024922  33.6574213
  66.5167313   9.8521511  32.7233432  58.2451536   6.5860084  32.9665985
  59.0709555   6.2863856  32.5864628  57.8945587   5.8167706  33.4155773
  63.2133069   5.9386552  35.0363658  62.5913078   5.2757257  34.7365886
  63.8837936   5.9647684  34.3537306  56.4460141   4.5046410  33.9254918
  55.6092049   4.0768585  33.7438920  56.4183786   4.6978854  34.8625709
  73.7712442   4.9609463  43.9097301  72.9807986   4.9433602  43.3701801
  73.5345796   5.4997757  44.6646338  62.7746576   4.4890475  28.5122119
  62.9234696   5.1725940  27.8588792  63.5813019   4.4695565  29.0271575
  75.3928514   4.2298871  41.4672051  75.1013322   4.5928852  42.3035512
  74.7800645   3.5165879  41.2885384  60.5299209   0.5155653  29.5183188
  60.2845250  -0.3882017  29.7163398  60.6995123   0.5172803  28.5762666
  66.2741981   6.9838606  25.9833866  65.7015948   7.6028793  25.5304338
  66.8474775   7.5337967  26.5173788  69.4939241   7.2675756  27.1142449
  70.4269914   7.2021318  27.3175324  69.4062454   8.1032023  26.6556981
  72.1227258   6.5841626  24.0746396  72.0440889   6.2501490  24.9682154
  72.9436924   7.0763394  24.0737868  66.5427472   2.3717165  44.7850576
  67.4630482   2.5495764  44.9790622  66.5077055   1.4273210  44.6330275
  55.7609637  -2.4344242  33.7103850  55.4412421  -3.2878933  33.4178224
  55.2143065  -2.2195663  34.4661818  59.5389545   0.2818199  37.4273357
  59.7575554   1.2135307  37.4461391  59.9515319  -0.0773826  38.2128161
  55.6297897   1.1858670  35.6796972  54.9361369   0.7712623  35.1666926
  56.3770888   1.2279206  35.0830391  64.2748680  -0.7151456  45.6341167
  63.7915762   0.0848904  45.8405057  64.3609619  -0.7043511  44.6808611
  57.5434640   1.1176924  33.5562987  57.5205328   1.2164611  32.6044870
  57.8535276   1.9642074  33.8780153  60.2022018   3.1753079  37.6709601
  61.1565271   3.1437021  37.6039533  60.0034541   2.7143702  38.4859827
  60.7921400   1.7454195  40.2380399  61.6114289   2.2398273  40.2615236
  61.0658207   0.8286163  40.2097966  58.5572246   8.7172698  34.6879799
  58.4226714   7.9573099  34.1217797  58.1404309   9.4413598  34.2208588
  69.6931209   3.9009622  23.6956374  70.3967059   4.1059624  24.3114030
  68.9693858   4.4686384  23.9605458  61.7141372   9.6142015  34.8998242
  61.5973756  10.5587448  34.7976932  60.8933818   9.3115577  35.2884041
  71.6017907   4.3392151  25.7454834  72.4363511   3.9073349  25.5632309
  71.4402250   4.1674165  26.6731729  71.2563799   0.8424264  27.1111174
  71.2012603   0.6768536  26.1699618  70.6309854   1.5500297  27.2673363
  56.0456314  -3.9207671  40.9372596  56.6915178  -4.4308717  41.4259821
  55.8373465  -3.1838990  41.5116021  68.5709706   3.1473176  46.4364737
  69.4400866   3.3213828  46.0751371  68.0916458   3.9667593  46.3140466
  62.7395886  10.2670277  38.1154170  63.6423133  10.2993887  38.4320665
  62.5133256   9.3370728  38.1300506  64.4949488   9.0201264  34.7764249
  63.5445119   9.0203125  34.6628621  64.7981974   8.2733998  34.2600283
  80.2302182  14.8561802  35.8410011  80.8680592  14.7368549  35.1373351
  80.1123025  15.8042646  35.8997963  77.0391888  14.8089230  35.7771536
  76.7010400  14.6930295  34.8892071  77.9081656  14.4080395  35.7572542
  72.8978704  16.6624707  31.7668427  72.3343569  16.5714643  30.9984715
  72.7831099  15.8424611  32.2470919  77.5211671  15.9624082  41.7357741
  77.5100312  15.5676880  40.8638245  77.6832311  15.2290154  42.3291513
  70.4443136  18.1575898  34.6052647  71.2364428  17.8166723  34.1898947
  70.6839786  18.2670873  35.5254801  78.4778263  20.3295674  27.0782892
  77.8266242  20.9149755  26.6916906  79.2722625  20.8601869  27.1377929
  72.4033890  17.4184811  27.4770026  73.1764766  16.8713798  27.3382902
  72.7559289  18.2829061  27.6884488  74.2418932  18.7461194  40.6836925
  73.9508798  19.6506824  40.5683592  74.8775917  18.7877721  41.3980995
  75.1675139  16.1238042  37.2738285  75.7638711  15.8994065  36.5595248
  75.2250111  15.3822788  37.8763733  74.7400168  13.5777477  25.1088476
  74.9925688  13.0558999  24.3471939  73.8024727  13.4143623  25.2115160
  79.7843450  12.5813256  32.9163219  80.5706540  12.1632679  32.5653636
  80.0482155  13.4859348  33.0844868  79.9553528  18.0186106  27.6151876
  79.3199361  18.0920733  28.3272781  79.6250934  18.6079705  26.9370955
  85.1851877  12.5188489  33.8196198  85.9177049  11.9487706  34.0534027
  84.4291233  12.1310089  34.2602703  74.4596456  15.4805583  27.3112851
  74.3432714  14.8050487  27.9793935  74.5698716  14.9937957  26.4945004
  76.8027997  14.9415731  31.0159540  76.4386204  14.4146352  31.7272462
  77.6595113  14.5514200  30.8426026  82.7077298   6.2310063  38.2790806
  82.3760623   7.1005474  38.0552021  82.1122911   5.9146347  38.9584837
  76.4433484   9.9705630  26.0120889  76.6107887  10.8385867  26.3791360
  76.2530653  10.1332912  25.0882178  79.2008817  18.4322609  37.6786719
  78.9009540  19.3347648  37.5702526  78.8559877  18.1654792  38.5307872
  72.6521299  14.8836406  33.7123424  71.7271795  14.7512620  33.9201115
  72.9005712  15.6630625  34.2093366  82.6005961  10.9505149  35.3584156
  81.6922838  10.8820558  35.0642917  82.5493557  11.4277094  36.1865982
  76.4222705  12.4263288  26.9967556  76.3022330  12.8720339  27.8353036
  75.7275293  12.7748605  26.4381094  70.0130110  14.5269680  34.5467213
  70.1422491  14.7804158  35.4606624  69.3327561  15.1197388  34.2271868
  74.1829597  25.1966929  30.6457687  74.1053627  26.1474755  30.7246167
  73.5791241  24.8512802  31.3032613  76.6746827  12.3694795  43.3019054
  75.8980161  12.9288715  43.2921918  77.3137390  12.8551578  43.8233924
  84.4667608   9.1521588  37.1362030  83.8241988   9.4454121  36.4901825
  83.9622536   9.0374508  37.9415227  82.1207771  12.8984761  27.8247890
  83.0325627  13.1312148  27.6495587  81.6117418  13.4821805  27.2622968
  74.9293199  15.1780248  42.8637021  75.6707884  15.7165292  42.5871844
  74.2230185  15.8046537  43.0208572  80.4048539  17.3209389  41.4609182
  80.8131895  16.8791799  40.7163815  79.6825800  16.7462016  41.7143375
  76.7579609  12.2581996  38.8342739  77.6040804  12.6821409  38.9777388
  76.6978247  11.6015620  39.5281302  80.7277354  17.8810579  35.2161471
  80.0986216  18.0456293  34.5137539  80.3403016  18.2952189  35.9872435
  84.6066585  18.8165017  32.5705835  83.9217624  19.1963919  32.0202868
  84.6910435  19.4260344  33.3037783  79.9079054   9.9186364  40.4923913
  79.6639986  10.6728424  39.9558188  80.1838985  10.2971711  41.3271160
  81.8617517  16.4624976  39.1701178  82.0734412  17.1056736  38.4935559
  81.8147265  15.6287293  38.7023108  79.4643746   9.0742797  36.0737750
  78.6028225   9.3724050  36.3654488  79.4906181   9.2913196  35.1418783
  76.2805315  17.6184987  32.4811556  76.7443661  17.8972690  31.6916179
  76.0162113  16.7168432  32.2984647  73.1729396  17.1656469  35.4191319
  73.7430754  17.5943737  34.7808804  73.7637508  16.8839054  36.1175505
  75.2174201  13.7408140  29.2901121  75.9198245  14.1929183  29.7575048
  74.8854830  13.0991959  29.9181014  73.6654563  12.3319896  43.6652331
  73.0353224  13.0136177  43.8987728  73.5590651  12.2202978  42.7205469
  68.9599535  11.9991692  34.5918255  68.1698589  12.2549221  34.1158365
  69.4510783  12.8140030  34.6970295  82.9763345  19.3396932  37.3423536
  83.7980789  18.9377119  37.0606217  82.9725748  19.2365166  38.2939651
  70.9114281  12.3636272  31.5501732  70.1145444  12.4754966  32.0685227
  70.6839873  12.7022924  30.6842622  76.7419948  18.8880975  39.4984246
  76.8064381  19.3501382  40.3342418  76.0330872  18.2578340  39.6266556
  67.2437238  12.2522183  37.0233246  67.4945277  13.1369193  37.2890822
  67.7796787  12.0726784  36.2508337  91.0669338  15.6835680  33.6908507
  90.3133046  15.1143078  33.5352512  91.2016879  15.6498345  34.6379142
  76.4567966  20.5549082  29.3663227  76.3213641  21.4000618  29.7948074
  76.9977779  20.7568360  28.6029160  72.9435306   6.6340662  46.0277582
  72.5502251   6.0806861  46.7025226  73.7601446   6.9451241  46.4184099
  69.9097363  18.0724520  29.9391152  70.4221884  18.8667771  30.0896716
  70.5620076  17.3750811  29.8724753  71.7192248  21.1890277  32.0213905
  71.8958876  22.1108241  31.8334889  72.5149082  20.8748696  32.4508285
  75.8603267   8.0498541  43.6197838  76.6012980   8.6505695  43.5402301
  76.0921190   7.3076179  43.0615881  71.0044605  13.2354909  41.8976068
  70.8898120  12.3340166  42.1983167  70.1489122  13.4818605  41.5460885
  78.0836442  21.1772649  43.4963569  77.6400297  20.3909028  43.1784473
  78.7453656  21.3651799  42.8307459  72.8423564  22.7068451  38.0224247
  73.3930989  22.5785514  37.2501241  72.0035040  23.0063340  37.6719140
  80.1817680  21.4575449  41.5244970  80.1636156  22.2784330  41.0325239
  81.1037601  21.3329524  41.7495111  76.6390735  18.9719578  42.3668478
  77.1719071  18.2107867  42.1367786  76.1104816  18.6793230  43.1092633
  79.8060430   4.0779644  37.8962120  79.4624699   4.9681286  37.8201231
  80.1739392   3.8881302  37.0331705  67.8746280  16.4013175  30.7150722
  68.7121502  16.8110183  30.4984430  68.0524548  15.4612617  30.6850916
  79.7710712  14.0688255  26.4034555  79.2557336  14.8392860  26.6422943
  79.4988021  13.3953392  27.0267617  77.3557823   8.9137956  31.4619793
  76.4999420   8.5244807  31.2825432  77.7684775   8.9929917  30.6019579
  78.8856970   6.4484299  35.8611353  78.3821766   6.4114435  35.0479159
  79.1787577   7.3577042  35.9208010  75.1299856   6.5323029  34.8677535
  75.9952853   6.3365838  34.5083424  75.1977365   6.3033381  35.7946892
  84.7444986  16.8220610  28.3387729  83.9674429  16.4831770  27.8942891
  85.4236467  16.8273233  27.6642694  79.5597016  11.9415348  28.2294336
  79.2547151  12.2561497  29.0804479  80.5127458  12.0196767  28.2721669
  78.0043447  18.1005571  29.8787290  77.4764809  17.3658330  29.5660528
  77.5030950  18.8780247  29.6327259  82.9836293  16.2954591  34.9954337
  82.3259968  16.9853853  35.0834465  83.7876693  16.6851023  35.3388323
  72.7362175   8.7625237  32.2393902  73.3105927   8.5400419  31.5067095
  73.3233157   8.8313932  32.9922503  81.7941752  14.6498964  33.0458278
  82.3073634  15.2828956  33.5479988  82.4442976  14.0500160  32.6801638
  73.0631762  10.7929698  26.2589787  72.2269074  11.1304385  26.5799062
  72.9236532  10.6578678  25.3216924  75.0384843   5.6366486  30.9668971
  74.3849255   5.3215503  30.3425586  74.9965317   5.0142226  31.6928794
  76.1496048  15.9185781  22.8822263  75.2423109  15.6875035  23.0813412
  76.6467080  15.1223400  23.0696245  79.0564126  24.6283288  25.8018949
  78.3825825  24.9314985  26.4103907  79.4429948  25.4312369  25.4524407
  78.2722583  12.1248420  35.2916619  77.3545144  12.3463367  35.1338307
  78.6882727  12.1994730  34.4328326  79.0557631  13.5239835  30.4219299
  79.8029450  14.0361232  30.1126421  79.3249220  13.2023888  31.2823693
  77.3284281  16.0198376  27.4046253  76.4195500  15.7357409  27.5018723
  77.3579365  16.4397455  26.5449560  82.5603548  19.6304965  31.1737421
  82.1065875  18.7895875  31.2302611  81.9297515  20.2666364  31.5112201
  81.5036468  10.5596952  32.4038088  80.7659225  10.0474338  32.7348331
  81.7563241  10.1197333  31.5921365  81.0036488  21.4681462  32.1087239
  81.2959462  22.0286519  31.3899605  81.5135108  21.7610023  32.8640398
  67.8972451  13.7403890  31.3861456  67.6996851  13.1473251  30.6612522
  67.3419115  13.4356100  32.1037394  75.8769175  13.6326997  33.5056049
  75.9317785  12.6800833  33.4298525  75.0660377  13.7886436  33.9897347
  77.0260369  17.5607120  24.7434332  76.5879799  16.8442979  24.2839969
  77.7670810  17.7883234  24.1819423  73.8161535  12.2504056  31.2646428
  73.0029400  12.5498227  31.6711620  74.3120529  11.8559745  31.9820910
  75.9670113  22.2461813  33.1980692  75.9246292  22.4722660  32.2689224
  76.8832812  22.0125188  33.3466493  79.4135747  12.7145881  40.0961322
  79.7685134  12.9417354  40.9555787  80.0607878  13.0464258  39.4738577
  85.1433484  15.8364317  30.8010651  85.0051382  16.0265913  29.8731840
  84.7869702  16.5983700  31.2578702  73.3075610   9.8222412  36.8807663
  73.9474989   9.6811171  36.1830626  72.4753140   9.5356925  36.5046265
  85.1702863  17.9040844  35.8121922  85.6039370  17.8116133  36.6604976
  85.8834444  17.8798344  35.1741938  74.0835914  19.1224842  32.9942655
  74.8776512  18.6275162  32.7925230  73.3727606  18.5942705  32.6310361
  78.9030758  21.5042938  37.3455023  78.9567780  22.0733874  38.1132739
  78.0345539  21.6744823  36.9809060  70.3918677  13.2667924  29.0702408
  69.4616265  13.2052379  29.2872370  70.4876149  12.7443877  28.2739049
  70.3104226   9.7922737  31.6580649  70.5711043  10.7068070  31.5489810
  71.1321398   9.3247179  31.8077262  71.7829151  11.2060494  38.8279474
  72.4552205  10.9977856  38.1792123  70.9558938  11.0082580  38.3884706
  86.0318413  17.9464544  38.3454807  86.2254303  18.8510355  38.5914082
  85.9319031  17.4871963  39.1793392  77.6854723   7.8322435  40.8445135
  77.0382639   8.5312385  40.7509611  78.4555739   8.2658579  41.2121383
  81.0933521  18.0971287  43.9195688  80.9419028  17.8681839  43.0025772
  81.0838201  19.0541889  43.9327033  77.8618858  15.6703200  38.9041954
  78.7910918  15.8214359  38.7310922  77.4409888  15.7587221  38.0490601
  76.6607190  19.6953864  36.6740492  76.5218275  19.3272649  37.5466430
  75.8721786  20.2101504  36.5024450  77.2555342  24.7962961  28.0166029
  77.4307097  24.3251004  28.8311651  76.5688130  25.4228727  28.2447289
  78.2112405  19.0735467  34.0629330  77.8762237  19.0336237  34.9586980
  77.7116350  18.4080183  33.5899740  72.1856649  14.4803097  39.5881911
  72.0476447  13.7483336  40.1893450  73.0961572  14.3911997  39.3066099
  81.1471596  16.4191501  24.3366390  80.5300767  15.6938329  24.2399442
  80.6788085  17.1800862  23.9933464  74.8138949  14.1923056  39.0765591
  75.5238568  13.5516249  39.0352209  74.7708258  14.4435951  39.9991771
  73.5267883  11.1788274  40.8961230  72.9905240  10.7279013  41.5482827
  72.9384592  11.3134183  40.1531695  71.8216427  27.9452323  34.7905889
  72.0613025  28.5770848  35.4684907  70.9785623  27.5940364  35.0771248
  72.9370142  10.6376926  23.4587694  72.0599609  10.5165726  23.0949941
  73.4127895   9.8463004  23.2066582  82.8043135  19.0929994  40.2286150
  81.9169914  18.7555915  40.3512548  83.3741686  18.3613025  40.4654915
  64.4572282  15.4254085  33.5529201  65.1443322  15.1115815  32.9650216
  64.3020411  16.3295450  33.2796452  69.2607005  10.3144282  37.9814225
  69.1765193   9.7069951  37.2464635  68.4389711  10.8053300  37.9823721
  76.3344289  23.7531446  37.1947393  76.2614460  24.5586417  37.7066697
  75.8921682  23.9523412  36.3695414  76.1234068  22.9903216  30.7050214
  75.3401590  23.5324896  30.7988439  76.8226814  23.5077196  31.1044456
  79.4330718   8.7997845  33.3484420  79.9299418   8.0467808  33.0285490
  78.6617700   8.8362162  32.7827629  87.2860476  14.5038211  34.9902711
  87.2750352  15.3862926  34.6196644  86.4177855  14.1509762  34.7957248
  78.7942972  23.6518280  39.3505551  79.5070944  24.2865745  39.2781453
  78.3033001  23.7482146  38.5345553  80.5160499  17.5569533  30.9222843
  79.5816778  17.6770995  30.7527547  80.6937168  16.6541999  30.6582853
  76.0165687  10.9415228  33.0756104  75.6463475  10.3886269  33.7637010
  76.5124780  10.3373362  32.5231104  83.9033050  13.3986852  31.4572877
  84.3693503  14.2314844  31.3833180  84.3540551  12.9331833  32.1618136
  73.8454886  21.4012723  40.1711122  74.5464345  22.0349206  40.3240516
  73.3750001  21.7427455  39.4106762  81.9709282  19.7430673  28.4559029
  82.2469126  19.6287268  29.3652903  81.1013780  19.3448158  28.4171202
  81.8749713   5.7667439  35.4963779  80.9612793   5.9971666  35.6645986
  82.3042815   5.8505883  36.3477811  81.6456172  13.9557331  37.9963673
  80.9927622  14.2033238  37.3416125  82.0236552  13.1421469  37.6626150
  78.6063346  23.9917024  32.0991843  78.7885740  23.1738680  32.5619595
  79.4296332  24.2084716  31.6616733  78.9405511  22.9185209  29.3606891
  79.4693278  22.4077664  28.7477054  79.2033731  22.6027739  30.2252424
  77.6943745  14.6977142  44.4829710  77.0184382  14.5971271  45.1532085
  78.5171379  14.5416356  44.9465707  69.4422604  20.9349078  37.1042225
  70.0276041  20.1892766  37.2370129  69.2447442  21.2453035  37.9878889
  72.2961259  23.9700326  32.1204667  71.6271634  24.4546453  31.6368707
  72.1574129  24.2169546  33.0348046  64.0340259  13.5054679  35.8246668
  64.0724358  12.9718269  36.6183786  63.5280551  12.9789884  35.2057645
  71.4131021   8.3519219  39.3209210  71.4772347   9.2134050  38.9086608
  71.3498141   7.7393221  38.5881569  70.8883293  10.4242352  42.9682245
  71.5155332  10.0419429  43.5819769  70.0311212  10.2056554  43.3337937
  67.6648836  12.2318781  28.9000599  67.9602277  11.3229459  28.8467653
  66.7636872  12.2106520  28.5781602  71.1943083  10.3074777  34.8828148
  70.4729669  10.9210745  34.7435621  71.9836339  10.8432542  34.8044794
  73.9969397   7.6429204  41.1568800  74.5203798   7.8891500  41.9195109
  73.7781730   8.4749239  40.7371937  69.3936678   9.9132878  29.0239925
  69.0649384   9.0330257  28.8415031  69.7476048   9.8580547  29.9116314
  78.6416257  21.5487781  33.5334910  78.4941219  20.6204489  33.7142480
  79.4669750  21.5707872  33.0491985  72.5078501  10.2005848  29.3915402
  72.8474573  10.7291770  28.6694011  72.9550621  10.5386254  30.1673969
  75.2021942   8.5842899  38.8418470  74.8618762   7.7850712  39.2439150
  74.4960948   8.8844610  38.2695304  75.8538414   5.6692211  37.2945793
  76.6764483   5.1952690  37.1724684  76.0976477   6.4482695  37.7944480
  74.4946648   8.6980470  27.5908695  75.2155011   9.0761723  27.0872412
  73.8711952   9.4169347  27.6943673  78.6377771   9.4025619  28.5267027
  78.8541385  10.2850257  28.2255856  78.1571838   9.0111832  27.7972669
  73.3776992  12.3611332  35.1037772  73.2321573  12.6751635  35.9962054
  72.9002196  12.9796232  34.5508671  75.2373375   9.3513880  35.1518662
  75.2234944   8.4554973  34.8150960  75.9545803   9.3584544  35.7856948
  77.0899506   9.7851220  37.1971789  76.8317284  10.7068291  37.1956119
  76.5584546   9.3881655  37.8872253  82.0345695  22.8902007  29.9761874
  82.2082572  22.3248430  29.2235727  82.5274586  23.6902902  29.7941364
  67.8522654  14.9016676  38.0425433  67.3076123  15.6776484  38.1745708
  68.7302004  15.2487481  37.8844555  74.6410271   8.2328260  30.4206232
  74.7626182   7.3044907  30.6197119  74.3512313   8.2466946  29.5084547
  77.5101461   5.9183171  33.5572952  77.5323158   5.9822504  32.6024931
  77.9269521   5.0787679  33.7513458  87.8885086  15.6538430  31.5952174
  88.3316232  14.9045756  31.1971297  87.0111596  15.6448567  31.2125906
  83.0220867  22.2068772  27.0758773  83.7171772  22.8275464  27.2946087
  83.3644017  21.3564123  27.3511151  68.6388676  14.0286573  40.9355590
  67.8970412  14.1769208  41.5220220  68.3181421  14.2894838  40.0722339
  84.9212290  19.6568477  28.6046103  85.4463614  19.9955750  27.8795423
  84.8334643  18.7215493  28.4209238  76.6052951  25.7240461  32.9641357
  76.1657941  25.2316839  33.6574213  77.3561068  25.1813428  32.7233432
  69.0845290  21.9152001  32.9665985  69.9103310  21.6155773  32.5864628
  68.7339342  21.1459624  33.4155773  74.0526823  21.2678470  35.0363658
  73.4306832  20.6049175  34.7365886  74.7231690  21.2939602  34.3537306
  67.2853895  19.8338328  33.9254918  66.4485803  19.4060502  33.7438920
  67.2577540  20.0270771  34.8625709  74.1251351   9.7460258  44.6296164
  74.1739506  10.6222381  44.2473934  74.6673865   9.2037651  44.0567808
  84.7304071  17.1393847  41.2230030  84.7802076  16.9743855  42.1645553
  84.6217995  16.2721106  40.8327911  73.6140330  19.8182393  28.5122119
  73.7628450  20.5017857  27.8588792  74.4206774  19.7987483  29.0271575
  82.0207834  13.1224775  42.5389337  82.9217697  12.9831240  42.2473334
  82.0955808  13.2879230  43.4787514  76.3550639  10.4991630  41.3842523
  75.4853949  10.7925196  41.1125112  76.5910119  11.0832075  42.1049787
  86.2322268  19.5590789  41.4672051  85.9407077  19.9220769  42.3035512
  85.6194399  18.8457797  41.2885384  87.4317951  17.1243669  33.9874622
  88.2664842  17.5633473  34.1512182  87.5677079  16.6482322  33.1682867
  84.4809456  14.6823403  39.9352109  84.9563578  14.8751050  39.1270961
  83.5575022  14.7382589  39.6895493  71.3692963  15.8447571  29.5183188
  71.1239005  14.9409901  29.7163398  71.5388878  15.8464721  28.5762666
  79.0589673   6.7171247  38.9007943  79.5771617   7.4532274  38.5754432
  78.7044806   7.0235240  39.7354702  70.6388611  11.5775928  27.0169349
  69.9457856  11.6520283  26.3609385  70.3940362  10.8136272  27.5390866
  77.1135736  22.3130523  25.9833866  76.5409703  22.9320711  25.5304338
  77.6868529  22.8629885  26.5173788  83.1811125  11.5589164  38.1680415
  84.1328548  11.6587261  38.1892639  83.0114576  10.7667432  38.6778499
  81.2025505   8.6444747  38.3539816  80.6075437   8.9249760  37.6586305
  80.9175202   9.1338648  39.1256557  80.3332995  22.5967674  27.1142449
  81.2663669  22.5313235  27.3175324  80.2456208  23.4323940  26.6556981
  82.9621012  21.9133544  24.0746396  82.8834644  21.5793408  24.9682154
  83.7830679  22.4055312  24.0737868  85.6599203  14.7795283  37.2822715
  85.6275523  13.8411284  37.4682399  86.2699827  14.8579320  36.5488540
  77.4982534  13.6491336  23.3249919  78.4441639  13.5197544  23.3938337
  77.1196779  12.9105998  23.8019347  85.8093692  11.5706327  37.3280998
  85.2932740  10.7864783  37.1410927  86.6933640  11.2425043  37.4927517
  83.4704419   5.3147342  33.2876811  83.2729240   5.0062430  34.1720143
  84.0804124   6.0408981  33.4174740  91.4775753  15.8411290  36.4228752
  92.2079142  15.5796578  36.9836455  90.8682699  15.1040012  36.4630819
  89.5591050  13.9819153  37.0203203  88.8324214  13.8475118  36.4119694
  89.1438337  14.2895981  37.8259921  77.3821227  17.7009082  44.7850576
  78.3024236  17.8787681  44.9790622  77.3470810  16.7565128  44.6330275
  75.6825451  11.5741313  23.2604804  74.7756907  11.2774425  23.3367518
  75.9601432  11.2771131  22.3939090  66.6003392  12.8947676  33.7103850
  66.2806176  12.0412984  33.4178224  66.0536820  13.1096254  34.4661818
  70.3783299  15.6110117  37.4273357  70.5969309  16.5427225  37.4461391
  70.7909073  15.2518091  38.2128161  77.2987517   6.1178202  29.4149045
  76.4888245   5.7725287  29.7904291  77.9871934   5.8085746  30.0036657
  79.2278065   5.1956249  31.0373342  79.7809104   5.6151703  31.6963365
  79.4648152   4.2691997  31.0796298  75.2511164  11.1843323  46.8176106
  75.1507891  12.1337680  46.7488197  75.0332707  10.8561562  45.9452176
  74.4524236   8.4328248  23.4016783  75.3143400   8.7583146  23.6612601
  74.6374580   7.6459744  22.8889849  66.4691652  16.5150588  35.6796972
  65.7755123  16.1004540  35.1666926  67.2164643  16.5571124  35.0830391
  82.6056872   7.3056774  30.5452006  82.0255541   7.9641578  30.1630059
  82.3392805   6.4834119  30.1339424  81.0560439   6.7061832  32.7473326
  81.5560217   6.8178367  31.9387645  81.6996047   6.4022885  33.3874135
  75.1142435  14.6140462  45.6341167  74.6309516  15.4140822  45.8405057
  75.2003374  14.6248406  44.6808611  68.3828394  16.4468841  33.5562987
  68.3599082  16.5456529  32.6044870  68.6929031  17.2933992  33.8780153
  71.0415772  18.5044996  37.6709601  71.9959026  18.4728939  37.6039533
  70.8428296  18.0435620  38.4859827  71.6315154  17.0746112  40.2380399
  72.4508043  17.5690191  40.2615236  71.9051962  16.1578081  40.2097966
  81.3881750   9.4656865  29.6008354  80.5007605   9.7506515  29.3828549
  81.8035739   9.3050628  28.7535631  84.7396287   9.4903386  33.3162694
  85.5156677   9.9799838  33.5887311  84.0144421   9.9161440  33.7734563
  87.1768845  10.2031005  34.3736634  87.7713336   9.9626741  33.6629943
  87.2495429   9.4838135  35.0010171  69.3966001  24.0464616  34.6879799
  69.2620469  23.2865017  34.1217797  68.9798063  24.7705516  34.2208588
  80.5324964  19.2301539  23.6956374  81.2360814  19.4351542  24.3114030
  79.8087613  19.7978301  23.9605458  81.3622774  14.9811401  29.8158645
  81.3057976  15.4379952  28.9766277  81.9151117  14.2202085  29.6381487
  85.1727580  10.7701132  30.6408764  84.9164514  10.3697768  31.4716972
  84.5480448  11.4844926  30.5158903  89.4839918  13.5097206  33.1480055
  88.9239476  13.5790395  33.9211618  88.8783421  13.3338190  32.4279552
  72.5535127  24.9433933  34.8998242  72.4367511  25.8879365  34.7976932
  71.7327573  24.6407494  35.2884041  82.4411661  19.6684069  25.7454834
  83.2757265  19.2365267  25.5632309  82.2796004  19.4966082  26.6731729
  82.0957553  16.1716182  27.1111174  82.0406357  16.0060453  26.1699618
  81.4703609  16.8792215  27.2673363  66.8850068  11.4084246  40.9372596
  67.5308932  10.8983200  41.4259821  66.6767220  12.1452928  41.5116021
  79.4103461  18.4765094  46.4364737  80.2794620  18.6505746  46.0751371
  78.9310212  19.2959511  46.3140466  75.4053679   5.6724291  26.6896492
  75.3932349   6.6166131  26.8464763  76.2977101   5.4894436  26.3955953
  75.3343243  24.3493181  34.7764249  74.3838874  24.3495043  34.6628621
  75.6375729  23.6025916  34.2600283  71.2247559   8.5551863  45.0347610
  72.0879021   8.1988668  45.2450935  70.6512970   8.2165758  45.7223014
  83.2427644  32.7476729  27.4770026  84.0158520  32.2005716  27.3382902
  83.5953043  33.6120978  27.6884488  85.5793922  28.9069395  25.1088476
  85.8319443  28.3850916  24.3471939  84.6418481  28.7435541  25.2115160
  96.0245632  27.8480407  33.8196198  96.7570804  27.2779624  34.0534027
  95.2684988  27.4602007  34.2602703  85.2990211  30.8097501  27.3112851
  85.1826469  30.1342404  27.9793935  85.4092471  30.3229875  26.4945004
  87.2827239  25.2997548  26.0120889  87.4501641  26.1677784  26.3791360
  87.0924408  25.4624830  25.0882178  92.9601526  28.2276679  27.8247890
  93.8719382  28.4604065  27.6495587  92.4511173  28.8113723  27.2622968
 101.9063092  31.0127598  33.6908507 101.1526801  30.4434996  33.5352512
 102.0410634  30.9790262  34.6379142  90.6454184  19.4071562  37.8962120
  90.3018454  20.2973204  37.8201231  91.0133147  19.2173220  37.0331705
  90.6104467  29.3980173  26.4034555  90.0951090  30.1684778  26.6422943
  90.3381775  28.7245309  27.0267617  89.7250724  21.7776217  35.8611353
  89.2215520  21.7406352  35.0479159  90.0181331  22.6868960  35.9208010
  85.9693610  21.8614947  34.8677535  86.8346607  21.6657756  34.5083424
  86.0371119  21.6325299  35.7946892  95.5838741  32.1512528  28.3387729
  94.8068184  31.8123687  27.8942891  96.2630222  32.1565151  27.6642694
  83.5755929  24.0917155  32.2393902  84.1499681  23.8692336  31.5067095
  84.1626912  24.1605849  32.9922503  83.9025517  26.1221616  26.2589787
  83.0662829  26.4596302  26.5799062  83.7630286  25.9870596  25.3216924
  85.8778597  20.9658404  30.9668971  85.2243010  20.6507421  30.3425586
  85.8359071  20.3434144  31.6928794  86.9889802  31.2477699  22.8822263
  86.0816864  31.0166952  23.0813412  87.4860834  30.4515318  23.0696245
  88.1678035  31.3490294  27.4046253  87.2589255  31.0649326  27.5018723
  88.1973119  31.7689372  26.5449560  92.4441850  18.6665121  32.9979858
  92.7500727  17.8062485  32.7105773  93.1694455  19.2582741  32.7978852
  87.8654123  32.8899037  24.7434332  87.4273553  32.1734896  24.2839969
  88.6064564  33.1175152  24.1819423  95.9827238  31.1656234  30.8010651
  95.8445137  31.3557830  29.8731840  95.6263457  31.9275617  31.2578702
  81.2312432  28.5959842  29.0702408  80.3010020  28.5344297  29.2872370
  81.3269904  28.0735794  28.2739049  81.1497981  25.1214655  31.6580649
  81.4104798  26.0359988  31.5489810  81.9715153  24.6539097  31.8077262
  91.9865351  31.7483419  24.3366390  91.3694522  31.0230247  24.2399442
  91.5181839  32.5092779  23.9933464  83.7763897  25.9668843  23.4587694
  82.8993363  25.8457644  23.0949941  84.2521650  25.1754922  23.2066582
  98.1254230  29.8330129  34.9902711  98.1144107  30.7154844  34.6196644
  97.2571610  29.4801679  34.7957248  94.7426805  28.7278770  31.4572877
  95.2087257  29.5606761  31.3833180  95.1934305  28.2623751  32.1618136
  92.7143468  21.0959357  35.4963779  91.8006548  21.3263583  35.6645986
  93.1436569  21.1797801  36.3477811  78.5042591  27.5610699  28.9000599
  78.7996032  26.6521377  28.8467653  77.6030626  27.5398438  28.5781602
  80.2330432  25.2424796  29.0239925  79.9043138  24.3622175  28.8415031
  80.5869803  25.1872465  29.9116314  83.3472255  25.5297766  29.3915402
  83.6868328  26.0583687  28.6694011  83.7944376  25.8678172  30.1673969
  86.6932168  20.9984129  37.2945793  87.5158237  20.5244607  37.1724684
  86.9370232  21.7774613  37.7944480  85.3340403  24.0272388  27.5908695
  86.0548765  24.4053640  27.0872412  84.7105707  24.7461264  27.6943673
  85.4804026  23.5620178  30.4206232  85.6019937  22.6336824  30.6197119
  85.1906068  23.5758864  29.5084547  88.3495216  21.2475088  33.5572952
  88.3716913  21.3114422  32.6024931  88.7663275  20.4079597  33.7513458
  98.7278840  30.9830348  31.5952174  99.1709986  30.2337673  31.1971297
  97.8505351  30.9740484  31.2125906  93.8614622  37.5360689  27.0758773
  94.5565526  38.1567382  27.2946087  94.2037772  36.6856041  27.3511151
  81.4782365  26.9067846  27.0169349  80.7851610  26.9812201  26.3609385
  81.2334117  26.1428190  27.5390866  90.1496022  18.4663447  34.4208840
  90.4297775  17.7986636  35.0469266  90.9346629  18.6592543  33.9083504
  93.8014767  37.2425462  24.0746396  93.7228398  36.9085325  24.9682154
  94.6224433  37.7347230  24.0737868  88.3376289  28.9783254  23.3249919
  89.2835393  28.8489462  23.3938337  87.9590534  28.2397916  23.8019347
  96.6487446  26.8998244  37.3280998  96.1326495  26.1156701  37.1410927
  97.5327395  26.5716961  37.4927517  94.3098173  20.6439260  33.2876811
  94.1122994  20.3354348  34.1720143  94.9197879  21.3700899  33.4174740
 102.3169508  31.1703208  36.4228752 103.0472896  30.9088496  36.9836455
 101.7076453  30.4331930  36.4630819  86.5219206  26.9033230  23.2604804
  85.6150661  26.6066343  23.3367518  86.7995187  26.6063048  22.3939090
  88.1381271  21.4470120  29.4149045  87.3282000  21.1017205  29.7904291
  88.8265688  21.1377664  30.0036657  90.0671820  20.5248167  31.0373342
  90.6202858  20.9443620  31.6963365  90.3041906  19.5983915  31.0796298
  85.2917990  23.7620166  23.4016783  86.1537154  24.0875064  23.6612601
  85.4768335  22.9751661  22.8889849  93.4450627  22.6348692  30.5452006
  92.8649296  23.2933496  30.1630059  93.1786560  21.8126037  30.1339424
  91.8954193  22.0353750  32.7473326  92.3953972  22.1470284  31.9387645
  92.5389801  21.7314803  33.3874135  95.5790041  24.8195303  33.3162694
  96.3550431  25.3091756  33.5887311  94.8538175  25.2453358  33.7734563
  98.0162600  25.5322923  34.3736634  98.6107090  25.2918659  33.6629943
  98.0889183  24.8130053  35.0010171  91.3718718  34.5593457  23.6956374
  92.0754568  34.7643460  24.3114030  90.6481367  35.1270219  23.9605458
  96.0121335  26.0993050  30.6408764  95.7558269  25.6989686  31.4716972
  95.3874203  26.8136844  30.5158903 100.3233672  28.8389123  33.1480055
  99.7633230  28.9082313  33.9211618  99.7177176  28.6630108  32.4279552
  93.2805416  34.9975986  25.7454834  94.1151020  34.5657185  25.5632309
  93.1189759  34.8258000  26.6731729  92.9351308  31.5008100  27.1111174
  92.8800112  31.3352371  26.1699618  92.3097363  32.2084132  27.2673363
  86.2447433  21.0016209  26.6896492  86.2326103  21.9458048  26.8464763
  87.1370855  20.8186354  26.3955953  90.0599553  17.5958985  30.9442429
  89.2931949  17.0417472  31.0899111  90.4710258  17.6680854  31.8056581
 101.9089691  45.5145637  35.8410011 102.5468101  45.3952385  35.1373351
 101.7910534  46.4626481  35.8997963  98.7179397  45.4673065  35.7771536
  98.3797909  45.3514130  34.8892071  99.5869165  45.0664231  35.7572542
  94.5766213  47.3208542  31.7668427  94.0131078  47.2298479  30.9984715
  94.4618608  46.5008446  32.2470919  99.1999180  46.6207917  41.7357741
  99.1887821  46.2260715  40.8638245  99.3619820  45.8873990  42.3291513
  92.1230645  48.8159733  34.6052647  92.9151937  48.4750558  34.1898947
  92.3627295  48.9254709  35.5254801 100.1565772  50.9879510  27.0782892
  99.5053751  51.5733590  26.6916906 100.9510134  51.5185704  27.1377929
  94.0821399  48.0768647  27.4770026  94.8552275  47.5297634  27.3382902
  94.4346798  48.9412896  27.6884488  95.9206441  49.4045029  40.6836925
  95.6296307  50.3090660  40.5683592  96.5563426  49.4461557  41.3980995
  96.8462648  46.7821878  37.2738285  97.4426220  46.5577900  36.5595248
  96.9037620  46.0406623  37.8763733  96.4187676  44.2361313  25.1088476
  96.6713197  43.7142834  24.3471939  95.4812236  44.0727458  25.2115160
 101.4630959  43.2397091  32.9163219 102.2494049  42.8216514  32.5653636
 101.7269664  44.1443183  33.0844868 101.6341037  48.6769942  27.6151876
 100.9986870  48.7504568  28.3272781 101.3038443  49.2663540  26.9370955
 106.8639386  43.1772324  33.8196198 107.5964558  42.6071541  34.0534027
 106.1078742  42.7893925  34.2602703  96.1383965  46.1389419  27.3112851
  96.0220223  45.4634322  27.9793935  96.2486225  45.6521793  26.4945004
  98.4815506  45.5999566  31.0159540  98.1173713  45.0730187  31.7272462
  99.3382622  45.2098035  30.8426026 104.3864807  36.8893899  38.2790806
 104.0548132  37.7589309  38.0552021 103.7910420  36.5730183  38.9584837
  98.1220993  40.6289466  26.0120889  98.2895395  41.4969702  26.3791360
  97.9318162  40.7916747  25.0882178 100.8796326  49.0906444  37.6786719
 100.5797049  49.9931483  37.5702526 100.5347386  48.8238628  38.5307872
  94.3308808  45.5420241  33.7123424  93.4059304  45.4096455  33.9201115
  94.5793221  46.3214461  34.2093366 104.2793470  41.6088985  35.3584156
 103.3710347  41.5404393  35.0642917 104.2281066  42.0860930  36.1865982
  98.1010214  43.0847123  26.9967556  97.9809839  43.5304174  27.8353036
  97.4062802  43.4332441  26.4381094  95.8617106  55.8550765  30.6457687
  95.7841136  56.8058590  30.7246167  95.2578750  55.5096637  31.3032613
 106.1455117  39.8105423  37.1362030 105.5029497  40.1037956  36.4901825
 105.6410045  39.6958343  37.9415227 103.7995280  43.5568596  27.8247890
 104.7113136  43.7895983  27.6495587 103.2904927  44.1405640  27.2622968
  96.6080708  45.8364084  42.8637021  97.3495393  46.3749128  42.5871844
  95.9017694  46.4630372  43.0208572 102.0836048  47.9793224  41.4609182
 102.4919404  47.5375635  40.7163815 101.3613309  47.4045852  41.7143375
 102.4064862  48.5394415  35.2161471 101.7773725  48.7040129  34.5137539
 102.0190525  48.9536024  35.9872435 106.2854094  49.4748853  32.5705835
 105.6005133  49.8547754  32.0202868 106.3697944  50.0844179  33.3037783
 103.5405026  47.1208812  39.1701178 103.7521921  47.7640571  38.4935559
 103.4934774  46.2871128  38.7023108  97.9592824  48.2768823  32.4811556
  98.4231170  48.5556526  31.6916179  97.6949622  47.3752267  32.2984647
  94.8516905  47.8240304  35.4191319  95.4218262  48.2527573  34.7808804
  95.4425017  47.5422889  36.1175505  96.8961710  44.3991975  29.2901121
  97.5985754  44.8513019  29.7575048  96.5642339  43.7575794  29.9181014
 104.6550854  49.9980767  37.3423536 105.4768298  49.5960954  37.0606217
 104.6513257  49.8949001  38.2939651  98.4207457  49.5464810  39.4984246
  98.4851890  50.0085218  40.3342418  97.7118381  48.9162175  39.6266556
 112.7456847  46.3419515  33.6908507 111.9920555  45.7726914  33.5352512
 112.8804388  46.3082180  34.6379142  98.1355475  51.2132918  29.3663227
  98.0001150  52.0584454  29.7948074  98.6765288  51.4152195  28.6029160
  91.5884872  48.7308356  29.9391152  92.1009393  49.5251606  30.0896716
  92.2407585  48.0334646  29.8724753  93.3979757  51.8474112  32.0213905
  93.5746385  52.7692077  31.8334889  94.1936591  51.5332531  32.4508285
  99.7623951  51.8356484  43.4963569  99.3187806  51.0492863  43.1784473
 100.4241165  52.0235635  42.8307459  94.5211073  53.3652286  38.0224247
  95.0718498  53.2369349  37.2501241  93.6822548  53.6647175  37.6719140
 101.8605189  52.1159284  41.5244970 101.8423665  52.9368165  41.0325239
 102.7825110  51.9913359  41.7495111  98.3178244  49.6303414  42.3668478
  98.8506580  48.8691702  42.1367786  97.7892325  49.3377066  43.1092633
  89.5533789  47.0597010  30.7150722  90.3909011  47.4694019  30.4984430
  89.7312057  46.1196452  30.6850916 101.4498221  44.7272091  26.4034555
 100.9344845  45.4976695  26.6422943 101.1775530  44.0537227  27.0267617
  99.0345332  39.5721792  31.4619793  98.1786929  39.1828642  31.2825432
  99.4472284  39.6513752  30.6019579 106.4232495  47.4804445  28.3387729
 105.6461938  47.1415605  27.8942891 107.1023976  47.4857069  27.6642694
 101.2384524  42.5999183  28.2294336 100.9334660  42.9145332  29.0804479
 102.1914967  42.6780603  28.2721669  99.6830956  48.7589406  29.8787290
  99.1552318  48.0242166  29.5660528  99.1818459  49.5364083  29.6327259
 104.6623802  46.9538427  34.9954337 104.0047477  47.6437688  35.0834465
 105.4664202  47.3434859  35.3388323 103.4729261  45.3082799  33.0458278
 103.9861143  45.9412791  33.5479988 104.1230485  44.7083995  32.6801638
  94.7419271  41.4513534  26.2589787  93.9056583  41.7888220  26.5799062
  94.6024041  41.3162513  25.3216924  97.8283557  46.5769616  22.8822263
  96.9210618  46.3458870  23.0813412  98.3254589  45.7807236  23.0696245
 100.7351635  55.2867124  25.8018949 100.0613334  55.5898820  26.4103907
 101.1217457  56.0896204  25.4524407  99.9510092  42.7832255  35.2916619
  99.0332653  43.0047202  35.1338307 100.3670236  42.8578565  34.4328326
 100.7345140  44.1823671  30.4219299 101.4816959  44.6945068  30.1126421
 101.0036729  43.8607723  31.2823693  99.0071790  46.6782211  27.4046253
  98.0983009  46.3941244  27.5018723  99.0366874  47.0981290  26.5449560
 104.2391057  50.2888801  31.1737421 103.7853384  49.4479711  31.2302611
 103.6085024  50.9250199  31.5112201 103.1823977  41.2180787  32.4038088
 102.4446734  40.7058173  32.7348331 103.4350750  40.7781168  31.5921365
 102.6823997  52.1265298  32.1087239 102.9746971  52.6870355  31.3899605
 103.1922617  52.4193859  32.8640398 103.2835604  33.9957039  32.9979858
 103.5894481  33.1354402  32.7105773 104.0088209  34.5874659  32.7978852
  97.5556684  44.2910832  33.5056049  97.6105294  43.3384668  33.4298525
  96.7447886  44.4470271  33.9897347  98.7047878  48.2190955  24.7434332
  98.2667308  47.5026814  24.2839969  99.4458319  48.4467070  24.1819423
  95.4949044  42.9087892  31.2646428  94.6816909  43.2082062  31.6711620
  95.9908038  42.5143580  31.9820910  97.6457622  52.9045649  33.1980692
  97.6033801  53.1306495  32.2689224  98.5620321  52.6709023  33.3466493
 101.0923256  43.3729716  40.0961322 101.4472643  43.6001189  40.9555787
 101.7395387  43.7048093  39.4738577 106.8220993  46.4948152  30.8010651
 106.6838891  46.6849748  29.8731840 106.4657211  47.2567535  31.2578702
 106.8490372  48.5624679  35.8121922 107.2826879  48.4699968  36.6604976
 107.5621953  48.5382180  35.1741938  95.7623423  49.7808678  32.9942655
  96.5564021  49.2858998  32.7925230  95.0515115  49.2526541  32.6310361
 100.5818267  52.1626773  37.3455023 100.6355289  52.7317709  38.1132739
  99.7133048  52.3328658  36.9809060  92.0706186  43.9251759  29.0702408
  91.1403774  43.8636215  29.2872370  92.1663658  43.4027712  28.2739049
 107.7105922  48.6048380  38.3454807 107.9041812  49.5094190  38.5914082
 107.6106540  48.1455799  39.1793392 102.7721030  48.7555122  43.9195688
 102.6206537  48.5265674  43.0025772 102.7625710  49.7125724  43.9327033
  99.5406367  46.3287035  38.9041954 100.4698427  46.4798195  38.7310922
  99.1197397  46.4171056  38.0490601  98.3394699  50.3537700  36.6740492
  98.2005784  49.9856484  37.5466430  97.5509295  50.8685339  36.5024450
  98.9342851  55.4546796  28.0166029  99.1094606  54.9834839  28.8311651
  98.2475639  56.0812562  28.2447289  99.8899914  49.7319302  34.0629330
  99.5549746  49.6920072  34.9586980  99.3903859  49.0664018  33.5899740
 102.8259105  47.0775337  24.3366390 102.2088276  46.3522165  24.2399442
 102.3575594  47.8384697  23.9933464 104.4813237  51.7874245  41.9972170
 104.4225783  51.1033465  41.3302753 104.8832755  52.5293235  41.5452796
  93.5003936  58.6036159  34.7905889  93.7400534  59.2354683  35.4684907
  92.6573132  58.2524199  35.0771248  94.6157651  41.2960761  23.4587694
  93.7387118  41.1749562  23.0949941  95.0915404  40.5046839  23.2066582
 104.4830644  49.7513829  40.2286150 103.5957423  49.4139751  40.3512548
 105.0529195  49.0196860  40.4654915  98.0131798  54.4115281  37.1947393
  97.9401969  55.2170253  37.7066697  97.5709191  54.6107247  36.3695414
  97.8021577  53.6487051  30.7050214  97.0189099  54.1908731  30.7988439
  98.5014322  54.1661031  31.1044456 101.1118227  39.4581681  33.3484420
 101.6086927  38.7051643  33.0285490 100.3405209  39.4945997  32.7827629
 108.9647985  45.1622046  34.9902711 108.9537861  46.0446762  34.6196644
 108.0965364  44.8093597  34.7957248 100.4730481  54.3102115  39.3505551
 101.1858453  54.9449580  39.2781453  99.9820510  54.4065981  38.5345553
 102.1948008  48.2153368  30.9222843 101.2604287  48.3354830  30.7527547
 102.3724677  47.3125835  30.6582853  97.6953196  41.5999064  33.0756104
  97.3250984  41.0470104  33.7637010  98.1912289  40.9957197  32.5231104
 105.5820559  44.0570687  31.4572877 106.0481012  44.8898679  31.3833180
 106.0328060  43.5915669  32.1618136  95.5242395  52.0596559  40.1711122
  96.2251854  52.6933042  40.3240516  95.0537510  52.4011290  39.4106762
 103.6496791  50.4014509  28.4559029 103.9256634  50.2871103  29.3652903
 102.7801289  50.0031993  28.4171202 103.5537222  36.4251274  35.4963779
 102.6400302  36.6555501  35.6645986 103.9830324  36.5089718  36.3477811
 103.3243681  44.6141166  37.9963673 102.6715131  44.8617074  37.3416125
 103.7024061  43.8005304  37.6626150 100.2850855  54.6500859  32.0991843
 100.4673249  53.8322515  32.5619595 101.1083841  54.8668552  31.6616733
 100.6193020  53.5769045  29.3606891 101.1480787  53.0661499  28.7477054
 100.8821240  53.2611575  30.2252424  99.3731254  45.3560977  44.4829710
  98.6971891  45.2555107  45.1532085 100.1958888  45.2000191  44.9465707
  91.1210113  51.5932914  37.1042225  91.7063550  50.8476602  37.2370129
  90.9234951  51.9036871  37.9878889  93.9748768  54.6284161  32.1204667
  93.3059143  55.1130289  31.6368707  93.8361638  54.8753382  33.0348046
  98.1154037  56.6627905  38.7187326  98.6672345  56.8259526  39.4836411
  98.4560230  57.2532343  38.0467351 102.9664911  51.4889162  44.5735980
 103.5104815  52.1019121  44.0790935 102.3851756  52.0468741  45.0902993
 101.2522424  54.6109880  35.7051008 101.1273563  53.8099620  35.1961953
 101.9101515  55.1056074  35.2164978 103.3157332  52.4118900  37.3330558
 102.3687668  52.2924252  37.2608885 103.6640105  51.5241398  37.4156819
 100.3203766  52.2071617  33.5334910 100.1728728  51.2788324  33.7142480
 101.1457259  52.2291707  33.0491985  94.1866010  40.8589684  29.3915402
  94.5262082  41.3875605  28.6694011  94.6338130  41.1970090  30.1673969
 103.9237887  53.0300175  34.6199783 104.8484435  52.8243037  34.4824234
 103.7553191  52.7816576  35.5289124  96.1734157  39.3564305  27.5908695
  96.8942520  39.7345558  27.0872412  95.5499461  40.0753182  27.6943673
 100.3165280  40.0609454  28.5267027 100.5328894  40.9434092  28.2255856
  99.8359347  39.6695668  27.7972669 103.7133204  53.5485843  29.9761874
 103.8870081  52.9832265  29.2235727 104.2062095  54.3486738  29.7941364
 109.5672595  46.3122266  31.5952174 110.0103741  45.5629591  31.1971297
 108.6899105  46.3032402  31.2125906 104.7008376  52.8652607  27.0758773
 105.3959281  53.4859300  27.2946087 105.0431526  52.0147958  27.3511151
 106.5999799  50.3152313  28.6046103 107.1251123  50.6539585  27.8795423
 106.5122152  49.3799328  28.4209238  98.2619848  54.2286386  40.7335980
  98.5706974  53.9835533  41.6058680  99.0595330  54.4333025  40.2454850
  98.2840460  56.3824296  32.9641357  97.8445450  55.8900675  33.6574213
  99.0348577  55.8397264  32.7233432  90.7632799  52.5735837  32.9665985
  91.5890819  52.2739609  32.5864628  90.4126851  51.8043459  33.4155773
  95.7314332  51.9262305  35.0363658  95.1094341  51.2633010  34.7365886
  96.4019199  51.9523437  34.3537306  88.9641404  50.4922163  33.9254918
  88.1273312  50.0644338  33.7438920  88.9365049  50.6854607  34.8625709
 106.2893705  50.9485216  43.9097301 105.4989249  50.9309355  43.3701801
 106.0527060  51.4873510  44.6646338 106.4091580  47.7977683  41.2230030
 106.4589585  47.6327690  42.1645553 106.3005504  46.9304942  40.8327911
  95.2927839  50.4766228  28.5122119  95.4415959  51.1601693  27.8588792
  96.0994283  50.4571318  29.0271575 103.6995343  43.7808611  42.5389337
 104.6005206  43.6415076  42.2473334 103.7743317  43.9463066  43.4787514
 107.9109777  50.2174624  41.4672051 107.6194585  50.5804605  42.3035512
 107.2981908  49.5041632  41.2885384 109.1105459  47.7827504  33.9874622
 109.9452351  48.2217308  34.1512182 109.2464588  47.3066157  33.1682867
 106.1596965  45.3407239  39.9352109 106.6351087  45.5334885  39.1270961
 105.2362531  45.3966425  39.6895493  93.0480472  46.5031406  29.5183188
  92.8026514  45.5993736  29.7163398  93.2176387  46.5048556  28.5762666
  92.3176120  42.2359764  27.0169349  91.6245365  42.3104119  26.3609385
  92.0727871  41.4720107  27.5390866  98.7923245  52.9714359  25.9833866
  98.2197212  53.5904546  25.5304338  99.3656038  53.5213721  26.5173788
 104.8598634  42.2172999  38.1680415 105.8116057  42.3171097  38.1892639
 104.6902085  41.4251267  38.6778499 102.0120504  53.2551509  27.1142449
 102.9451178  53.1897071  27.3175324 101.9243717  54.0907776  26.6556981
 104.6408521  52.5717379  24.0746396 104.5622153  52.2377243  24.9682154
 105.4618188  53.0639147  24.0737868 107.3386712  45.4379119  37.2822715
 107.3063032  44.4995119  37.4682399 107.9487336  45.5163155  36.5488540
  99.1770043  44.3075172  23.3249919 100.1229148  44.1781380  23.3938337
  98.7984288  43.5689833  23.8019347 107.4881201  42.2290162  37.3280998
 106.9720249  41.4448619  37.1410927 108.3721149  41.9008879  37.4927517
 105.1491928  35.9731178  33.2876811 104.9516749  35.6646266  34.1720143
 105.7591633  36.6992817  33.4174740 113.1563262  46.4995125  36.4228752
 113.8866651  46.2380414  36.9836455 112.5470208  45.7623847  36.4630819
 111.2378559  44.6402988  37.0203203 110.5111723  44.5058953  36.4119694
 110.8225846  44.9479817  37.8259921  99.0608736  48.3592918  44.7850576
  99.9811745  48.5371517  44.9790622  99.0258319  47.4148963  44.6330275
  97.3612960  42.2325148  23.2604804  96.4544416  41.9358261  23.3367518
  97.6388941  41.9354966  22.3939090 100.9065574  35.8540085  31.0373342
 101.4596613  36.2735538  31.6963365 101.1435661  34.9275833  31.0796298
  96.1311745  39.0912083  23.4016783  96.9930909  39.4166982  23.6612601
  96.3162089  38.3043579  22.8889849 104.2844381  37.9640610  30.5452006
 103.7043050  38.6225414  30.1630059 104.0180314  37.1417954  30.1339424
 102.7347948  37.3645667  32.7473326 103.2347726  37.4762202  31.9387645
 103.3783556  37.0606720  33.3874135  96.7929944  45.2724297  45.6341167
  96.3097025  46.0724657  45.8405057  96.8790883  45.2832242  44.6808611
  90.0615903  47.1052677  33.5562987  90.0386591  47.2040364  32.6044870
  90.3716540  47.9517827  33.8780153  92.7203281  49.1628832  37.6709601
  93.6746535  49.1312774  37.6039533  92.5215805  48.7019455  38.4859827
 103.0669259  40.1240700  29.6008354 102.1795114  40.4090351  29.3828549
 103.4823248  39.9634463  28.7535631 106.4183795  40.1487221  33.3162694
 107.1944186  40.6383673  33.5887311 105.6931930  40.5745275  33.7734563
 108.8556354  40.8614840  34.3736634 109.4500845  40.6210576  33.6629943
 108.9282938  40.1421971  35.0010171  91.0753510  54.7048451  34.6879799
  90.9407978  53.9448852  34.1217797  90.6585572  55.4289351  34.2208588
 102.2112473  49.8885375  23.6956374 102.9148323  50.0935377  24.3114030
 101.4875122  50.4562137  23.9605458 103.0410283  45.6395236  29.8158645
 102.9845484  46.0963787  28.9766277 103.5938626  44.8785921  29.6381487
 106.8515089  41.4284968  30.6408764 106.5952023  41.0281604  31.4716972
 106.2267957  42.1428762  30.5158903 111.1627427  44.1681041  33.1480055
 110.6026985  44.2374230  33.9211618 110.5570930  43.9922026  32.4279552
  94.2322636  55.6017768  34.8998242  94.1155020  56.5463201  34.7976932
  93.4115082  55.2991330  35.2884041 104.1199170  50.3267904  25.7454834
 104.9544774  49.8949102  25.5632309 103.9583513  50.1549918  26.6731729
 103.7745062  46.8300017  27.1111174 103.7193866  46.6644289  26.1699618
 103.1491118  47.5376050  27.2673363 101.0890970  49.1348929  46.4364737
 101.9582129  49.3089581  46.0751371 100.6097721  49.9543346  46.3140466
  97.0841188  36.3308126  26.6896492  97.0719858  37.2749966  26.8464763
  97.9764610  36.1478272  26.3955953  95.2577150  56.2546030  38.1154170
  96.1604397  56.2869640  38.4320665  95.0314520  55.3246481  38.1300506
  97.0130752  55.0077017  34.7764249  96.0626383  55.0078878  34.6628621
  97.3163238  54.2609751  34.2600283 100.8993307  32.9250903  30.9442429
 100.1325703  32.3709390  31.0899111 101.3104012  32.9972772  31.8056581
 112.7483445  60.8437555  35.8410011 113.3861855  60.7244302  35.1373351
 112.6304288  61.7918399  35.8997963 109.5573152  60.7964983  35.7771536
 109.2191663  60.6806048  34.8892071 110.4262920  60.3956148  35.7572542
 105.4159967  62.6500460  31.7668427 104.8524832  62.5590396  30.9984715
 105.3012362  61.8300364  32.2470919 110.0392935  61.9499835  41.7357741
 110.0281575  61.5552633  40.8638245 110.2013574  61.2165907  42.3291513
 102.9624399  64.1451651  34.6052647 103.7545691  63.8042476  34.1898947
 103.2021049  64.2546626  35.5254801 110.9959526  66.3171427  27.0782892
 110.3447506  66.9025508  26.6916906 111.7903889  66.8477622  27.1377929
 104.9215153  63.4060564  27.4770026 105.6946029  62.8589551  27.3382902
 105.2740552  64.2704814  27.6884488 106.7600196  64.7336947  40.6836925
 106.4690062  65.6382578  40.5683592 107.3957180  64.7753474  41.3980995
 107.6856403  62.1113795  37.2738285 108.2819975  61.8869818  36.5595248
 107.7431374  61.3698541  37.8763733 107.2581431  59.5653231  25.1088476
 107.5106952  59.0434752  24.3471939 106.3205990  59.4019376  25.2115160
 112.3024714  58.5689009  32.9163219 113.0887803  58.1508432  32.5653636
 112.5663418  59.4735101  33.0844868 112.4734791  64.0061859  27.6151876
 111.8380624  64.0796486  28.3272781 112.1432198  64.5955458  26.9370955
 117.7033141  58.5064242  33.8196198 118.4358313  57.9363459  34.0534027
 116.9472497  58.1185843  34.2602703 106.9777720  61.4681336  27.3112851
 106.8613978  60.7926240  27.9793935 107.0879980  60.9813710  26.4945004
 109.3209261  60.9291484  31.0159540 108.9567468  60.4022105  31.7272462
 110.1776377  60.5389953  30.8426026 115.2258561  52.2185816  38.2790806
 114.8941886  53.0881227  38.0552021 114.6304175  51.9022100  38.9584837
 108.9614748  55.9581383  26.0120889 109.1289150  56.8261620  26.3791360
 108.7711917  56.1208665  25.0882178 111.7190081  64.4198362  37.6786719
 111.4190804  65.3223401  37.5702526 111.3741140  64.1530545  38.5307872
 105.1702562  60.8712159  33.7123424 104.2453059  60.7388373  33.9201115
 105.4186975  61.6506378  34.2093366 115.1187225  56.9380902  35.3584156
 114.2104102  56.8696311  35.0642917 115.0674820  57.4152847  36.1865982
 108.9403969  58.4139041  26.9967556 108.8203594  58.8596092  27.8353036
 108.2456557  58.7624358  26.4381094 102.5311373  60.5145433  34.5467213
 102.6603754  60.7679911  35.4606624 101.8508825  61.1073141  34.2271868
 106.7010861  71.1842683  30.6457687 106.6234890  72.1350508  30.7246167
 106.0972504  70.8388555  31.3032613 109.1928090  58.3570548  43.3019054
 108.4161424  58.9164468  43.2921918 109.8318653  58.8427331  43.8233924
 116.9848871  55.1397341  37.1362030 116.3423251  55.4329874  36.4901825
 116.4803800  55.0250261  37.9415227 114.6389035  58.8860514  27.8247890
 115.5506891  59.1187901  27.6495587 114.1298682  59.4697558  27.2622968
 107.4474463  61.1656001  42.8637021 108.1889147  61.7041045  42.5871844
 106.7411448  61.7922290  43.0208572 112.9229802  63.3085142  41.4609182
 113.3313158  62.8667552  40.7163815 112.2007064  62.7337769  41.7143375
 109.2760872  58.2457749  38.8342739 110.1222068  58.6697162  38.9777388
 109.2159510  57.5891373  39.5281302 113.2458617  63.8686332  35.2161471
 112.6167479  64.0332047  34.5137539 112.8584279  64.2827942  35.9872435
 117.1247849  64.8040770  32.5705835 116.4398887  65.1839672  32.0202868
 117.2091698  65.4136097  33.3037783 112.4260318  55.9062117  40.4923913
 112.1821250  56.6604177  39.9558188 112.7020248  56.2847465  41.3271160
 114.3798780  62.4500729  39.1701178 114.5915676  63.0932489  38.4935559
 114.3328529  61.6163046  38.7023108 111.9825009  55.0618550  36.0737750
 111.1209488  55.3599803  36.3654488 112.0087444  55.2788949  35.1418783
 108.7986579  63.6060740  32.4811556 109.2624924  63.8848443  31.6916179
 108.5343377  62.7044185  32.2984647 105.6910660  63.1532222  35.4191319
 106.2612017  63.5819490  34.7808804 106.2818772  62.8714807  36.1175505
 107.7355465  59.7283893  29.2901121 108.4379508  60.1804937  29.7575048
 107.4036093  59.0867712  29.9181014 106.1835826  58.3195649  43.6652331
 105.5534487  59.0011930  43.8987728 106.0771914  58.2078731  42.7205469
 101.4780799  57.9867446  34.5918255 100.6879853  58.2424974  34.1158365
 101.9692046  58.8015783  34.6970295 115.4944608  65.3272685  37.3423536
 116.3162052  64.9252872  37.0606217 115.4907011  65.2240919  38.2939651
 103.4295544  58.3512025  31.5501732 102.6326708  58.4630719  32.0685227
 103.2021136  58.6898677  30.6842622 109.2601212  64.8756728  39.4984246
 109.3245644  65.3377135  40.3342418 108.5512136  64.2454093  39.6266556
  99.7618502  58.2397936  37.0233246 100.0126540  59.1244946  37.2890822
 100.2978050  58.0602537  36.2508337 108.9749230  66.5424835  29.3663227
 108.8394904  67.3876371  29.7948074 109.5159042  66.7444113  28.6029160
 105.4616569  52.6216415  46.0277582 105.0683515  52.0682614  46.7025226
 106.2782709  52.9326994  46.4184099 102.4278627  64.0600274  29.9391152
 102.9403147  64.8543524  30.0896716 103.0801340  63.3626564  29.8724753
 104.2373512  67.1766030  32.0213905 104.4140140  68.0983994  31.8334889
 105.0330345  66.8624449  32.4508285 108.3784530  54.0374294  43.6197838
 109.1194244  54.6381448  43.5402301 108.6102453  53.2951932  43.0615881
 103.5225868  59.2230662  41.8976068 103.4079383  58.3215919  42.1983167
 102.6670386  59.4694358  41.5460885 110.6017706  67.1648402  43.4963569
 110.1581560  66.3784781  43.1784473 111.2634919  67.3527552  42.8307459
 105.3604827  68.6944204  38.0224247 105.9112252  68.5661267  37.2501241
 104.5216303  68.9939093  37.6719140 112.6998944  67.4451202  41.5244970
 112.6817419  68.2660083  41.0325239 113.6218864  67.3205277  41.7495111
 109.1571998  64.9595331  42.3668478 109.6900335  64.1983620  42.1367786
 108.6286079  64.6668983  43.1092633 112.3241693  50.0655397  37.8962120
 111.9805962  50.9557039  37.8201231 112.6920656  49.8757055  37.0331705
 100.3927544  62.3888928  30.7150722 101.2302766  62.7985936  30.4984430
 100.5705811  61.4488370  30.6850916 112.2891976  60.0564008  26.4034555
 111.7738599  60.8268613  26.6422943 112.0169284  59.3829145  27.0267617
 109.8739087  54.9013709  31.4619793 109.0180683  54.5120560  31.2825432
 110.2866039  54.9805670  30.6019579 111.4038233  52.4360053  35.8611353
 110.9003029  52.3990188  35.0479159 111.6968840  53.3452795  35.9208010
 107.6481119  52.5198782  34.8677535 108.5134116  52.3241591  34.5083424
 107.7158628  52.2909134  35.7946892 117.2626250  62.8096363  28.3387729
 116.4855693  62.4707523  27.8942891 117.9417731  62.8148986  27.6642694
 112.0778279  57.9291101  28.2294336 111.7728415  58.2437250  29.0804479
 113.0308721  58.0072520  28.2721669 110.5224711  64.0881324  29.8787290
 109.9946072  63.3534083  29.5660528 110.0212214  64.8656000  29.6327259
 115.5017557  62.2830344  34.9954337 114.8441231  62.9729606  35.0834465
 116.3057956  62.6726776  35.3388323 105.2543438  54.7500990  32.2393902
 105.8287190  54.5276172  31.5067095 105.8414421  54.8189685  32.9922503
 114.3123016  60.6374717  33.0458278 114.8254897  61.2704709  33.5479988
 114.9624240  60.0375913  32.6801638 105.5813026  56.7805451  26.2589787
 104.7450338  57.1180138  26.5799062 105.4417795  56.6454431  25.3216924
 107.5566106  51.6242239  30.9668971 106.9030518  51.3091256  30.3425586
 107.5146580  51.0017980  31.6928794 108.6677311  61.9061534  22.8822263
 107.7604373  61.6750788  23.0813412 109.1648343  61.1099153  23.0696245
 111.5745390  70.6159041  25.8018949 110.9007089  70.9190738  26.4103907
 111.9611212  71.4188122  25.4524407 110.7903847  58.1124173  35.2916619
 109.8726408  58.3339120  35.1338307 111.2063990  58.1870483  34.4328326
 111.5738894  59.5115588  30.4219299 112.3210713  60.0236985  30.1126421
 111.8430484  59.1899641  31.2823693 109.8465544  62.0074129  27.4046253
 108.9376764  61.7233162  27.5018723 109.8760628  62.4273208  26.5449560
 115.0784812  65.6180719  31.1737421 114.6247139  64.7771628  31.2302611
 114.4478779  66.2542117  31.5112201 114.0217731  56.5472705  32.4038088
 113.2840488  56.0350091  32.7348331 114.2744505  56.1073086  31.5921365
 113.5217751  67.4557215  32.1087239 113.8140725  68.0162272  31.3899605
 114.0316372  67.7485776  32.8640398 114.1229359  49.3248957  32.9979858
 114.4288236  48.4646320  32.7105773 114.8481964  49.9166577  32.7978852
 100.4153715  59.7279643  31.3861456 100.2178115  59.1349004  30.6612522
  99.8600379  59.4231853  32.1037394 108.3950438  59.6202750  33.5056049
 108.4499048  58.6676586  33.4298525 107.5841641  59.7762189  33.9897347
 109.5441632  63.5482873  24.7434332 109.1061062  62.8318732  24.2839969
 110.2852073  63.7758987  24.1819423 106.3342798  58.2379809  31.2646428
 105.5210664  58.5373980  31.6711620 106.8301793  57.8435498  31.9820910
 108.4851376  68.2337566  33.1980692 108.4427555  68.4598413  32.2689224
 109.4014075  68.0000941  33.3466493 111.9317010  58.7021634  40.0961322
 112.2866398  58.9293107  40.9555787 112.5789141  59.0340011  39.4738577
 117.6614747  61.8240070  30.8010651 117.5232646  62.0141666  29.8731840
 117.3050966  62.5859453  31.2578702 105.8256873  55.8098165  36.8807663
 106.4656252  55.6686924  36.1830626 104.9934404  55.5232678  36.5046265
 117.6884127  63.8916597  35.8121922 118.1220633  63.7991886  36.6604976
 118.4015707  63.8674097  35.1741938 106.6017177  65.1100595  32.9942655
 107.3957776  64.6150915  32.7925230 105.8908869  64.5818458  32.6310361
 111.4212022  67.4918691  37.3455023 111.4749044  68.0609627  38.1132739
 110.5526803  67.6620576  36.9809060 102.9099941  59.2543677  29.0702408
 101.9797529  59.1928133  29.2872370 103.0057413  58.7319630  28.2739049
 102.8285490  55.7798490  31.6580649 103.0892307  56.6943823  31.5489810
 103.6502662  55.3122932  31.8077262 104.3010415  57.1936247  38.8279474
 104.9733468  56.9853609  38.1792123 103.4740201  56.9958333  38.3884706
 118.5499676  63.9340297  38.3454807 118.7435566  64.8386108  38.5914082
 118.4500294  63.4747716  39.1793392 110.2035987  53.8198188  40.8445135
 109.5563902  54.5188138  40.7509611 110.9737002  54.2534332  41.2121383
 113.6114785  64.0847040  43.9195688 113.4600291  63.8557592  43.0025772
 113.6019464  65.0417642  43.9327033 110.3800121  61.6578953  38.9041954
 111.3092181  61.8090112  38.7310922 109.9591151  61.7462974  38.0490601
 109.1788453  65.6829617  36.6740492 109.0399539  65.3148402  37.5466430
 108.3903049  66.1977257  36.5024450 109.7736605  70.7838714  28.0166029
 109.9488361  70.3126757  28.8311651 109.0869393  71.4104480  28.2447289
 110.7293668  65.0611220  34.0629330 110.3943501  65.0211990  34.9586980
 110.2297614  64.3955936  33.5899740 104.7037912  60.4678850  39.5881911
 104.5657710  59.7359089  40.1893450 105.6142836  60.3787750  39.3066099
 113.6652860  62.4067254  24.3366390 113.0482030  61.6814082  24.2399442
 113.1969348  63.1676615  23.9933464 107.3320213  60.1798809  39.0765591
 108.0419831  59.5392002  39.0352209 107.2889521  60.4311704  39.9991771
 115.3206992  67.1166163  41.9972170 115.2619538  66.4325383  41.3302753
 115.7226510  67.8585153  41.5452796 106.0449147  57.1664027  40.8961230
 105.5086504  56.7154766  41.5482827 105.4565855  57.3009936  40.1531695
 104.3397690  73.9328077  34.7905889 104.5794289  74.5646601  35.4684907
 103.4966887  73.5816117  35.0771248 105.4551406  56.6252679  23.4587694
 104.5780872  56.5041479  23.0949941 105.9309159  55.8338757  23.2066582
 115.3224399  65.0805747  40.2286150 114.4351178  64.7431668  40.3512548
 115.8922950  64.3488778  40.4654915  96.9753546  61.4129838  33.5529201
  97.6624586  61.0991568  32.9650216  96.8201675  62.3171203  33.2796452
 101.7788268  56.3020035  37.9814225 101.6946457  55.6945704  37.2464635
 100.9570974  56.7929053  37.9823721 108.8525552  69.7407199  37.1947393
 108.7795724  70.5462170  37.7066697 108.4102945  69.9399165  36.3695414
 108.6415332  68.9778969  30.7050214 107.8582854  69.5200649  30.7988439
 109.3408077  69.4952949  31.1044456 111.9511982  54.7873598  33.3484420
 112.4480681  54.0343561  33.0285490 111.1798963  54.8237915  32.7827629
 119.8041739  60.4913964  34.9902711 119.7931616  61.3738679  34.6196644
 118.9359119  60.1385515  34.7957248 111.3124236  69.6394033  39.3505551
 112.0252208  70.2741498  39.2781453 110.8214264  69.7357899  38.5345553
 113.0341763  63.5445286  30.9222843 112.0998041  63.6646748  30.7527547
 113.2118431  62.6417752  30.6582853 108.5346951  56.9290981  33.0756104
 108.1644738  56.3762022  33.7637010 109.0306043  56.3249115  32.5231104
 116.4214314  59.3862605  31.4572877 116.8874766  60.2190597  31.3833180
 116.8721814  58.9207587  32.1618136 106.3636149  67.3888476  40.1711122
 107.0645609  68.0224959  40.3240516 105.8931264  67.7303208  39.4106762
 114.4890545  65.7306426  28.4559029 114.7650389  65.6163021  29.3652903
 113.6195044  65.3323911  28.4171202 114.3930977  51.7543192  35.4963779
 113.4794057  51.9847419  35.6645986 114.8224078  51.8381636  36.3477811
 114.1637435  59.9433084  37.9963673 113.5108885  60.1908991  37.3416125
 114.5417815  59.1297222  37.6626150 111.1244609  69.9792777  32.0991843
 111.3067004  69.1614433  32.5619595 111.9477595  70.1960469  31.6616733
 111.4586775  68.9060962  29.3606891 111.9874541  68.3953417  28.7477054
 111.7214994  68.5903492  30.2252424 110.2125008  60.6852895  44.4829710
 109.5365645  60.5847024  45.1532085 111.0352642  60.5292109  44.9465707
 101.9603867  66.9224831  37.1042225 102.5457304  66.1768519  37.2370129
 101.7628706  67.2328788  37.9878889 104.8142523  69.9576079  32.1204667
 104.1452898  70.4422207  31.6368707 104.6755392  70.2045299  33.0348046
  96.5521522  59.4930432  35.8246668  96.5905622  58.9594022  36.6183786
  96.0461815  58.9665637  35.2057645 108.9547791  71.9919822  38.7187326
 109.5066099  72.1551444  39.4836411 109.2953985  72.5824260  38.0467351
 103.9312284  54.3394972  39.3209210 103.9953611  55.2009803  38.9086608
 103.8679405  53.7268974  38.5881569 103.4064557  56.4118105  42.9682245
 104.0336596  56.0295182  43.5819769 102.5492476  56.1932307  43.3337937
 113.8058665  66.8181080  44.5735980 114.3498569  67.4311038  44.0790935
 113.2245510  67.3760658  45.0902993 100.1830100  58.2194534  28.9000599
 100.4783541  57.3105212  28.8467653  99.2818135  58.1982273  28.5781602
 112.0916178  69.9401798  35.7051008 111.9667318  69.1391538  35.1961953
 112.7495269  70.4347991  35.2164978 103.7124347  56.2950530  34.8828148
 102.9910932  56.9086498  34.7435621 104.5017602  56.8308295  34.8044794
 114.1551087  67.7410818  37.3330558 113.2081422  67.6216169  37.2608885
 114.5033860  66.8533316  37.4156819 106.5150660  53.6304957  41.1568800
 107.0385062  53.8767253  41.9195109 106.2962993  54.4624992  40.7371937
 101.9117941  55.9008632  29.0239925 101.5830647  55.0206010  28.8415031
 102.2657312  55.8456300  29.9116314 111.1597520  67.5363534  33.5334910
 111.0122482  66.6080242  33.7142480 111.9851014  67.5583625  33.0491985
 105.0259764  56.1881601  29.3915402 105.3655837  56.7167523  28.6694011
 105.4731885  56.5262007  30.1673969 114.7631642  68.3592093  34.6199783
 115.6878189  68.1534954  34.4824234 114.5946945  68.1108494  35.5289124
 107.7203205  54.5718652  38.8418470 107.3800026  53.7726465  39.2439150
 107.0142211  54.8720363  38.2695304 108.3719677  51.6567964  37.2945793
 109.1945746  51.1828443  37.1724684 108.6157741  52.4358448  37.7944480
 107.0127912  54.6856223  27.5908695 107.7336274  55.0637476  27.0872412
 106.3893216  55.4045100  27.6943673 111.1559034  55.3901372  28.5267027
 111.3722649  56.2726010  28.2255856 110.6753102  54.9987585  27.7972669
 105.8958256  58.3487085  35.1037772 105.7502836  58.6627388  35.9962054
 105.4183459  58.9671985  34.5508671 107.7554639  55.3389633  35.1518662
 107.7416207  54.4430726  34.8150960 108.4727067  55.3460297  35.7856948
 109.6080769  55.7726973  37.1971789 109.3498547  56.6944044  37.1956119
 109.0765810  55.3757408  37.8872253 114.5526958  68.8777760  29.9761874
 114.7263836  68.3124183  29.2235727 115.0455849  69.6778655  29.7941364
 100.3703918  60.8892430  38.0425433  99.8257386  61.6652237  38.1745708
 101.2483268  61.2363234  37.8844555 107.1591535  54.2204013  30.4206232
 107.2807446  53.2920660  30.6197119 106.8693577  54.2342699  29.5084547
 110.0282725  51.9058924  33.5572952 110.0504422  51.9698257  32.6024931
 110.4450784  51.0663432  33.7513458 120.4066349  61.6414183  31.5952174
 120.8497495  60.8921509  31.1971297 119.5292860  61.6324320  31.2125906
 115.5402131  68.1944525  27.0758773 116.2353035  68.8151218  27.2946087
 115.8825281  67.3439876  27.3511151 101.1569940  60.0162326  40.9355590
 100.4151676  60.1644961  41.5220220 100.8362684  60.2770591  40.0722339
 117.4393554  65.6444230  28.6046103 117.9644878  65.9831503  27.8795423
 117.3515906  64.7091246  28.4209238 109.1013602  69.5578304  40.7335980
 109.4100729  69.3127451  41.6058680 109.8989084  69.7624942  40.2454850
 109.1234214  71.7116214  32.9641357 108.6839205  71.2192592  33.6574213
 109.8742331  71.1689181  32.7233432 101.6026553  67.9027754  32.9665985
 102.4284573  67.6031526  32.5864628 101.2520605  67.1335377  33.4155773
 106.5708087  67.2554223  35.0363658 105.9488096  66.5924928  34.7365886
 107.2412954  67.2815355  34.3537306  99.8035159  65.8214081  33.9254918
  98.9667067  65.3936255  33.7438920  99.7758804  66.0146524  34.8625709
 106.6432614  55.7336011  44.6296164 106.6920770  56.6098134  44.2473934
 107.1855128  55.1913404  44.0567808 117.1287460  66.2777134  43.9097301
 116.3383004  66.2601273  43.3701801 116.8920814  66.8165428  44.6646338
 117.2485335  63.1269600  41.2230030 117.2983340  62.9619608  42.1645553
 117.1399258  62.2596859  40.8327911 106.1321594  65.8058146  28.5122119
 106.2809714  66.4893610  27.8588792 106.9388037  65.7863236  29.0271575
 114.5389097  59.1100528  42.5389337 115.4398960  58.9706993  42.2473334
 114.6137072  59.2754983  43.4787514 108.8731903  56.4867383  41.3842523
 108.0035212  56.7800949  41.1125112 109.1091383  57.0707828  42.1049787
 118.7503532  65.5466542  41.4672051 118.4588340  65.9096522  42.3035512
 118.1375663  64.8333550  41.2885384 119.9499214  63.1119422  33.9874622
 120.7846105  63.5509226  34.1512182 120.0858343  62.6358075  33.1682867
 116.9990720  60.6699157  39.9352109 117.4744842  60.8626803  39.1270961
 116.0756285  60.7258342  39.6895493 103.8874227  61.8323324  29.5183188
 103.6420268  60.9285654  29.7163398 104.0570141  61.8340474  28.5762666
 111.5770936  52.7047000  38.9007943 112.0952880  53.4408027  38.5754432
 111.2226069  53.0110993  39.7354702 103.1569874  57.5651681  27.0169349
 102.4639119  57.6396036  26.3609385 102.9121626  56.8012025  27.5390866
 111.8283531  49.1247283  34.4208840 112.1085284  48.4570472  35.0469266
 112.6134137  49.3176378  33.9083504 109.6316999  68.3006276  25.9833866
 109.0590966  68.9196464  25.5304338 110.2049793  68.8505638  26.5173788
 115.6992389  57.5464917  38.1680415 116.6509812  57.6463014  38.1892639
 115.5295839  56.7543185  38.6778499 113.7206768  54.6320500  38.3539816
 113.1256700  54.9125513  37.6586305 113.4356465  55.1214401  39.1256557
 112.8514259  68.5843427  27.1142449 113.7844932  68.5188988  27.3175324
 112.7637472  69.4199693  26.6556981 115.4802276  67.9009297  24.0746396
 115.4015907  67.5669161  24.9682154 116.3011942  68.3931065  24.0737868
 118.1780467  60.7671036  37.2822715 118.1456787  59.8287037  37.4682399
 118.7881090  60.8455073  36.5488540 110.0163798  59.6367089  23.3249919
 110.9622902  59.5073297  23.3938337 109.6378043  58.8981751  23.8019347
 118.3274955  57.5582080  37.3280998 117.8114004  56.7740536  37.1410927
 119.2114904  57.2300796  37.4927517 115.9885682  51.3023095  33.2876811
 115.7910503  50.9938183  34.1720143 116.5985388  52.0284734  33.4174740
 109.9002490  63.6884835  44.7850576 110.8205500  63.8663434  44.9790622
 109.8652073  62.7440881  44.6330275 108.2006715  57.5617066  23.2604804
 107.2938170  57.2650178  23.3367518 108.4782696  57.2646884  22.3939090
  99.1184655  58.8823429  33.7103850  98.7987439  58.0288737  33.4178224
  98.5718083  59.0972007  34.4661818 102.8964563  61.5985870  37.4273357
 103.1150572  62.5302978  37.4461391 103.3090336  61.2393844  38.2128161
 109.8168780  52.1053955  29.4149045 109.0069509  51.7601040  29.7904291
 110.5053197  51.7961499  30.0036657 111.7459329  51.1832002  31.0373342
 112.2990367  51.6027456  31.6963365 111.9829415  50.2567750  31.0796298
 107.7692428  57.1719076  46.8176106 107.6689155  58.1213433  46.7488197
 107.5513970  56.8437315  45.9452176 106.9705499  54.4204001  23.4016783
 107.8324663  54.7458899  23.6612601 107.1555843  53.6335497  22.8889849
  98.9872915  62.5026341  35.6796972  98.2936387  62.0880293  35.1666926
  99.7345906  62.5446877  35.0830391 115.1238136  53.2932527  30.5452006
 114.5436805  53.9517331  30.1630059 114.8574069  52.4709872  30.1339424
 113.5741702  52.6937585  32.7473326 114.0741481  52.8054120  31.9387645
 114.2177310  52.3898638  33.3874135 107.6323698  60.6016215  45.6341167
 107.1490780  61.4016575  45.8405057 107.7184637  60.6124160  44.6808611
 100.9009658  62.4344594  33.5562987 100.8780346  62.5332282  32.6044870
 101.2110294  63.2809745  33.8780153 103.5597036  64.4920749  37.6709601
 104.5140289  64.4604692  37.6039533 103.3609559  64.0311373  38.4859827
 104.1496418  63.0621865  40.2380399 104.9689307  63.5565944  40.2615236
 104.4233225  62.1453834  40.2097966 113.9063014  55.4532618  29.6008354
 113.0188869  55.7382268  29.3828549 114.3217003  55.2926381  28.7535631
 117.2577550  55.4779139  33.3162694 118.0337940  55.9675591  33.5887311
 116.5325684  55.9037193  33.7734563 119.6950109  56.1906758  34.3736634
 120.2894599  55.9502494  33.6629943 119.7676692  55.4713888  35.0010171
 101.9147264  70.0340369  34.6879799 101.7801732  69.2740770  34.1217797
 101.4979327  70.7581269  34.2208588 113.0506227  65.2177292  23.6956374
 113.7542077  65.4227295  24.3114030 112.3268876  65.7854054  23.9605458
 113.8804038  60.9687154  29.8158645 113.8239239  61.4255705  28.9766277
 114.4332380  60.2077838  29.6381487 117.6908843  56.7576886  30.6408764
 117.4345778  56.3573521  31.4716972 117.0661712  57.4720679  30.5158903
 105.0716390  70.9309686  34.8998242 104.9548774  71.8755118  34.7976932
 104.2508836  70.6283247  35.2884041 114.9592925  65.6559822  25.7454834
 115.7938529  65.2241020  25.5632309 114.7977268  65.4841835  26.6731729
 114.6138817  62.1591935  27.1111174 114.5587621  61.9936206  26.1699618
 113.9884872  62.8667968  27.2673363  99.4031332  57.3959999  40.9372596
 100.0490195  56.8858953  41.4259821  99.1948483  58.1328681  41.5116021
 111.9284724  64.4640847  46.4364737 112.7975884  64.6381499  46.0751371
 111.4491476  65.2835264  46.3140466 107.9234942  51.6600044  26.6896492
 107.9113612  52.6041884  26.8464763 108.8158364  51.4770189  26.3955953
 106.0970904  71.5837948  38.1154170 106.9998151  71.6161558  38.4320665
 105.8708274  70.6538399  38.1300506 107.8524506  70.3368934  34.7764249
 106.9020137  70.3370796  34.6628621 108.1556992  69.5901669  34.2600283
 111.7387062  48.2542821  30.9442429 110.9719458  47.7001307  31.0899111
 112.1497767  48.3264689  31.8056581 103.7428823  54.5427616  45.0347610
 104.6060284  54.1864421  45.2450935 103.1694234  54.2041511  45.7223014
 120.3966906  76.1256901  35.7771536 120.0585418  76.0097966  34.8892071
 121.2656674  75.7248066  35.7572542 116.2553722  77.9792377  31.7668427
 115.6918587  77.8882314  30.9984715 116.1406117  77.1592282  32.2470919
 120.8786689  77.2791753  41.7357741 120.8675330  76.8844551  40.8638245
 121.0407329  76.5457825  42.3291513 113.8018154  79.4743569  34.6052647
 114.5939446  79.1334393  34.1898947 114.0414804  79.5838544  35.5254801
 115.7608908  78.7352482  27.4770026 116.5339784  78.1881469  27.3382902
 116.1134307  79.5996731  27.6884488 117.5993950  80.0628864  40.6836925
 117.3083816  80.9674495  40.5683592 118.2350935  80.1045392  41.3980995
 118.5250157  77.4405713  37.2738285 119.1213729  77.2161735  36.5595248
 118.5825129  76.6990458  37.8763733 118.0975185  74.8945148  25.1088476
 118.3500706  74.3726669  24.3471939 117.1599745  74.7311294  25.2115160
 117.8171474  76.7973254  27.3112851 117.7007732  76.1218158  27.9793935
 117.9273734  76.3105628  26.4945004 120.1603015  76.2583401  31.0159540
 119.7961222  75.7314022  31.7272462 121.0170131  75.8681870  30.8426026
 119.8008502  71.2873301  26.0120889 119.9682904  72.1553537  26.3791360
 119.6105671  71.4500583  25.0882178 116.0096317  76.2004077  33.7123424
 115.0846813  76.0680291  33.9201115 116.2580730  76.9798296  34.2093366
 119.7797723  73.7430958  26.9967556 119.6597348  74.1888009  27.8353036
 119.0850311  74.0916276  26.4381094 113.3705128  75.8437350  34.5467213
 113.4997509  76.0971829  35.4606624 112.6902579  76.4365058  34.2271868
 117.5404615  86.5134600  30.6457687 117.4628645  87.4642425  30.7246167
 116.9366259  86.1680473  31.3032613 120.0321845  73.6862466  43.3019054
 119.2555179  74.2456386  43.2921918 120.6712408  74.1719249  43.8233924
 118.2868217  76.4947919  42.8637021 119.0282902  77.0332963  42.5871844
 117.5805203  77.1214208  43.0208572 120.1154627  73.5749666  38.8342739
 120.9615822  73.9989080  38.9777388 120.0553265  72.9183291  39.5281302
 119.6380333  78.9352658  32.4811556 120.1018679  79.2140361  31.6916179
 119.3737131  78.0336103  32.2984647 116.5304414  78.4824140  35.4191319
 117.1005771  78.9111408  34.7808804 117.1212526  78.2006724  36.1175505
 118.5749219  75.0575811  29.2901121 119.2773263  75.5096854  29.7575048
 118.2429848  74.4159629  29.9181014 117.0229581  73.6487567  43.6652331
 116.3928241  74.3303848  43.8987728 116.9165669  73.5370649  42.7205469
 112.3174553  73.3159363  34.5918255 111.5273607  73.5716892  34.1158365
 112.8085801  74.1307701  34.6970295 114.2689299  73.6803942  31.5501732
 113.4720462  73.7922637  32.0685227 114.0414891  74.0190595  30.6842622
 120.0994966  80.2048646  39.4984246 120.1639399  80.6669053  40.3342418
 119.3905890  79.5746011  39.6266556 110.6012256  73.5689854  37.0233246
 110.8520295  74.4536864  37.2890822 111.1371805  73.3894455  36.2508337
 119.8142984  81.8716753  29.3663227 119.6788659  82.7168289  29.7948074
 120.3552797  82.0736031  28.6029160 116.3010324  67.9508333  46.0277582
 115.9077269  67.3974532  46.7025226 117.1176464  68.2618911  46.4184099
 113.2672381  79.3892191  29.9391152 113.7796902  80.1835441  30.0896716
 113.9195094  78.6918482  29.8724753 115.0767266  82.5057947  32.0213905
 115.2533894  83.4275912  31.8334889 115.8724100  82.1916367  32.4508285
 119.2178285  69.3666212  43.6197838 119.9587998  69.9673365  43.5402301
 119.4496207  68.6243850  43.0615881 114.3619623  74.5522579  41.8976068
 114.2473138  73.6507837  42.1983167 113.5064140  74.7986276  41.5460885
 116.1998582  84.0236121  38.0224247 116.7506007  83.8953185  37.2501241
 115.3610057  84.3231010  37.6719140 119.9965753  80.2887249  42.3668478
 120.5294089  79.5275537  42.1367786 119.4679834  79.9960901  43.1092633
 111.2321298  77.7180845  30.7150722 112.0696520  78.1277854  30.4984430
 111.4099566  76.7780288  30.6850916 120.7132841  70.2305627  31.4619793
 119.8574438  69.8412477  31.2825432 121.1259793  70.3097588  30.6019579
 118.4874874  67.8490700  34.8677535 119.3527871  67.6533509  34.5083424
 118.5552383  67.6201052  35.7946892 121.3618465  79.4173242  29.8787290
 120.8339827  78.6826001  29.5660528 120.8605968  80.1947918  29.6327259
 116.0937193  70.0792908  32.2393902 116.6680945  69.8568089  31.5067095
 116.6808175  70.1481602  32.9922503 116.4206780  72.1097369  26.2589787
 115.5844092  72.4472055  26.5799062 116.2811550  71.9746349  25.3216924
 118.3959861  66.9534157  30.9668971 117.7424273  66.6383174  30.3425586
 118.3540335  66.3309897  31.6928794 119.5071065  77.2353452  22.8822263
 118.5998127  77.0042705  23.0813412 120.0042097  76.4391071  23.0696245
 120.6859299  77.3366047  27.4046253 119.7770518  77.0525079  27.5018723
 120.7154383  77.7565125  26.5449560 111.2547469  75.0571561  31.3861456
 111.0571869  74.4640922  30.6612522 110.6994133  74.7523771  32.1037394
 119.2344193  74.9494667  33.5056049 119.2892803  73.9968504  33.4298525
 118.4235395  75.1054106  33.9897347 120.3835387  78.8774790  24.7434332
 119.9454817  78.1610649  24.2839969 121.1245828  79.1050905  24.1819423
 117.1736553  73.5671727  31.2646428 116.3604418  73.8665898  31.6711620
 117.6695547  73.1727416  31.9820910 119.3245131  83.5629484  33.1980692
 119.2821310  83.7890330  32.2689224 120.2407830  83.3292859  33.3466493
 116.6650628  71.1390083  36.8807663 117.3050007  70.9978842  36.1830626
 115.8328158  70.8524596  36.5046265 117.4410932  80.4392513  32.9942655
 118.2351530  79.9442833  32.7925230 116.7302624  79.9110376  32.6310361
 113.7493695  74.5835595  29.0702408 112.8191283  74.5220050  29.2872370
 113.8451167  74.0611547  28.2739049 113.6679244  71.1090408  31.6580649
 113.9286061  72.0235741  31.5489810 114.4896416  70.6414850  31.8077262
 115.1404169  72.5228165  38.8279474 115.8127223  72.3145527  38.1792123
 114.3133956  72.3250251  38.3884706 120.0182208  81.0121535  36.6740492
 119.8793293  80.6440319  37.5466430 119.2296804  81.5269174  36.5024450
 120.6130360  86.1130631  28.0166029 120.7882115  85.6418675  28.8311651
 119.9263148  86.7396398  28.2447289 121.5687423  80.3903138  34.0629330
 121.2337255  80.3503908  34.9586980 121.0691368  79.7247854  33.5899740
 115.5431667  75.7970768  39.5881911 115.4051465  75.0651007  40.1893450
 116.4536590  75.7079668  39.3066099 118.1713967  75.5090727  39.0765591
 118.8813586  74.8683919  39.0352209 118.1283275  75.7603622  39.9991771
 116.8842901  72.4955945  40.8961230 116.3480258  72.0446683  41.5482827
 116.2959610  72.6301854  40.1531695 115.1791445  89.2619994  34.7905889
 115.4188043  89.8938518  35.4684907 114.3360641  88.9108034  35.0771248
 116.2945160  71.9544596  23.4587694 115.4174627  71.8333397  23.0949941
 116.7702913  71.1630675  23.2066582 107.8147300  76.7421756  33.5529201
 108.5018340  76.4283486  32.9650216 107.6595429  77.6463121  33.2796452
 112.6182023  71.6311953  37.9814225 112.5340211  71.0237622  37.2464635
 111.7964729  72.1220971  37.9823721 119.6919307  85.0699117  37.1947393
 119.6189478  85.8754088  37.7066697 119.2496700  85.2691082  36.3695414
 119.4809086  84.3070887  30.7050214 118.6976608  84.8492567  30.7988439
 120.1801831  84.8244866  31.1044456 119.3740705  72.2582899  33.0756104
 119.0038493  71.7053939  33.7637010 119.8699798  71.6541033  32.5231104
 117.2029904  82.7180394  40.1711122 117.9039363  83.3516877  40.3240516
 116.7325019  83.0595126  39.4106762 112.7997622  82.2516749  37.1042225
 113.3851059  81.5060437  37.2370129 112.6022460  82.5620706  37.9878889
 115.6536277  85.2867997  32.1204667 114.9846652  85.7714124  31.6368707
 115.5149147  85.5337217  33.0348046 107.3915277  74.8222349  35.8246668
 107.4299376  74.2885940  36.6183786 106.8855569  74.2957555  35.2057645
 119.7941546  87.3211740  38.7187326 120.3459854  87.4843362  39.4836411
 120.1347739  87.9116178  38.0467351 114.7706039  69.6686890  39.3209210
 114.8347365  70.5301721  38.9086608 114.7073159  69.0560892  38.5881569
 114.2458311  71.7410022  42.9682245 114.8730350  71.3587100  43.5819769
 113.3886230  71.5224224  43.3337937 111.0223854  73.5486452  28.9000599
 111.3177295  72.6397130  28.8467653 110.1211890  73.5274191  28.5781602
 114.5518101  71.6242448  34.8828148 113.8304687  72.2378416  34.7435621
 115.3411357  72.1600213  34.8044794 117.3544415  68.9596875  41.1568800
 117.8778816  69.2059171  41.9195109 117.1356748  69.7916909  40.7371937
 112.7511696  71.2300549  29.0239925 112.4224402  70.3497928  28.8415031
 113.1051066  71.1748218  29.9116314 115.8653519  71.5173519  29.3915402
 116.2049591  72.0459440  28.6694011 116.3125639  71.8553925  30.1673969
 118.5596960  69.9010570  38.8418470 118.2193780  69.1018383  39.2439150
 117.8535966  70.2012281  38.2695304 119.2113431  66.9859882  37.2945793
 120.0339501  66.5120360  37.1724684 119.4551495  67.7650366  37.7944480
 117.8521666  70.0148141  27.5908695 118.5730028  70.3929393  27.0872412
 117.2286970  70.7337017  27.6943673 116.7352010  73.6779003  35.1037772
 116.5896591  73.9919306  35.9962054 116.2577214  74.2963903  34.5508671
 118.5948393  70.6681551  35.1518662 118.5809962  69.7722644  34.8150960
 119.3120821  70.6752215  35.7856948 120.4474524  71.1018891  37.1971789
 120.1892302  72.0235962  37.1956119 119.9159564  70.7049326  37.8872253
 111.2097672  76.2184347  38.0425433 110.6651140  76.9944155  38.1745708
 112.0877022  76.5655152  37.8844555 117.9985289  69.5495931  30.4206232
 118.1201200  68.6212577  30.6197119 117.7087331  69.5634617  29.5084547
 120.8676479  67.2350841  33.5572952 120.8898176  67.2990175  32.6024931
 121.2844538  66.3955350  33.7513458 111.9963694  75.3454243  40.9355590
 111.2545430  75.4936879  41.5220220 111.6756439  75.6062509  40.0722339
 119.9407357  84.8870222  40.7335980 120.2494483  84.6419368  41.6058680
 120.7382839  85.0916860  40.2454850 119.9627969  87.0408131  32.9641357
 119.5232959  86.5484510  33.6574213 120.7136086  86.4981099  32.7233432
 112.4420308  83.2319672  32.9665985 113.2678328  82.9323444  32.5864628
 112.0914360  82.4627295  33.4155773 117.4101841  82.5846140  35.0363658
 116.7881850  81.9216845  34.7365886 118.0806708  82.6107272  34.3537306
 110.6428913  81.1505999  33.9254918 109.8060821  80.7228173  33.7438920
 110.6152558  81.3438442  34.8625709 117.4826369  71.0627928  44.6296164
 117.5314524  71.9390051  44.2473934 118.0248883  70.5205321  44.0567808
 116.9715348  81.1350064  28.5122119 117.1203468  81.8185528  27.8588792
 117.7781791  81.1155154  29.0271575 119.7125657  71.8159301  41.3842523
 118.8428966  72.1092867  41.1125112 119.9485137  72.3999746  42.1049787
 114.7267981  77.1615241  29.5183188 114.4814023  76.2577571  29.7163398
 114.8963896  77.1632392  28.5762666 113.9963629  72.8943599  27.0169349
 113.3032873  72.9687954  26.3609385 113.7515380  72.1303943  27.5390866
 120.4710754  83.6298194  25.9833866 119.8984721  84.2488381  25.5304338
 121.0443547  84.1797556  26.5173788 119.0400469  72.8908983  23.2604804
 118.1331925  72.5942096  23.3367518 119.3176450  72.5938801  22.3939090
 109.9578410  74.2115347  33.7103850 109.6381194  73.3580655  33.4178224
 109.4111838  74.4263925  34.4661818 113.7358317  76.9277788  37.4273357
 113.9544327  77.8594896  37.4461391 114.1484091  76.5685762  38.2128161
 120.6562535  67.4345873  29.4149045 119.8463263  67.0892958  29.7904291
 121.3446952  67.1253417  30.0036657 118.6086182  72.5010993  46.8176106
 118.5082909  73.4505350  46.7488197 118.3907724  72.1729232  45.9452176
 117.8099254  69.7495919  23.4016783 118.6718418  70.0750817  23.6612601
 117.9949598  68.9627414  22.8889849 109.8266670  77.8318258  35.6796972
 109.1330141  77.4172211  35.1666926 110.5739661  77.8738795  35.0830391
 118.4717453  75.9308132  45.6341167 117.9884534  76.7308492  45.8405057
 118.5578392  75.9416077  44.6808611 111.7403412  77.7636512  33.5562987
 111.7174100  77.8624199  32.6044870 112.0504049  78.6101663  33.8780153
 114.3990790  79.8212667  37.6709601 115.3534044  79.7896609  37.6039533
 114.2003314  79.3603291  38.4859827 114.9890172  78.3913783  40.2380399
 115.8083061  78.8857862  40.2615236 115.2626980  77.4745751  40.2097966
 112.7541019  85.3632287  34.6879799 112.6195487  84.6032687  34.1217797
 112.3373081  86.0873186  34.2208588 115.9110145  86.2601604  34.8998242
 115.7942529  87.2047036  34.7976932 115.0902591  85.9575165  35.2884041
 110.2425086  72.7251917  40.9372596 110.8883950  72.2150871  41.4259821
 110.0342237  73.4620599  41.5116021 118.7628697  66.9891962  26.6896492
 118.7507367  67.9333801  26.8464763 119.6552119  66.8062107  26.3955953
 116.9364659  86.9129865  38.1154170 117.8391905  86.9453476  38.4320665
 116.7102029  85.9830316  38.1300506 118.6918261  85.6660852  34.7764249
 117.7413892  85.6662714  34.6628621 118.9950747  84.9193587  34.2600283
 114.5822577  69.8719534  45.0347610 115.4454039  69.5156339  45.2450935
 114.0087988  69.5333429  45.7223014 118.6541055  92.0713674  33.5529201
 119.3412095  91.7575404  32.9650216 118.4989184  92.9755038  33.2796452
 118.2309031  90.1514267  35.8246668 118.2693131  89.6177858  36.6183786
 117.7249324  89.6249473  35.2057645 121.4822667  96.4797916  33.9254918
 120.6454576  96.0520091  33.7438920 121.4546313  96.6730360  34.8625709
 120.7972164  89.5407264  33.7103850 120.4774948  88.6872573  33.4178224
 120.2505592  89.7555843  34.4661818 120.6660424  93.1610176  35.6796972
 119.9723896  92.7464129  35.1666926 121.4133415  93.2030712  35.0830391
  74.1829598   2.2029052  17.3702993  74.1053628   3.1536877  17.4491474
  73.5791242   1.8574925  18.0277920  71.8216428   4.9514446  21.5151195
  72.0613026   5.5832970  22.1930214  70.9785625   4.6002486  21.8016555
  72.2961260   0.9762448  18.8449974  71.6271636   1.4608576  18.3614014
  72.1574130   1.2231669  19.7593353  76.4366529   3.0106192  25.4432632
  76.9884837   3.1737813  26.2081718  76.7772722   3.6010630  24.7712657
  69.3966002   1.0526738  21.4125106  69.2620470   0.2927139  20.8463104
  68.9798064   1.7767638  20.9453895  72.5535128   1.9496055  21.6243548
  72.4367512   2.8941488  21.5222239  71.7327574   1.6469617  22.0129348
  73.5789642   2.6024317  24.8399477  74.4816889   2.6347928  25.1565972
  73.3527012   1.6724768  24.8545813  87.8785644   7.1443270  22.5016843
  87.5404155   7.0284335  21.6137377  88.7475412   6.7434435  22.4817849
  83.7372460   8.9978747  18.4913734  83.1737325   8.9068684  17.7230021
  83.6224855   8.1778651  18.9716226  88.3605427   8.2978122  28.4603048
  88.3494068   7.9030920  27.5883552  88.5226066   7.5644195  29.0536820
  81.2836891  10.4929938  21.3297954  82.0758183  10.1520763  20.9144253
  81.5233542  10.6024913  22.2500107  89.3172018  12.6649714  13.8028198
  88.6659998  13.2503795  13.4162212  90.1116381  13.1955909  13.8623236
  83.2427645   9.7538852  14.2015333  84.0158521   9.2067839  14.0628209
  83.5953044  10.6183101  14.4129794  85.0812688  11.0815234  27.4082232
  84.7902554  11.9860865  27.2928898  85.7169672  11.1231762  28.1226302
  86.0068895   8.4592082  23.9983592  86.6032467   8.2348105  23.2840555
  86.0643866   7.7176828  24.6009040  85.2990212   7.8159624  14.0358158
  85.1826470   7.1404527  14.7039242  85.4092472   7.3291998  13.2190311
  87.6421753   7.2769771  17.7404847  87.2779960   6.7500392  18.4517768
  88.4988869   6.8868240  17.5671332  90.0402573  10.7676649  24.4032026
  89.7403296  11.6701688  24.2947833  89.6953633  10.5008833  25.2553179
  83.4915055   7.2190446  20.4368730  82.5665551   7.0866660  20.6446422
  83.7399468   7.9984665  20.9338673  80.8523866   6.8623720  21.2712519
  80.9816247   7.1158199  22.1851931  80.1721317   7.4551428  20.9517174
  85.0223353  17.5320970  17.3702993  84.9447383  18.4828795  17.4491474
  84.4184996  17.1866842  18.0277920  85.7686955   7.5134289  29.5882327
  86.5101639   8.0519333  29.3117151  85.0623940   8.1400577  29.7453879
  91.2442295   9.6563429  28.1854489  91.6525651   9.2145840  27.4409121
  90.5219556   9.0816057  28.4388682  91.5671109  10.2164620  21.9406778
  90.9379972  10.3810334  21.2382846  91.1796771  10.6306229  22.7117742
  95.4460341  11.1519057  19.2951141  94.7611379  11.5317959  18.7448175
  95.5304190  11.7614384  20.0283089  92.7011273   8.7979017  25.8946485
  92.9128168   9.4410776  25.2180866  92.6541021   7.9641333  25.4268415
  87.1199071   9.9539028  19.2056863  87.5837417  10.2326731  18.4161485
  86.8555869   9.0522472  19.0229953  84.0123152   9.5010509  22.1436626
  84.5824509   9.9297778  21.5054111  84.6031264   9.2193094  22.8420812
  79.7993291   4.3345733  21.3163562  79.0092345   4.5903261  20.8403672
  80.2904539   5.1494071  21.4215602  93.8157101  11.6750972  24.0668842
  94.6374544  11.2731159  23.7851524  93.8119504  11.5719206  25.0184958
  81.7508037   4.6990312  18.2747038  80.9539200   4.8109006  18.7930534
  81.5233629   5.0376964  17.4087929  87.5813704  11.2235015  26.2229553
  87.6458137  11.6855422  27.0587725  86.8724628  10.5932380  26.3511863
  78.0830994   4.5876223  23.7478552  78.3339033   5.4723233  24.0136128
  78.6190543   4.4080825  22.9753644  87.2961722  12.8903123  16.0908533
  87.1607397  13.7354658  16.5193381  87.8371534  13.0922400  15.3274467
  80.7491119  10.4078561  16.6636458  81.2615640  11.2021811  16.8142023
  81.4013832   9.7104851  16.5970060  82.5586004  13.5244317  18.7459211
  82.7352632  14.4462282  18.5580195  83.3542837  13.2102736  19.1753591
  81.8438360   5.5708949  28.6221375  81.7291876   4.6694206  28.9228474
  80.9882878   5.8172646  28.2706191  88.9230198  13.5126689  30.2208875
  88.4794052  12.7263068  29.9029780  89.5847412  13.7005840  29.5552766
  83.6817319  15.0422491  24.7469554  84.2324744  14.9139554  23.9746548
  82.8428795  15.3417380  24.3964447  91.0211436  13.7929489  28.2490277
  91.0029912  14.6138370  27.7570546  91.9431356  13.6683564  28.4740418
  87.4784490  11.3073619  29.0913785  88.0112827  10.5461907  28.8613093
  86.9498572  11.0147270  29.8337939  78.7140036   8.7367215  17.4396029
  79.5515258   9.1464223  17.2229737  78.8918304   7.7966657  17.4096223
  88.8437203  10.4359611  16.6032597  88.3158565   9.7012371  16.2905834
  88.3424706  11.2134287  16.3572565  93.8230049   8.6308632  21.7199643
  93.1653724   9.3207893  21.8079772  94.6270448   9.0205064  22.0633630
  89.8957882  16.9637329  12.5264256  89.2219581  17.2669025  13.1349214
  90.2823704  17.7666409  12.1769713  93.3997304  11.9659006  17.8982728
  92.9459631  11.1249916  17.9547918  92.7691271  12.6020404  18.2357508
  91.8430243  13.8035502  18.8332546  92.1353218  14.3640560  18.1144911
  92.3528864  14.0964063  19.5885705  78.7366207   6.0757930  18.1106762
  78.5390607   5.4827291  17.3857829  78.1812871   5.7710141  18.8282701
  86.8063869  14.5815854  19.9225999  86.7640047  14.8076700  18.9934531
  87.7226567  14.3479228  20.0711800  96.0096619  10.2394884  22.5367229
  96.4433126  10.1470173  23.3850283  96.7228200  10.2152384  21.8987245
  84.9229669  11.4578883  19.7187962  85.7170268  10.9629203  19.5170537
  84.2121362  10.9296746  19.3555667  89.7424514  13.8396978  24.0700329
  89.7961536  14.4087914  24.8378045  88.8739295  14.0098863  23.7054366
  81.2312433   5.6021964  15.7947714  80.3010021   5.5406420  16.0117676
  81.3269905   5.0797917  14.9984356  96.8712168  10.2818585  25.0700114
  97.0648059  11.1864395  25.3159389  96.7712787   9.8226004  25.9038699
  91.9327277  10.4325327  30.6440995  91.7812784  10.2035879  29.7271078
  91.9231957  11.3895929  30.6572340  88.7012614   8.0057240  25.6287261
  89.6304674   8.1568400  25.4556228  88.2803644   8.0941261  24.7735908
  87.5000945  12.0307905  23.3985799  87.3612031  11.6626689  24.2711737
  86.7115542  12.5455544  23.2269757  88.0949097  17.1317001  14.7411335
  88.2700853  16.6605044  15.5556958  87.4081885  17.7582767  14.9692596
  89.0506160  11.4089507  20.7874637  88.7155993  11.3690277  21.6832286
  88.5510106  10.7434223  20.3145047  83.0250404   6.8157137  26.3127218
  82.8870202   6.0837376  26.9138757  83.9355328   6.7266037  26.0311405
  85.6532705   6.5277097  25.8010897  86.3632324   5.8870289  25.7597516
  85.6102013   6.7789991  26.7237078  93.6419484  13.4644450  28.7217477
  93.5832030  12.7803670  28.0548060  94.0439002  14.2063440  28.2698103
  82.6610183  20.2806364  21.5151195  82.9006781  20.9124888  22.1930214
  81.8179379  19.9294404  21.8016555  93.6436891  11.4284034  26.9531456
  92.7563670  11.0909956  27.0757855  94.2135442  10.6967065  27.1900222
  75.2966038   7.7608126  20.2774508  75.9837078   7.4469856  19.6895523
  75.1414167   8.6649490  20.0041759  87.1738044  16.0885486  23.9192699
  87.1008216  16.8940458  24.4312004  86.7315438  16.2877452  23.0940721
  86.9627824  15.3257256  17.4295521  86.1795346  15.8678936  17.5233745
  87.6620569  15.8431236  17.8289762  89.6336728  15.9872320  26.0750858
  90.3464700  16.6219785  26.0026760  89.1426757  16.0836186  25.2590860
  91.3554255   9.8923573  17.6468150  90.4210534  10.0125035  17.4772854
  91.5330923   8.9896040  17.3828160  84.6848642  13.7366764  26.8956429
  85.3858101  14.3703247  27.0485823  84.2143757  14.0781495  26.1352068
  89.4457101  16.3271064  18.8237150  89.6279496  15.5092720  19.2864902
  90.2690087  16.5438757  18.3862040  89.7799267  15.2539249  16.0852198
  90.3087033  14.7431704  15.4722360  90.0427486  14.9381780  16.9497731
  88.5337501   7.0331182  31.2075016  87.8578138   6.9325312  31.8777392
  89.3565134   6.8770396  31.6711014  80.2816360  13.2703119  23.8287532
  80.8669796  12.5246807  23.9615436  80.0841198  13.5807075  24.7124196
  83.1355015  16.3054366  18.8449974  82.4665390  16.7900494  18.3614014
  82.9967884  16.5523587  19.7593353  74.8734014   5.8408719  22.5491975
  74.9118114   5.3072310  23.3429093  74.3674307   5.3143924  21.9302952
  87.2760283  18.3398110  25.4432632  87.8278591  18.5029731  26.2081718
  87.6166477  18.9302547  24.7712657  92.1271158  13.1659367  31.2981287
  92.6711062  13.7789325  30.8036242  91.5458003  13.7238946  31.8148300
  78.5042592   4.5672821  15.6245906  78.7996033   3.6583500  15.5712960
  77.6030628   4.5460561  15.3026908  90.4128671  16.2880085  22.4296315
  90.2879810  15.4869825  21.9207260  91.0707762  16.7826279  21.9410284
  92.4763579  14.0889105  24.0575865  91.5293915  13.9694456  23.9854191
  92.8246352  13.2011603  24.1402126  89.4810012  13.8841821  20.2580217
  89.3334975  12.9558529  20.4387787  90.3063506  13.9061912  19.7737292
  93.0844134  14.7070380  21.3445090  94.0090682  14.5013242  21.2069541
  92.9159438  14.4586781  22.2534431  92.8739450  15.2256048  16.7007181
  93.0476328  14.6602470  15.9481033  93.3668342  16.0256943  16.5186671
  78.6916410   7.2370717  24.7670740  78.1469878   8.0130525  24.8991014
  79.5695760   7.5841521  24.6089861  79.4782432   6.3640613  27.6600897
  78.7364168   6.5123248  28.2465527  79.1575176   6.6248879  26.7967646
  87.4226095  15.9056591  27.4581287  87.7313221  15.6605738  28.3303986
  88.2201577  16.1103230  26.9700157  87.4446707  18.0594501  19.6886663
  87.0051697  17.5670880  20.3819520  88.1954824  17.5167469  19.4478739
  79.9239046  14.2506042  19.6911291  80.7497066  13.9509814  19.3109935
  79.5733098  13.4813664  20.1401080  84.8920579  13.6032510  21.7608965
  84.2700588  12.9403215  21.4611193  85.5625446  13.6293642  21.0782613
  78.1247651  12.1692368  20.6500225  77.2879559  11.7414543  20.4684226
  78.0971296  12.3624812  21.5871016  95.4499952  12.6255421  30.6342608
  94.6595496  12.6079560  30.0947107  95.2133307  13.1643715  31.3891645
  84.4534086  12.1536433  15.2367425  84.6022206  12.8371898  14.5834098
  85.2600529  12.1341523  15.7516881  97.0716024  11.8944829  28.1917358
  96.7800832  12.2574810  29.0280819  96.4588155  11.1811837  28.0130690
  82.2086719   8.1801611  16.2428494  81.9632761   7.2763941  16.4408705
  82.3782633   8.1818761  15.3007972  87.9529491  14.6484564  12.7079173
  87.3803458  15.2674751  12.2549645  88.5262285  15.1983925  13.2419095
  88.2214982  10.0363123  31.5095882  89.1417992  10.2141722  31.7035929
  88.1864565   9.0919168  31.3575582  77.4397147   5.2301716  20.4349157
  77.1199932   4.3767024  20.1423531  76.8930576   5.4450294  21.1907124
  81.2177055   7.9464157  24.1518664  81.4363065   8.8781265  24.1706697
  81.6302829   7.5872132  24.9373467  77.3085407   8.8504628  22.4042279
  76.6148879   8.4358581  21.8912233  78.0558398   8.8925164  21.8075698
  85.9536190   6.9494502  32.3586474  85.4703272   7.7494862  32.5650363
  86.0397129   6.9602447  31.4053918  79.2222150   8.7822882  20.2808293
  79.1992838   8.8810569  19.3290177  79.5322786   9.6288032  20.6025460
  81.8809528  10.8399037  24.3954908  82.8352781  10.8082979  24.3284839
  81.6822051  10.3789660  25.2105134  82.4708910   9.4100153  26.9625706
  83.2901799   9.9044231  26.9860543  82.7445718   8.4932121  26.9343273
  80.2359757  16.3818656  21.4125106  80.1014225  15.6219057  20.8463104
  79.8191819  17.1059556  20.9453895  83.3928882  17.2787973  21.6243548
  83.2761267  18.2233406  21.5222239  82.5721329  16.9761535  22.0129348
  77.7243824   3.7438287  27.6617903  78.3702688   3.2337240  28.1505128
  77.5160975   4.4806968  28.2361328  90.2497216  10.8119134  33.1610043
  91.1188376  10.9859786  32.7996678  89.7703968  11.6313551  33.0385773
  84.4183397  17.9316235  24.8399477  85.3210643  17.9639845  25.1565972
  84.1920767  17.0016686  24.8545813  86.1736999  16.6847222  21.5009555
  85.2232630  16.6849083  21.3873928  86.4769485  15.9379956  20.9845590
 101.9089692  22.5207760  22.5655318 102.5468102  22.4014507  21.8618658
 101.7910535  23.4688604  22.6243270  98.7179398  22.4735188  22.5016843
  98.3797910  22.3576253  21.6137377  99.5869167  22.0726353  22.4817849
  94.5766214  24.3270664  18.4913734  94.0131079  24.2360601  17.7230021
  94.4618609  23.5070569  18.9716226  99.1999181  23.6270040  28.4603048
  99.1887822  23.2322838  27.5883552  99.3619821  22.8936112  29.0536820
  92.1230646  25.8221856  21.3297954  92.9151938  25.4812681  20.9144253
  92.3627296  25.9316831  22.2500107 100.1565773  27.9941632  13.8028198
  99.5053753  28.5795713  13.4162212 100.9510136  28.5247827  13.8623236
  94.0821400  25.0830769  14.2015333  94.8552276  24.5359756  14.0628209
  94.4346799  25.9475019  14.4129794  95.9206442  26.4107152  27.4082232
  95.6296308  27.3152782  27.2928898  96.5563427  26.4523679  28.1226302
  96.8462649  23.7884000  23.9983592  97.4426222  23.5640022  23.2840555
  96.9037621  23.0468746  24.6009040  96.1383966  23.1451541  14.0358158
  96.0220225  22.4696445  14.7039242  96.2486226  22.6583915  13.2190311
  98.4815507  22.6061688  17.7404847  98.1173715  22.0792309  18.4517768
  99.3382623  22.2160158  17.5671332 104.3864808  13.8956021  25.0036113
 104.0548133  14.7651432  24.7797328 103.7910421  13.5792305  25.6830143
 100.8796328  26.0968567  24.4032026 100.5797051  26.9993606  24.2947833
 100.5347387  25.8300750  25.2553179  94.3308809  22.5482364  20.4368730
  93.4059306  22.4158578  20.6446422  94.5793222  23.3276583  20.9338673
 104.2793471  18.6151107  22.0829463 103.3710349  18.5466516  21.7888224
 104.2281067  19.0923052  22.9111289  91.6917620  22.1915637  21.2712519
  91.8210001  22.4450116  22.1851931  91.0115071  22.7843345  20.9517174
  95.8617107  32.8612887  17.3702993  95.7841137  33.8120713  17.4491474
  95.2578751  32.5158760  18.0277920  98.3534337  20.0340753  30.0264360
  97.5767671  20.5934673  30.0167225  98.9924900  20.5197536  30.5479230
  96.6080709  22.8426206  29.5882327  97.3495394  23.3811250  29.3117151
  95.9017695  23.4692495  29.7453879 102.0836049  24.9855347  28.1854489
 102.4919405  24.5437757  27.4409121 101.3613311  24.4107974  28.4388682
  98.4367119  19.9227953  25.5588046  99.2828314  20.3467367  25.7022695
  98.3765757  19.2661578  26.2526609 102.4064864  25.5456537  21.9406778
 101.7773726  25.7102251  21.2382846 102.0190526  25.9598147  22.7117742
 106.2854096  26.4810975  19.2951141 105.6005134  26.8609877  18.7448175
 106.3697945  27.0906302  20.0283089 101.5866564  17.5832322  27.2169219
 101.3427496  18.3374382  26.6803495 101.8626495  17.9617669  28.0516466
 103.5405027  24.1270934  25.8946485 103.7521922  24.7702694  25.2180866
 103.4934775  23.2933251  25.4268415  97.9592826  25.2830945  19.2056863
  98.4231171  25.5618648  18.4161485  97.6949624  24.3814390  19.0229953
  94.8516907  24.8302427  22.1436626  95.4218264  25.2589695  21.5054111
  95.4425019  24.5485012  22.8420812  96.8961712  21.4054098  16.0146428
  97.5985755  21.8575141  16.4820354  96.5642340  20.7637917  16.6426321
  95.3442073  19.9965854  30.3897637  94.7140734  20.6782135  30.6233034
  95.2378161  19.8848936  29.4450776  90.6387046  19.6637650  21.3163562
  89.8486100  19.9195179  20.8403672  91.1298293  20.4785988  21.4215602
 104.6550855  27.0042890  24.0668842 105.4768299  26.6023077  23.7851524
 104.6513258  26.9011124  25.0184958  92.5901791  20.0282230  18.2747038
  91.7932954  20.1400924  18.7930534  92.3627383  20.3668882  17.4087929
  98.4207459  26.5526933  26.2229553  98.4851891  27.0147340  27.0587725
  97.7118383  25.9224298  26.3511863  88.9224749  19.9168141  23.7478552
  89.1732787  20.8015151  24.0136128  89.4584297  19.7372742  22.9753644
  98.1355476  28.2195040  16.0908533  98.0001151  29.0646576  16.5193381
  98.6765289  28.4214318  15.3274467  94.6222816  14.2986620  32.7522888
  94.2289761  13.7452819  33.4270533  95.4388956  14.6097199  33.1429406
  91.5884874  25.7370478  16.6636458  92.1009394  26.5313729  16.8142023
  92.2407587  25.0396769  16.5970060  93.3979758  28.8536235  18.7459211
  93.5746387  29.7754199  18.5580195  94.1936592  28.5394654  19.1753591
  97.5390777  15.7144499  30.3443145  98.2800490  16.3151652  30.2647607
  97.7708700  14.9722137  29.7861188  92.6832115  20.9000867  28.6221375
  92.5685630  19.9986124  28.9228474  91.8276633  21.1464563  28.2706191
  99.7623953  28.8418607  30.2208875  99.3187807  28.0554985  29.9029780
 100.4241166  29.0297757  29.5552766  94.5211074  30.3714408  24.7469554
  95.0718499  30.2431472  23.9746548  93.6822550  30.6709298  24.3964447
 101.8605191  29.1221407  28.2490277 101.8423666  29.9430288  27.7570546
 102.7825111  28.9975482  28.4740418  98.3178245  26.6365536  29.0913785
  98.8506582  25.8753824  28.8613093  97.7892326  26.3439188  29.8337939
  89.5533790  24.0659133  17.4396029  90.3909012  24.4756141  17.2229737
  89.7312058  23.1258575  17.4096223 100.5644480  14.1130257  22.5856660
 100.0609276  14.0760393  21.7724465 100.8575087  15.0223000  22.6453317
  96.8087366  14.1968987  21.5922842  97.6740363  14.0011796  21.2328731
  96.8764875  13.9679339  22.5192198  99.6830958  25.7651529  16.6032597
  99.1552319  25.0304288  16.2905834  99.1818460  26.5426205  16.3572565
 104.6623804  23.9600549  21.7199643 104.0047478  24.6499811  21.8079772
 105.4664203  24.3496981  22.0633630  94.4149685  16.4271195  18.9639208
  94.9893437  16.2046377  18.2312401  95.0020668  16.4959890  19.7167810
 100.7351637  32.2929246  12.5264256 100.0613335  32.5960943  13.1349214
 101.1217459  33.0958327  12.1769713 104.2391059  27.2950923  17.8982728
 103.7853386  26.4541833  17.9547918 103.6085025  27.9312322  18.2357508
 102.6823998  29.1327420  18.8332546 102.9746972  29.6932477  18.1144911
 103.1922618  29.4255981  19.5885705  89.5759962  21.4049848  18.1106762
  89.3784361  20.8119209  17.3857829  89.0206626  21.1002058  18.8282701
  97.5556685  21.2972955  20.2301355  97.6105295  20.3446791  20.1543832
  96.7447887  21.4532394  20.7142654  95.4949045  19.9150014  17.9891734
  94.6816911  20.2144185  18.3956926  95.9908039  19.5205703  18.7066217
  97.6457623  29.9107771  19.9225999  97.6033802  30.1368618  18.9934531
  98.5620322  29.6771146  20.0711800 101.0923257  20.3791839  26.8206628
 101.4472645  20.6063312  27.6801094 101.7395388  20.7110216  26.1983883
  94.9863120  17.4868370  23.6052969  95.6262499  17.3457129  22.9075933
  94.1540650  17.2002883  23.2291571 106.8490373  25.5686802  22.5367229
 107.2826880  25.4762091  23.3850283 107.5621954  25.5444302  21.8987245
  95.7623424  26.7870800  19.7187962  96.5564022  26.2921120  19.5170537
  95.0515116  26.2588663  19.3555667 100.5818268  29.1688896  24.0700329
 100.6355291  29.7379832  24.8378045  99.7133050  29.3390781  23.7054366
  92.0706187  20.9313882  15.7947714  91.1403775  20.8698337  16.0117676
  92.1663659  20.4089835  14.9984356  91.9891736  17.4568695  18.3825956
  92.2498554  18.3714028  18.2735116  92.8108909  16.9893137  18.5322569
  93.4616662  18.8706452  25.5524781  94.1339715  18.6623814  24.9037429
  92.6346448  18.6728538  25.1130013 107.7105923  25.6110502  25.0700114
 107.9041813  26.5156313  25.3159389 107.6106541  25.1517921  25.9038699
  99.3642234  15.4968393  27.5690441  98.7170149  16.1958343  27.4754918
 100.1343249  15.9304537  27.9366690 102.7721032  25.7617245  30.6440995
 102.6206538  25.5327797  29.7271078 102.7625711  26.7187846  30.6572340
  99.5406368  23.3349158  25.6287261 100.4698428  23.4860317  25.4556228
  99.1197398  23.4233179  24.7735908  98.3394700  27.3599822  23.3985799
  98.2005786  26.9918607  24.2711737  97.5509296  27.8747462  23.2269757
  98.9342852  32.4608919  14.7411335  99.1094607  31.9896962  15.5556958
  98.2475640  33.0874685  14.9692596  99.8899915  26.7381425  20.7874637
  99.5549748  26.6982195  21.6832286  99.3903861  26.0726141  20.3145047
  93.8644159  22.1449055  26.3127218  93.7263957  21.4129294  26.9138757
  94.7749082  22.0557955  26.0311405  96.4926460  21.8569014  25.8010897
  97.2026078  21.2162206  25.7597516  96.4495768  22.1081909  26.7237078
 104.4813238  28.7936368  28.7217477 104.4225784  28.1095588  28.0548060
 104.8832757  29.5355358  28.2698103  95.2055394  18.8434232  27.6206537
  94.6692751  18.3924971  28.2728133  94.6172102  18.9780141  26.8777001
  93.5003937  35.6098281  21.5151195  93.7400535  36.2416806  22.1930214
  92.6573134  35.2586321  21.8016555 104.4830646  26.7575952  26.9531456
 103.5957424  26.4201873  27.0757855 105.0529197  26.0258983  27.1900222
  86.1359793  23.0900043  20.2774508  86.8230833  22.7761773  19.6895523
  85.9807921  23.9941408  20.0041759  90.9394515  17.9790240  24.7059531
  90.8552704  17.3715909  23.9709941  90.1177221  18.4699258  24.7069028
  98.0131799  31.4177404  23.9192699  97.9401970  32.2232375  24.4312004
  97.5709192  31.6169370  23.0940721  97.8021579  30.6549174  17.4295521
  97.0189100  31.1970854  17.5233745  98.5014324  31.1723154  17.8289762
 100.4730482  31.3164238  26.0750858 101.1858455  31.9511703  26.0026760
  99.9820511  31.4128104  25.2590860 102.1948009  25.2215491  17.6468150
 101.2604288  25.3416953  17.4772854 102.3724678  24.3187957  17.3828160
  97.6953197  18.6061186  19.8001411  97.3250985  18.0532227  20.4882317
  98.1912290  18.0019320  19.2476411  95.5242396  29.0658681  26.8956429
  96.2251856  29.6995164  27.0485823  95.0537511  29.4073413  26.1352068
 103.3243682  21.6203289  24.7208979 102.6715132  21.8679196  24.0661432
 103.7024062  20.8067427  24.3871457 100.2850856  31.6562982  18.8237150
 100.4673250  30.8384638  19.2864902 101.1083842  31.8730674  18.3862040
 100.6193021  30.5831167  16.0852198 101.1480788  30.0723622  15.4722360
 100.8821241  30.2673697  16.9497731  99.3731255  22.3623100  31.2075016
  98.6971892  22.2617229  31.8777392 100.1958889  22.2062314  31.6711014
  91.1210114  28.5995036  23.8287532  91.7063551  27.8538724  23.9615436
  90.9234953  28.9098993  24.7124196  93.9748769  31.6346284  18.8449974
  93.3059145  32.1192411  18.3614014  93.8361639  31.8815504  19.7593353
  85.7127769  21.1700637  22.5491975  85.7511868  20.6364227  23.3429093
  85.2068062  20.6435842  21.9302952  98.1154038  33.6690027  25.4432632
  98.6672346  33.8321649  26.2081718  98.4560231  34.2594465  24.7712657
  93.0918531  16.0165177  26.0454517  93.1559858  16.8780008  25.6331915
  93.0285651  15.4039179  25.3126876  92.5670804  18.0888310  29.6927551
  93.1942842  17.7065387  30.3065076  91.7098722  17.8702512  30.0583244
 102.9664912  28.4951285  31.2981287 103.5104816  29.1081243  30.8036242
 102.3851757  29.0530863  31.8148300  89.3436346  19.8964739  15.6245906
  89.6389787  18.9875417  15.5712960  88.4424382  19.8752478  15.3026908
 101.2522425  31.6172003  22.4296315 101.1273565  30.8161743  21.9207260
 101.9101516  32.1118196  21.9410284  92.8730593  17.9720735  21.6073455
  92.1517179  18.5856703  21.4680928  93.6623849  18.5078500  21.5290101
 103.3157334  29.4181023  24.0575865 102.3687669  29.2986374  23.9854191
 103.6640107  28.5303521  24.1402126  95.6756907  15.3075162  27.8814107
  96.1991309  15.5537458  28.6440416  95.4569240  16.1395197  27.4617244
  91.0724188  17.5778836  15.7485231  90.7436894  16.6976215  15.5660337
  91.4263559  17.5226505  16.6361621 100.3203767  29.2133739  20.2580217
 100.1728729  28.2850447  20.4387787 101.1457260  29.2353830  19.7737292
  94.1866011  17.8651806  16.1160709  94.5262084  18.3937727  15.3939317
  94.6338132  18.2032212  16.8919276 103.9237889  30.0362298  21.3445090
 104.8484436  29.8305159  21.2069541 103.7553192  29.7878699  22.2534431
  96.8809452  16.2488857  25.5663777  96.5406272  15.4496670  25.9684457
  96.1748458  16.5490568  24.9940610  97.5325924  13.3338169  24.0191100
  98.3551993  12.8598648  23.8969990  97.7763987  14.1128653  24.5189786
  95.0564503  20.0257290  21.8283079  94.9109083  20.3397593  22.7207360
  94.5789706  20.6442190  21.2753977  96.9160885  17.0159838  21.8763968
  96.9022454  16.1200931  21.5396266  97.6333314  17.0230502  22.5102254
  98.7687016  17.4497178  23.9217096  98.5104794  18.3714249  23.9201426
  98.2372057  17.0527613  24.6117560 103.7133205  30.5547965  16.7007181
 103.8870082  29.9894388  15.9481033 104.2062096  31.3548860  16.5186671
  89.5310165  22.5662634  24.7670740  88.9863633  23.3422442  24.8991014
  90.4089515  22.9133439  24.6089861  90.3176187  21.6932531  27.6600897
  89.5757923  21.8415166  28.2465527  89.9968931  21.9540796  26.7967646
  98.2619849  31.2348509  27.4581287  98.5706976  30.9897656  28.3303986
  99.0595331  31.4395147  26.9700157  98.2840461  33.3886419  19.6886663
  97.8445452  32.8962797  20.3819520  99.0348578  32.8459386  19.4478739
  90.7632800  29.5797959  19.6911291  91.5890820  29.2801731  19.3109935
  90.4126852  28.8105582  20.1401080  95.7314333  28.9324428  21.7608965
  95.1094343  28.2695133  21.4611193  96.4019200  28.9585560  21.0782613
  88.9641405  27.4984286  20.6500225  88.1273314  27.0706460  20.4684226
  88.9365051  27.6916729  21.5871016  95.8038861  17.4106216  31.3541471
  95.8527016  18.2868338  30.9719241  96.3461375  16.8683609  30.7813114
 106.2893707  27.9547339  30.6342608 105.4989250  27.9371478  30.0947107
 106.0527061  28.4935633  31.3891645 106.4091582  24.8039805  27.9475337
 106.4589587  24.6389813  28.8890859 106.3005505  23.9367064  27.5573217
  95.2927840  27.4828351  15.2367425  95.4415961  28.1663815  14.5834098
  96.0994284  27.4633441  15.7516881 103.6995344  20.7870733  29.2634643
 104.6005207  20.6477198  28.9718641 103.7743319  20.9525188  30.2032821
  98.0338149  18.1637588  28.1087830  97.1641459  18.4571154  27.8370418
  98.2697630  18.7478033  28.8295093 107.9109778  27.2236747  28.1917358
 107.6194587  27.5866727  29.0280819 107.2981910  26.5103755  28.0130690
 106.1596967  22.3469361  26.6597416 106.6351088  22.5397008  25.8516267
 105.2362532  22.4028547  26.4140800  93.0480473  23.5093529  16.2428494
  92.8026515  22.6055859  16.4408705  93.2176388  23.5110679  15.3007972
 100.7377183  14.3817205  25.6253250 101.2559127  15.1178232  25.2999739
 100.3832316  14.6881198  26.4600009  92.3176121  19.2421886  13.7414656
  91.6245366  19.3166241  13.0854692  92.0727873  18.4782230  14.2636173
  98.7923246  29.9776481  12.7079173  98.2197213  30.5966669  12.2549645
  99.3656040  30.5275843  13.2419095 104.8598636  19.2235122  24.8925722
 105.8116059  19.3233219  24.9137946 104.6902086  18.4313390  25.4023806
 102.8813015  16.3090705  25.0785123 102.2862947  16.5895717  24.3831611
 102.5962712  16.7984606  25.8501864 107.3386713  22.4441241  24.0068021
 107.3063034  21.5057242  24.1927705 107.9487337  22.5225278  23.2733846
  99.0608737  25.3655040  31.5095882  99.9811746  25.5433639  31.7035929
  99.0258320  24.4211086  31.3575582  88.2790902  20.5593634  20.4349157
  87.9593686  19.7058942  20.1423531  87.7324330  20.7742212  21.1907124
  92.0570809  23.2756075  24.1518664  92.2756819  24.2073183  24.1706697
  92.4696583  22.9164049  24.9373467  96.9298675  18.8489281  33.5421412
  96.8295402  19.7983638  33.4733504  96.7120217  18.5207520  32.6697483
  88.1479162  24.1796545  22.4042279  87.4542633  23.7650498  21.8912233
  88.8952153  24.2217082  21.8075698  96.7929945  22.2786420  32.3586474
  96.3097026  23.0786780  32.5650363  96.8790884  22.2894364  31.4053918
  90.0615904  24.1114799  20.2808293  90.0386593  24.2102487  19.3290177
  90.3716541  24.9579950  20.6025460  92.7203282  26.1690954  24.3954908
  93.6746536  26.1374897  24.3284839  92.5215806  25.7081578  25.2105134
  93.3102664  24.7392070  26.9625706  94.1295553  25.2336149  26.9860543
  93.5839472  23.8224038  26.9343273  91.0753511  31.7110574  21.4125106
  90.9407979  30.9510975  20.8463104  90.6585573  32.4351474  20.9453895
  94.2322637  32.6079891  21.6243548  94.1155021  33.5525323  21.5222239
  93.4115083  32.3053452  22.0129348  88.5637579  19.0730204  27.6617903
  89.2096442  18.5629158  28.1505128  88.3554730  19.8098886  28.2361328
 101.0890971  26.1411052  33.1610043 101.9582130  26.3151704  32.7996678
 100.6097722  26.9605469  33.0385773  95.2577151  33.2608153  24.8399477
  96.1604398  33.2931763  25.1565972  95.0314521  32.3308604  24.8545813
  97.0130753  32.0139139  21.5009555  96.0626384  32.0141001  21.3873928
  97.3163239  31.2671874  20.9845590  92.9035070  16.2197821  31.7592917
  93.7666531  15.8634626  31.9696241  92.3300480  15.8811716  32.4468321
 112.7483447  37.8499678  22.5655318 113.3861857  37.7306425  21.8618658
 112.6304289  38.7980522  22.6243270 109.5573153  37.8027106  22.5016843
 109.2191664  37.6868170  21.6137377 110.4262921  37.4018271  22.4817849
 105.4159969  39.6562582  18.4913734 104.8524834  39.5652519  17.7230021
 105.3012364  38.8362487  18.9716226 110.0392936  38.9561957  28.4603048
 110.0281577  38.5614756  27.5883552 110.2013575  38.2228030  29.0536820
 102.9624400  41.1513774  21.3297954 103.7545692  40.8104598  20.9144253
 103.2021051  41.2608749  22.2500107 110.9959527  43.3233550  13.8028198
 110.3447507  43.9087630  13.4162212 111.7903890  43.8539745  13.8623236
 104.9215154  40.4122687  14.2015333 105.6946030  39.8651674  14.0628209
 105.2740553  41.2766936  14.4129794 106.7600197  41.7399069  27.4082232
 106.4690063  42.6444700  27.2928898 107.3957181  41.7815597  28.1226302
 107.6856404  39.1175918  23.9983592 108.2819976  38.8931940  23.2840555
 107.7431375  38.3760663  24.6009040 106.9777721  38.4743459  14.0358158
 106.8613979  37.7988362  14.7039242 107.0879981  37.9875833  13.2190311
 109.3209262  37.9353606  17.7404847 108.9567469  37.4084227  18.4517768
 110.1776378  37.5452075  17.5671332 115.2258563  29.2247939  25.0036113
 114.8941887  30.0943350  24.7797328 114.6304176  28.9084223  25.6830143
 111.7190082  41.4260485  24.4032026 111.4190805  42.3285524  24.2947833
 111.3741142  41.1592668  25.2553179 105.1702564  37.8774282  20.4368730
 104.2453060  37.7450496  20.6446422 105.4186977  38.6568501  20.9338673
 115.1187226  33.9443025  22.0829463 114.2104103  33.8758433  21.7888224
 115.0674822  34.4214970  22.9111289 102.5311375  37.5207555  21.2712519
 102.6603756  37.7742034  22.1851931 101.8508826  38.1135263  20.9517174
 106.7010862  48.1904805  17.3702993 106.6234892  49.1412630  17.4491474
 106.0972505  47.8450678  18.0277920 109.1928092  35.3632671  30.0264360
 108.4161426  35.9226591  30.0167225 109.8318655  35.8489454  30.5479230
 107.4474464  38.1718124  29.5882327 108.1889148  38.7103168  29.3117151
 106.7411449  38.7984413  29.7453879 112.9229804  40.3147264  28.1854489
 113.3313160  39.8729675  27.4409121 112.2007065  39.7399892  28.4388682
 109.2760874  35.2519871  25.5588046 110.1222069  35.6759285  25.7022695
 109.2159511  34.5953495  26.2526609 113.2458618  40.8748455  21.9406778
 112.6167481  41.0394169  21.2382846 112.8584280  41.2890065  22.7117742
 117.1247850  41.8102893  19.2951141 116.4398888  42.1901794  18.7448175
 117.2091699  42.4198219  20.0283089 112.4260319  32.9124239  27.2169219
 112.1821251  33.6666300  26.6803495 112.7020249  33.2909587  28.0516466
 114.3798782  39.4562852  25.8946485 114.5915677  40.0994612  25.2180866
 114.3328530  38.6225168  25.4268415 111.9825011  32.0680673  22.7983057
 111.1209490  32.3661926  23.0899795 112.0087445  32.2851071  21.8664090
 108.7986580  40.6122863  19.2056863 109.2624926  40.8910566  18.4161485
 108.5343378  39.7106308  19.0229953 105.6910661  40.1594345  22.1436626
 106.2612018  40.5881613  21.5054111 106.2818773  39.8776929  22.8420812
 107.7355466  36.7346015  16.0146428 108.4379509  37.1867059  16.4820354
 107.4036095  36.0929834  16.6426321 106.1835828  35.3257772  30.3897637
 105.5534488  36.0074053  30.6233034 106.0771916  35.2140854  29.4450776
 101.4780800  34.9929568  21.3163562 100.6879854  35.2487097  20.8403672
 101.9692047  35.8077906  21.4215602 115.4944610  42.3334807  24.0668842
 116.3162053  41.9314995  23.7851524 115.4907013  42.2303041  25.0184958
 103.4295545  35.3574147  18.2747038 102.6326709  35.4692842  18.7930534
 103.2021138  35.6960800  17.4087929 109.2601213  41.8818851  26.2229553
 109.3245646  42.3439258  27.0587725 108.5512137  41.2516216  26.3511863
  99.7618503  35.2460059  23.7478552 100.0126542  36.1307068  24.0136128
 100.2978051  35.0664660  22.9753644 108.9749231  43.5486958  16.0908533
 108.8394906  44.3938494  16.5193381 109.5159043  43.7506236  15.3274467
 105.4616570  29.6278538  32.7522888 105.0683516  29.0744736  33.4270533
 106.2782711  29.9389116  33.1429406 102.4278628  41.0662396  16.6636458
 102.9403149  41.8605646  16.8142023 103.0801341  40.3688687  16.5970060
 104.2373513  44.1828152  18.7459211 104.4140141  45.1046117  18.5580195
 105.0330346  43.8686572  19.1753591 108.3784531  31.0436417  30.3443145
 109.1194245  31.6443570  30.2647607 108.6102454  30.3014055  29.7861188
 103.5225869  36.2292784  28.6221375 103.4079385  35.3278042  28.9228474
 102.6670387  36.4756481  28.2706191 110.6017707  44.1710525  30.2208875
 110.1581561  43.3846903  29.9029780 111.2634921  44.3589675  29.5552766
 105.3604828  45.7006326  24.7469554 105.9112253  45.5723390  23.9746548
 104.5216304  46.0001215  24.3964447 112.6998945  44.4513325  28.2490277
 112.6817421  45.2722206  27.7570546 113.6218865  44.3267400  28.4740418
 109.1571999  41.9657454  29.0913785 109.6900336  41.2045742  28.8613093
 108.6286080  41.6731106  29.8337939 100.3927545  39.3951050  17.4396029
 101.2302767  39.8048059  17.2229737 100.5705813  38.4550493  17.4096223
 111.4038235  29.4422175  22.5856660 110.9003030  29.4052310  21.7724465
 111.6968842  30.3514918  22.6453317 107.6481121  29.5260905  21.5922842
 108.5134117  29.3303714  21.2328731 107.7158630  29.2971257  22.5192198
 110.5224712  41.0943446  16.6032597 109.9946074  40.3596206  16.2905834
 110.0212215  41.8718123  16.3572565 115.5017558  39.2892467  21.7199643
 114.8441233  39.9791728  21.8079772 116.3057957  39.6788899  22.0633630
 105.2543440  31.7563113  18.9639208 105.8287192  31.5338294  18.2312401
 105.8414422  31.8251807  19.7167810 111.5745391  47.6221164  12.5264256
 110.9007090  47.9252861  13.1349214 111.9611213  48.4250244  12.1769713
 110.7903848  35.1186295  22.0161925 109.8726409  35.3401242  21.8583614
 111.2063991  35.1932606  21.1573633 115.0784813  42.6242841  17.8982728
 114.6247140  41.7833751  17.9547918 114.4478780  43.2604239  18.2357508
 113.5217752  44.4619338  18.8332546 113.8140727  45.0224395  18.1144911
 114.0316373  44.7547899  19.5885705 100.4153716  36.7341766  18.1106762
 100.2178116  36.1411126  17.3857829  99.8600380  36.4293976  18.8282701
 108.3950440  36.6264872  20.2301355 108.4499050  35.6738709  20.1543832
 107.5841642  36.7824311  20.7142654 106.3342800  35.2441932  17.9891734
 105.5210665  35.5436103  18.3956926 106.8301794  34.8497621  18.7066217
 108.4851378  45.2399689  19.9225999 108.4427556  45.4660535  18.9934531
 109.4014076  45.0063063  20.0711800 111.9317011  35.7083756  26.8206628
 112.2866399  35.9355230  27.6801094 112.5789143  36.0402133  26.1983883
 105.8256874  32.8160287  23.6052969 106.4656254  32.6749047  22.9075933
 104.9934405  32.5294801  23.2291571 117.6884128  40.8978719  22.5367229
 118.1220635  40.8054008  23.3850283 118.4015709  40.8736220  21.8987245
 106.6017178  42.1162718  19.7187962 107.3957777  41.6213038  19.5170537
 105.8908871  41.5880581  19.3555667 111.4212023  44.4980813  24.0700329
 111.4749045  45.0671750  24.8378045 110.5526804  44.6682698  23.7054366
 102.9099942  36.2605800  15.7947714 101.9797530  36.1990255  16.0117676
 103.0057414  35.7381752  14.9984356 102.8285491  32.7860612  18.3825956
 103.0892308  33.7005946  18.2735116 103.6502663  32.3185055  18.5322569
 104.3010416  34.1998370  25.5524781 104.9733470  33.9915732  24.9037429
 103.4740203  34.0020456  25.1130013 118.5499677  40.9402420  25.0700114
 118.7435568  41.8448230  25.3159389 118.4500296  40.4809839  25.9038699
 110.2035988  30.8260311  27.5690441 109.5563903  31.5250260  27.4754918
 110.9737004  31.2596454  27.9366690 113.6114786  41.0909163  30.6440995
 113.4600293  40.8619714  29.7271078 113.6019466  42.0479764  30.6572340
 110.3800123  38.6641075  25.6287261 111.3092183  38.8152235  25.4556228
 109.9591153  38.7525096  24.7735908 109.1788454  42.6891740  23.3985799
 109.0399540  42.3210524  24.2711737 108.3903051  43.2039379  23.2269757
 109.7736606  47.7900836  14.7411335 109.9488362  47.3188880  15.5556958
 109.0869394  48.4166603  14.9692596 110.7293669  42.0673343  20.7874637
 110.3943502  42.0274113  21.6832286 110.2297615  41.4018058  20.3145047
 104.7037913  37.4740973  26.3127218 104.5657711  36.7421211  26.9138757
 105.6142837  37.3849873  26.0311405 107.3320214  37.1860932  25.8010897
 108.0419833  36.5454124  25.7597516 107.2889522  37.4373827  26.7237078
 115.3206993  44.1228285  28.7217477 115.2619539  43.4387505  28.0548060
 115.7226511  44.8647275  28.2698103 106.0449148  34.1726150  27.6206537
 105.5086505  33.7216888  28.2728133 105.4565857  34.3072059  26.8777001
 104.3397692  50.9390199  21.5151195 104.5794290  51.5708723  22.1930214
 103.4966888  50.5878239  21.8016555 115.3224400  42.0867869  26.9531456
 114.4351179  41.7493791  27.0757855 115.8922951  41.3550900  27.1900222
  96.9753547  38.4191961  20.2774508  97.6624587  38.1053691  19.6895523
  96.8201676  39.3233326  20.0041759 101.7788269  33.3082158  24.7059531
 101.6946458  32.7007827  23.9709941 100.9570976  33.7991176  24.7069028
 108.8525553  46.7469322  23.9192699 108.7795725  47.5524293  24.4312004
 108.4102947  46.9461287  23.0940721 108.6415333  45.9841092  17.4295521
 107.8582855  46.5262772  17.5233745 109.3408078  46.5015071  17.8289762
 111.3124237  46.6456156  26.0750858 112.0252209  47.2803620  26.0026760
 110.8214266  46.7420022  25.2590860 113.0341764  40.5507408  17.6468150
 112.0998043  40.6708871  17.4772854 113.2118432  39.6479875  17.3828160
 108.5346952  33.9353104  19.8001411 108.1644739  33.3824144  20.4882317
 109.0306044  33.3311238  19.2476411 106.3636150  44.3950599  26.8956429
 107.0645610  45.0287082  27.0485823 105.8931265  44.7365331  26.1352068
 114.1637436  36.9495207  24.7208979 113.5108887  37.1971114  24.0661432
 114.5417816  36.1359345  24.3871457 111.1244610  46.9854900  18.8237150
 111.3067005  46.1676556  19.2864902 111.9477596  47.2022592  18.3862040
 111.4586776  45.9123085  16.0852198 111.9874542  45.4015539  15.4722360
 111.7214995  45.5965615  16.9497731 110.2125009  37.6915018  31.2075016
 109.5365647  37.5909147  31.8777392 111.0352643  37.5354231  31.6711014
 101.9603869  43.9286954  23.8287532 102.5457305  43.1830642  23.9615436
 101.7628707  44.2390911  24.7124196 104.8142524  46.9638201  18.8449974
 104.1452899  47.4484329  18.3614014 104.6755393  47.2107422  19.7593353
  96.5521523  36.4992554  22.5491975  96.5905623  35.9656145  23.3429093
  96.0461816  35.9727760  21.9302952 108.9547792  48.9981945  25.4432632
 109.5066100  49.1613567  26.2081718 109.2953986  49.5886383  24.7712657
 103.9312286  31.3457095  26.0454517 103.9953612  32.2071926  25.6331915
 103.8679406  30.7331096  25.3126876 103.4064558  33.4180227  29.6927551
 104.0336597  33.0357305  30.3065076 102.5492477  33.1994429  30.0583244
 113.8058667  43.8243203  31.2981287 114.3498571  44.4373161  30.8036242
 113.2245512  44.3822781  31.8148300 100.1830101  35.2256656  15.6245906
 100.4783542  34.3167335  15.5712960  99.2818137  35.2044396  15.3026908
 112.0916180  46.9463921  22.4296315 111.9667319  46.1453660  21.9207260
 112.7495271  47.4410114  21.9410284 103.7124348  33.3012653  21.6073455
 102.9910934  33.9148621  21.4680928 104.5017604  33.8370418  21.5290101
 114.1551088  44.7472941  24.0575865 113.2081424  44.6278292  23.9854191
 114.5033861  43.8595439  24.1402126 106.5150661  30.6367080  27.8814107
 107.0385063  30.8829376  28.6440416 106.2962995  31.4687114  27.4617244
 101.9117942  32.9070754  15.7485231 101.5830649  32.0268133  15.5660337
 102.2657313  32.8518423  16.6361621 111.1597521  44.5425657  20.2580217
 111.0122484  43.6142364  20.4387787 111.9851015  44.5645748  19.7737292
 105.0259766  33.1943724  16.1160709 105.3655838  33.7229645  15.3939317
 105.4731886  33.5324130  16.8919276 114.7631643  45.3654216  21.3445090
 115.6878191  45.1597077  21.2069541 114.5946947  45.1170617  22.2534431
 107.7203206  31.5780775  25.5663777 107.3800027  30.7788588  25.9684457
 107.0142213  31.8782485  24.9940610 108.3719678  28.6630087  24.0191100
 109.1945748  28.1890565  23.8969990 108.6157742  29.4420571  24.5189786
 105.8958257  35.3549208  21.8283079 105.7502838  35.6689511  22.7207360
 105.4183461  35.9734108  21.2753977 107.7554640  32.3451756  21.8763968
 107.7416209  31.4492849  21.5396266 108.4727068  32.3522419  22.5102254
 109.6080771  32.7789096  23.9217096 109.3498548  33.7006167  23.9201426
 109.0765811  32.3819530  24.6117560 114.5526959  45.8839883  16.7007181
 114.7263837  45.3186306  15.9481033 115.0455851  46.6840778  16.5186671
 100.3703919  37.8954552  24.7670740  99.8257387  38.6714360  24.8991014
 101.2483269  38.2425357  24.6089861 101.1569941  37.0224448  27.6600897
 100.4151677  37.1707084  28.2465527 100.8362685  37.2832714  26.7967646
 109.1013604  46.5640427  27.4581287 109.4100730  46.3189573  28.3303986
 109.8989086  46.7687065  26.9700157 109.1234216  48.7178336  19.6886663
 108.6839206  48.2254715  20.3819520 109.8742333  48.1751304  19.4478739
 101.6026555  44.9089877  19.6911291 102.4284575  44.6093649  19.3109935
 101.2520607  44.1397500  20.1401080 106.5708088  44.2616345  21.7608965
 105.9488097  43.5987050  21.4611193 107.2412955  44.2877477  21.0782613
  99.8035160  42.8276204  20.6500225  98.9667068  42.3998378  20.4684226
  99.7758805  43.0208647  21.5871016 106.6432615  32.7398133  31.3541471
 106.6920771  33.6160256  30.9719241 107.1855130  32.1975526  30.7813114
 117.1287461  43.2839257  30.6342608 116.3383005  43.2663395  30.0947107
 116.8920816  43.8227550  31.3891645 117.2485336  40.1331723  27.9475337
 117.2983341  39.9681730  28.8890859 117.1399259  39.2658982  27.5573217
 106.1321595  42.8120269  15.2367425 106.2809715  43.4955733  14.5834098
 106.9388038  42.7925359  15.7516881 114.5389099  36.1162651  29.2634643
 115.4398961  35.9769116  28.9718641 114.6137073  36.2817106  30.2032821
 108.8731904  33.4929506  28.1087830 108.0035213  33.7863072  27.8370418
 109.1091384  34.0769951  28.8295093 118.7503533  42.5528664  28.1917358
 118.4588341  42.9158645  29.0280819 118.1375664  41.8395673  28.0130690
 116.9990721  37.6761279  26.6597416 117.4744843  37.8688925  25.8516267
 116.0756287  37.7320465  26.4140800 103.8874228  38.8385446  16.2428494
 103.6420270  37.9347776  16.4408705 104.0570142  38.8402597  15.3007972
 111.5770938  29.7109123  25.6253250 112.0952882  30.4470150  25.2999739
 111.2226070  30.0173116  26.4600009 103.1569875  34.5713804  13.7414656
 102.4639120  34.6458159  13.0854692 102.9121627  33.8074148  14.2636173
 109.6317000  45.3068399  12.7079173 109.0590967  45.9258586  12.2549645
 110.2049794  45.8567761  13.2419095 115.6992390  34.5527039  24.8925722
 116.6509813  34.6525137  24.9137946 115.5295841  33.7605308  25.4023806
 113.7206770  31.6382622  25.0785123 113.1256702  31.9187635  24.3831611
 113.4356466  32.1276523  25.8501864 118.1780468  37.7733159  24.0068021
 118.1456788  36.8349160  24.1927705 118.7881092  37.8517196  23.2733846
 109.9002491  40.6946958  31.5095882 110.8205501  40.8725557  31.7035929
 109.8652074  39.7503003  31.3575582  99.1184656  35.8885552  20.4349157
  98.7987441  35.0350860  20.1423531  98.5718085  36.1034130  21.1907124
 102.8964564  38.6047993  24.1518664 103.1150574  39.5365100  24.1706697
 103.3090338  38.2455967  24.9373467 107.7692429  34.1781198  33.5421412
 107.6689156  35.1275555  33.4733504 107.5513971  33.8499437  32.6697483
  98.9872916  39.5088463  22.4042279  98.2936388  39.0942416  21.8912233
  99.7345907  39.5509000  21.8075698 107.6323699  37.6078337  32.3586474
 107.1490781  38.4078697  32.5650363 107.7184638  37.6186282  31.4053918
 100.9009659  39.4406717  20.2808293 100.8780347  39.5394404  19.3290177
 101.2110295  40.2871868  20.6025460 103.5597037  41.4982872  24.3954908
 104.5140290  41.4666814  24.3284839 103.3609560  41.0373496  25.2105134
 104.1496419  40.0683988  26.9625706 104.9689308  40.5628067  26.9860543
 104.4233227  39.1515956  26.9343273 101.9147266  47.0402491  21.4125106
 101.7801733  46.2802892  20.8463104 101.4979328  47.7643391  20.9453895
 105.0716391  47.9371808  21.6243548 104.9548776  48.8817241  21.5222239
 104.2508838  47.6345370  22.0129348  99.4031333  34.4022122  27.6617903
 100.0490197  33.8921076  28.1505128  99.1948484  35.1390804  28.2361328
 111.9284725  41.4702969  33.1610043 112.7975885  41.6443622  32.7996678
 111.4491477  42.2897386  33.0385773 106.0970906  48.5900070  24.8399477
 106.9998152  48.6223681  25.1565972 105.8708276  47.6600521  24.8545813
 107.8524508  47.3431057  21.5009555 106.9020139  47.3432919  21.3873928
 108.1556994  46.5963791  20.9845590 103.7428824  31.5489739  31.7592917
 104.6060286  31.1926544  31.9696241 103.1694235  31.2103634  32.4468321
 120.3966907  53.1319023  22.5016843 120.0585419  53.0160088  21.6137377
 121.2656676  52.7310188  22.4817849 116.2553723  54.9854500  18.4913734
 115.6918588  54.8944437  17.7230021 116.1406118  54.1654404  18.9716226
 120.8786690  54.2853875  28.4603048 120.8675331  53.8906673  27.5883552
 121.0407330  53.5519948  29.0536820 113.8018155  56.4805691  21.3297954
 114.5939447  56.1396516  20.9144253 114.0414805  56.5900666  22.2500107
 115.7608909  55.7414605  14.2015333 116.5339785  55.1943592  14.0628209
 116.1134308  56.6058854  14.4129794 117.5993951  57.0690987  27.4082232
 117.3083817  57.9736618  27.2928898 118.2350936  57.1107515  28.1226302
 118.5250158  54.4467835  23.9983592 119.1213731  54.2223858  23.2840555
 118.5825130  53.7052581  24.6009040 117.8171475  53.8035377  14.0358158
 117.7007734  53.1280280  14.7039242 117.9273735  53.3167751  13.2190311
 120.1603016  53.2645524  17.7404847 119.7961224  52.7376145  18.4517768
 121.0170132  52.8743993  17.5671332 116.0096318  53.2066199  20.4368730
 115.0846815  53.0742413  20.6446422 116.2580731  53.9860419  20.9338673
 113.3705129  52.8499473  21.2712519 113.4997510  53.1033952  22.1851931
 112.6902580  53.4427181  20.9517174 117.5404616  63.5196723  17.3702993
 117.4628646  64.4704548  17.4491474 116.9366260  63.1742595  18.0277920
 120.0321846  50.6924588  30.0264360 119.2555180  51.2518508  30.0167225
 120.6712409  51.1781371  30.5479230 118.2868218  53.5010042  29.5882327
 119.0282903  54.0395086  29.3117151 117.5805204  54.1276330  29.7453879
 120.1154628  50.5811789  25.5588046 120.9615823  51.0051202  25.7022695
 120.0553266  49.9245413  26.2526609 119.6380335  55.9414781  19.2056863
 120.1018680  56.2202484  18.4161485 119.3737133  55.0398225  19.0229953
 116.5304416  55.4886262  22.1436626 117.1005773  55.9173531  21.5054111
 117.1212528  55.2068847  22.8420812 118.5749221  52.0637933  16.0146428
 119.2773264  52.5158977  16.4820354 118.2429849  51.4221752  16.6426321
 117.0229582  50.6549690  30.3897637 116.3928243  51.3365971  30.6233034
 116.9165670  50.5432771  29.4450776 112.3174555  50.3221486  21.3163562
 111.5273609  50.5779014  20.8403672 112.8085802  51.1369824  21.4215602
 114.2689300  50.6866065  18.2747038 113.4720463  50.7984759  18.7930534
 114.0414892  51.0252717  17.4087929 120.0994968  57.2110768  26.2229553
 120.1639400  57.6731175  27.0587725 119.3905891  56.5808133  26.3511863
 110.6012258  50.5751976  23.7478552 110.8520296  51.4598986  24.0136128
 111.1371806  50.3956578  22.9753644 119.8142985  58.8778876  16.0908533
 119.6788660  59.7230411  16.5193381 120.3552798  59.0798153  15.3274467
 116.3010325  44.9570456  32.7522888 115.9077270  44.4036654  33.4270533
 117.1176465  45.2681034  33.1429406 113.2672383  56.3954314  16.6636458
 113.7796903  57.1897564  16.8142023 113.9195095  55.6980604  16.5970060
 115.0767267  59.5120070  18.7459211 115.2533896  60.4338035  18.5580195
 115.8724101  59.1978489  19.1753591 119.2178286  46.3728335  30.3443145
 119.9587999  46.9735488  30.2647607 119.4496209  45.6305972  29.7861188
 114.3619624  51.5584702  28.6221375 114.2473139  50.6569959  28.9228474
 113.5064142  51.8048399  28.2706191 116.1998583  61.0298244  24.7469554
 116.7506008  60.9015307  23.9746548 115.3610059  61.3293133  24.3964447
 119.9965754  57.2949372  29.0913785 120.5294091  56.5337660  28.8613093
 119.4679835  57.0023023  29.8337939 111.2321299  54.7242968  17.4396029
 112.0696521  55.1339976  17.2229737 111.4099567  53.7842410  17.4096223
 118.4874875  44.8552823  21.5922842 119.3527872  44.6595631  21.2328731
 118.5552384  44.6263174  22.5192198 121.3618467  56.4235364  16.6032597
 120.8339828  55.6888124  16.2905834 120.8605969  57.2010040  16.3572565
 116.0937194  47.0855030  18.9639208 116.6680946  46.8630212  18.2312401
 116.6808177  47.1543725  19.7167810 111.2547471  52.0633683  18.1106762
 111.0571870  51.4703044  17.3857829 110.6994135  51.7585894  18.8282701
 119.2344194  51.9556790  20.2301355 119.2892804  51.0030626  20.1543832
 118.4235396  52.1116229  20.7142654 117.1736554  50.5733850  17.9891734
 116.3604420  50.8728020  18.3956926 117.6695548  50.1789538  18.7066217
 119.3245132  60.5691607  19.9225999 119.2821311  60.7952453  18.9934531
 120.2407831  60.3354981  20.0711800 116.6650629  48.1452205  23.6052969
 117.3050008  48.0040964  22.9075933 115.8328159  47.8586719  23.2291571
 117.4410933  57.4454636  19.7187962 118.2351531  56.9504956  19.5170537
 116.7302625  56.9172499  19.3555667 113.7493696  51.5897717  15.7947714
 112.8191284  51.5282173  16.0117676 113.8451168  51.0673670  14.9984356
 113.6679245  48.1152530  18.3825956 113.9286063  49.0297863  18.2735116
 114.4896418  47.6476973  18.5322569 115.1404171  49.5290287  25.5524781
 115.8127224  49.3207649  24.9037429 114.3133957  49.3312373  25.1130013
 120.0182209  58.0183658  23.3985799 119.8793295  57.6502442  24.2711737
 119.2296805  58.5331297  23.2269757 120.6130361  63.1192754  14.7411335
 120.7882116  62.6480797  15.5556958 119.9263149  63.7458520  14.9692596
 121.5687424  57.3965260  20.7874637 121.2337257  57.3566030  21.6832286
 121.0691370  56.7309976  20.3145047 115.5431668  52.8032890  26.3127218
 115.4051466  52.0713129  26.9138757 116.4536591  52.7141790  26.0311405
 118.1713969  52.5152850  25.8010897 118.8813587  51.8746042  25.7597516
 118.1283277  52.7665744  26.7237078 116.8842903  49.5018067  27.6206537
 116.3480260  49.0508806  28.2728133 116.2959611  49.6363976  26.8777001
 115.1791446  66.2682117  21.5151195 115.4188044  66.9000641  22.1930214
 114.3360643  65.9170157  21.8016555 107.8147302  53.7483879  20.2774508
 108.5018341  53.4345609  19.6895523 107.6595430  54.6525243  20.0041759
 112.6182024  48.6374075  24.7059531 112.5340213  48.0299745  23.9709941
 111.7964730  49.1283094  24.7069028 119.6919308  62.0761239  23.9192699
 119.6189479  62.8816211  24.4312004 119.2496701  62.2753205  23.0940721
 119.4809088  61.3133009  17.4295521 118.6976609  61.8554689  17.5233745
 120.1801833  61.8306989  17.8289762 119.3740706  49.2645022  19.8001411
 119.0038494  48.7116062  20.4882317 119.8699799  48.6603155  19.2476411
 117.2029905  59.7242517  26.8956429 117.9039364  60.3579000  27.0485823
 116.7325020  60.0657248  26.1352068 112.7997623  59.2578872  23.8287532
 113.3851060  58.5122560  23.9615436 112.6022462  59.5682828  24.7124196
 115.6536278  62.2930119  18.8449974 114.9846654  62.7776247  18.3614014
 115.5149148  62.5399340  19.7593353 107.3915278  51.8284472  22.5491975
 107.4299377  51.2948063  23.3429093 106.8855571  51.3019677  21.9302952
 119.7941547  64.3273863  25.4432632 120.3459855  64.4905484  26.2081718
 120.1347740  64.9178301  24.7712657 114.7706040  46.6749012  26.0454517
 114.8347367  47.5363843  25.6331915 114.7073160  46.0623014  25.3126876
 114.2458313  48.7472145  29.6927551 114.8730351  48.3649222  30.3065076
 113.3886231  48.5286347  30.0583244 111.0223855  50.5548574  15.6245906
 111.3177296  49.6459253  15.5712960 110.1211891  50.5336314  15.3026908
 114.5518102  48.6304571  21.6073455 113.8304688  49.2440538  21.4680928
 115.3411358  49.1662336  21.5290101 117.3544416  45.9658997  27.8814107
 117.8778818  46.2121294  28.6440416 117.1356749  46.7979032  27.4617244
 112.7511697  48.2362672  15.7485231 112.4224403  47.3560051  15.5660337
 113.1051068  48.1810340  16.6361621 115.8653520  48.5235642  16.1160709
 116.2049593  49.0521563  15.3939317 116.3125641  48.8616048  16.8919276
 118.5596961  46.9072692  25.5663777 118.2193781  46.1080505  25.9684457
 117.8535967  47.2074403  24.9940610 119.2113433  43.9922005  24.0191100
 120.0339502  43.5182483  23.8969990 119.4551496  44.7712489  24.5189786
 116.7352012  50.6841125  21.8283079 116.5896592  50.9981428  22.7207360
 116.2577215  51.3026026  21.2753977 118.5948394  47.6743673  21.8763968
 118.5809963  46.7784767  21.5396266 119.3120823  47.6814337  22.5102254
 120.4474525  48.1081014  23.9217096 120.1892303  49.0298084  23.9201426
 119.9159565  47.7111448  24.6117560 111.2097674  53.2246470  24.7670740
 110.6651142  54.0006278  24.8991014 112.0877024  53.5717274  24.6089861
 111.9963696  52.3516366  27.6600897 111.2545432  52.4999001  28.2465527
 111.6756440  52.6124632  26.7967646 119.9407358  61.8932344  27.4581287
 120.2494485  61.6481491  28.3303986 120.7382840  62.0978983  26.9700157
 119.9627970  64.0470254  19.6886663 119.5232961  63.5546633  20.3819520
 120.7136087  63.5043222  19.4478739 112.4420309  60.2381795  19.6911291
 113.2678329  59.9385567  19.3109935 112.0914361  59.4689417  20.1401080
 117.4101842  59.5908263  21.7608965 116.7881852  58.9278968  21.4611193
 118.0806709  59.6169395  21.0782613 110.6428914  58.1568121  20.6500225
 109.8060823  57.7290296  20.4684226 110.6152560  58.3500565  21.5871016
 117.4826370  48.0690051  31.3541471 117.5314525  48.9452174  30.9719241
 118.0248884  47.5267444  30.7813114 116.9715349  58.1412186  15.2367425
 117.1203470  58.8247651  14.5834098 117.7781793  58.1217276  15.7516881
 119.7125658  48.8221423  28.1087830 118.8428968  49.1154989  27.8370418
 119.9485139  49.4061868  28.8295093 114.7267982  54.1677364  16.2428494
 114.4814024  53.2639694  16.4408705 114.8963897  54.1694514  15.3007972
 113.9963630  49.9005722  13.7414656 113.3032875  49.9750077  13.0854692
 113.7515382  49.1366065  14.2636173 120.4710755  60.6360317  12.7079173
 119.8984722  61.2550504  12.2549645 121.0443548  61.1859678  13.2419095
 109.9578411  51.2177469  20.4349157 109.6381195  50.3642778  20.1423531
 109.4111839  51.4326047  21.1907124 113.7358318  53.9339910  24.1518664
 113.9544328  54.8657018  24.1706697 114.1484092  53.5747885  24.9373467
 118.6086184  49.5073116  33.5421412 118.5082911  50.4567473  33.4733504
 118.3907726  49.1791355  32.6697483 109.8266671  54.8380381  22.4042279
 109.1330142  54.4234334  21.8912233 110.5739662  54.8800917  21.8075698
 118.4717454  52.9370255  32.3586474 117.9884535  53.7370615  32.5650363
 118.5578393  52.9478200  31.4053918 111.7403413  54.7698635  20.2808293
 111.7174101  54.8686322  19.3290177 112.0504050  55.6163785  20.6025460
 114.3990791  56.8274790  24.3954908 115.3534045  56.7958732  24.3284839
 114.2003315  56.3665413  25.2105134 114.9890173  55.3975906  26.9625706
 115.8083062  55.8919984  26.9860543 115.2626981  54.4807874  26.9343273
 112.7541020  62.3694409  21.4125106 112.6195488  61.6094810  20.8463104
 112.3373082  63.0935309  20.9453895 115.9110146  63.2663726  21.6243548
 115.7942530  64.2109159  21.5222239 115.0902592  62.9637288  22.0129348
 110.2425088  49.7314040  27.6617903 110.8883951  49.2212994  28.1505128
 110.0342239  50.4682721  28.2361328 116.9364660  63.9191988  24.8399477
 117.8391907  63.9515598  25.1565972 116.7102030  62.9892439  24.8545813
 118.6918262  62.6722975  21.5009555 117.7413893  62.6724836  21.3873928
 118.9950748  61.9255709  20.9845590 114.5822579  46.8781657  31.7592917
 115.4454040  46.5218461  31.9696241 114.0087989  46.5395551  32.4468321
 118.6541056  69.0775796  20.2774508 119.3412096  68.7637526  19.6895523
 118.4989185  69.9817161  20.0041759 118.2309032  67.1576390  22.5491975
 118.2693132  66.6239980  23.3429093 117.7249325  66.6311595  21.9302952
 121.4822669  73.4860039  20.6500225 120.6454577  73.0582213  20.4684226
 121.4546314  73.6792482  21.5871016 120.7972165  66.5469387  20.4349157
 120.4774950  65.6934695  20.1423531 120.2505594  66.7617965  21.1907124
 120.6660425  70.1672298  22.4042279 119.9723897  69.7526251  21.8912233
 121.4133416  70.2092835  21.8075698   4.3519296  54.0065479 100.0681971
   3.5983004  53.4372877  99.9125975   4.4866837  53.9728143 101.0152606
   0.7167908  55.4473467 100.3648085   1.5514800  55.8863271 100.5285646
   0.8527037  54.9712120  99.5456331   4.7625711  54.1641089 102.8002215
   5.4929099  53.9026377 103.3609919   4.1532656  53.4269811 102.8404283
   2.8441008  52.3048951 103.3976666   2.1174172  52.1704916 102.7893158
   2.4288295  52.6125780 104.2033384   0.4618803  48.5260804 100.7510098
   1.0563294  48.2856539 100.0403406   0.5345387  47.8067934 101.3783634
   2.7689876  51.8327004  99.5253519   2.2089434  51.9020194 100.2985081
   2.1633379  51.6567989  98.8053015   4.3545894  68.5083518 102.2183475
   4.9924304  68.3890266 101.5146815   4.2366737  69.4564362 102.2771427
   1.1635600  68.4610946 102.1545000   0.8254112  68.3452011 101.2665535
   2.0325369  68.0602112 102.1346006   2.6021975  73.9817391  93.4556356
   1.9509955  74.5671471  93.0690369   3.3966338  74.5123585  93.5151393
   3.9087163  66.2334972  99.2936683   4.6950252  65.8154395  98.9427100
   4.1725867  67.1381064  99.4618331   4.0797240  71.6707822  93.9925340
   3.4443073  71.7442449  94.7046244   3.7494646  72.2601421  93.3144419
   9.3095590  66.1710205 100.1969662  10.0420762  65.6009422 100.4307491
   8.5534945  65.7831806 100.6376167   0.9271709  68.5937447  97.3933004
   0.5629917  68.0668068  98.1045925   1.7838825  68.2035916  97.2199489
   6.8321010  59.8831779 104.6564270   6.5004335  60.7527190 104.4325485
   6.2366623  59.5668063 105.3358301   3.3252530  72.0844325 104.0560183
   3.0253253  72.9869364 103.9475990   2.9803589  71.8176509 104.9081336
   6.7249673  64.6026866 101.7357620   5.8166551  64.5342274 101.4416381
   6.6737269  65.0798811 102.5639446   8.5911320  62.8043304 103.5135494
   7.9485700  63.0975837 102.8675289   8.0866248  62.6896224 104.3188691
   6.2451483  66.5506477  94.2021353   7.1569340  66.7833864  94.0269051
   5.7361131  67.1343521  93.6396432   0.8823321  65.9103712 105.2116203
   1.7284516  66.3343125 105.3550852   0.8221959  65.2537336 105.9054766
   4.8521066  71.5332296 101.5934935   4.2229928  71.6978010 100.8911003
   4.4646728  71.9473905 102.3645899   8.7310298  72.4686734  98.9479299
   8.0461336  72.8485635  98.3976332   8.8154147  73.0782060  99.6811246
   4.0322767  63.5708080 106.8697377   3.7883698  64.3250141 106.3331652
   4.3082697  63.9493428 107.7044624   5.9861229  70.1146693 105.5474642
   6.1978125  70.7578452 104.8709023   5.9390978  69.2809009 105.0796572
   3.5887458  62.7264513 102.4511214   2.7271937  63.0245767 102.7427952
   3.6149893  62.9434912 101.5192247   7.1007057  72.9918648 103.7196999
   7.9224501  72.5898835 103.4379681   7.0969460  72.8886882 104.6713115
  15.1913050  69.3357396 100.0681971  14.4376759  68.7664795  99.9125975
  15.3260591  69.3020061 101.0152606   0.5811678  74.2070799  95.7436690
   0.4457353  75.0522334  96.1721538   1.1221491  74.4090076  94.9802624
   3.9304142  57.7301361 104.2735584   3.5868411  58.6203002 104.1974694
   4.2983105  57.5403018 103.4105169   3.8954425  67.7209972  92.7808019
   3.3801048  68.4914576  93.0196406   3.6231733  67.0475108  93.4041080
   1.4801536  62.5659673  97.8393257   0.6243132  62.1766523  97.6598896
   1.8928487  62.6451633  96.9793043   3.0100682  60.1006016 102.2384817
   2.5065478  60.0636151 101.4252622   3.3031289  61.0098759 102.2981474
   8.8688699  70.4742326  94.7161192   8.0918142  70.1353486  94.2716354
   9.5480180  70.4794950  94.0416157   3.6840728  65.5937064  94.6067800
   3.3790863  65.9083213  95.4577943   4.6371170  65.6718484  94.6495133
   2.1287160  71.7527287  96.2560754   1.6008521  71.0180047  95.9433991
   1.6274662  72.5301964  96.0100722   7.1080006  69.9476308 101.3727800
   6.4503680  70.6375569 101.4607929   7.9120405  70.3372740 101.7161787
   5.9185464  68.3020680  99.4231742   6.4317346  68.9350672  99.9253452
   6.5686688  67.7021876  99.0575102   3.1807839  78.2805005  92.1792413
   2.5069537  78.5836701  92.7877371   3.5673661  79.0834085  91.8297870
   2.3966295  65.7770136 101.6690083   1.4788857  65.9985083 101.5111771
   2.8126439  65.8516446 100.8101790   3.1801343  67.1761552  96.7992763
   3.9273162  67.6882949  96.4899885   3.4492933  66.8545604  97.6597156
   1.4527993  69.6720092  93.7819717   0.5439213  69.3879125  93.8792187
   1.4823077  70.0919171  92.9223024   6.6847261  73.2826682  97.5510885
   6.2309588  72.4417592  97.6076075   6.0541227  73.9188080  97.8885665
   5.6280180  64.2118668  98.7811552   4.8902937  63.6996054  99.1121795
   5.8806954  63.7719049  97.9694829   5.1280200  75.1203178  98.4860703
   5.4203174  75.6808236  97.7673068   5.6378820  75.4131739  99.2413862
   5.7291808  56.9894920  99.3753321   6.0350684  56.1292283  99.0879236
   6.4544412  57.5812540  99.1752315   1.1504081  71.2128836  91.1207796
   0.7123511  70.4964695  90.6613433   1.8914522  71.4404951  90.5592887
   3.5379459  66.3667597 106.4734785   3.8928847  66.5939070 107.3329251
   4.1851590  66.6985974 105.8512041   9.2677196  69.4886033  97.1784114
   9.1295094  69.6787629  96.2505303   8.9113415  70.2505416  97.6352165
   9.2946575  71.5562560 102.1895386   9.7283082  71.4637849 103.0378440
  10.0078156  71.5320060 101.5515402  10.1562125  71.5986261 104.7228271
  10.3498015  72.5032071 104.9687546  10.0562743  71.1393680 105.5566856
   1.8098436  61.4844151 107.2218599   1.1626351  62.1834101 107.1283075
   2.5799451  61.9180295 107.5894847   1.9862570  69.3224916 105.2815418
   2.9154630  69.4736076 105.1084386   1.5653600  69.4108937 104.4264065
   1.3799054  78.4484677  94.3939492   1.5550810  77.9772720  95.2085115
   0.6931842  79.0750443  94.6220753   2.3356117  72.7257183 100.4402794
   2.0005950  72.6857953 101.3360444   1.8360063  72.0601899  99.9673204
   5.2715309  70.0713218  90.7139853   4.6544479  69.3460046  90.6172906
   4.8031797  70.8322578  90.3706928   6.9286848  72.7451710 106.6059613
   6.0413626  72.4077632 106.7286012   7.4985399  72.0134741 106.8428379
   3.5574431  62.4519562  99.7257883   4.0543130  61.6989524  99.4058954
   2.7861412  62.4883878  99.1601093  11.4104188  68.1559927 101.3676175
  11.3994064  69.0384643 100.9970108  10.5421568  67.8031478 101.1730712
   4.6404211  71.2091249  97.2996307   3.7060490  71.3292711  97.1301011
   4.8180880  70.3063716  97.0356317   8.0276763  67.0508568  97.8346341
   8.4937215  67.8836560  97.7606644   8.4784263  66.5853550  98.5391599
   6.0952994  73.3952390  94.8332493   6.3712838  73.2808984  95.7426367
   5.2257493  72.9969874  94.7944666   5.9993426  59.4189155 101.8737242
   5.0856505  59.6493382 102.0419449   6.4286527  59.5027599 102.7251275
   5.7699884  67.6079047 104.3737136   5.1171334  67.8554955 103.7189589
   6.1480264  66.7943185 104.0399614   2.7307058  77.6438740  98.4765307
   2.9129452  76.8260396  98.9393059   3.5540044  77.8606433  98.0390197
   3.0649223  76.5706925  95.7380355   3.5936990  76.0599380  95.1250517
   3.3277443  76.2549456  96.6025888   3.6978627  77.6047761 102.0824472
   3.5729767  76.8037501 101.5735417   4.3557718  78.0993955 101.5938442
   5.7613536  75.4056781 103.7104022   4.8143871  75.2862132 103.6382348
   6.1096309  74.5179279 103.7930283   2.7659969  75.2009498  99.9108374
   2.6184931  74.2726205 100.0915944   3.5913462  75.2229588  99.4265449
   6.3694091  76.0238056 100.9973247   7.2940638  75.8180918 100.8597698
   6.2009394  75.7754457 101.9062588   2.7621483  63.0547335  94.9040491
   2.9785098  63.9371973  94.6029319   2.2815550  62.6633549  94.1746133
   1.2143218  63.4372937 103.5745253   0.9560996  64.3590007 103.5729583
   0.6828259  63.0403371 104.2645717   6.1589407  76.5423724  96.3535338
   6.3326284  75.9770146  95.6009191   6.6518298  77.3424619  96.1714828
   1.6345174  59.5704887  99.9346415   1.6566871  59.6344220  98.9798395
   2.0513233  58.7309396 100.1286921  12.0128798  69.3060147  97.9725638
  12.4559944  68.5567472  97.5744761  11.1355308  69.2970283  97.5899370
   7.1464579  75.8590488  93.4532236   7.8415484  76.4797181  93.6719551
   7.4887730  75.0085839  93.7284614   9.0456003  73.3090194  94.9819567
   9.5707327  73.6477466  94.2568887   8.9578355  72.3737209  94.7982702
   8.8547784  70.7915564 107.6003494   8.9045789  70.6265571 108.5419016
   8.7461707  69.9242823 107.2101374   6.1451546  66.7746492 108.9162800
   7.0461409  66.6352957 108.6246798   6.2199521  66.9400947 109.8560978
  10.3565980  73.2112505 107.8445515  10.0650789  73.5742486 108.6808976
   9.7438112  72.4979513 107.6658847  11.5561663  70.7765385 100.3648085
  12.3908554  71.2155189 100.5285646  11.6920792  70.3004038  99.5456331
   8.6053169  68.3345120 106.3125573   9.0807290  68.5272766 105.5044425
   7.6818734  68.3904306 106.0668957   3.1833385  60.3692963 105.2781407
   3.7015329  61.1053990 104.9527896   2.8288518  60.6756957 106.1128166
   3.4345979  56.7893246 100.7982304   3.7147733  56.1216435 101.4242730
   4.2196586  56.9822342 100.2856968   1.2379448  75.9652240  92.3607330
   0.6653415  76.5842427  91.9077802   1.8112242  76.5151601  92.8947252
   7.3054838  65.2110880 104.5453879   8.2572261  65.3108978 104.5666103
   7.1358288  64.4189148 105.0551963   5.3269217  62.2966463 104.7313280
   4.7319149  62.5771476 104.0359768   5.0418914  62.7860364 105.5030021
   4.4576708  76.2489390  93.4915912   5.3907381  76.1834952  93.6948788
   4.3699920  77.0845657  93.0330445   7.0864724  75.5655260  90.4519860
   7.0078356  75.2315124  91.3455618   7.9074391  76.0577028  90.4511332
   9.7842916  68.4317000 103.6596178   9.7519236  67.4933000 103.8455862
  10.3943539  68.5101036 102.9262003   1.6226246  67.3013053  89.7023382
   2.5685351  67.1719261  89.7711801   1.2440491  66.5627714  90.1792811
   9.9337404  65.2228043 103.7054462   9.4176453  64.4386500 103.5184390
  10.8177353  64.8946760 103.8700981   7.5948131  58.9669059  99.6650274
   7.3972952  58.6584147 100.5493606   8.2047836  59.6930697  99.7948204
  15.6019465  69.4933006 102.8002215  16.3322854  69.2318295 103.3609919
  14.9926411  68.7561728 102.8404283  13.6834762  67.6340869 103.3976666
  12.9567926  67.4996834 102.7893158  13.2682049  67.9417698 104.2033384
   1.4231229  59.7699919  95.7922509   0.6131958  59.4247004  96.1677755
   2.1115646  59.4607462  96.3810121   3.3521778  58.8477965  97.4146806
   3.9052816  59.2673419  98.0736829   3.5891864  57.9213714  97.4569762
   6.7300585  60.9578491  96.9225470   6.1499254  61.6163295  96.5403522
   6.4636517  60.1355835  96.5112887   5.1804151  60.3583548  99.1246790
   5.6803929  60.4700083  98.3161109   5.8239759  60.0544601  99.7647599
   5.5125463  63.1178581  95.9781818   4.6251318  63.4028232  95.7602013
   5.9279452  62.9572344  95.1309095   8.8639999  63.1425102  99.6936157
   9.6400389  63.6321554  99.9660774   8.1388133  63.5683156 100.1508027
  11.3012557  63.8552721 100.7510098  11.8957048  63.6148457 100.0403406
  11.3739141  63.1359852 101.3783634   4.6568676  72.8823256  90.0729838
   5.3604526  73.0873258  90.6887494   3.9331325  73.4500018  90.3378922
   5.4866486  68.6333117  96.1932108   5.4301688  69.0901668  95.3539741
   6.0394829  67.8723802  96.0154951   9.2971292  64.4222849  97.0182228
   9.0408227  64.0219484  97.8490436   8.6724160  65.1366643  96.8932367
  13.6083630  67.1618922  99.5253519  13.0483188  67.2312111 100.2985081
  13.0027134  66.9859907  98.8053015   6.5655374  73.3205785  92.1228298
   7.4000977  72.8886983  91.9405773   6.4039716  73.1487799  93.0505193
   6.2201266  69.8237898  93.4884638   6.1650069  69.6582170  92.5473082
   5.5947321  70.5313931  93.6446827   3.3449511  55.9188784  97.3215893
   2.5781906  55.3647271  97.4672575   3.7560216  55.9910653  98.1830044
  15.1939649  83.8375436 102.2183475  15.8318059  83.7182183 101.5146815
  15.0760492  84.7856280 102.2771427  12.0029355  83.7902864 102.1545000
  11.6647866  83.6743929 101.2665535  12.8719123  83.3894029 102.1346006
   7.8616171  85.6438341  98.1441891   7.2981036  85.5528277  97.3758178
   7.7468566  84.8238245  98.6244383  13.4415729  89.3109308  93.4556356
  12.7903709  89.8963389  93.0690369  14.2360092  89.8415503  93.5151393
   7.3671356  86.3998445  93.8543490   8.1402232  85.8527432  93.7156366
   7.7196755  87.2642695  94.0657951  10.1312606  85.1051676 103.6511749
  10.7276178  84.8807699 102.9368712  10.1887577  84.3636422 104.2537197
   9.7037634  82.5591111  91.4861940   9.9563155  82.0372633  90.7245403
   8.7662193  82.3957257  91.5888623  14.7480917  81.5626890  99.2936683
  15.5344006  81.1446313  98.9427100  15.0119621  82.4672982  99.4618331
  14.9190994  86.9999740  93.9925340  14.2836827  87.0734367  94.7046244
  14.5888401  87.5893339  93.3144419  20.1489344  81.5002123 100.1969662
  20.8814516  80.9301340 100.4307491  19.3928700  81.1123723 100.6376167
   9.4233923  84.4619217  93.6886315   9.3070181  83.7864121  94.3567399
   9.5336183  83.9751591  92.8718468  11.7665464  83.9229365  97.3933004
  11.4023671  83.3959986  98.1045925  12.6232580  83.5327834  97.2199489
  17.6714765  75.2123697 104.6564270  17.3398089  76.0819108 104.4325485
  17.0760378  74.8959981 105.3358301  11.4070951  78.9519264  92.3894352
  11.5745353  79.8199501  92.7564824  11.2168120  79.1146546  91.4655642
  14.1646284  87.4136243 104.0560183  13.8647007  88.3161282 103.9475990
  13.8197344  87.1468426 104.9081336   7.6158766  83.8650040 100.0896887
   6.6909262  83.7326254 100.2974579   7.8643179  84.6444259 100.5866830
  17.5643428  79.9318783 101.7357620  16.6560305  79.8634192 101.4416381
  17.5131024  80.4090728 102.5639446  11.3860172  81.4076922  93.3741019
  11.2659797  81.8533972  94.2126500  10.6912760  81.7562239  92.8154557
   9.1467064  94.1780563  97.0231151   9.0691094  95.1288389  97.1019631
   8.5428708  93.8326436  97.6806077  19.4305074  78.1335222 103.5135494
  18.7879455  78.4267755 102.8675289  18.9260003  78.0188142 104.3188691
  17.0845238  81.8798395  94.2021353  17.9963094  82.1125782  94.0269051
  16.5754885  82.4635439  93.6396432  11.7217076  81.2395630 105.2116203
  12.5678271  81.6635043 105.3550852  11.6615713  80.5829254 105.9054766
  15.6914820  86.8624213 101.5934935  15.0623683  87.0269927 100.8911003
  15.3040482  87.2765823 102.3645899  19.5704052  87.7978651  98.9479299
  18.8855090  88.1777553  98.3976332  19.6547901  88.4073978  99.6811246
  14.8716521  78.8999998 106.8697377  14.6277453  79.6542058 106.3331652
  15.1476452  79.2785345 107.7044624  16.8254984  85.4438610 105.5474642
  17.0371879  86.0870370 104.8709023  16.7784732  84.6100927 105.0796572
  14.4281213  78.0556431 102.4511214  13.5665692  78.3537684 102.7427952
  14.4543647  78.2726830 101.5192247  11.2442782  86.5998621  98.8585020
  11.7081128  86.8786324  98.0689642  10.9799580  85.6982066  98.6758111
   8.1366863  86.1470103 101.7964783   8.7068220  86.5757371 101.1582268
   8.7274975  85.8652688 102.4948969  10.1811668  82.7221774  95.6674585
  10.8835712  83.1742817  96.1348511   9.8492297  82.0805593  96.2954478
   3.9237002  80.9805326 100.9691719   3.1336056  81.2362855 100.4931829
   4.4148250  81.7953664 101.0743759  17.9400812  88.3210566 103.7196999
  18.7618255  87.9190753 103.4379681  17.9363215  88.2178800 104.6713115
   5.8751748  81.3449906  97.9275195   5.0782911  81.4568600  98.4458691
   5.6477340  81.6836558  97.0616086  26.0306805  84.6649314 100.0681971
  25.2770513  84.0956712  99.9125975  26.1654346  84.6311979 101.0152606
  11.4205433  89.5362716  95.7436690  11.2851108  90.3814252  96.1721538
  11.9615245  89.7381994  94.9802624   4.8734830  87.0538154  96.3164615
   5.3859351  87.8481405  96.4670180   5.5257543  86.3564445  96.2498217
   6.6829715  90.1703911  98.3987369   6.8596343  91.0921875  98.2108352
   7.4786548  89.8562330  98.8281748  14.7697896  73.0593278 104.2735584
  14.4262166  73.9494920 104.1974694  15.1376859  72.8694936 103.4105169
   2.8383747  85.3826809  97.0924186   3.6758969  85.7923817  96.8757894
   3.0162015  84.4426251  97.0624380  14.7348179  83.0501889  92.7808019
  14.2194803  83.8206494  93.0196406  14.4625488  82.3767026  93.4041080
  12.3195290  77.8951590  97.8393257  11.4636886  77.5058441  97.6598896
  12.7322242  77.9743551  96.9793043  13.8494437  75.4297933 102.2384817
  13.3459232  75.3928069 101.4252622  14.1425044  76.3390676 102.2981474
  10.0937323  75.5136663 101.2450999  10.9590319  75.3179472 100.8856888
  10.1614832  75.2847015 102.1720355  19.7082453  85.8034244  94.7161192
  18.9311896  85.4645404  94.2716354  20.3873934  85.8086867  94.0416157
  14.5234482  80.9228982  94.6067800  14.2184618  81.2375131  95.4577943
  15.4764924  81.0010401  94.6495133  12.9680914  87.0819205  96.2560754
  12.4402276  86.3471964  95.9433991  12.4668417  87.8593881  96.0100722
  17.9473760  85.2768225 101.3727800  17.2897435  85.9667487 101.4607929
  18.7514159  85.6664657 101.7161787   7.6999642  77.7438871  98.6167366
   8.2743394  77.5214053  97.8840558   8.2870624  77.8127566  99.3695967
  16.7579219  83.6312598  99.4231742  17.2711101  84.2642590  99.9253452
  17.4080443  83.0313794  99.0575102   8.0269229  79.7743332  92.6363251
   7.1906541  80.1118019  92.9572526   7.8873998  79.6392312  91.6990388
  10.0022309  74.6180120  97.3442435   9.3486722  74.3029137  96.7199050
   9.9602784  73.9955860  98.0702258  11.1133514  84.8999415  89.2595727
  10.2060576  84.6688669  89.4586876  11.6104546  84.1037034  89.4469709
  14.0201593  93.6096922  92.1792413  13.3463292  93.9128619  92.7877371
  14.4067415  94.4126003  91.8297870  13.2360050  81.1062054 101.6690083
  12.3182611  81.3277001 101.5111771  13.6520193  81.1808364 100.8101790
  14.0195098  82.5053469  96.7992763  14.7666917  83.0174866  96.4899885
  14.2886687  82.1837522  97.6597156  12.2921748  85.0012010  93.7819717
  11.3832967  84.7171043  93.8792187  12.3216832  85.4211089  92.9223024
  17.5241015  88.6118599  97.5510885  17.0703342  87.7709509  97.6076075
  16.8934982  89.2479998  97.8885665  16.4673935  79.5410586  98.7811552
  15.7296692  79.0287972  99.1121795  16.7200708  79.1010967  97.9694829
  15.9673954  90.4495096  98.4860703  16.2596929  91.0100153  97.7673068
  16.4772575  90.7423657  99.2413862  16.5685562  72.3186838  99.3753321
  16.8744439  71.4584201  99.0879236  17.2938167  72.9104458  99.1752315
   2.8609918  82.7217524  97.7634919   2.6634318  82.1286885  97.0385986
   2.3056582  82.4169734  98.4810858  10.8406642  82.6140631  99.8829512
  10.8955252  81.6614467  99.8071989  10.0297844  82.7700070 100.3670811
  11.9897836  86.5420754  91.1207796  11.5517265  85.8256613  90.6613433
  12.7308276  86.7696868  90.5592887   8.7799002  81.2317690  97.6419891
   7.9666867  81.5311861  98.0485083   9.2757996  80.8373379  98.3594374
  10.9307580  91.2275447  99.5754156  10.8883758  91.4536294  98.6462688
  11.8470278  90.9938822  99.7239957  14.3773213  81.6959515 106.4734785
  14.7322601  81.9230988 107.3329251  15.0245345  82.0277892 105.8512041
  20.1070950  84.8177951  97.1784114  19.9688849  85.0079547  96.2505303
  19.7507169  85.5797333  97.6352165   8.2713076  78.8036046 103.2581126
   8.9112456  78.6624805 102.5604090   7.4390607  78.5170559 102.8819728
  20.1340330  86.8854478 102.1895386  20.5676837  86.7929767 103.0378440
  20.8471911  86.8611978 101.5515402   9.0473380  88.1038476  99.3716119
   9.8413979  87.6088796  99.1698694   8.3365073  87.5756339  99.0083824
   5.3556144  82.2481558  95.4475871   4.4253732  82.1866013  95.6645834
   5.4513616  81.7257511  94.6512513   5.2741693  78.7736371  98.0354113
   5.5348510  79.6881704  97.9263274   6.0958865  78.3060813  98.1850726
  20.9955880  86.9278178 104.7228271  21.1891770  87.8323989 104.9687546
  20.8956498  86.4685597 105.5566856  12.6492190  76.8136069 107.2218599
  12.0020105  77.5126019 107.1283075  13.4193206  77.2472213 107.5894847
  12.8256325  84.6516834 105.2815418  13.7548385  84.8027993 105.1084386
  12.4047355  84.7400855 104.4264065  12.2192808  93.7776595  94.3939492
  12.3944564  93.3064638  95.2085115  11.5325596  94.4042361  94.6220753
  13.1749872  88.0549101 100.4402794  12.8399704  88.0149871 101.3360444
  12.6753817  87.3893817  99.9673204  16.1109063  85.4005135  90.7139853
  15.4938234  84.6751963  90.6172906  15.6425552  86.1614496  90.3706928
   7.9007609  79.6190560  89.8361158   7.0237075  79.4979360  89.4723404
   8.3765362  78.8276638  89.5840046  17.7680602  88.0743628 106.6059613
  16.8807381  87.7369549 106.7286012  18.3379153  87.3426659 106.8428379
  11.0871535  91.9716850  97.0823678  10.3039057  92.5138530  97.1761903
  11.7864280  92.4890830  97.4817919  14.3968185  77.7811479  99.7257883
  14.8936885  77.0281442  99.4058954  13.6255167  77.8175796  99.1601093
  22.2497943  83.4851845 101.3676175  22.2387819  84.3676560 100.9970108
  21.3815322  83.1323396 101.1730712  15.4797966  86.5383167  97.2996307
  14.5454245  86.6584629  97.1301011  15.6574634  85.6355633  97.0356317
  10.9803154  79.9228862  99.4529568  10.6100942  79.3699903 100.1410474
  11.4762246  79.3186996  98.9004568  18.8670517  82.3800486  97.8346341
  19.3330969  83.2128478  97.7606644  19.3178018  81.9145467  98.5391599
  16.9346748  88.7244307  94.8332493  17.2106592  88.6100902  95.7426367
  16.0651247  88.3261792  94.7944666  16.8387180  74.7481073 101.8737242
  15.9250260  74.9785300 102.0419449  17.2680281  74.8319517 102.7251275
  16.6093639  82.9370965 104.3737136  15.9565089  83.1846872 103.7189589
  16.9874018  82.1235103 104.0399614  13.5700812  92.9730658  98.4765307
  13.7523207  92.1552314  98.9393059  14.3933798  93.1898350  98.0390197
  13.9042978  91.8998843  95.7380355  14.4330744  91.3891298  95.1250517
  14.1671197  91.5841373  96.6025888   6.3768488  77.3332853 105.6982674
   6.4409814  78.1947684 105.2860072   6.3135608  76.7206855 104.9655033
   2.6286303  81.2132415  95.2774063   2.9239744  80.3043093  95.2241117
   1.7274339  81.1920154  94.9555066  14.5372382  92.9339679 102.0824472
  14.4123521  92.1329419 101.5735417  15.1951473  93.4285872 101.5938442
   6.1580550  79.2888411 101.2601612   5.4367136  79.9024379 101.1209085
   6.9473806  79.8246176 101.1818258  16.6007290  90.7348699 103.7104022
  15.6537626  90.6154050 103.6382348  16.9490063  89.8471197 103.7930283
   8.9606863  76.6242838 107.5342264   9.4841265  76.8705134 108.2968573
   8.7419197  77.4562873 107.1145401   4.3574145  78.8946512  95.4013388
   4.0286851  78.0143891  95.2188494   4.7113515  78.8394181  96.2889778
  13.6053723  90.5301415  99.9108374  13.4578686  89.6018123 100.0915944
  14.4307217  90.5521506  99.4265449   7.4715968  79.1819482  95.7688866
   7.8112040  79.7105404  95.0467474   7.9188088  79.5199888  96.5447433
  17.2087845  91.3529974 100.9973247  18.1334393  91.1472835 100.8597698
  17.0403149  91.1046375 101.9062588  10.1659408  77.5656533 105.2191934
   9.8256229  76.7664346 105.6212614   9.4598415  77.8658244 104.6468767
  10.8175880  74.6505845 103.6719257  11.6401950  74.1766324 103.5498147
  11.0613944  75.4296329 104.1717943   9.4584115  77.6794104  93.9682159
  10.1792477  78.0575357  93.4645876   8.8349419  78.3982981  94.0717137
  13.6015238  78.3839253  94.9040491  13.8178852  79.2663891  94.6029319
  13.1209305  77.9925466  94.1746133   8.3414459  81.3424966 101.4811236
   8.1959040  81.6565269 102.3735517   7.8639663  81.9609866 100.9282134
  10.2010842  78.3327514 101.5292125  10.1872411  77.4368607 101.1924423
  10.9183270  78.3398178 102.1630411  12.0536973  78.7664854 103.5745253
  11.7954750  79.6881925 103.5729583  11.5222013  78.3695289 104.2645717
  16.9983161  91.8715641  96.3535338  17.1720039  91.3062064  95.6009191
  17.4912053  92.6716536  96.1714828   9.6047738  77.2141894  96.7979695
   9.7263649  76.2858541  96.9970583   9.3149780  77.2280580  95.8858011
  12.4738928  74.8996805  99.9346415  12.4960625  74.9636138  98.9798395
  12.8906987  74.0601313 100.1286921  22.8522553  84.6352064  97.9725638
  23.2953699  83.8859390  97.5744761  21.9749063  84.6262201  97.5899370
  17.9858334  91.1882406  93.4532236  18.6809239  91.8089098  93.6719551
  18.3281484  90.3377757  93.7284614  19.8849757  88.6382111  94.9819567
  20.4101081  88.9769384  94.2568887  19.7972110  87.7029127  94.7982702
  19.6941538  86.1207481 107.6003494  19.7439543  85.9557489 108.5419016
  19.5855461  85.2534740 107.2101374   8.5777797  88.7996027  94.8895583
   8.7265917  89.4831491  94.2362255   9.3844240  88.7801117  95.4045038
  16.9845301  82.1038409 108.9162800  17.8855163  81.9644874 108.6246798
  17.0593275  82.2692864 109.8560978  11.3188106  79.4805264 107.7615987
  10.4491415  79.7738830 107.4898575  11.5547586  80.0645709 108.4823250
  21.1959735  88.5404423 107.8445515  20.9044543  88.9034403 108.6808976
  20.5831866  87.8271431 107.6658847  22.3955417  86.1057303 100.3648085
  23.2302309  86.5447107 100.5285646  22.5314546  85.6295956  99.5456331
  19.4446923  83.6637037 106.3125573  19.9201045  83.8564684 105.5044425
  18.5212489  83.7196223 106.0668957   6.3330430  84.8261205  95.8956651
   6.0876472  83.9223535  96.0936862   6.5026344  84.8278355  94.9536129
  14.0227140  75.6984881 105.2781407  14.5409084  76.4345908 104.9527896
  13.6682272  76.0048874 106.1128166   5.6026077  80.5589562  93.3942813
   4.9095322  80.6333917  92.7382849   5.3577829  79.7949906  93.9164330
  14.2739734  72.1185164 100.7982304  14.5541488  71.4508353 101.4242730
  15.0590341  72.3114259 100.2856968  12.0773202  91.2944157  92.3607330
  11.5047169  91.9134345  91.9077802  12.6505996  91.8443519  92.8947252
  18.1448592  80.5402798 104.5453879  19.0966015  80.6400895 104.5666103
  17.9752043  79.7481066 105.0551963  16.1662972  77.6258381 104.7313280
  15.5712904  77.9063393 104.0359768  15.8812668  78.1152282 105.5030021
  15.2970462  91.5781308  93.4915912  16.2301135  91.5126869  93.6948788
  15.2093675  92.4137574  93.0330445  17.9258479  90.8947178  90.4519860
  17.8472110  90.5607042  91.3455618  18.7468146  91.3868946  90.4511332
  20.6236670  83.7608917 103.6596178  20.5912990  82.8224918 103.8455862
  21.2337294  83.8392954 102.9262003  12.4620001  82.6304970  89.7023382
  13.4079106  82.5011178  89.7711801  12.0834246  81.8919632  90.1792811
  20.7731158  80.5519961 103.7054462  20.2570207  79.7678417 103.5184390
  21.6571107  80.2238677 103.8700981  18.4341885  74.2960976  99.6650274
  18.2366707  73.9876064 100.5493606  19.0441591  75.0222615  99.7948204
  26.4413220  84.8224924 102.8002215  27.1716608  84.5610212 103.3609919
  25.8320165  84.0853646 102.8404283  24.5228517  82.9632787 103.3976666
  23.7961681  82.8288752 102.7893158  24.1075804  83.2709615 104.2033384
  10.6462918  80.5554947  89.6378268   9.7394373  80.2588059  89.7140981
  10.9238899  80.2584765  88.7712554  12.2624984  75.0991836  95.7922509
  11.4525712  74.7538921  96.1677755  12.9509401  74.7899380  96.3810121
  14.1915532  74.1769883  97.4146806  14.7446571  74.5965337  98.0736829
  14.4285618  73.2505631  97.4569762   9.4161703  77.4141882  89.7790247
  10.2780867  77.7396780  90.0386064   9.6012047  76.6273378  89.2663313
  17.5694339  76.2870408  96.9225470  16.9893008  76.9455212  96.5403522
  17.3030272  75.4647753  96.5112887  16.0197905  75.6875466  99.1246790
  16.5197684  75.7992001  98.3161109  16.6633513  75.3836519  99.7647599
  16.3519217  78.4470499  95.9781818  15.4645072  78.7320149  95.7602013
  16.7673206  78.2864262  95.1309095  19.7033753  78.4717020  99.6936157
  20.4794143  78.9613472  99.9660774  18.9781887  78.8975074 100.1508027
  22.1406312  79.1844639 100.7510098  22.7350803  78.9440375 100.0403406
  22.2132896  78.4651769 101.3783634  15.4962431  88.2115173  90.0729838
  16.1998281  88.4165176  90.6887494  14.7725079  88.7791935  90.3378922
  16.3260241  83.9625035  96.1932108  16.2695442  84.4193586  95.3539741
  16.8788583  83.2015719  96.0154951  20.1365047  79.7514766  97.0182228
  19.8801981  79.3511402  97.8490436  19.5117915  80.4658560  96.8932367
  24.4477385  82.4910840  99.5253519  23.8876943  82.5604029 100.2985081
  23.8420888  82.3151824  98.8053015  17.4049128  88.6497703  92.1228298
  18.2394732  88.2178901  91.9405773  17.2433471  88.4779716  93.0505193
  17.0595020  85.1529816  93.4884638  17.0043824  84.9874087  92.5473082
  16.4341075  85.8605849  93.6446827  10.3691146  74.6537925  93.0669956
  10.3569815  75.5979765  93.2238227  11.2614568  74.4708070  92.7729417
  14.1843265  71.2480701  97.3215893  13.4175661  70.6939188  97.4672575
  14.5953970  71.3202570  98.1830044  26.0333403  99.1667354 102.2183475
  26.6711813  99.0474101 101.5146815  25.9154246 100.1148198 102.2771427
  22.8423109  99.1194782 102.1545000  22.5041621  99.0035846 101.2665535
  23.7112878  98.7185947 102.1346006  18.7009925 100.9730258  98.1441891
  18.1374790 100.8820195  97.3758178  18.5862320 100.1530163  98.6244383
  24.2809484 104.6401226  93.4556356  23.6297464 105.2255306  93.0690369
  25.0753847 105.1707421  93.5151393  18.2065111 101.7290363  93.8543490
  18.9795987 101.1819350  93.7156366  18.5590510 102.5934612  94.0657951
  20.9706360 100.4343594 103.6511749  21.5669933 100.2099616 102.9368712
  21.0281332  99.6928339 104.2537197  20.5431389  97.8883029  91.4861940
  20.7956909  97.3664550  90.7245403  19.6055948  97.7249175  91.5888623
  25.5874672  96.8918808  99.2936683  26.3737761  96.4738231  98.9427100
  25.8513376  97.7964900  99.4618331  25.7584749 102.3291658  93.9925340
  25.1230582 102.4026284  94.7046244  25.4282155 102.9185257  93.3144419
  30.9883099  96.8294041 100.1969662  31.7208271  96.2593258 100.4307491
  30.2322454  96.4415641 100.6376167  20.2627678  99.7911135  93.6886315
  20.1463936  99.1156038  94.3567399  20.3729937  99.3043509  92.8718468
  22.6059218  99.2521282  97.3933004  22.2417426  98.7251903  98.1045925
  23.4626334  98.8619751  97.2199489  28.5108519  90.5415615 104.6564270
  28.1791844  91.4111026 104.4325485  27.9154132  90.2251899 105.3358301
  22.2464705  94.2811182  92.3894352  22.4139108  95.1491418  92.7564824
  22.0561874  94.4438464  91.4655642  25.0040039 102.7428161 104.0560183
  24.7040762 103.6453200 103.9475990  24.6591098 102.4760344 104.9081336
  18.4552520  99.1941958 100.0896887  17.5303017  99.0618172 100.2974579
  18.7036933  99.9736177 100.5866830  28.4037182  95.2610701 101.7357620
  27.4954060  95.1926109 101.4416381  28.3524778  95.7382646 102.5639446
  22.2253926  96.7368839  93.3741019  22.1053551  97.1825890  94.2126500
  21.5306515  97.0854157  92.8154557  19.9860818 109.5072481  97.0231151
  19.9084848 110.4580306  97.1019631  19.3822462 109.1618354  97.6806077
  30.2698829  93.4627139 103.5135494  29.6273209  93.7559673 102.8675289
  29.7653757  93.3480060 104.3188691  27.9238992  97.2090313  94.2021353
  28.8356849  97.4417699  94.0269051  27.4148640  97.7927357  93.6396432
  22.5610830  96.5687547 105.2116203  23.4072025  96.9926961 105.3550852
  22.5009468  95.9121171 105.9054766  26.5308575 102.1916131 101.5934935
  25.9017437 102.3561845 100.8911003  26.1434237 102.6057741 102.3645899
  30.4097807 103.1270569  98.9479299  29.7248845 103.5069470  98.3976332
  30.4941656 103.7365896  99.6811246  25.7110275  94.2291916 106.8697377
  25.4671207  94.9833976 106.3331652  25.9870206  94.6077263 107.7044624
  27.6648738 100.7730528 105.5474642  27.8765634 101.4162288 104.8709023
  27.6178487  99.9392844 105.0796572  25.2674967  93.3848349 102.4511214
  24.4059446  93.6829602 102.7427952  25.2937402  93.6018747 101.5192247
  22.0836537 101.9290539  98.8585020  22.5474882 102.2078242  98.0689642
  21.8193335 101.0273984  98.6758111  18.9760618 101.4762021 101.7964783
  19.5461975 101.9049289 101.1582268  19.5668730 101.1944605 102.4948969
  21.0205423  98.0513691  95.6674585  21.7229466  98.5034735  96.1348511
  20.6886051  97.4097510  96.2954478  14.7630757  96.3097244 100.9691719
  13.9729811  96.5654773 100.4931829  15.2542004  97.1245582 101.0743759
  28.7794566 103.6502483 103.7196999  29.6012010 103.2482671 103.4379681
  28.7756969 103.5470717 104.6713115  16.7145502  96.6741823  97.9275195
  15.9176665  96.7860518  98.4458691  16.4871094  97.0128476  97.0616086
  36.8700559  99.9941232 100.0681971  36.1164268  99.4248630  99.9125975
  37.0048100  99.9603896 101.0152606  22.2599187 104.8654634  95.7436690
  22.1244862 105.7106170  96.1721538  22.8009000 105.0673912  94.9802624
  15.7128585 102.3830072  96.3164615  16.2253105 103.1773322  96.4670180
  16.3651298 101.6856363  96.2498217  17.5223469 105.4995828  98.3987369
  17.6990098 106.4213793  98.2108352  18.3180303 105.1854248  98.8281748
  25.6091651  88.3885196 104.2735584  25.2655920  89.2786838 104.1974694
  25.9770613  88.1986854 103.4105169  13.6777501 100.7118726  97.0924186
  14.5152723 101.1215735  96.8757894  13.8555769  99.7718169  97.0624380
  25.5741934  98.3793807  92.7808019  25.0588557  99.1498412  93.0196406
  25.3019242  97.7058943  93.4041080  23.1589045  93.2243508  97.8393257
  22.3030641  92.8350358  97.6598896  23.5715996  93.3035469  96.9793043
  24.6888191  90.7589851 102.2384817  24.1852987  90.7219986 101.4252622
  24.9818798  91.6682594 102.2981474  20.9331077  90.8428581 101.2450999
  21.7984074  90.6471390 100.8856888  21.0008586  90.6138933 102.1720355
  30.5476208 101.1326162  94.7161192  29.7705651 100.7937321  94.2716354
  31.2267689 101.1378785  94.0416157  25.3628237  96.2520899  94.6067800
  25.0578372  96.5667048  95.4577943  26.3158679  96.3302319  94.6495133
  23.8074669 102.4111123  96.2560754  23.2796030 101.6763882  95.9433991
  23.3062171 103.1885799  96.0100722  28.7867515 100.6060143 101.3727800
  28.1291189 101.2959404 101.4607929  29.5907914 100.9956575 101.7161787
  18.5393396  93.0730789  98.6167366  19.1137148  92.8505970  97.8840558
  19.1264379  93.1419483  99.3695967  27.5972973  98.9604516  99.4231742
  28.1104855  99.5934508  99.9253452  28.2474197  98.3605711  99.0575102
  18.8662983  95.1035250  92.6363251  18.0300296  95.4409936  92.9572526
  18.7267753  94.9684230  91.6990388  20.8416064  89.9472038  97.3442435
  20.1880476  89.6321055  96.7199050  20.7996538  89.3247778  98.0702258
  21.9527269 100.2291333  89.2595727  21.0454331  99.9980586  89.4586876
  22.4498301  99.4328952  89.4469709  24.8595348 108.9388840  92.1792413
  24.1857046 109.2420537  92.7877371  25.2461170 109.7417920  91.8297870
  24.0753804  96.4353971 101.6690083  23.1576366  96.6568918 101.5111771
  24.4913948  96.5100282 100.8101790  24.8588852  97.8345387  96.7992763
  25.6060671  98.3466784  96.4899885  25.1280442  97.5129440  97.6597156
  23.1315502 100.3303928  93.7819717  22.2226722 100.0462960  93.8792187
  23.1610586 100.7503006  92.9223024  28.3634770 103.9410517  97.5510885
  27.9097097 103.1001427  97.6076075  27.7328736 104.5771916  97.8885665
  27.3067689  94.8702503  98.7811552  26.5690446  94.3579889  99.1121795
  27.5594463  94.4302885  97.9694829  26.8067709 105.7787014  98.4860703
  27.0990683 106.3392071  97.7673068  27.3166329 106.0715575  99.2413862
  27.4079317  87.6478755  99.3753321  27.7138193  86.7876119  99.0879236
  28.1331921  88.2396375  99.1752315  13.7003673  98.0509442  97.7634919
  13.5028072  97.4578802  97.0385986  13.1450337  97.7461652  98.4810858
  21.6800396  97.9432548  99.8829512  21.7349006  96.9906385  99.8071989
  20.8691598  98.0991987 100.3670811  22.8291590 101.8712671  91.1207796
  22.3911020 101.1548530  90.6613433  23.5702031 102.0988786  90.5592887
  19.6192756  96.5609608  97.6419891  18.8060622  96.8603779  98.0485083
  20.1151750  96.1665297  98.3594374  21.7701334 106.5567365  99.5754156
  21.7277513 106.7828211  98.6462688  22.6864033 106.3230740  99.7239957
  25.2166968  97.0251432 106.4734785  25.5716356  97.2522906 107.3329251
  25.8639099  97.3569809 105.8512041  30.9464705 100.1469868  97.1784114
  30.8082603 100.3371464  96.2505303  30.5900924 100.9089251  97.6352165
  19.1106831  94.1327964 103.2581126  19.7506210  93.9916723 102.5604090
  18.2784362  93.8462477 102.8819728  30.9734084 102.2146395 102.1895386
  31.4070591 102.1221684 103.0378440  31.6865665 102.1903896 101.5515402
  19.8867135 103.4330394  99.3716119  20.6807733 102.9380714  99.1698694
  19.1758827 102.9048257  99.0083824  16.1949898  97.5773476  95.4475871
  15.2647486  97.5157931  95.6645834  16.2907370  97.0549428  94.6512513
  16.1135447  94.1028289  98.0354113  16.3742265  95.0173622  97.9263274
  16.9352620  93.6352731  98.1850726  31.8349634 102.2570096 104.7228271
  32.0285524 103.1615907 104.9687546  31.7350252 101.7977515 105.5566856
  23.4885945  92.1427987 107.2218599  22.8413860  92.8417936 107.1283075
  24.2586960  92.5764131 107.5894847  23.6650079  99.9808752 105.2815418
  24.5942139 100.1319911 105.1084386  23.2441109 100.0692772 104.4264065
  23.0586563 109.1068512  94.3939492  23.2338319 108.6356556  95.2085115
  22.3719351 109.7334279  94.6220753  24.0143626 103.3841019 100.4402794
  23.6793459 103.3441789 101.3360444  23.5147572 102.7185735  99.9673204
  26.9502818 100.7297053  90.7139853  26.3331988 100.0043881  90.6172906
  26.4819306 101.4906413  90.3706928  18.7401364  94.9482477  89.8361158
  17.8630830  94.8271278  89.4723404  19.2159117  94.1568556  89.5840046
  28.6074357 103.4035545 106.6059613  27.7201135 103.0661467 106.7286012
  29.1772908 102.6718576 106.8428379  21.9265290 107.3008768  97.0823678
  21.1432811 107.8430448  97.1761903  22.6258035 107.8182747  97.4817919
  25.2361940  93.1103397  99.7257883  25.7330639  92.3573359  99.4058954
  24.4648921  93.1467714  99.1601093  33.0891697  98.8143763 101.3676175
  33.0781573  99.6968478 100.9970108  32.2209077  98.4615313 101.1730712
  26.3191720 101.8675084  97.2996307  25.3847999 101.9876547  97.1301011
  26.4968389 100.9647551  97.0356317  21.8196908  95.2520780  99.4529568
  21.4494696  94.6991820 100.1410474  22.3156001  94.6478914  98.9004568
  29.7064272  97.7092404  97.8346341  30.1724724  98.5420395  97.7606644
  30.1571772  97.2437385  98.5391599  27.7740503 104.0536225  94.8332493
  28.0500347 103.9392819  95.7426367  26.9045002 103.6553710  94.7944666
  27.6780935  90.0772991 101.8737242  26.7644014  90.3077217 102.0419449
  28.1074036  90.1611435 102.7251275  27.4487393  98.2662883 104.3737136
  26.7958843  98.5138790 103.7189589  27.8267773  97.4527021 104.0399614
  24.4094567 108.3022576  98.4765307  24.5916961 107.4844232  98.9393059
  25.2327553 108.5190268  98.0390197  24.7436732 107.2290761  95.7380355
  25.2724499 106.7183215  95.1250517  25.0064952 106.9133291  96.6025888
  17.2162242  92.6624771 105.6982674  17.2803569  93.5239602 105.2860072
  17.1529362  92.0498773 104.9655033  13.4680057  96.5424333  95.2774063
  13.7633498  95.6335011  95.2241117  12.5668093  96.5212072  94.9555066
  25.3766136 108.2631597 102.0824472  25.2517276 107.4621336 101.5735417
  26.0345227 108.7577790 101.5938442  16.9974304  94.6180329 101.2601612
  16.2760890  95.2316297 101.1209085  17.7867560  95.1538094 101.1818258
  27.4401045 106.0640617 103.7104022  26.4931380 105.9445968 103.6382348
  27.7883818 105.1763115 103.7930283  19.8000618  91.9534756 107.5342264
  20.3235020  92.1997052 108.2968573  19.5812951  92.7854790 107.1145401
  15.1967899  94.2238430  95.4013388  14.8680605  93.3435809  95.2188494
  15.5507270  94.1686099  96.2889778  24.4447478 105.8593333  99.9108374
  24.2972440 104.9310040 100.0915944  25.2700971 105.8813424  99.4265449
  18.3109722  94.5111400  95.7688866  18.6505795  95.0397321  95.0467474
  18.7581843  94.8491806  96.5447433  28.0481600 106.6821892 100.9973247
  28.9728147 106.4764753 100.8597698  27.8796903 106.4338293 101.9062588
  21.0053163  92.8948451 105.2191934  20.6649983  92.0956264 105.6212614
  20.2992169  93.1950162 104.6468767  21.6569635  89.9797763 103.6719257
  22.4795704  89.5058241 103.5498147  21.9007698  90.7588247 104.1717943
  20.2977869  93.0086022  93.9682159  21.0186232  93.3867274  93.4645876
  19.6743173  93.7274898  94.0717137  24.4408992  93.7131171  94.9040491
  24.6572607  94.5955808  94.6029319  23.9603059  93.3217384  94.1746133
  19.1808214  96.6716884 101.4811236  19.0352794  96.9857187 102.3735517
  18.7033417  97.2901784 100.9282134  21.0404596  93.6619432 101.5292125
  21.0266165  92.7660525 101.1924423  21.7577025  93.6690095 102.1630411
  22.8930727  94.0956772 103.5745253  22.6348505  95.0173843 103.5729583
  22.3615768  93.6987206 104.2645717  27.8376916 107.2007559  96.3535338
  28.0113793 106.6353982  95.6009191  28.3305807 108.0008454  96.1714828
  20.4441492  92.5433812  96.7979695  20.5657404  91.6150458  96.9970583
  20.1543535  92.5572498  95.8858011  23.3132683  90.2288722  99.9346415
  23.3354380  90.2928056  98.9798395  23.7300742  89.3893231 100.1286921
  33.6916307  99.9643982  97.9725638  34.1347453  99.2151307  97.5744761
  32.8142817  99.9554118  97.5899370  28.8252088 106.5174323  93.4532236
  29.5202993 107.1381016  93.6719551  29.1675239 105.6669675  93.7284614
  30.7243512 103.9674029  94.9819567  31.2494836 104.3061302  94.2568887
  30.6365864 103.0321044  94.7982702  30.5335293 101.4499399 107.6003494
  30.5833298 101.2849406 108.5419016  30.4249216 100.5826658 107.2101374
  19.4171551 104.1287945  94.8895583  19.5659672 104.8123409  94.2362255
  20.2237995 104.1093035  95.4045038  27.8239055  97.4330327 108.9162800
  28.7248918  97.2936792 108.6246798  27.8987030  97.5984782 109.8560978
  22.1581860  94.8097182 107.7615987  21.2885170  95.1030748 107.4898575
  22.3941341  95.3937627 108.4823250  32.0353489 103.8696341 107.8445515
  31.7438298 104.2326321 108.6808976  31.4225621 103.1563349 107.6658847
  33.2349172 101.4349220 100.3648085  34.0696063 101.8739024 100.5285646
  33.3708301 100.9587874  99.5456331  30.2840678  98.9928955 106.3125573
  30.7594799  99.1856601 105.5044425  29.3606243  99.0488141 106.0668957
  17.1724184 100.1553122  95.8956651  16.9270226  99.2515452  96.0936862
  17.3420099 100.1570273  94.9536129  24.8620894  91.0276799 105.2781407
  25.3802838  91.7637826 104.9527896  24.5076027  91.3340792 106.1128166
  16.4419832  95.8881480  93.3942813  15.7489077  95.9625835  92.7382849
  16.1971584  95.1241824  93.9164330  25.1133488  87.4477081 100.7982304
  25.3935242  86.7800270 101.4242730  25.8984095  87.6406177 100.2856968
  22.9166957 106.6236075  92.3607330  22.3440924 107.2426262  91.9077802
  23.4899751 107.1735437  92.8947252  28.9842347  95.8694715 104.5453879
  29.9359770  95.9692813 104.5666103  28.8145797  95.0772984 105.0551963
  27.0056726  92.9550298 104.7313280  26.4106658  93.2355311 104.0359768
  26.7206423  93.4444199 105.5030021  26.1364217 106.9073225  93.4915912
  27.0694890 106.8418787  93.6948788  26.0487429 107.7429492  93.0330445
  28.7652233 106.2239096  90.4519860  28.6865865 105.8898959  91.3455618
  29.5861900 106.7160864  90.4511332  31.4630424  99.0900835 103.6596178
  31.4306745  98.1516836 103.8455862  32.0731048  99.1684872 102.9262003
  23.3013755  97.9596888  89.7023382  24.2472860  97.8303096  89.7711801
  22.9228000  97.2211550  90.1792811  31.6124913  95.8811878 103.7054462
  31.0963962  95.0970335 103.5184390  32.4964862  95.5530595 103.8700981
  29.2735640  89.6252894  99.6650274  29.0760461  89.3167982 100.5493606
  29.8835345  90.3514533  99.7948204  37.2806974 100.1516842 102.8002215
  38.0110363  99.8902130 103.3609919  36.6713920  99.4145564 102.8404283
  35.3622271  98.2924704 103.3976666  34.6355435  98.1580669 102.7893158
  34.9469558  98.6001533 104.2033384  21.4856673  95.8846864  89.6378268
  20.5788128  95.5879977  89.7140981  21.7632654  95.5876682  88.7712554
  23.1018738  90.4283754  95.7922509  22.2919467  90.0830839  96.1677755
  23.7903155  90.1191298  96.3810121  25.0309287  89.5061801  97.4146806
  25.5840325  89.9257254  98.0736829  25.2679373  88.5797549  97.4569762
  20.2555457  92.7433800  89.7790247  21.1174621  93.0688698  90.0386064
  20.4405801  91.9565295  89.2663313  28.4088094  91.6162326  96.9225470
  27.8286763  92.2747130  96.5403522  28.1424026  90.7939671  96.5112887
  26.8591660  91.0167384  99.1246790  27.3591438  91.1283918  98.3161109
  27.5027268  90.7128437  99.7647599  27.1912972  93.7762416  95.9781818
  26.3038827  94.0612067  95.7602013  27.6066961  93.6156180  95.1309095
  30.5427508  93.8008937  99.6936157  31.3187898  94.2905390  99.9660774
  29.8175642  94.2266992 100.1508027  32.9800066  94.5136557 100.7510098
  33.5744557  94.2732293 100.0403406  33.0526650  93.7943687 101.3783634
  26.3356185 103.5407091  90.0729838  27.0392035 103.7457094  90.6887494
  25.6118834 104.1083853  90.3378922  27.1653995  99.2916952  96.1932108
  27.1089197  99.7485504  95.3539741  27.7182338  98.5307637  96.0154951
  30.9758801  95.0806684  97.0182228  30.7195736  94.6803320  97.8490436
  30.3511669  95.7950478  96.8932367  35.2871139  97.8202757  99.5253519
  34.7270697  97.8895947 100.2985081  34.6814643  97.6443742  98.8053015
  28.2442883 103.9789620  92.1228298  29.0788486 103.5470819  91.9405773
  28.0827225 103.8071634  93.0505193  27.8988775 100.4821734  93.4884638
  27.8437578 100.3166005  92.5473082  27.2734830 101.1897766  93.6446827
  21.2084900  89.9829843  93.0669956  21.1963570  90.9271682  93.2238227
  22.1008322  89.7999988  92.7729417  25.0237020  86.5772619  97.3215893
  24.2569415  86.0231106  97.4672575  25.4347725  86.6494488  98.1830044
  36.8727158 114.4959271 102.2183475  37.5105568 114.3766019 101.5146815
  36.7548000 115.4440115 102.2771427  33.6816864 114.4486699 102.1545000
  33.3435375 114.3327764 101.2665535  34.5506632 114.0477865 102.1346006
  31.3825143 113.2174947  91.4861940  31.6350664 112.6956468  90.7245403
  30.4449702 113.0541092  91.5888623  36.4268426 112.2210725  99.2936683
  37.2131515 111.8030148  98.9427100  36.6907130 113.1256817  99.4618331
  41.8276853 112.1585958 100.1969662  42.5602025 111.5885175 100.4307491
  41.0716209 111.7707559 100.6376167  33.4452973 114.5813200  97.3933004
  33.0811180 114.0543821  98.1045925  34.3020089 114.1911669  97.2199489
  39.3502274 105.8707532 104.6564270  39.0185598 106.7402943 104.4325485
  38.7547887 105.5543816 105.3358301  33.0858460 109.6103100  92.3894352
  33.2532862 110.4783336  92.7564824  32.8955629 109.7730381  91.4655642
  39.2430937 110.5902619 101.7357620  38.3347814 110.5218027 101.4416381
  39.1918533 111.0674564 102.5639446  33.0647681 112.0660757  93.3741019
  32.9447306 112.5117808  94.2126500  32.3700269 112.4146075  92.8154557
  41.1092583 108.7919057 103.5135494  40.4666964 109.0851590 102.8675289
  40.6047512 108.6771977 104.3188691  38.7632747 112.5382230  94.2021353
  39.6750603 112.7709617  94.0269051  38.2542394 113.1219274  93.6396432
  33.4004585 111.8979465 105.2116203  34.2465780 112.3218878 105.3550852
  33.3403222 111.2413089 105.9054766  36.5504030 109.5583833 106.8697377
  36.3064962 110.3125894 106.3331652  36.8263960 109.9369181 107.7044624
  38.5042493 116.1022446 105.5474642  38.7159388 116.7454205 104.8709023
  38.4572241 115.2684762 105.0796572  36.1068722 108.7140266 102.4511214
  35.2453201 109.0121520 102.7427952  36.1331156 108.9310665 101.5192247
  31.8599177 113.3805609  95.6674585  32.5623221 113.8326653  96.1348511
  31.5279806 112.7389428  96.2954478  25.6024511 111.6389162 100.9691719
  24.8123565 111.8946690 100.4931829  26.0935759 112.4537500 101.0743759
  27.5539257 112.0033741  97.9275195  26.7570420 112.1152435  98.4458691
  27.3264849 112.3420393  97.0616086  47.7094314 115.3233149 100.0681971
  46.9558022 114.7540548  99.9125975  47.8441855 115.2895814 101.0152606
  36.4485405 103.7177114 104.2735584  36.1049675 104.6078755 104.1974694
  36.8164368 103.5278771 103.4105169  36.4135688 113.7085725  92.7808019
  35.8982312 114.4790329  93.0196406  36.1412997 113.0350861  93.4041080
  33.9982799 108.5535426  97.8393257  33.1424395 108.1642276  97.6598896
  34.4109751 108.6327386  96.9793043  35.5281946 106.0881769 102.2384817
  35.0246741 106.0511904 101.4252622  35.8212553 106.9974512 102.2981474
  31.7724832 106.1720499 101.2450999  32.6377828 105.9763307 100.8856888
  31.8402341 105.9430850 102.1720355  41.3869962 116.4618079  94.7161192
  40.6099405 116.1229239  94.2716354  42.0661443 116.4670703  94.0416157
  36.2021991 111.5812817  94.6067800  35.8972127 111.8958966  95.4577943
  37.1552433 111.6594237  94.6495133  39.6261269 115.9352061 101.3727800
  38.9684944 116.6251322 101.4607929  40.4301668 116.3248493 101.7161787
  29.3787151 108.4022706  98.6167366  29.9530903 108.1797888  97.8840558
  29.9658133 108.4711401  99.3695967  38.4366728 114.2896433  99.4231742
  38.9498610 114.9226425  99.9253452  39.0867952 113.6897629  99.0575102
  29.7056738 110.4327168  92.6363251  28.8694050 110.7701854  92.9572526
  29.5661507 110.2976147  91.6990388  31.6809818 105.2763955  97.3442435
  31.0274231 104.9612973  96.7199050  31.6390293 104.6539696  98.0702258
  34.9147559 111.7645889 101.6690083  33.9970120 111.9860836 101.5111771
  35.3307702 111.8392199 100.8101790  35.6982607 113.1637305  96.7992763
  36.4454426 113.6758702  96.4899885  35.9674196 112.8421357  97.6597156
  38.1461444 110.1994421  98.7811552  37.4084201 109.6871807  99.1121795
  38.3988217 109.7594802  97.9694829  38.2473071 102.9770673  99.3753321
  38.5531948 102.1168036  99.0879236  38.9725676 103.5688293  99.1752315
  32.5194151 113.2724466  99.8829512  32.5742761 112.3198302  99.8071989
  31.7085353 113.4283905 100.3670811  30.4586511 111.8901526  97.6419891
  29.6454376 112.1895696  98.0485083  30.9545505 111.4957214  98.3594374
  36.0560722 112.3543350 106.4734785  36.4110110 112.5814823 107.3329251
  36.7032854 112.6861727 105.8512041  41.7858459 115.4761786  97.1784114
  41.6476358 115.6663382  96.2505303  41.4294678 116.2381169  97.6352165
  29.9500585 109.4619881 103.2581126  30.5899965 109.3208640 102.5604090
  29.1178116 109.1754395 102.8819728  41.8127839 117.5438313 102.1895386
  42.2464346 117.4513602 103.0378440  42.5259420 117.5195814 101.5515402
  27.0343653 112.9065393  95.4475871  26.1041241 112.8449849  95.6645834
  27.1301125 112.3841346  94.6512513  26.9529202 109.4320206  98.0354113
  27.2136019 110.3465539  97.9263274  27.7746374 108.9644649  98.1850726
  42.6743388 117.5862014 104.7228271  42.8679279 118.4907824 104.9687546
  42.5744007 117.1269433 105.5566856  34.3279699 107.4719904 107.2218599
  33.6807614 108.1709854 107.1283075  35.0980715 107.9056048 107.5894847
  34.5043834 115.3100669 105.2815418  35.4335894 115.4611829 105.1084386
  34.0834864 115.3984690 104.4264065  37.7896572 116.0588971  90.7139853
  37.1725743 115.3335799  90.6172906  37.3213061 116.8198331  90.3706928
  29.5795118 110.2774395  89.8361158  28.7024584 110.1563196  89.4723404
  30.0552871 109.4860473  89.5840046  36.0755694 108.4395315  99.7257883
  36.5724394 107.6865277  99.4058954  35.3042676 108.4759631  99.1601093
  43.9285452 114.1435680 101.3676175  43.9175328 115.0260396 100.9970108
  43.0602831 113.7907231 101.1730712  32.6590663 110.5812698  99.4529568
  32.2888450 110.0283738 100.1410474  33.1549755 109.9770831  98.9004568
  40.5458026 113.0384321  97.8346341  41.0118478 113.8712313  97.7606644
  40.9965527 112.5729303  98.5391599  38.5174689 105.4064908 101.8737242
  37.6037769 105.6369135 102.0419449  38.9467790 105.4903352 102.7251275
  38.2881147 113.5954800 104.3737136  37.6352598 113.8430708 103.7189589
  38.6661527 112.7818938 104.0399614  28.0555997 107.9916689 105.6982674
  28.1197323 108.8531519 105.2860072  27.9923117 107.3790690 104.9655033
  24.3073812 111.8716250  95.2774063  24.6027253 110.9626929  95.2241117
  23.4061848 111.8503990  94.9555066  27.8368059 109.9472247 101.2601612
  27.1154645 110.5608214 101.1209085  28.6261315 110.4830012 101.1818258
  30.6394372 107.2826673 107.5342264  31.1628774 107.5288970 108.2968573
  30.4206706 108.1146708 107.1145401  26.0361653 109.5530348  95.4013388
  25.7074360 108.6727727  95.2188494  26.3901024 109.4978017  96.2889778
  29.1503477 109.8403318  95.7688866  29.4899549 110.3689239  95.0467474
  29.5975597 110.1783724  96.5447433  31.8446917 108.2240368 105.2191934
  31.5043738 107.4248181 105.6212614  31.1385924 108.5242079 104.6468767
  32.4963389 105.3089681 103.6719257  33.3189459 104.8350159 103.5498147
  32.7401453 106.0880165 104.1717943  31.1371624 108.3377939  93.9682159
  31.8579986 108.7159192  93.4645876  30.5136928 109.0566816  94.0717137
  35.2802747 109.0423088  94.9040491  35.4966361 109.9247726  94.6029319
  34.7996814 108.6509302  94.1746133  30.0201968 112.0008801 101.4811236
  29.8746549 112.3149104 102.3735517  29.5427172 112.6193702 100.9282134
  31.8798351 108.9911349 101.5292125  31.8659920 108.0952443 101.1924423
  32.5970779 108.9982013 102.1630411  33.7324482 109.4248690 103.5745253
  33.4742259 110.3465760 103.5729583  33.2009522 109.0279124 104.2645717
  31.2835247 107.8725730  96.7979695  31.4051158 106.9442376  96.9970583
  30.9937289 107.8864416  95.8858011  34.1526437 105.5580640  99.9346415
  34.1748134 105.6219973  98.9798395  34.5694496 104.7185149 100.1286921
  44.5310062 115.2935900  97.9725638  44.9741208 114.5443225  97.5744761
  43.6536572 115.2846036  97.5899370  41.3729047 116.7791317 107.6003494
  41.4227052 116.6141324 108.5419016  41.2642970 115.9118576 107.2101374
  38.6632810 112.7622245 108.9162800  39.5642672 112.6228710 108.6246798
  38.7380784 112.9276700 109.8560978  32.9975615 110.1389099 107.7615987
  32.1278924 110.4322666 107.4898575  33.2335095 110.7229544 108.4823250
  44.0742926 116.7641138 100.3648085  44.9089818 117.2030942 100.5285646
  44.2102055 116.2879791  99.5456331  41.1234432 114.3220873 106.3125573
  41.5988554 114.5148519 105.5044425  40.1999998 114.3780059 106.0668957
  35.7014649 106.3568716 105.2781407  36.2196593 107.0929743 104.9527896
  35.3469781 106.6632710 106.1128166  27.2813586 111.2173398  93.3942813
  26.5882831 111.2917753  92.7382849  27.0365338 110.4533741  93.9164330
  35.9527243 102.7768999 100.7982304  36.2328997 102.1092188 101.4242730
  36.7377850 102.9698095 100.2856968  39.8236101 111.1986633 104.5453879
  40.7753524 111.2984731 104.5666103  39.6539552 110.4064901 105.0551963
  37.8450481 108.2842216 104.7313280  37.2500413 108.5647229 104.0359768
  37.5600177 108.7736117 105.5030021  42.3024179 114.4192753 103.6596178
  42.2700499 113.4808753 103.8455862  42.9124803 114.4976789 102.9262003
  34.1407510 113.2888806  89.7023382  35.0866615 113.1595014  89.7711801
  33.7621755 112.5503467  90.1792811  42.4518667 111.2103796 103.7054462
  41.9357716 110.4262253 103.5184390  43.3358616 110.8822513 103.8700981
  40.1129394 104.9544812  99.6650274  39.9154216 104.6459900 100.5493606
  40.7229100 105.6806451  99.7948204  48.1200729 115.4808759 102.8002215
  48.8504117 115.2194048 103.3609919  47.5107674 114.7437481 102.8404283
  46.2016026 113.6216622 103.3976666  45.4749190 113.4872587 102.7893158
  45.7863313 113.9293451 104.2033384  32.3250427 111.2138782  89.6378268
  31.4181882 110.9171895  89.7140981  32.6026408 110.9168600  88.7712554
  33.9412493 105.7575672  95.7922509  33.1313221 105.4122757  96.1677755
  34.6296910 105.4483215  96.3810121  35.8703041 104.8353718  97.4146806
  36.4234080 105.2549172  98.0736829  36.1073127 103.9089467  97.4569762
  31.0949212 108.0725717  89.7790247  31.9568376 108.3980616  90.0386064
  31.2799556 107.2857213  89.2663313  39.2481848 106.9454244  96.9225470
  38.6680517 107.6039048  96.5403522  38.9817781 106.1231588  96.5112887
  37.6985414 106.3459301  99.1246790  38.1985193 106.4575836  98.3161109
  38.3421022 106.0420354  99.7647599  38.0306726 109.1054334  95.9781818
  37.1432581 109.3903985  95.7602013  38.4460715 108.9448097  95.1309095
  41.3821262 109.1300855  99.6936157  42.1581652 109.6197307  99.9660774
  40.6569396 109.5558909 100.1508027  43.8193821 109.8428474 100.7510098
  44.4138312 109.6024210 100.0403406  43.8920405 109.1235605 101.3783634
  38.0047750 114.6208870  96.1932108  37.9482951 115.0777421  95.3539741
  38.5576092 113.8599555  96.0154951  41.8152556 110.4098602  97.0182228
  41.5589490 110.0095237  97.8490436  41.1905424 111.1242396  96.8932367
  46.1264894 113.1494675  99.5253519  45.5664452 113.2187864 100.2985081
  45.5208397 112.9735660  98.8053015  38.7382529 115.8113651  93.4884638
  38.6831333 115.6457923  92.5473082  38.1128584 116.5189684  93.6446827
  32.0478655 105.3121760  93.0669956  32.0357324 106.2563600  93.2238227
  32.9402077 105.1291906  92.7729417  35.8630774 101.9064537  97.3215893
  35.0963170 101.3523024  97.4672575  36.2741479 101.9786406  98.1830044
  47.2879160 119.0469031 104.2735584  46.9443429 119.9370673 104.1974694
  47.6558122 118.8570689 103.4105169  49.0866826 118.3062591  99.3753321
  49.3925702 117.4459954  99.0879236  49.8119430 118.8980211  99.1752315
  46.7920997 118.1060917 100.7982304  47.0722751 117.4384106 101.4242730
  47.5771604 118.2990012 100.2856968  50.9523149 120.2836729  99.6650274
  50.7547970 119.9751817 100.5493606  51.5622854 121.0098368  99.7948204
  46.7024529 117.2356455  97.3215893  45.9356924 116.6814941  97.4672575
  47.1135234 117.3078323  98.1830044   4.3519297  31.0127601  86.7927278
   3.5983005  30.4434999  86.6371282   4.4866838  30.9790266  87.7397912
   0.7167910  32.4535590  87.0893392   1.5514801  32.8925394  87.2530952
   0.8527038  31.9774243  86.2701638   4.7625712  31.1703211  89.5247522
   5.4929101  30.9088499  90.0855225   4.1532658  30.4331933  89.5649590
   2.8441009  29.3111074  90.1221973   2.1174173  29.1767039  89.5138465
   2.4288296  29.6187903  90.9278691   0.4618804  25.5322926  87.4755405
   1.0563295  25.2918662  86.7648713   0.5345388  24.8130057  88.1028941
   2.7689877  28.8389127  86.2498826   2.2089435  28.9082316  87.0230388
   2.1633380  28.6630112  85.5298322   4.3545895  45.5145641  88.9428782
   4.9924305  45.3952388  88.2392122   4.2366738  46.4626485  89.0016734
   1.1635602  45.4673069  88.8790306   0.8254113  45.3514134  87.9910841
   2.0325370  45.0664234  88.8591312   1.6455385  46.6207921  94.8376512
   1.6344025  46.2260719  93.9657015   1.8076024  45.8873993  95.4310283
   2.6021976  50.9879513  80.1801662   1.9509956  51.5733594  79.7935676
   3.3966339  51.5185708  80.2396700   3.9087164  43.2397095  86.0181990
   4.6950253  42.8216518  85.6672407   4.1725868  44.1443187  86.1863638
   4.0797241  48.6769945  80.7170646   3.4443074  48.7504572  81.4291551
   3.7494648  49.2663544  80.0389726   9.3095591  43.1772328  86.9214968
  10.0420763  42.6071545  87.1552798   8.5534947  42.7893928  87.3621474
   0.9271711  45.5999569  84.1178311   0.5629918  45.0730190  84.8291232
   1.7838827  45.2098039  83.9444796   6.8321011  36.8893902  91.3809577
   6.5004336  37.7589313  91.1570792   6.2366625  36.5730186  92.0603607
   3.3252531  49.0906448  90.7805489   3.0253254  49.9931487  90.6721297
   2.9803590  48.8238631  91.6326642   6.7249675  41.6088988  88.4602927
   5.8166552  41.5404397  88.1661688   6.6737270  42.0860933  89.2884752
   8.5911321  39.8105427  90.2380801   7.9485701  40.1037960  89.5920595
   8.0866250  39.6958347  91.0433997   6.2451485  43.5568600  80.9266660
   7.1569341  43.7895987  80.7514358   5.7361132  44.1405644  80.3641739
   4.5292252  47.9793228  94.5627953   4.9375608  47.5375638  93.8182585
   3.8069514  47.4045855  94.8162145   0.8823322  42.9165834  91.9361510
   1.7284518  43.3405248  92.0796159   0.8221960  42.2599459  92.6300073
   4.8521067  48.5394418  88.3180241   4.2229929  48.7040132  87.6156309
   4.4646729  48.9536028  89.0891205   8.7310299  49.4748856  85.6724605
   8.0461337  49.8547757  85.1221639   8.8154148  50.0844183  86.4056553
   4.0322768  40.5770203  93.5942683   3.7883700  41.3312263  93.0576959
   4.3082698  40.9555550  94.4289930   5.9861231  47.1208815  92.2719949
   6.1978126  47.7640575  91.5954330   5.9390979  46.2871132  91.8041879
   3.5887460  39.7326636  89.1756521   2.7271939  40.0307889  89.4673258
   3.6149894  39.9497035  88.2437554   7.1007058  49.9980771  90.4442306
   7.9224502  49.5960958  90.1624988   7.0969461  49.8949005  91.3958422
  15.1913052  46.3419519  86.7927278  14.4376760  45.7726917  86.6371282
  15.3260593  46.3082184  87.7397912   0.5811680  51.2132921  82.4681997
   0.4457354  52.0584457  82.8966845   1.1221492  51.4152199  81.7047931
   2.2080156  51.8356488  96.5982339   1.7644010  51.0492866  96.2803243
   2.8697370  52.0235638  95.9326230   4.3061394  52.1159288  94.6263740
   4.2879869  52.9368169  94.1344009   5.2281314  51.9913363  94.8513881
   3.9304143  34.7363483  90.9980890   3.5868413  35.6265125  90.9220001
   4.2983106  34.5465141  90.1350475   3.8954426  44.7272094  79.5053325
   3.3801049  45.4976699  79.7441713   3.6231734  44.0537231  80.1286387
   1.4801537  39.5721795  84.5638564   0.6243133  39.1828646  84.3844203
   1.8928489  39.6513756  83.7038349   3.0100684  37.1068138  88.9630124
   2.5065479  37.0698274  88.1497929   3.3031290  38.0160881  89.0226780
   8.8688700  47.4804449  81.4406499   8.0918143  47.1415608  80.9961661
   9.5480181  47.4857072  80.7661464   3.6840729  42.5999186  81.3313107
   3.3790865  42.9145336  82.1823250   4.6371171  42.6780606  81.3740440
   2.1287161  48.7589410  82.9806061   1.6008522  48.0242169  82.6679298
   1.6274664  49.5364086  82.7346029   7.1080007  46.9538430  88.0973107
   6.4503681  47.6437692  88.1853236   7.9120406  47.3434862  88.4407093
   5.9185466  45.3082803  86.1477049   6.4317347  45.9412795  86.6498758
   6.5686690  44.7083998  85.7820409   3.1807840  55.2867127  78.9037720
   2.5069539  55.5898824  79.5122678   3.5673662  56.0896208  78.5543177
   2.3966297  42.7832258  88.3935389   1.4788858  43.0047205  88.2357077
   2.8126440  42.8578569  87.5347097   3.1801344  44.1823674  83.5238069
   3.9273163  44.6945071  83.2145192   3.4492934  43.8607727  84.3842463
   1.4527995  46.6782215  80.5065024   0.5439214  46.3941248  80.6037494
   1.4823078  47.0981293  79.6468331   6.6847262  50.2888804  84.2756191
   6.2309589  49.4479714  84.3321382   6.0541229  50.9250203  84.6130971
   5.6280181  41.2180790  85.5056859   4.8902938  40.7058177  85.8367101
   5.8806955  40.7781172  84.6940136   5.1280201  52.1265301  85.2106009
   5.4203176  52.6870358  84.4918375   5.6378822  52.4193862  85.9659169
   5.7291809  33.9957042  86.0998628   6.0350686  33.1354406  85.8124543
   6.4544414  34.5874663  85.8997622   1.1504082  48.2190959  77.8453102
   0.7123512  47.5026817  77.3858740   1.8914523  48.4467073  77.2838194
   3.5379460  43.3729720  93.1980092   3.8928848  43.6001193  94.0574558
   4.1851591  43.7048096  92.5757347   9.2677197  46.4948156  83.9029421
   9.1295096  46.6849752  82.9750610   8.9113416  47.2567538  84.3597472
   9.2946577  48.5624683  88.9140692   9.7283083  48.4699972  89.7623746
  10.0078157  48.5382183  88.2760708   3.0274472  52.1626777  90.4473793
   3.0811494  52.7317713  91.2151509   2.1589253  52.3328662  90.0827830
  10.1562126  48.6048383  91.4473578  10.3498016  49.5094194  91.6932853
  10.0562744  48.1455802  92.2812163   1.8098437  38.4906274  93.9463905
   1.1626352  39.1896223  93.8528382   2.5799452  38.9242418  94.3140153
   5.2177235  48.7555126  97.0214458   5.0662741  48.5265678  96.1044542
   5.2081914  49.7125727  97.0345803   1.9862571  46.3287039  92.0060725
   2.9154631  46.4798198  91.8329692   1.5653601  46.4171060  91.1509371
   1.3799055  55.4546800  81.1184799   1.5550811  54.9834843  81.9330422
   0.6931843  56.0812566  81.3466060   2.3356118  49.7319306  87.1648100
   2.0005951  49.6920076  88.0605750   1.8360064  49.0664022  86.6918511
   5.2715310  47.0775340  77.4385160   4.6544481  46.3522168  77.3418213
   4.8031798  47.8384700  77.0952234   6.9269442  51.7874249  95.0990940
   6.8681988  51.1033469  94.4321523   7.3288960  52.5293239  94.6471566
   6.9286849  49.7513832  93.3304920   6.0413628  49.4139754  93.4531319
   7.4985400  49.0196864  93.5673685   3.5574432  39.4581684  86.4503190
   4.0543132  38.7051647  86.1304260   2.7861413  39.4946001  85.8846399
  11.4104189  45.1622050  88.0921482  11.3994066  46.0446765  87.7215415
  10.5421569  44.8093601  87.8976019   2.9186686  54.3102119  92.4524322
   3.6314658  54.9449584  92.3800223   2.4276714  54.4065985  91.6364324
   4.6404213  48.2153372  84.0241613   3.7060491  48.3354834  83.8546318
   4.8180881  47.3125838  83.7601623   8.0276764  44.0570691  84.5591648
   8.4937216  44.8898682  84.4851950   8.4784265  43.5915672  85.2636906
   6.0952995  50.4014512  81.5577800   6.3712839  50.2871107  82.4671674
   5.2257494  50.0031997  81.5189973   5.9993427  36.4251278  88.5982549
   5.0856507  36.6555505  88.7664756   6.4286528  36.5089722  89.4496581
   5.7699885  44.6141170  91.0982443   5.1171336  44.8617077  90.4434896
   6.1480265  43.8005308  90.7644920   2.7307059  54.6500863  85.2010613
   2.9129454  53.8322519  85.6638366   3.5540045  54.8668555  84.7635503
   3.0649225  53.5769048  82.4625662   3.5936991  53.0661503  81.8495824
   3.3277444  53.2611578  83.3271195   1.8187458  45.3560981  97.5848480
   1.1428095  45.2555110  98.2550855   2.6415092  45.2000195  98.0484477
   0.5610241  56.6627908  91.8206096   1.1128549  56.8259530  92.5855181
   0.9016435  57.2532346  91.1486121   5.4121116  51.4889166  97.6754751
   5.9561019  52.1019124  97.1809705   4.8307960  52.0468744  98.1921764
   3.6978628  54.6109884  88.8069778   3.5729768  53.8099624  88.2980724
   4.3557720  55.1056077  88.3183748   5.7613537  52.4118904  90.4349328
   4.8143872  52.2924255  90.3627655   6.1096310  51.5241402  90.5175590
   2.7659970  52.2071620  86.6353681   2.6184933  51.2788328  86.8161251
   3.5913464  52.2291711  86.1510756   6.3694092  53.0300179  87.7218553
   7.2940639  52.8243040  87.5843004   6.2009395  52.7816580  88.6307895
   2.7621484  40.0609458  81.6285798   2.9785099  40.9434096  81.3274626
   2.2815552  39.6695671  80.8991440   1.2143219  40.4435059  90.2990559
   0.9560997  41.3652130  90.2974890   0.6828260  40.0465494  90.9891024
   6.1589408  53.5485846  83.0780645   6.3326286  52.9832269  82.3254497
   6.6518299  54.3486741  82.8960135   1.6345175  36.5767010  86.6591722
   1.6566872  36.6406343  85.7043701   2.0513234  35.7371518  86.8532228
  12.0128799  46.3122269  84.6970945  12.4559945  45.5629594  84.2990068
  11.1355310  46.3032406  84.3144676   7.1464581  52.8652611  80.1777543
   7.8415485  53.4859303  80.3964858   7.4887731  52.0147962  80.4529921
   9.0456004  50.3152316  81.7064874   9.5707328  50.6539589  80.9814194
   8.9578356  49.3799332  81.5228008   0.7076052  54.2286390  93.8354750
   1.0163179  53.9835537  94.7077450   1.5051535  54.4333028  93.3473621
   8.7349910  50.9485220  97.0116072   7.9445454  50.9309359  96.4720571
   8.4983264  51.4873514  97.7665108   8.8547785  47.7977686  94.3248800
   8.9045790  47.6327694  95.2664323   8.7461708  46.9304945  93.9346681
   6.1451547  43.7808614  95.6408107   7.0461410  43.6415079  95.3492105
   6.2199522  43.9463069  96.5806284  10.3565982  50.2174628  94.5690822
  10.0650790  50.5804608  95.4054283   9.7438113  49.5041636  94.3904154
  11.5561664  47.7827508  87.0893392  12.3908555  48.2217312  87.2530952
  11.6920793  47.3066161  86.2701638   8.6053170  45.3407242  93.0370880
   9.0807292  45.5334889  92.2289731   7.6818735  45.3966428  92.7914263
   3.1833386  37.3755086  92.0026714   3.7015330  38.1116113  91.6773202
   2.8288519  37.6819079  92.8373473   3.4345981  33.7955368  87.5227610
   3.7147734  33.1278558  88.1488037   4.2196588  33.9884464  87.0102274
   1.2379449  52.9714362  79.0852637   0.6653416  53.5904550  78.6323108
   1.8112243  53.5213724  79.6192559   7.3054839  42.2173002  91.2699185
   8.2572262  42.3171100  91.2911409   7.1358289  41.4251271  91.7797270
   5.3269218  39.3028586  91.4558586   4.7319151  39.5833598  90.7605075
   5.0418915  39.7922487  92.2275327   4.4576709  53.2551513  80.2161219
   5.3907382  53.1897074  80.4194094   4.3699922  54.0907779  79.7575752
   7.0864726  52.5717383  77.1765166   7.0078357  52.2377246  78.0700924
   7.9074392  53.0639151  77.1756639   9.7842917  45.4379122  90.3841485
   9.7519237  44.4995123  90.5701169  10.3943540  45.5163159  89.6507310
   1.6226248  44.3075175  76.4268689   2.5685352  44.1781383  76.4957107
   1.2440493  43.5689837  76.9038117   9.9337405  42.2290166  90.4299768
   9.4176454  41.4448622  90.2429697  10.8177354  41.9008882  90.5946288
   7.5948132  35.9731181  86.3895581   7.3972953  35.6646269  87.2738913
   8.2047838  36.6992820  86.5193511  15.6019467  46.4995129  89.5247522
  16.3322855  46.2380417  90.0855225  14.9926412  45.7623851  89.5649590
  13.6834764  44.6402992  90.1221973  12.9567927  44.5058957  89.5138465
  13.2682051  44.9479820  90.9278691   1.5064940  48.3592921  97.8869346
   2.4267950  48.5371520  98.0809393   1.4714523  47.4148967  97.7349045
   1.4231231  36.7762041  82.5167816   0.6131959  36.4309126  82.8923062
   2.1115647  36.4669585  83.1055427   3.3521779  35.8540088  84.1392112
   3.9052817  36.2735541  84.7982135   3.5891865  34.9275836  84.1815068
   6.7300586  37.9640613  83.6470777   6.1499255  38.6225417  83.2648829
   6.4636519  37.1417958  83.2358194   5.1804152  37.3645671  85.8492097
   5.6803931  37.4762205  85.0406416   5.8239760  37.0606724  86.4892905
   5.5125464  40.1240704  82.7027125   4.6251319  40.4090354  82.4847320
   5.9279453  39.9634467  81.8554402   8.8640000  40.1487225  86.4181464
   9.6400390  40.6383677  86.6906081   8.1388134  40.5745279  86.8753334
  11.3012559  40.8614844  87.4755405  11.8957049  40.6210580  86.7648713
  11.3739142  40.1421974  88.1028941   4.6568677  49.8885378  76.7975145
   5.3604527  50.0935381  77.4132800   3.9331326  50.4562140  77.0624228
   5.4866488  45.6395240  82.9177415   5.4301689  46.0963791  82.0785047
   6.0394830  44.8785924  82.7400258   9.2971294  41.4284971  83.7427534
   9.0408228  41.0281607  84.5735742   8.6724162  42.1428765  83.6177674
  13.6083631  44.1681045  86.2498826  13.0483189  44.2374234  87.0230388
  13.0027135  43.9922029  85.5298322   6.5655375  50.3267907  78.8473605
   7.4000979  49.8949106  78.6651080   6.4039718  50.1549921  79.7750499
   6.2201267  46.8300021  80.2129944   6.1650071  46.6644292  79.2718388
   5.5947322  47.5376054  80.3692134   3.5347174  49.1348933  99.5383507
   4.4038334  49.3089585  99.1770142   3.0553926  49.9543349  99.4159236
   3.3449512  32.9250906  84.0461199   2.5781908  32.3709393  84.1917882
   3.7560217  32.9972775  84.9075351  15.1939650  60.8437559  88.9428782
  15.8318060  60.7244306  88.2392122  15.0760493  61.7918403  89.0016734
  12.0029356  60.7964987  88.8790306  11.6647868  60.6806051  87.9910841
  12.8719124  60.3956152  88.8591312   7.8616172  62.6500463  84.8687197
   7.2981037  62.5590400  84.1003485   7.7468567  61.8300368  85.3489690
  12.4849139  61.9499838  94.8376512  12.4737780  61.5552637  93.9657015
  12.6469779  61.2165911  95.4310283   5.4080604  64.1451655  87.7071418
   6.2001896  63.8042479  87.2917717   5.6477254  64.2546630  88.6273571
  13.4415731  66.3171431  80.1801662  12.7903710  66.9025511  79.7935676
  14.2360093  66.8477626  80.2396700   7.3671358  63.4060568  80.5788796
   8.1402234  62.8589555  80.4401672   7.7196757  64.2704817  80.7903258
   9.2056400  64.7336950  93.7855696   8.9146266  65.6382581  93.6702362
   9.8413385  64.7753478  94.4999765  10.1312607  62.1113799  90.3757055
  10.7276179  61.8869821  89.6614018  10.1887579  61.3698544  90.9782503
   9.7037636  59.5653234  78.2107246   9.9563156  59.0434755  77.4490709
   8.7662195  59.4019380  78.3133930  14.7480918  58.5689012  86.0181990
  15.5344008  58.1508436  85.6672407  15.0119623  59.4735105  86.1863638
  14.9190996  64.0061863  80.7170646  14.2836829  64.0796489  81.4291551
  14.5888402  64.5955462  80.0389726  20.1489345  58.5064246  86.9214968
  20.8814517  57.9363462  87.1552798  19.3928701  58.1185846  87.3621474
   9.4233924  61.4681340  80.4131621   9.3070182  60.7926243  81.0812706
   9.5336184  60.9813714  79.5963774  11.7665465  60.9291487  84.1178311
  11.4023672  60.4022108  84.8291232  12.6232581  60.5389956  83.9444796
  17.6714766  52.2185820  91.3809577  17.3398091  53.0881231  91.1570792
  17.0760379  51.9022104  92.0603607  11.4070952  55.9581387  79.1139659
  11.5745355  56.8261623  79.4810130  11.2168121  56.1208669  78.1900948
  14.1646285  64.4198366  90.7805489  13.8647008  65.3223405  90.6721297
  13.8197345  64.1530549  91.6326642   7.6158767  60.8712163  86.8142194
   6.6909263  60.7388377  87.0219886   7.8643180  61.6506382  87.3112136
  17.5643429  56.9380906  88.4602927  16.6560306  56.8696314  88.1661688
  17.5131025  57.4152851  89.2884752  11.3860173  58.4139044  80.0986326
  11.2659798  58.8596095  80.9371806  10.6912761  58.7624362  79.5399864
   4.9767578  60.5145436  87.6485983   5.1059959  60.7679915  88.5625395
   4.2965029  61.1073144  87.3290638   9.1467065  71.1842686  83.7476457
   9.0691095  72.1350511  83.8264938   8.5428709  70.8388559  84.4051383
  11.6384295  58.3570552  96.4037824  10.8617629  58.9164472  96.3940689
  12.2774858  58.8427334  96.9252694  19.4305076  55.1397344  90.2380801
  18.7879456  55.4329877  89.5920595  18.9260004  55.0250265  91.0433997
  17.0845239  58.8860518  80.9266660  17.9963095  59.1187904  80.7514358
  16.5754886  59.4697562  80.3641739   9.8930667  61.1656005  95.9655791
  10.6345352  61.7041049  95.6890615   9.1867653  61.7922294  96.1227343
  15.3686007  63.3085145  94.5627953  15.7769363  62.8667556  93.8182585
  14.6463268  62.7337773  94.8162145  11.7217077  58.2457752  91.9361510
  12.5678272  58.6697166  92.0796159  11.6615715  57.5891376  92.6300073
  15.6914822  63.8686336  88.3180241  15.0623684  64.0332050  87.6156309
  15.3040484  64.2827946  89.0891205  19.5704053  64.8040774  85.6724605
  18.8855092  65.1839675  85.1221639  19.6547903  65.4136100  86.4056553
  14.8716522  55.9062120  93.5942683  14.6277454  56.6604181  93.0576959
  15.1476453  56.2847468  94.4289930  16.8254985  62.4500733  92.2719949
  17.0371880  63.0932493  91.5954330  16.7784733  61.6163049  91.8041879
  14.4281214  55.0618553  89.1756521  13.5665693  55.3599807  89.4673258
  14.4543649  55.2788952  88.2437554  11.2442783  63.6060744  85.5830327
  11.7081129  63.8848447  84.7934949  10.9799582  62.7044189  85.4003417
   8.1366864  63.1532226  88.5210090   8.7068222  63.5819494  87.8827574
   8.7274976  62.8714810  89.2194275  10.1811669  59.7283896  82.3919892
  10.8835713  60.1804940  82.8593818   9.8492298  59.0867715  83.0199785
   8.6292031  58.3195653  96.7671101   7.9990692  59.0011934  97.0006498
   8.5228119  58.2078735  95.8224239   3.9237003  57.9867449  87.6937025
   3.1336057  58.2424978  87.2177136   4.4148251  58.8015787  87.7989066
  17.9400813  65.3272688  90.4442306  18.7618257  64.9252876  90.1624988
  17.9363216  65.2240922  91.3958422   5.8751749  58.3512028  84.6520502
   5.0782912  58.4630723  85.1703998   5.6477341  58.6898681  83.7861392
  11.7057416  64.8756732  92.6003017  11.7701849  65.3377139  93.4361188
  10.9968340  64.2454096  92.7285326   2.2074706  58.2397940  90.1252016
   2.4582745  59.1244949  90.3909592   2.7434255  58.0602541  89.3527108
  26.0306806  61.6711437  86.7927278  25.2770514  61.1018835  86.6371282
  26.1654347  61.6374101  87.7397912  11.4205434  66.5424839  82.4681997
  11.2851109  67.3876375  82.8966845  11.9615247  66.7444117  81.7047931
   7.9072774  52.6216419  99.1296352   7.5139719  52.0682617  99.8043996
   8.7238914  52.9326997  99.5202870   4.8734831  64.0600277  83.0409922
   5.3859352  64.8543527  83.1915487   5.5257544  63.3626568  82.9743523
   6.6829716  67.1766033  85.1232675   6.8596345  68.0983998  84.9353659
   7.4786550  66.8624453  85.5527055  10.8240735  54.0374298  96.7216609
  11.5650448  54.6381451  96.6421071  11.0558658  53.2951936  96.1634651
   5.9682073  59.2230665  94.9994838   5.8535588  58.3215922  95.3001937
   5.1126590  59.4694362  94.6479655  13.0473910  67.1648406  96.5982339
  12.6037765  66.3784784  96.2803243  13.7091124  67.3527556  95.9326230
   7.8061032  68.6944207  91.1243017   8.3568457  68.5661270  90.3520011
   6.9672508  68.9939096  90.7737910  15.1455149  67.4451205  94.6263740
  15.1273624  68.2660087  94.1344009  16.0675069  67.3205281  94.8513881
  11.6028203  64.9595335  95.4687249  12.1356539  64.1983623  95.2386557
  11.0742284  64.6668987  96.2111403  14.7697898  50.0655401  90.9980890
  14.4262167  50.9557043  90.9220001  15.1376860  49.8757059  90.1350475
   2.8383748  62.3888931  83.8169493   3.6758970  62.7985940  83.6003200
   3.0162016  61.4488374  83.7869686  14.7348180  60.0564012  79.5053325
  14.2194804  60.8268617  79.7441713  14.4625489  59.3829148  80.1286387
  12.3195291  54.9013713  84.5638564  11.4636888  54.5120563  84.3844203
  12.7322243  54.9805674  83.7038349  13.8494438  52.4360056  88.9630124
  13.3459234  52.3990191  88.1497929  14.1425045  53.3452799  89.0226780
  10.0937324  52.5198786  87.9696305  10.9590321  52.3241594  87.6102195
  10.1614833  52.2909138  88.8965662  19.7082455  62.8096367  81.4406499
  18.9311897  62.4707526  80.9961661  20.3873935  62.8148990  80.7661464
  14.5234484  57.9291104  81.3313107  14.2184619  58.2437253  82.1823250
  15.4764926  58.0072524  81.3740440  12.9680915  64.0881327  82.9806061
  12.4402277  63.3534087  82.6679298  12.4668418  64.8656004  82.7346029
  17.9473761  62.2830348  88.0973107  17.2897436  62.9729609  88.1853236
  18.7514161  62.6726780  88.4407093   7.6999643  54.7500994  85.3412672
   8.2743395  54.5276175  84.6085865   8.2870625  54.8189688  86.0941273
  16.7579220  60.6374721  86.1477049  17.2711102  61.2704712  86.6498758
  17.4080444  60.0375916  85.7820409   8.0269230  56.7805455  79.3608557
   7.1906542  57.1180141  79.6817832   7.8874000  56.6454435  78.4235694
  10.0022311  51.6242243  84.0687742   9.3486723  51.3091260  83.4444356
   9.9602785  51.0017983  84.7947565  11.1133516  61.9061538  75.9841034
  10.2060577  61.6750791  76.1832183  11.6104548  61.1099157  76.1715015
  14.0201594  70.6159045  78.9037720  13.3463293  70.9190742  79.5122678
  14.4067416  71.4188125  78.5543177  13.2360051  58.1124176  88.3935389
  12.3182612  58.3339123  88.2357077  13.6520195  58.1870487  87.5347097
  14.0195099  59.5115592  83.5238069  14.7666918  60.0236989  83.2145192
  14.2886688  59.1899645  84.3842463  12.2921749  62.0074133  80.5065024
  11.3832968  61.7233165  80.6037494  12.3216833  62.4273211  79.6468331
  17.5241016  65.6180722  84.2756191  17.0703344  64.7771632  84.3321382
  16.8934983  66.2542120  84.6130971  16.4673936  56.5472708  85.5056859
  15.7296693  56.0350094  85.8367101  16.7200710  56.1073090  84.6940136
  15.9673956  67.4557219  85.2106009  16.2596930  68.0162276  84.4918375
  16.4772576  67.7485780  85.9659169  16.5685563  49.3248960  86.0998628
  16.8744440  48.4646324  85.8124543  17.2938168  49.9166580  85.8997622
   2.8609919  59.7279647  84.4880226   2.6634319  59.1349007  83.7631293
   2.3056583  59.4231857  85.2056165  10.8406643  59.6202753  86.6074819
  10.8955253  58.6676590  86.5317296  10.0297845  59.7762192  87.0916118
  11.9897837  63.5482876  77.8453102  11.5517267  62.8318735  77.3858740
  12.7308278  63.7758991  77.2838194   8.7799003  58.2379813  84.3665198
   7.9666869  58.5373983  84.7730390   9.2757997  57.8435502  85.0839680
  10.9307581  68.2337570  86.2999463  10.8883760  68.4598416  85.3707995
  11.8470280  68.0000944  86.4485264  14.3773215  58.7021637  93.1980092
  14.7322602  58.9293111  94.0574558  15.0245346  59.0340014  92.5757347
  20.1070952  61.8240073  83.9029421  19.9688850  62.0141669  82.9750610
  19.7507170  62.5859456  84.3597472   8.2713078  55.8098168  89.9826433
   8.9112457  55.6686928  89.2849396   7.4390608  55.5232682  89.6065035
  20.1340331  63.8916600  88.9140692  20.5676838  63.7991889  89.7623746
  20.8471912  63.8674101  88.2760708   9.0473382  65.1100599  86.0961425
   9.8413980  64.6150919  85.8944000   8.3365074  64.5818462  85.7329131
  13.8668226  67.4918694  90.4473793  13.9205248  68.0609631  91.2151509
  12.9983007  67.6620579  90.0827830   5.3556145  59.2543681  82.1721178
   4.4253733  59.1928136  82.3891140   5.4513617  58.7319633  81.3757819
   5.2741694  55.7798493  84.7599420   5.5348511  56.6943827  84.6508580
   6.0958866  55.3122936  84.9096033   6.7466619  57.1936251  91.9298244
   7.4189673  56.9853613  91.2810893   5.9196406  56.9958337  91.4903477
  20.9955881  63.9340301  91.4473578  21.1891771  64.8386111  91.6932853
  20.8956499  63.4747720  92.2812163  12.6492191  53.8198192  93.9463905
  12.0020107  54.5188141  93.8528382  13.4193207  54.2534335  94.3140153
  16.0570989  64.0847044  97.0214458  15.9056496  63.8557595  96.1044542
  16.0475669  65.0417645  97.0345803  12.8256326  61.6578956  92.0060725
  13.7548386  61.8090116  91.8329692  12.4047356  61.7462977  91.1509371
  11.6244658  65.6829621  89.7759262  11.4855743  65.3148405  90.6485201
  10.8359254  66.1977260  89.6043220  12.2192810  70.7838717  81.1184799
  12.3944565  70.3126761  81.9330422  11.5325598  71.4104484  81.3466060
  13.1749873  65.0611224  87.1648100  12.8399705  65.0211994  88.0605750
  12.6753818  64.3955939  86.6918511   7.1494117  60.4678854  92.6900681
   7.0113915  59.7359092  93.2912220   8.0599040  60.3787754  92.4084869
  16.1109064  62.4067258  77.4385160  15.4938235  61.6814086  77.3418213
  15.6425553  63.1676618  77.0952234   9.7776417  60.1798813  92.1784361
  10.4876036  59.5392005  92.1370980   9.7345726  60.4311708  93.1010542
  17.7663196  67.1166166  95.0990940  17.7075742  66.4325386  94.4321523
  18.1682714  67.8585156  94.6471566   8.4905351  57.1664031  93.9980001
   7.9542708  56.7154769  94.6501597   7.9022060  57.3009940  93.2550465
   6.7853895  73.9328080  87.8924659   7.0250493  74.5646604  88.5703678
   5.9423091  73.5816120  88.1790018   7.9007610  56.6252682  76.5606464
   7.0237077  56.5041483  76.1968711   8.3765363  55.8338760  76.3085353
  17.7680603  65.0805750  93.3304920  16.8807382  64.7431672  93.4531319
  18.3379154  64.3488781  93.5673685   4.2244473  56.3020038  91.0832995
   4.1402661  55.6945708  90.3483405   3.4027179  56.7929057  91.0842491
  11.2981757  69.7407203  90.2966163  11.2251928  70.5462174  90.8085468
  10.8559150  69.9399168  89.4714185  11.0871536  68.9778973  83.8068985
  10.3039058  69.5200653  83.9007209  11.7864282  69.4952952  84.2063226
  14.3968186  54.7873602  86.4503190  14.8936886  54.0343564  86.1304260
  13.6255168  54.8237919  85.8846399  22.2497944  60.4913968  88.0921482
  22.2387820  61.3738683  87.7215415  21.3815323  60.1385518  87.8976019
  13.7580440  69.6394037  92.4524322  14.4708412  70.2741501  92.3800223
  13.2670469  69.7357903  91.6364324  15.4797967  63.5445289  84.0241613
  14.5454246  63.6646752  83.8546318  15.6574636  62.6417756  83.7601623
  10.9803155  56.9290985  86.1774875  10.6100943  56.3762025  86.8655780
  11.4762248  56.3249118  85.6249875  18.8670519  59.3862609  84.5591648
  19.3330971  60.2190600  84.4851950  19.3178019  58.9207590  85.2636906
   8.8092354  67.3888480  93.2729893   9.5101813  68.0224963  93.4259287
   8.3387469  67.7303212  92.5125532  16.9346750  65.7306430  81.5577800
  17.2106594  65.6163024  82.4671674  16.0651248  65.3323915  81.5189973
  16.8387181  51.7543195  88.5982549  15.9250261  51.9847422  88.7664756
  17.2680283  51.8381640  89.4496581  16.6093640  59.9433087  91.0982443
  15.9565090  60.1908995  90.4434896  16.9874020  59.1297226  90.7644920
  13.5700814  69.9792781  85.2010613  13.7523208  69.1614437  85.6638366
  14.3933800  70.1960473  84.7635503  13.9042979  68.9060966  82.4625662
  14.4330746  68.3953420  81.8495824  14.1671199  68.5903496  83.3271195
  12.6581213  60.6852899  97.5848480  11.9821850  60.5847028  98.2550855
  13.4808847  60.5292112  98.0484477   4.4060072  66.9224835  90.2060995
   4.9913509  66.1768523  90.3388900   4.2084910  67.2328792  91.0897659
   7.2598727  69.9576082  85.2223438   6.5909102  70.4422210  84.7387478
   7.1211597  70.2045303  86.1366816  11.4003996  71.9919826  91.8206096
  11.9522304  72.1551447  92.5855181  11.7410189  72.5824264  91.1486121
   6.3768489  54.3394976  92.4227981   6.4409815  55.2009807  92.0105378
   6.3135609  53.7268977  91.6900339   5.8520761  56.4118108  96.0701015
   6.4792800  56.0295186  96.6838539   4.9948680  56.1932310  96.4356708
  16.2514870  66.8181083  97.6754751  16.7954774  67.4311042  97.1809705
  15.6701715  67.3760662  98.1921764   2.6286304  58.2194537  82.0019370
   2.9239745  57.3105216  81.9486424   1.7274340  58.1982277  81.6800372
  14.5372383  69.9401801  88.8069778  14.4123522  69.1391541  88.2980724
  15.1951474  70.4347995  88.3183748   6.1580551  56.2950534  87.9846918
   5.4367137  56.9086502  87.8454392   6.9473807  56.8308299  87.9063564
  16.6007291  67.7410822  90.4349328  15.6537627  67.6216173  90.3627655
  16.9490064  66.8533320  90.5175590   8.9606865  53.6304960  94.2587570
   9.4841267  53.8767257  95.0213880   8.7419198  54.4624995  93.8390708
   4.3574146  55.9008635  82.1258695   4.0286852  55.0206014  81.9433801
   4.7113516  55.8456304  83.0135084  13.6053725  67.5363538  86.6353681
  13.4578687  66.6080245  86.8161251  14.4307218  67.5583629  86.1510756
   7.4715969  56.1881605  82.4934173   7.8112041  56.7167526  81.7712781
   7.9188089  56.5262011  83.2692739  17.2087846  68.3592097  87.7218553
  18.1334394  68.1534958  87.5843004  17.0403150  68.1108498  88.6307895
  10.1659410  54.5718656  91.9437241   9.8256230  53.7726469  92.3457921
   9.4598416  54.8720366  91.3714074  10.8175882  51.6567968  90.3964564
  11.6401951  51.1828446  90.2743454  11.0613945  52.4358452  90.8963250
   9.4584116  54.6856226  80.6927465  10.1792479  55.0637479  80.1891182
   8.8349420  55.4045103  80.7962443  13.6015239  55.3901375  81.6285798
  13.8178853  56.2726013  81.3274626  13.1209306  54.9987589  80.8991440
   8.3414460  58.3487089  88.2056542   8.1959041  58.6627392  89.0980824
   7.8639664  58.9671989  87.6527441  10.2010843  55.3389637  88.2537432
  10.1872412  54.4430730  87.9169730  10.9183271  55.3460300  88.8875718
  12.0536974  55.7726977  90.2990559  11.7954752  56.6944048  90.2974890
  11.5222014  55.3757411  90.9891024  16.9983163  68.8777764  83.0780645
  17.1720040  68.3124186  82.3254497  17.4912054  69.6778659  82.8960135
   2.8160122  60.8892433  91.1444204   2.2713591  61.6652241  91.2764478
   3.6939472  61.2363238  90.9863325   9.6047739  54.2204017  83.5225002
   9.7263650  53.2920663  83.7215890   9.3149782  54.2342703  82.6103318
  12.4738930  51.9058927  86.6591722  12.4960626  51.9698260  85.7043701
  12.8906989  51.0663436  86.8532228  22.8522554  61.6414187  84.6970945
  23.2953700  60.8921512  84.2990068  21.9749064  61.6324323  84.3144676
  17.9858335  68.1944528  80.1777543  18.6809240  68.8151221  80.3964858
  18.3281485  67.3439880  80.4529921   3.6026144  60.0162329  94.0374360
   2.8607880  60.1644965  94.6238991   3.2818889  60.2770595  93.1741110
  19.8849758  65.6444234  81.7064874  20.4101082  65.9831507  80.9814194
  19.7972111  64.7091249  81.5228008  11.5469807  69.5578308  93.8354750
  11.8556933  69.3127454  94.7077450  12.3445289  69.7624946  93.3473621
  11.5690419  71.7116217  86.0660127  11.1295409  71.2192596  86.7592984
  12.3198536  71.1689185  85.8252202   4.0482758  67.9027758  86.0684755
   4.8740778  67.6031530  85.6883399   3.6976810  67.1335380  86.5174544
   9.0164291  67.2554226  88.1382429   8.3944300  66.5924931  87.8384657
   9.6869158  67.2815358  87.4556076   2.2491363  65.8214085  87.0273689
   1.4123271  65.3936259  86.8457690   2.2215008  66.0146528  87.9644480
   9.0888819  55.7336014  97.7314935   9.1376974  56.6098137  97.3492704
   9.6311333  55.1913407  97.1586578  19.5743664  66.2777138  97.0116072
  18.7839208  66.2601276  96.4720571  19.3377019  66.8165431  97.7665108
  19.6941539  63.1269604  94.3248800  19.7439544  62.9619611  95.2664323
  19.5855463  62.2596863  93.9346681   8.5777798  65.8058150  81.6140889
   8.7265918  66.4893614  80.9607562   9.3844242  65.7863240  82.1290345
  16.9845302  59.1100532  95.6408107  17.8855165  58.9706997  95.3492105
  17.0593276  59.2754987  96.5806284  11.3188107  56.4867387  94.4861293
  10.4491417  56.7800953  94.2143882  11.5547587  57.0707832  95.2068557
  21.1959736  65.5466545  94.5690822  20.9044545  65.9096526  95.4054283
  20.5831868  64.8333554  94.3904154  22.3955419  63.1119425  87.0893392
  23.2302310  63.5509229  87.2530952  22.5314547  62.6358078  86.2701638
  19.4446924  60.6699160  93.0370880  19.9201046  60.8626806  92.2289731
  18.5212490  60.7258346  92.7914263   6.3330431  61.8323327  82.6201958
   6.0876473  60.9285657  82.8182168   6.5026346  61.8340478  81.6781436
  14.0227141  52.7047004  92.0026714  14.5409085  53.4408031  91.6773202
  13.6682274  53.0110997  92.8373473   5.6026079  57.5651685  80.1188120
   4.9095324  57.6396040  79.4628156   5.3577831  56.8012028  80.6409636
  14.2739735  49.1247286  87.5227610  14.5541489  48.4570475  88.1488037
  15.0590342  49.3176382  87.0102274  12.0773204  68.3006280  79.0852637
  11.5047171  68.9196467  78.6323108  12.6505997  68.8505642  79.6192559
  18.1448593  57.5464920  91.2699185  19.0966016  57.6463018  91.2911409
  17.9752044  56.7543189  91.7797270  16.1662973  54.6320503  91.4558586
  15.5712905  54.9125516  90.7605075  15.8812670  55.1214404  92.2275327
  15.2970463  68.5843430  80.2161219  16.2301137  68.5188992  80.4194094
  15.2093676  69.4199697  79.7575752  17.9258480  67.9009301  77.1765166
  17.8472112  67.5669164  78.0700924  18.7468147  68.3931068  77.1756639
  20.6236671  60.7671040  90.3841485  20.5912991  59.8287041  90.5701169
  21.2337295  60.8455077  89.6507310  12.4620002  59.6367093  76.4268689
  13.4079107  59.5073301  76.4957107  12.0834247  58.8981755  76.9038117
  20.7731160  57.5582083  90.4299768  20.2570208  56.7740540  90.2429697
  21.6571108  57.2300800  90.5946288  18.4341887  51.3023099  86.3895581
  18.2366708  50.9938187  87.2738913  19.0441592  52.0284738  86.5193511
  26.4413221  61.8287047  89.5247522  27.1716610  61.5672335  90.0855225
  25.8320167  61.0915769  89.5649590  24.5228518  59.9694909  90.1221973
  23.7961682  59.8350874  89.5138465  24.1075805  60.2771738  90.9278691
  12.3458695  63.6884839  97.8869346  13.2661704  63.8663438  98.0809393
  12.3108278  62.7440884  97.7349045  10.6462919  57.5617069  76.3623574
   9.7394375  57.2650182  76.4386288  10.9238900  57.2646887  75.4957861
   1.5640860  58.8823433  86.8122621   1.2443644  58.0288741  86.5196995
   1.0174288  59.0972011  87.5680588   5.3420767  61.5985874  90.5292127
   5.5606777  62.5302981  90.5480161   5.7546541  61.2393848  91.3146931
  12.2624985  52.1053959  82.5167816  11.4525713  51.7601044  82.8923062
  12.9509402  51.7961503  83.1055427  14.1915533  51.1832006  84.1392112
  14.7446572  51.6027459  84.7982135  14.4285620  50.2567754  84.1815068
  10.2148633  57.1719079  99.9194876  10.1145359  58.1213436  99.8506967
   9.9970175  56.8437318  99.0470946   9.4161704  54.4204004  76.5035554
  10.2780868  54.7458903  76.7631371   9.6012048  53.6335500  75.9908619
   1.4329120  62.5026344  88.7815742   0.7392591  62.0880297  88.2685697
   2.1802111  62.5446881  88.1849161  17.5694340  53.2932531  83.6470777
  16.9893009  53.9517335  83.2648829  17.3030273  52.4709875  83.2358194
  16.0197907  52.6937589  85.8492097  16.5197685  52.8054123  85.0406416
  16.6633515  52.3898641  86.4892905  10.0779903  60.6016218  98.7359938
   9.5946984  61.4016578  98.9423827  10.1640842  60.6124163  97.7827382
   3.3465862  62.4344598  86.6581757   3.3236550  62.5332285  85.7063640
   3.6566499  63.2809749  86.9798923   6.0053240  64.4920753  90.7728372
   6.9596494  64.4604695  90.7058303   5.8065764  64.0311377  91.5878598
   6.5952622  63.0621869  93.3399169   7.4145511  63.5565948  93.3634007
   6.8689430  62.1453837  93.3116737  16.3519218  55.4532621  82.7027125
  15.4645073  55.7382272  82.4847320  16.7673207  55.2926385  81.8554402
  19.7033755  55.4779142  86.4181464  20.4794145  55.9675595  86.6906081
  18.9781889  55.9037196  86.8753334  22.1406313  56.1906761  87.4755405
  22.7350804  55.9502497  86.7648713  22.2132897  55.4713892  88.1028941
   4.3603469  70.0340372  87.7898570   4.2257937  69.2740773  87.2236568
   3.9435531  70.7581272  87.3227358  15.4962432  65.2177296  76.7975145
  16.1998282  65.4227298  77.4132800  14.7725081  65.7854058  77.0624228
  16.3260242  60.9687157  82.9177415  16.2695444  61.4255709  82.0785047
  16.8788585  60.2077842  82.7400258  20.1365048  56.7576889  83.7427534
  19.8801982  56.3573525  84.5735742  19.5117916  57.4720683  83.6177674
  24.4477386  59.4972962  86.2498826  23.8876944  59.5666152  87.0230388
  23.8420889  59.3213947  85.5298322   7.5172595  70.9309689  88.0017012
   7.4004979  71.8755122  87.8995702   6.6965041  70.6283251  88.3902811
  17.4049129  65.6559825  78.8473605  18.2394733  65.2241024  78.6651080
  17.2433472  65.4841839  79.7750499  17.0595021  62.1591938  80.2129944
  17.0043825  61.9936210  79.2718388  16.4341077  62.8667971  80.3692134
   1.8487536  57.3960003  94.0391366   2.4946400  56.8858957  94.5278592
   1.6404688  58.1328684  94.6134792  14.3740929  64.4640850  99.5383507
  15.2432088  64.6381503  99.1770142  13.8947680  65.2835267  99.4159236
  10.3691147  51.6600047  79.7915263  10.3569817  52.6041887  79.9483533
  11.2614569  51.4770193  79.4974724   8.5427109  71.5837951  91.2172941
   9.4454356  71.6161562  91.5339436   8.3164479  70.6538402  91.2319276
  10.2980711  70.3368938  87.8783019   9.3476342  70.3370799  87.7647391
  10.6013197  69.5901672  87.3619054  14.1843266  48.2542824  84.0461199
  13.4175662  47.7001311  84.1917882  14.5953971  48.3264693  84.9075351
   6.1885027  54.5427620  98.1366381   7.0516489  54.1864425  98.3469705
   5.6150438  54.2041515  98.8241785  26.0333404  76.1729476  88.9428782
  26.6711814  76.0536224  88.2392122  25.9154247  77.1210320  89.0016734
  22.8423111  76.1256904  88.8790306  22.5041622  76.0097969  87.9910841
  23.7112879  75.7248069  88.8591312  18.7009926  77.9792381  84.8687197
  18.1374791  77.8882318  84.1003485  18.5862321  77.1592285  85.3489690
  23.3242894  77.2791756  94.8376512  23.3131534  76.8844554  93.9657015
  23.4863533  76.5457829  95.4310283  16.2474358  79.4743572  87.7071418
  17.0395650  79.1334397  87.2917717  16.4871008  79.5838547  88.6273571
  24.2809485  81.6463348  80.1801662  23.6297465  82.2317429  79.7935676
  25.0753848  82.1769543  80.2396700  18.2065112  78.7352486  80.5788796
  18.9795988  78.1881473  80.4401672  18.5590511  79.5996735  80.7903258
  20.0450155  80.0628868  93.7855696  19.7540021  80.9674499  93.6702362
  20.6807139  80.1045396  94.4999765  20.9706362  77.4405716  90.3757055
  21.5669934  77.2161739  89.6614018  21.0281333  76.6990462  90.9782503
  20.5431390  74.8945152  78.2107246  20.7956911  74.3726673  77.4490709
  19.6055949  74.7311297  78.3133930  25.5874673  73.8980930  86.0181990
  26.3737762  73.4800353  85.6672407  25.8513377  74.8027022  86.1863638
  25.7584750  79.3353780  80.7170646  25.1230583  79.4088407  81.4291551
  25.4282157  79.9247379  80.0389726  20.2627679  76.7973258  80.4131621
  20.1463937  76.1218161  81.0812706  20.3729939  76.3105632  79.5963774
  22.6059220  76.2583405  84.1178311  22.2417427  75.7314026  84.8291232
  23.4626336  75.8681874  83.9444796  22.2464707  71.2873304  79.1139659
  22.4139109  72.1553541  79.4810130  22.0561876  71.4500586  78.1900948
  25.0040040  79.7490283  90.7805489  24.7040763  80.6515322  90.6721297
  24.6591099  79.4822467  91.6326642  18.4552521  76.2004080  86.8142194
  17.5303018  76.0680294  87.0219886  18.7036935  76.9798299  87.3112136
  22.2253928  73.7430962  80.0986326  22.1053553  74.1888013  80.9371806
  21.5306516  74.0916280  79.5399864  15.8161332  75.8437354  87.6485983
  15.9453714  76.0971833  88.5625395  15.1358784  76.4365062  87.3290638
  19.9860820  86.5134604  83.7476457  19.9084849  87.4642429  83.8264938
  19.3822463  86.1680476  84.4051383  22.4778049  73.6862469  96.4037824
  21.7011383  74.2456389  96.3940689  23.1168612  74.1719252  96.9252694
  27.9238994  74.2152435  80.9266660  28.8356850  74.4479822  80.7514358
  27.4148641  74.7989479  80.3641739  20.7324422  76.4947923  95.9655791
  21.4739106  77.0332967  95.6890615  20.0261407  77.1214211  96.1227343
  26.2079761  78.6377063  94.5627953  26.6163117  78.1959474  93.8182585
  25.4857023  78.0629691  94.8162145  22.5610831  73.5749670  91.9361510
  23.4072027  73.9989083  92.0796159  22.5009469  72.9183294  92.6300073
  26.5308576  79.1978254  88.3180241  25.9017438  79.3623968  87.6156309
  26.1434238  79.6119863  89.0891205  30.4097808  80.1332691  85.6724605
  29.7248846  80.5131593  85.1221639  30.4941657  80.7428018  86.4056553
  27.6648740  77.7792651  92.2719949  27.8765635  78.4224410  91.5954330
  27.6178488  76.9454967  91.8041879  25.2674968  70.3910471  89.1756521
  24.4059448  70.6891725  89.4673258  25.2937403  70.6080870  88.2437554
  22.0836538  78.9352662  85.5830327  22.5474883  79.2140365  84.7934949
  21.8193336  78.0336106  85.4003417  18.9760619  78.4824143  88.5210090
  19.5461976  78.9111412  87.8827574  19.5668731  78.2006728  89.2194275
  21.0205424  75.0575814  82.3919892  21.7229467  75.5096858  82.8593818
  20.6886052  74.4159633  83.0199785  19.4685785  73.6487571  96.7671101
  18.8384446  74.3303852  97.0006498  19.3621873  73.5370652  95.8224239
  14.7630758  73.3159367  87.6937025  13.9729812  73.5716895  87.2177136
  15.2542005  74.1307705  87.7989066  28.7794567  80.6564606  90.4442306
  29.6012011  80.2544793  90.1624988  28.7756970  80.5532840  91.3958422
  16.7145503  73.6803946  84.6520502  15.9176667  73.7922640  85.1703998
  16.4871095  74.0190598  83.7861392  22.5451171  80.2048649  92.6003017
  22.6095603  80.6669056  93.4361188  21.8362095  79.5746014  92.7285326
  13.0468461  73.5689857  90.1252016  13.2976499  74.4536867  90.3909592
  13.5828009  73.3894459  89.3527108  22.2599189  81.8716757  82.4681997
  22.1244863  82.7168292  82.8966845  22.8009001  82.0736034  81.7047931
  18.7466528  67.9508337  99.1296352  18.3533474  67.3974535  99.8043996
  19.5632669  68.2618915  99.5202870  15.7128586  79.3892195  83.0409922
  16.2253107  80.1835445  83.1915487  16.3651299  78.6918485  82.9743523
  17.5223471  82.5057951  85.1232675  17.6990099  83.4275916  84.9353659
  18.3180304  82.1916370  85.5527055  21.6634489  69.3666216  96.7216609
  22.4044203  69.9673369  96.6421071  21.8952412  68.6243853  96.1634651
  16.8075827  74.5522583  94.9994838  16.6929342  73.6507840  95.3001937
  15.9520345  74.7986280  94.6479655  23.8867665  82.4940323  96.5982339
  23.4431519  81.7076702  96.2803243  24.5484879  82.6819474  95.9326230
  18.6454786  84.0236125  91.1243017  19.1962211  83.8953188  90.3520011
  17.8066262  84.3231014  90.7737910  25.9848903  82.7743123  94.6263740
  25.9667378  83.5952004  94.1344009  26.9068823  82.6497198  94.8513881
  22.4421957  80.2887253  95.4687249  22.9750294  79.5275541  95.2386557
  21.9136038  79.9960904  96.2111403  25.6091652  65.3947319  90.9980890
  25.2655922  66.2848960  90.9220001  25.9770615  65.2048976  90.1350475
  13.6777503  77.7180849  83.8169493  14.5152725  78.1277857  83.6003200
  13.8555770  76.7780291  83.7869686  25.5741935  75.3855930  79.5053325
  25.0588558  76.1560534  79.7441713  25.3019243  74.7121066  80.1286387
  23.1589046  70.2305630  84.5638564  22.3030642  69.8412481  84.3844203
  23.5715998  70.3097591  83.7038349  24.6888193  67.7651974  88.9630124
  24.1852988  67.7282109  88.1497929  24.9818799  68.6744716  89.0226780
  20.9331078  67.8490703  87.9696305  21.7984075  67.6533512  87.6102195
  21.0008587  67.6201055  88.8965662  30.5476209  78.1388284  81.4406499
  29.7705652  77.7999444  80.9961661  31.2267690  78.1440908  80.7661464
  25.3628238  73.2583022  81.3313107  25.0578374  73.5729171  82.1823250
  26.3158680  73.3364442  81.3740440  23.8074670  79.4173245  82.9806061
  23.2796031  78.6826005  82.6679298  23.3062173  80.1947921  82.7346029
  28.7867516  77.6122266  88.0973107  28.1291190  78.3021527  88.1853236
  29.5907915  78.0018698  88.4407093  18.5393397  70.0792911  85.3412672
  19.1137149  69.8568093  84.6085865  19.1264380  70.1481606  86.0941273
  27.5972975  75.9666638  86.1477049  28.1104856  76.5996630  86.6498758
  28.2474199  75.3667834  85.7820409  18.8662985  72.1097372  79.3608557
  18.0300297  72.4472059  79.6817832  18.7267754  71.9746352  78.4235694
  20.8416065  66.9534160  84.0687742  20.1880478  66.6383177  83.4444356
  20.7996539  66.3309901  84.7947565  21.9527270  77.2353455  75.9841034
  21.0454332  77.0042709  76.1832183  22.4498302  76.4391075  76.1715015
  24.8595349  85.9450963  78.9037720  24.1857048  86.2482659  79.5122678
  25.2461171  86.7480043  78.5543177  24.0753806  73.4416094  88.3935389
  23.1576367  73.6631041  88.2357077  24.4913949  73.5162404  87.5347097
  24.8588853  74.8407510  83.5238069  25.6060672  75.3528907  83.2145192
  25.1280443  74.5191562  84.3842463  23.1315503  77.3366050  80.5065024
  22.2226723  77.0525083  80.6037494  23.1610587  77.7565129  79.6468331
  28.3634771  80.9472640  84.2756191  27.9097098  80.1063550  84.3321382
  27.7328738  81.5834038  84.6130971  27.3067690  71.8764626  85.5056859
  26.5690447  71.3642012  85.8367101  27.5594464  71.4365007  84.6940136
  26.8067710  82.7849136  85.2106009  27.0990685  83.3454194  84.4918375
  27.3166331  83.0777697  85.9659169  27.4079318  64.6540878  86.0998628
  27.7138195  63.7938241  85.8124543  28.1331923  65.2458498  85.8997622
  13.7003674  75.0571564  84.4880226  13.5028074  74.4640925  83.7631293
  13.1450338  74.7523775  85.2056165  21.6800398  74.9494671  86.6074819
  21.7349007  73.9968507  86.5317296  20.8691600  75.1054110  87.0916118
  22.8291591  78.8774794  77.8453102  22.3911021  78.1610653  77.3858740
  23.5702032  79.1050909  77.2838194  19.6192757  73.5671731  84.3665198
  18.8060623  73.8665901  84.7730390  20.1151752  73.1727419  85.0839680
  21.7701335  83.5629488  86.2999463  21.7277514  83.7890334  85.3707995
  22.6864034  83.3292862  86.4485264  25.2166969  74.0313555  93.1980092
  25.5716357  74.2585028  94.0574558  25.8639100  74.3631932  92.5757347
  30.9464706  77.1531991  83.9029421  30.8082605  77.3433587  82.9750610
  30.5900925  77.9151374  84.3597472  19.1106832  71.1390086  89.9826433
  19.7506212  70.9978845  89.2849396  18.2784363  70.8524599  89.6065035
  19.8867136  80.4392517  86.0961425  20.6807735  79.9442837  85.8944000
  19.1758829  79.9110380  85.7329131  24.7061981  82.8210612  90.4473793
  24.7599003  83.3901548  91.2151509  23.8376762  82.9912497  90.0827830
  16.1949900  74.5835598  82.1721178  15.2647488  74.5220054  82.3891140
  16.2907372  74.0611551  81.3757819  16.1135449  71.1090411  84.7599420
  16.3742266  72.0235744  84.6508580  16.9352621  70.6414854  84.9096033
  17.5860374  72.5228168  91.9298244  18.2583427  72.3145530  91.2810893
  16.7590160  72.3250254  91.4903477  23.4885946  69.1490109  93.9463905
  22.8413861  69.8480059  93.8528382  24.2586961  69.5826253  94.3140153
  26.8964744  79.4138961  97.0214458  26.7450250  79.1849513  96.1044542
  26.8869423  80.3709563  97.0345803  23.6650080  76.9870874  92.0060725
  24.5942140  77.1382034  91.8329692  23.2441110  77.0754895  91.1509371
  22.4638412  81.0121539  89.7759262  22.3249498  80.6440323  90.6485201
  21.6753008  81.5269178  89.6043220  23.0586564  86.1130635  81.1184799
  23.2338320  85.6418678  81.9330422  22.3719352  86.7396401  81.3466060
  24.0143627  80.3903141  87.1648100  23.6793460  80.3503911  88.0605750
  23.5147573  79.7247857  86.6918511  17.9887871  75.7970771  92.6900681
  17.8507669  75.0651010  93.2912220  18.8992795  75.7079671  92.4084869
  26.9502819  77.7359176  77.4385160  26.3331990  77.0106004  77.3418213
  26.4819307  78.4968536  77.0952234  20.6170172  75.5090731  92.1784361
  21.3269790  74.8683923  92.1370980  20.5739480  75.7603625  93.1010542
  28.6056951  82.4458084  95.0990940  28.5469497  81.7617304  94.4321523
  29.0076469  83.1877074  94.6471566  19.3299106  72.4955948  93.9980001
  18.7936463  72.0446687  94.6501597  18.7415814  72.6301857  93.2550465
  17.6247649  89.2619998  87.8924659  17.8644248  89.8938522  88.5703678
  16.7816846  88.9108038  88.1790018  18.7401365  71.9544600  76.5606464
  17.8630831  71.8333401  76.1968711  19.2159118  71.1630678  76.3085353
  28.6074358  80.4097668  93.3304920  27.7201137  80.0723590  93.4531319
  29.1772909  79.6780699  93.5673685  10.2603505  76.7421760  86.6547971
  10.9474545  76.4283490  86.0668987  10.1051634  77.6463124  86.3815223
  15.0638227  71.6311956  91.0832995  14.9796416  71.0237626  90.3483405
  14.2420934  72.1220974  91.0842491  22.1375511  85.0699120  90.2966163
  22.0645683  85.8754092  90.8085468  21.6952904  85.2691086  89.4714185
  21.9265291  84.3070890  83.8068985  21.1432813  84.8492570  83.9007209
  22.6258036  84.8244870  84.2063226  25.2361941  70.1165520  86.4503190
  25.7330641  69.3635482  86.1304260  24.4648922  70.1529836  85.8846399
  24.5974195  84.9685954  92.4524322  25.3102167  85.6033419  92.3800223
  24.1064223  85.0649820  91.6364324  26.3191722  78.8737207  84.0241613
  25.3848000  78.9938669  83.8546318  26.4968390  77.9709674  83.7601623
  21.8196910  72.2582903  86.1774875  21.4494697  71.7053943  86.8655780
  22.3156002  71.6541036  85.6249875  29.7064273  74.7154526  84.5591648
  30.1724725  75.5482518  84.4851950  30.1571774  74.2499508  85.2636906
  19.6486108  82.7180398  93.2729893  20.3495568  83.3516881  93.4259287
  19.1781223  83.0595129  92.5125532  27.7740504  81.0598347  81.5577800
  28.0500348  80.9454942  82.4671674  26.9045003  80.6615832  81.5189973
  27.6780936  67.0835113  88.5982549  26.7644016  67.3139340  88.7664756
  28.1074037  67.1673557  89.4496581  24.4094568  85.3084698  85.2010613
  24.5916963  84.4906354  85.6638366  25.2327554  85.5252391  84.7635503
  24.7436734  84.2352883  82.4625662  25.2724500  83.7245338  81.8495824
  25.0064953  83.9195414  83.3271195  23.4974967  76.0144816  97.5848480
  22.8215604  75.9138946  98.2550855  24.3202601  75.8584030  98.0484477
  15.2453826  82.2516753  90.2060995  15.8307263  81.5060441  90.3388900
  15.0478665  82.5620709  91.0897659  18.0992482  85.2868000  85.2223438
  17.4302857  85.7714128  84.7387478  17.9605351  85.5337221  86.1366816
   9.8371481  74.8222353  88.9265438   9.8755581  74.2885944  89.7202557
   9.3311774  74.2957558  88.3076416  22.2397750  87.3211744  91.8206096
  22.7916058  87.4843365  92.5855181  22.5803944  87.9116181  91.1486121
  17.2162243  69.6686893  92.4227981  17.2803570  70.5301724  92.0105378
  17.1529364  69.0560895  91.6900339  16.6914516  71.7410026  96.0701015
  17.3186555  71.3587103  96.6838539  15.8342435  71.5224228  96.4356708
  27.0908624  82.1473001  97.6754751  27.6348528  82.7602959  97.1809705
  26.5095469  82.7052580  98.1921764  13.4680059  73.5486455  82.0019370
  13.7633500  72.6397134  81.9486424  12.5668094  73.5274195  81.6800372
  25.3766137  85.2693719  88.8069778  25.2517277  84.4683459  88.2980724
  26.0345229  85.7639913  88.3183748  16.9974306  71.6242452  87.9846918
  16.2760891  72.2378419  87.8454392  17.7867561  72.1600216  87.9063564
  27.4401046  83.0702739  90.4349328  26.4931381  82.9508090  90.3627655
  27.7883819  82.1825237  90.5175590  19.8000619  68.9596878  94.2587570
  20.3235021  69.2059175  95.0213880  19.5812952  69.7916913  93.8390708
  15.1967900  71.2300553  82.1258695  14.8680606  70.3497932  81.9433801
  15.5507271  71.1748221  83.0135084  24.4447479  82.8655455  86.6353681
  24.2972442  81.9372163  86.8161251  25.2700973  82.8875546  86.1510756
  18.3109723  71.5173523  82.4934173  18.6505796  72.0459444  81.7712781
  18.7581844  71.8553929  83.2692739  28.0481601  83.6884014  87.7218553
  28.9728148  83.4826876  87.5843004  27.8796904  83.4400415  88.6307895
  21.0053164  69.9010573  91.9437241  20.6649985  69.1018386  92.3457921
  20.2992171  70.2012284  91.3714074  21.6569636  66.9859886  90.3964564
  22.4795705  66.5120364  90.2743454  21.9007700  67.7650369  90.8963250
  20.2977871  70.0148144  80.6927465  21.0186233  70.3929397  80.1891182
  19.6743175  70.7337021  80.7962443  24.4408993  70.7193293  81.6285798
  24.6572608  71.6017931  81.3274626  23.9603061  70.3279507  80.8991440
  19.1808215  73.6779006  88.2056542  19.0352796  73.9919309  89.0980824
  18.7033418  74.2963907  87.6527441  21.0404598  70.6681554  88.2537432
  21.0266166  69.7722648  87.9169730  21.7577026  70.6752218  88.8875718
  22.8930728  71.1018895  90.2990559  22.6348506  72.0235965  90.2974890
  22.3615769  70.7049329  90.9891024  27.8376917  84.2069682  83.0780645
  28.0113795  83.6416104  82.3254497  28.3305808  85.0070577  82.8960135
  13.6553877  76.2184351  91.1444204  13.1107345  76.9944159  91.2764478
  14.5333227  76.5655155  90.9863325  20.4441494  69.5495935  83.5225002
  20.5657405  68.6212581  83.7215890  20.1543536  69.5634621  82.6103318
  23.3132684  67.2350845  86.6591722  23.3354381  67.2990178  85.7043701
  23.7300743  66.3955354  86.8532228  33.6916308  76.9706105  84.6970945
  34.1347454  76.2213430  84.2990068  32.8142819  76.9616241  84.3144676
  28.8252090  83.5236446  80.1777543  29.5202994  84.1443139  80.3964858
  29.1675240  82.6731797  80.4529921  14.4419899  75.3454247  94.0374360
  13.7001635  75.4936882  94.6238991  14.1212643  75.6062513  93.1741110
  30.7243513  80.9736152  81.7064874  31.2494837  81.3123424  80.9814194
  30.6365865  80.0383167  81.5228008  22.3863561  84.8870225  93.8354750
  22.6950688  84.6419372  94.7077450  23.1839044  85.0916864  93.3473621
  22.4084174  87.0408135  86.0660127  21.9689164  86.5484514  86.7592984
  23.1592290  86.4981103  85.8252202  14.8876513  83.2319676  86.0684755
  15.7134532  82.9323448  85.6883399  14.5370565  82.4627298  86.5174544
  19.8558046  82.5846144  88.1382429  19.2338055  81.9216849  87.8384657
  20.5262913  82.6107276  87.4556076  13.0885118  81.1506002  87.0273689
  12.2517026  80.7228177  86.8457690  13.0608763  81.3438446  87.9644480
  19.9282573  71.0627932  97.7314935  19.9770729  71.9390055  97.3492704
  20.4705087  70.5205325  97.1586578  19.4171553  81.1350067  81.6140889
  19.5659673  81.8185532  80.9607562  20.2237996  81.1155157  82.1290345
  22.1581862  71.8159304  94.4861293  21.2885171  72.1092870  94.2143882
  22.3941342  72.3999749  95.2068557  33.2349173  78.4411343  87.0893392
  34.0696064  78.8801147  87.2530952  33.3708302  77.9649996  86.2701638
  17.1724186  77.1615245  82.6201958  16.9270228  76.2577575  82.8182168
  17.3420100  77.1632395  81.6781436  24.8620895  68.0338921  92.0026714
  25.3802839  68.7699948  91.6773202  24.5076028  68.3402915  92.8373473
  16.4419833  72.8943603  80.1188120  15.7489078  72.9687957  79.4628156
  16.1971585  72.1303946  80.6409636  25.1133490  64.4539204  87.5227610
  25.3935243  63.7862393  88.1488037  25.8984097  64.6468299  87.0102274
  22.9166958  83.6298198  79.0852637  22.3440925  84.2488385  78.6323108
  23.4899752  84.1797559  79.6192559  26.1364218  83.9135348  80.2161219
  27.0694891  83.8480910  80.4194094  26.0487431  84.7491615  79.7575752
  28.7652235  83.2301218  77.1765166  28.6865866  82.8961082  78.0700924
  29.5861901  83.7222986  77.1756639  23.3013757  74.9659011  76.4268689
  24.2472861  74.8365219  76.4957107  22.9228002  74.2273672  76.9038117
  29.2735641  66.6315017  86.3895581  29.0760462  66.3230105  87.2738913
  29.8835347  67.3576655  86.5193511  23.1852449  79.0176757  97.8869346
  24.1055459  79.1955356  98.0809393  23.1502032  78.0732802  97.7349045
  21.4856674  72.8908987  76.3623574  20.5788129  72.5942100  76.4386288
  21.7632655  72.5938805  75.4957861  12.4034614  74.2115350  86.8122621
  12.0837398  73.3580658  86.5196995  11.8568042  74.4263928  87.5680588
  16.1814522  76.9277791  90.5292127  16.4000531  77.8594899  90.5480161
  16.5940296  76.5685766  91.3146931  23.1018739  67.4345877  82.5167816
  22.2919468  67.0892962  82.8923062  23.7903156  67.1253420  83.1055427
  25.0309288  66.5123923  84.1392112  25.5840326  66.9319377  84.7982135
  25.2679374  65.5859672  84.1815068  21.0542387  72.5010997  99.9194876
  20.9539114  73.4505354  99.8506967  20.8363929  72.1729236  99.0470946
  20.2555458  69.7495922  76.5035554  21.1174622  70.0750820  76.7631371
  20.4405803  68.9627418  75.9908619  12.2722874  77.8318262  88.7815742
  11.5786346  77.4172215  88.2685697  13.0195865  77.8738798  88.1849161
  28.4088095  68.6224449  83.6470777  27.8286764  69.2809253  83.2648829
  28.1424028  67.8001793  83.2358194  26.8591661  68.0229506  85.8492097
  27.3591440  68.1346041  85.0406416  27.5027269  67.7190559  86.4892905
  20.9173657  75.9308136  98.7359938  20.4340739  76.7308496  98.9423827
  21.0034596  75.9416081  97.7827382  14.1859617  77.7636516  86.6581757
  14.1630305  77.8624203  85.7063640  14.4960253  78.6101666  86.9798923
  16.8446995  79.8212671  90.7728372  17.7990248  79.7896613  90.7058303
  16.6459518  79.3603294  91.5878598  17.4346377  78.3913787  93.3399169
  18.2539266  78.8857865  93.3634007  17.7083184  77.4745755  93.3116737
  27.1912973  70.7824539  82.7027125  26.3038828  71.0674190  82.4847320
  27.6066962  70.6218302  81.8554402  15.1997223  85.3632290  87.7898570
  15.0651691  84.6032691  87.2236568  14.7829286  86.0873190  87.3227358
  26.3356186  80.5469214  76.7975145  27.0392036  80.7519216  77.4132800
  25.6118835  81.1145976  77.0624228  27.1653997  76.2979075  82.9177415
  27.1089198  76.7547626  82.0785047  27.7182339  75.5369759  82.7400258
  30.9758803  72.0868807  83.7427534  30.7195737  71.6865442  84.5735742
  30.3511671  72.8012601  83.6177674  18.3566349  86.2601607  88.0017012
  18.2398733  87.2047040  87.8995702  17.5358795  85.9575169  88.3902811
  28.2442884  80.9851743  78.8473605  29.0788488  80.5532941  78.6651080
  28.0827227  80.8133757  79.7750499  27.8988776  77.4883856  80.2129944
  27.8437580  77.3228128  79.2718388  27.2734831  78.1959889  80.3692134
  12.6881291  72.7251921  94.0391366  13.3340155  72.2150874  94.5278592
  12.4798442  73.4620602  94.6134792  25.2134683  79.7932768  99.5383507
  26.0825843  79.9673420  99.1770142  24.7341435  80.6127185  99.4159236
  21.2084901  66.9891965  79.7915263  21.1963571  67.9333805  79.9483533
  22.1008323  66.8062111  79.4974724  19.3820863  86.9129869  91.2172941
  20.2848110  86.9453479  91.5339436  19.1558233  85.9830320  91.2319276
  21.1374465  85.6660856  87.8783019  20.1870096  85.6662717  87.7647391
  21.4406952  84.9193590  87.3619054  25.0237021  63.5834742  84.0461199
  24.2569417  63.0293228  84.1917882  25.4347726  63.6556611  84.9075351
  17.0278782  69.8719538  98.1366381  17.8910243  69.5156342  98.3469705
  16.4544193  69.5333432  98.8241785  36.8727159  91.5021394  88.9428782
  37.5105569  91.3828141  88.2392122  36.7548002  92.4502238  89.0016734
  33.6816865  91.4548822  88.8790306  33.3435377  91.3389887  87.9910841
  34.5506633  91.0539987  88.8591312  29.5403681  93.3084298  84.8687197
  28.9768546  93.2174235  84.1003485  29.4256076  92.4884203  85.3489690
  34.1636648  92.6083674  94.8376512  34.1525289  92.2136472  93.9657015
  34.3257288  91.8749746  95.4310283  27.0868113  94.8035490  87.7071418
  27.8789405  94.4626315  87.2917717  27.3264763  94.9130465  88.6273571
  35.1203240  96.9755266  80.1801662  34.4691219  97.5609347  79.7935676
  35.9147602  97.5061461  80.2396700  29.0458867  94.0644403  80.5788796
  29.8189743  93.5173390  80.4401672  29.3984266  94.9288653  80.7903258
  30.8843909  95.3920786  93.7855696  30.5933775  96.2966416  93.6702362
  31.5200894  95.4337313  94.4999765  31.8100116  92.7697634  90.3757055
  32.4063688  92.5453656  89.6614018  31.8675088  92.0282380  90.9782503
  31.3825145  90.2237069  78.2107246  31.6350665  89.7018591  77.4490709
  30.4449704  90.0603215  78.3133930  36.4268427  89.2272848  86.0181990
  37.2131517  88.8092271  85.6672407  36.6907132  90.1318940  86.1863638
  36.5978505  94.6645698  80.7170646  35.9624338  94.7380325  81.4291551
  36.2675911  95.2539297  80.0389726  41.8276854  89.1648081  86.9214968
  42.5602026  88.5947298  87.1552798  41.0716210  88.7769681  87.3621474
  31.1021433  92.1265175  80.4131621  30.9857691  91.4510079  81.0812706
  31.2123693  91.6397549  79.5963774  33.4452974  91.5875322  84.1178311
  33.0811181  91.0605943  84.8291232  34.3020090  91.1973792  83.9444796
  39.3502275  82.8769655  91.3809577  39.0185600  83.7465066  91.1570792
  38.7547888  82.5605939  92.0603607  33.0858461  86.6165222  79.1139659
  33.2532864  87.4845459  79.4810130  32.8955630  86.7792504  78.1900948
  35.8433794  95.0782201  90.7805489  35.5434517  95.9807240  90.6721297
  35.4984854  94.8114384  91.6326642  29.2946276  91.5295998  86.8142194
  28.3696772  91.3972212  87.0219886  29.5430689  92.3090217  87.3112136
  39.2430938  87.5964741  88.4602927  38.3347815  87.5280150  88.1661688
  39.1918534  88.0736686  89.2884752  33.0647682  89.0722880  80.0986326
  32.9447307  89.5179930  80.9371806  32.3700270  89.4208197  79.5399864
  26.6555087  91.1729271  87.6485983  26.7847468  91.4263750  88.5625395
  25.9752538  91.7656979  87.3290638  30.8254574 101.8426521  83.7476457
  30.7478604 102.7934347  83.8264938  30.2216218 101.4972394  84.4051383
  33.3171804  89.0154387  96.4037824  32.5405138  89.5748307  96.3940689
  33.9562367  89.5011170  96.9252694  41.1092585  85.7981180  90.2380801
  40.4666965  86.0913713  89.5920595  40.6047513  85.6834100  91.0433997
  38.7632748  89.5444353  80.9266660  39.6750604  89.7771740  80.7514358
  38.2542395  90.1281397  80.3641739  31.5718176  91.8239840  95.9655791
  32.3132861  92.3624884  95.6890615  30.8655162  92.4506129  96.1227343
  37.0473516  93.9668981  94.5627953  37.4556872  93.5251391  93.8182585
  36.3250777  93.3921608  94.8162145  33.4004586  88.9041587  91.9361510
  34.2465781  89.3281001  92.0796159  33.3403224  88.2475212  92.6300073
  37.3702331  94.5270171  88.3180241  36.7411193  94.6915885  87.6156309
  36.9827993  94.9411781  89.0891205  41.2491562  95.4624609  85.6724605
  40.5642601  95.8423511  85.1221639  41.3335412  96.0719936  86.4056553
  36.5504031  86.5645956  93.5942683  36.3064963  87.3188016  93.0576959
  36.8263962  86.9431303  94.4289930  38.5042494  93.1084568  92.2719949
  38.7159389  93.7516328  91.5954330  38.4572242  92.2746885  91.8041879
  36.1068723  85.7202389  89.1756521  35.2453202  86.0183642  89.4673258
  36.1331158  85.9372788  88.2437554  32.9230292  94.2644579  85.5830327
  33.3868638  94.5432282  84.7934949  32.6587090  93.3628024  85.4003417
  29.8154373  93.8116061  88.5210090  30.3855731  94.2403329  87.8827574
  30.4062485  93.5298646  89.2194275  31.8599178  90.3867732  82.3919892
  32.5623222  90.8388775  82.8593818  31.5279807  89.7451551  83.0199785
  30.3079540  88.9779488  96.7671101  29.6778201  89.6595769  97.0006498
  30.2015628  88.8662570  95.8224239  25.6024512  88.6451284  87.6937025
  24.8123566  88.9008813  87.2177136  26.0935760  89.4599622  87.7989066
  39.6188322  95.9856524  90.4442306  40.4405766  95.5836711  90.1624988
  39.6150725  95.8824758  91.3958422  27.5539258  89.0095864  84.6520502
  26.7570421  89.1214558  85.1703998  27.3264850  89.3482516  83.7861392
  33.3844925  95.5340567  92.6003017  33.4489358  95.9960974  93.4361188
  32.6755849  94.9037932  92.7285326  23.8862215  88.8981775  90.1252016
  24.1370254  89.7828785  90.3909592  24.4221764  88.7186376  89.3527108
  47.7094315  92.3295272  86.7927278  46.9558023  91.7602670  86.6371282
  47.8441856  92.2957937  87.7397912  33.0992943  97.2008674  82.4681997
  32.9638618  98.0460210  82.8966845  33.6402756  97.4027952  81.7047931
  26.5522340  94.7184112  83.0409922  27.0646861  95.5127363  83.1915487
  27.2045053  94.0210403  82.9743523  28.3617225  97.8349869  85.1232675
  28.5383853  98.7567833  84.9353659  29.1574059  97.5208288  85.5527055
  27.6469582  89.8814501  94.9994838  27.5323097  88.9799758  95.3001937
  26.7914099  90.1278197  94.6479655  34.7261419  97.8232241  96.5982339
  34.2825274  97.0368619  96.2803243  35.3878633  98.0111391  95.9326230
  29.4848541  99.3528042  91.1243017  30.0355966  99.2245106  90.3520011
  28.6460017  99.6522932  90.7737910  36.8242658  98.1035041  94.6263740
  36.8061133  98.9243922  94.1344009  37.7462578  97.9789116  94.8513881
  33.2815712  95.6179170  95.4687249  33.8144048  94.8567458  95.2386557
  32.7529793  95.3252822  96.2111403  24.5171257  93.0472767  83.8169493
  25.3546479  93.4569775  83.6003200  24.6949525  92.1072209  83.7869686
  36.4135689  90.7147847  79.5053325  35.8982313  91.4852452  79.7441713
  36.1412998  90.0412984  80.1286387  33.9982800  85.5597548  84.5638564
  33.1424397  85.1704399  84.3844203  34.4109752  85.6389509  83.7038349
  31.7724833  83.1782621  87.9696305  32.6377830  82.9825430  87.6102195
  31.8402342  82.9492973  88.8965662  41.3869963  93.4680202  81.4406499
  40.6099406  93.1291362  80.9961661  42.0661444  93.4732825  80.7661464
  36.2021993  88.5874939  81.3313107  35.8972128  88.9021089  82.1823250
  37.1552435  88.6656359  81.3740440  34.6468424  94.7465163  82.9806061
  34.1189786  94.0117922  82.6679298  34.1455927  95.5239839  82.7346029
  39.6261270  92.9414183  88.0973107  38.9684945  93.6313445  88.1853236
  40.4301670  93.3310615  88.4407093  29.3787152  85.4084829  85.3412672
  29.9530904  85.1860011  84.6085865  29.9658134  85.4773524  86.0941273
  38.4366729  91.2958556  86.1477049  38.9498611  91.9288548  86.6498758
  39.0867953  90.6959751  85.7820409  29.7056739  87.4389290  79.3608557
  28.8694051  87.7763977  79.6817832  29.5661509  87.3038270  78.4235694
  31.6809820  82.2826078  84.0687742  31.0274232  81.9675095  83.4444356
  31.6390294  81.6601818  84.7947565  32.7921025  92.5645373  75.9841034
  31.8848086  92.3334627  76.1832183  33.2892057  91.7682992  76.1715015
  35.6989103 101.2742880  78.9037720  35.0250802 101.5774577  79.5122678
  36.0854925 102.0771961  78.5543177  34.9147560  88.7708012  88.3935389
  33.9970121  88.9922959  88.2357077  35.3307704  88.8454322  87.5347097
  35.6982608  90.1699427  83.5238069  36.4454427  90.6820824  83.2145192
  35.9674197  89.8483480  84.3842463  33.9709258  92.6657968  80.5065024
  33.0620477  92.3817001  80.6037494  34.0004342  93.0857046  79.6468331
  39.2028525  96.2764557  84.2756191  38.7490853  95.4355467  84.3321382
  38.5722492  96.9125956  84.6130971  38.1461445  87.2056543  85.5056859
  37.4084202  86.6933930  85.8367101  38.3988218  86.7656925  84.6940136
  37.6461465  98.1141054  85.2106009  37.9384439  98.6746111  84.4918375
  38.1560085  98.4069615  85.9659169  38.2473072  79.9832795  86.0998628
  38.5531949  79.1230159  85.8124543  38.9725677  80.5750416  85.8997622
  24.5397428  90.3863482  84.4880226  24.3421828  89.7932843  83.7631293
  23.9844092  90.0815692  85.2056165  32.5194152  90.2786589  86.6074819
  32.5742762  89.3260425  86.5317296  31.7085354  90.4346028  87.0916118
  33.6685346  94.2066712  77.8453102  33.2304776  93.4902571  77.3858740
  34.4095787  94.4342826  77.2838194  30.4586512  88.8963648  84.3665198
  29.6454377  89.1957819  84.7730390  30.9545506  88.5019337  85.0839680
  32.6095090  98.8921405  86.2999463  32.5671269  99.1182252  85.3707995
  33.5257789  98.6584780  86.4485264  36.0560724  89.3605473  93.1980092
  36.4110111  89.5876946  94.0574558  36.7032855  89.6923850  92.5757347
  41.7858461  92.4823909  83.9029421  41.6476359  92.6725505  82.9750610
  41.4294679  93.2443291  84.3597472  29.9500587  86.4682004  89.9826433
  30.5899966  86.3270763  89.2849396  29.1178117  86.1816517  89.6065035
  41.8127840  94.5500436  88.9140692  42.2464347  94.4575725  89.7623746
  42.5259421  94.5257936  88.2760708  30.7260891  95.7684434  86.0961425
  31.5201489  95.2734754  85.8944000  30.0152583  95.2402297  85.7329131
  35.5455735  98.1502530  90.4473793  35.5992757  98.7193466  91.2151509
  34.6770516  98.3204415  90.0827830  27.0343654  89.9127516  82.1721178
  26.1041242  89.8511971  82.3891140  27.1301126  89.3903469  81.3757819
  26.9529203  86.4382329  84.7599420  27.2136020  87.3527662  84.6508580
  27.7746375  85.9706771  84.9096033  28.4254128  87.8520086  91.9298244
  29.0977182  87.6437448  91.2810893  27.5983915  87.6542172  91.4903477
  42.6743390  94.5924136  91.4473578  42.8679280  95.4969947  91.6932853
  42.5744008  94.1331555  92.2812163  34.3279700  84.4782027  93.9463905
  33.6807616  85.1771977  93.8528382  35.0980716  84.9118171  94.3140153
  37.7358498  94.7430879  97.0214458  37.5844005  94.5141431  96.1044542
  37.7263178  95.7001480  97.0345803  34.5043835  92.3162792  92.0060725
  35.4335895  92.4673951  91.8329692  34.0834865  92.4046813  91.1509371
  33.3032167  96.3413456  89.7759262  33.1643252  95.9732241  90.6485201
  32.5146763  96.8561096  89.6043220  33.8980319 101.4422553  81.1184799
  34.0732074 100.9710596  81.9330422  33.2113107 102.0688319  81.3466060
  34.8537382  95.7195059  87.1648100  34.5187214  95.6795829  88.0605750
  34.3541327  95.0539775  86.6918511  28.8281626  91.1262689  92.6900681
  28.6901424  90.3942928  93.2912220  29.7386549  91.0371589  92.4084869
  37.7896573  93.0651093  77.4385160  37.1725744  92.3397921  77.3418213
  37.3213062  93.8260454  77.0952234  31.4563926  90.8382648  92.1784361
  32.1663545  90.1975840  92.1370980  31.4133235  91.0895543  93.1010542
  39.4450705  97.7750002  95.0990940  39.3863251  97.0909222  94.4321523
  39.8470223  98.5168992  94.6471566  30.1692860  87.8247866  93.9980001
  29.6330217  87.3738605  94.6501597  29.5809569  87.9593775  93.2550465
  28.4641404 104.5911915  87.8924659  28.7038002 105.2230440  88.5703678
  27.6210600 104.2399955  88.1790018  29.5795119  87.2836518  76.5606464
  28.7024586  87.1625318  76.1968711  30.0552872  86.4922596  76.3085353
  39.4468112  95.7389586  93.3304920  38.5594891  95.4015507  93.4531319
  40.0166663  95.0072617  93.5673685  21.0997259  92.0713677  86.6547971
  21.7868299  91.7575407  86.0668987  20.9445388  92.9755042  86.3815223
  25.9031982  86.9603874  91.0832995  25.8190170  86.3529543  90.3483405
  25.0814688  87.4512892  91.0842491  32.9769266 100.3991038  90.2966163
  32.9039437 101.2046009  90.8085468  32.5346659 100.5983004  89.4714185
  32.7659045  99.6362808  83.8068985  31.9826567 100.1784488  83.9007209
  33.4651791 100.1536788  84.2063226  36.0755695  85.4457437  86.4503190
  36.5724395  84.6927400  86.1304260  35.3042677  85.4821754  85.8846399
  43.9285453  91.1497803  88.0921482  43.9175329  92.0322518  87.7215415
  43.0602832  90.7969354  87.8976019  35.4367949 100.2977872  92.4524322
  36.1495921 100.9325337  92.3800223  34.9457978 100.3941738  91.6364324
  37.1585476  94.2029125  84.0241613  36.2241755  94.3230587  83.8546318
  37.3362145  93.3001591  83.7601623  32.6590664  87.5874820  86.1774875
  32.2888452  87.0345861  86.8655780  33.1549757  86.9832954  85.6249875
  40.5458028  90.0446444  84.5591648  41.0118480  90.8774435  84.4851950
  40.9965528  89.5791425  85.2636906  30.4879863  98.0472315  93.2729893
  31.1889322  98.6808798  93.4259287  30.0174978  98.3887047  92.5125532
  38.6134259  96.3890265  81.5577800  38.8894103  96.2746860  82.4671674
  37.7438757  95.9907750  81.5189973  38.5174690  82.4127031  88.5982549
  37.6037770  82.6431258  88.7664756  38.9467792  82.4965475  89.4496581
  38.2881149  90.6016923  91.0982443  37.6352599  90.8492830  90.4434896
  38.6661529  89.7881061  90.7644920  35.2488323 100.6376616  85.2010613
  35.4310717  99.8198272  85.6638366  36.0721309 100.8544308  84.7635503
  35.5830488  99.5644801  82.4625662  36.1118255  99.0537256  81.8495824
  35.8458708  99.2487331  83.3271195  34.3368722  91.3436734  97.5848480
  33.6609359  91.2430863  98.2550855  35.1596356  91.1875948  98.0484477
  26.0847581  97.5808670  90.2060995  26.6701018  96.8352358  90.3388900
  25.8872419  97.8912627  91.0897659  28.9386236 100.6159918  85.2223438
  28.2696611 101.1006045  84.7387478  28.7999106 100.8629138  86.1366816
  20.6765236  90.1514271  88.9265438  20.7149335  89.6177861  89.7202557
  20.1705528  89.6249476  88.3076416  33.0791505 102.6503661  91.8206096
  33.6309813 102.8135283  92.5855181  33.4197698 103.2408099  91.1486121
  28.0555998  84.9978811  92.4227981  28.1197324  85.8593642  92.0105378
  27.9923118  84.3852813  91.6900339  27.5308270  87.0701944  96.0701015
  28.1580309  86.6879021  96.6838539  26.6736189  86.8516146  96.4356708
  37.9302379  97.4764919  97.6754751  38.4742283  98.0894877  97.1809705
  37.3489224  98.0344497  98.1921764  24.3073813  88.8778373  82.0019370
  24.6027254  87.9689051  81.9486424  23.4061849  88.8566112  81.6800372
  36.2159892 100.5985637  88.8069778  36.0911031  99.7975377  88.2980724
  36.8738983 101.0931830  88.3183748  27.8368060  86.9534369  87.9846918
  27.1154646  87.5670337  87.8454392  28.6261316  87.4892134  87.9063564
  38.2794800  98.3994657  90.4349328  37.3325136  98.2800008  90.3627655
  38.6277573  97.5117155  90.5175590  30.6394374  84.2888796  94.2587570
  31.1628775  84.5351092  95.0213880  30.4206707  85.1208831  93.8390708
  26.0361655  86.5592470  82.1258695  25.7074361  85.6789849  81.9433801
  26.3901025  86.5040139  83.0135084  35.2841234  98.1947373  86.6353681
  35.1366196  97.2664081  86.8161251  36.1094727  98.2167464  86.1510756
  29.1503478  86.8465440  82.4934173  29.4899550  87.3751361  81.7712781
  29.5975598  87.1845846  83.2692739  38.8875355  99.0175932  87.7218553
  39.8121903  98.8118793  87.5843004  38.7190659  98.7692333  88.6307895
  31.8446919  85.2302491  91.9437241  31.5043739  84.4310304  92.3457921
  31.1385925  85.5304202  91.3714074  31.1371625  85.3440062  80.6927465
  31.8579988  85.7221315  80.1891182  30.5136929  86.0628939  80.7962443
  35.2802748  86.0485211  81.6285798  35.4966362  86.9309849  81.3274626
  34.7996815  85.6571424  80.8991440  30.0201969  89.0070924  88.2056542
  29.8746550  89.3211227  89.0980824  29.5427173  89.6255824  87.6527441
  31.8798352  85.9973472  88.2537432  31.8659921  85.1014565  87.9169730
  32.5970780  86.0044136  88.8875718  33.7324483  86.4310812  90.2990559
  33.4742261  87.3527883  90.2974890  33.2009523  86.0341247  90.9891024
  38.6770672  99.5361599  83.0780645  38.8507549  98.9708022  82.3254497
  39.1699563 100.3362494  82.8960135  24.4947631  91.5476268  91.1444204
  23.9501100  92.3236076  91.2764478  25.3726981  91.8947073  90.9863325
  31.2835248  84.8787852  83.5225002  31.4051159  83.9504498  83.7215890
  30.9937290  84.8926538  82.6103318  34.1526439  82.5642763  86.6591722
  34.1748135  82.6282096  85.7043701  34.5694498  81.7247271  86.8532228
  44.5310063  92.2998022  84.6970945  44.9741209  91.5505347  84.2990068
  43.6536573  92.2908159  84.3144676  39.6645844  98.8528364  80.1777543
  40.3596749  99.4735056  80.3964858  40.0068994  98.0023715  80.4529921
  25.2813653  90.6746165  94.0374360  24.5395389  90.8228800  94.6238991
  24.9606398  90.9354430  93.1741110  41.5637267  96.3028069  81.7064874
  42.0888591  96.6415342  80.9814194  41.4759620  95.3675085  81.5228008
  33.2257316 100.2162143  93.8354750  33.5344442  99.9711290  94.7077450
  34.0232798 100.4208781  93.3473621  33.2477928 102.3700053  86.0660127
  32.8082918 101.8776431  86.7592984  33.9986045 101.8273020  85.8252202
  25.7270267  98.5611593  86.0684755  26.5528287  98.2615365  85.6883399
  25.3764319  97.7919216  86.5174544  30.6951800  97.9138062  88.1382429
  30.0731809  97.2508767  87.8384657  31.3656667  97.9399194  87.4556076
  23.9278872  96.4797920  87.0273689  23.0910780  96.0520094  86.8457690
  23.9002517  96.6730363  87.9644480  30.7676328  86.3919850  97.7314935
  30.8164483  87.2681972  97.3492704  31.3098842  85.8497243  97.1586578
  41.2531173  96.9360973  97.0116072  40.4626717  96.9185112  96.4720571
  41.0164528  97.4749267  97.7665108  41.3729048  93.7853439  94.3248800
  41.4227053  93.6203447  95.2664323  41.2642972  92.9180698  93.9346681
  30.2565307  96.4641985  81.6140889  30.4053427  97.1477449  80.9607562
  31.0631751  96.4447075  82.1290345  38.6632811  89.7684367  95.6408107
  39.5642674  89.6290832  95.3492105  38.7380785  89.9338822  96.5806284
  32.9975616  87.1451222  94.4861293  32.1278926  87.4384788  94.2143882
  33.2335096  87.7291667  95.2068557  42.8747245  96.2050381  94.5690822
  42.5832054  96.5680361  95.4054283  42.2619376  95.4917389  94.3904154
  44.0742928  93.7703261  87.0893392  44.9089819  94.2093065  87.2530952
  44.2102056  93.2941914  86.2701638  41.1234433  91.3282995  93.0370880
  41.5988555  91.5210642  92.2289731  40.1999999  91.3842181  92.7914263
  28.0117940  92.4907163  82.6201958  27.7663982  91.5869493  82.8182168
  28.1813855  92.4924313  81.6781436  27.2813588  88.2235520  80.1188120
  26.5882833  88.2979875  79.4628156  27.0365339  87.4595864  80.6409636
  35.9527244  79.7831122  87.5227610  36.2328998  79.1154311  88.1488037
  36.7377851  79.9760217  87.0102274  33.7560713  98.9590115  79.0852637
  33.1834680  99.5780303  78.6323108  34.3293506  99.5089477  79.6192559
  39.8236102  88.2048756  91.2699185  40.7753525  88.3046853  91.2911409
  39.6539553  87.4127024  91.7797270  37.8450482  85.2904339  91.4558586
  37.2500414  85.5709351  90.7605075  37.5600179  85.7798240  92.2275327
  36.9757972  99.2427266  80.2161219  37.9088646  99.1772827  80.4194094
  36.8881185 100.0783532  79.7575752  39.6045989  98.5593136  77.1765166
  39.5259621  98.2252999  78.0700924  40.4255656  99.0514904  77.1756639
  42.3024180  91.4254875  90.3841485  42.2700500  90.4870876  90.5701169
  42.9124804  91.5038912  89.6507310  34.1407511  90.2950928  76.4268689
  35.0866616  90.1657136  76.4957107  33.7621756  89.5565590  76.9038117
  42.4518669  88.2165919  90.4299768  41.9357717  87.4324375  90.2429697
  43.3358617  87.8884635  90.5946288  40.1129396  81.9606934  86.3895581
  39.9154217  81.6522022  87.2738913  40.7229101  82.6868573  86.5193511
  48.1200730  92.4870882  89.5247522  48.8504119  92.2256170  90.0855225
  47.5107676  91.7499604  89.5649590  46.2016027  90.6278745  90.1221973
  45.4749191  90.4934710  89.5138465  45.7863314  90.9355573  90.9278691
  34.0246204  94.3468674  97.8869346  34.9449213  94.5247273  98.0809393
  33.9895787  93.4024720  97.7349045  32.3250428  88.2200905  76.3623574
  31.4181884  87.9234017  76.4386288  32.6026409  87.9230723  75.4957861
  23.2428369  89.5407268  86.8122621  22.9231153  88.6872576  86.5196995
  22.6961797  89.7555846  87.5680588  27.0208276  92.2569709  90.5292127
  27.2394286  93.1886817  90.5480161  27.4334050  91.8977683  91.3146931
  33.9412494  82.7637794  82.5167816  33.1313222  82.4184879  82.8923062
  34.6296911  82.4545338  83.1055427  35.8703042  81.8415841  84.1392112
  36.4234081  82.2611295  84.7982135  36.1073129  80.9151589  84.1815068
  31.8936142  87.8302915  99.9194876  31.7932868  88.7797272  99.8506967
  31.6757684  87.5021154  99.0470946  31.0949213  85.0787840  76.5035554
  31.9568377  85.4042738  76.7631371  31.2799557  84.2919336  75.9908619
  23.1116629  93.1610179  88.7815742  22.4180100  92.7464132  88.2685697
  23.8589620  93.2030716  88.1849161  39.2481849  83.9516366  83.6470777
  38.6680518  84.6101170  83.2648829  38.9817782  83.1293711  83.2358194
  37.6985416  83.3521424  85.8492097  38.1985194  83.4637958  85.0406416
  38.3421024  83.0482477  86.4892905  31.7567412  91.2600054  98.7359938
  31.2734493  92.0600414  98.9423827  31.8428351  91.2707998  97.7827382
  25.0253371  93.0928433  86.6581757  25.0024059  93.1916121  85.7063640
  25.3354008  93.9393584  86.9798923  27.6840749  95.1504588  90.7728372
  28.6384003  95.1188531  90.7058303  27.4853273  94.6895212  91.5878598
  28.2740131  93.7205704  93.3399169  29.0933020  94.2149783  93.3634007
  28.5476939  92.8037672  93.3116737  38.0306727  86.1116457  82.7027125
  37.1432582  86.3966107  82.4847320  38.4460716  85.9510220  81.8554402
  41.3821264  86.1362978  86.4181464  42.1581654  86.6259430  86.6906081
  40.6569398  86.5621032  86.8753334  43.8193822  86.8490597  87.4755405
  44.4138313  86.6086333  86.7648713  43.8920406  86.1297727  88.1028941
  26.0390978 100.6924208  87.7898570  25.9045446  99.9324609  87.2236568
  25.6223040 101.4165108  87.3227358  37.1749941  95.8761131  76.7975145
  37.8785791  96.0811134  77.4132800  36.4512590  96.4437893  77.0624228
  38.0047751  91.6270993  82.9177415  37.9482953  92.0839544  82.0785047
  38.5576094  90.8661677  82.7400258  41.8152557  87.4160724  83.7427534
  41.5589491  87.0157360  84.5735742  41.1905425  88.1304518  83.6177674
  46.1264895  90.1556798  86.2498826  45.5664453  90.2249987  87.0230388
  45.5208398  89.9797782  85.5298322  29.1960104 101.5893525  88.0017012
  29.0792488 102.5338957  87.8995702  28.3752550 101.2867086  88.3902811
  39.0836638  96.3143660  78.8473605  39.9182242  95.8824859  78.6651080
  38.9220981  96.1425674  79.7750499  38.7382530  92.8175774  80.2129944
  38.6831334  92.6520045  79.2718388  38.1128586  93.5251807  80.3692134
  23.5275045  88.0543838  94.0391366  24.1733909  87.5442792  94.5278592
  23.3192197  88.7912520  94.6134792  36.0528438  95.1224686  99.5383507
  36.9219597  95.2965338  99.1770142  35.5735189  95.9419102  99.4159236
  32.0478656  82.3183883  79.7915263  32.0357326  83.2625723  79.9483533
  32.9402078  82.1354028  79.4974724  30.2214618 102.2421787  91.2172941
  31.1241865 102.2745397  91.5339436  29.9951988 101.3122238  91.2319276
  31.9768220 100.9952773  87.8783019  31.0263851 100.9954635  87.7647391
  32.2800706 100.2485508  87.3619054  27.8672536  85.2011455  98.1366381
  28.7303998  84.8448260  98.3469705  27.2937947  84.8625350  98.8241785
  47.7120913 106.8313312  88.9428782  48.3499323 106.7120059  88.2392122
  47.5941756 107.7794156  89.0016734  44.5210620 106.7840740  88.8790306
  44.1829131 106.6681804  87.9910841  45.3900388 106.3831905  88.8591312
  40.3797435 108.6376216  84.8687197  39.8162300 108.5466153  84.1003485
  40.2649830 107.8176121  85.3489690  45.0030403 107.9375591  94.8376512
  44.9919043 107.5428390  93.9657015  45.1651042 107.2041664  95.4310283
  37.9261867 110.1327408  87.7071418  38.7183159 109.7918232  87.2917717
  38.1658517 110.2422383  88.6273571  45.9596994 112.3047184  80.1801662
  45.3084974 112.8901264  79.7935676  46.7541357 112.8353379  80.2396700
  39.8852621 109.3936321  80.5788796  40.6583497 108.8465308  80.4401672
  40.2378020 110.2580570  80.7903258  41.7237664 110.7212703  93.7855696
  41.4327530 111.6258334  93.6702362  42.3594648 110.7629231  94.4999765
  42.6493871 108.0989552  90.3757055  43.2457443 107.8745574  89.6614018
  42.7068842 107.3574297  90.9782503  42.2218899 105.5528987  78.2107246
  42.4744420 105.0310508  77.4490709  41.2843458 105.3895133  78.3133930
  47.2662182 104.5564765  86.0181990  48.0525271 104.1384189  85.6672407
  47.5300886 105.4610858  86.1863638  47.4372259 109.9937616  80.7170646
  46.8018092 110.0672242  81.4291551  47.1069666 110.5831215  80.0389726
  52.6670609 104.4939999  86.9214968  53.3995781 103.9239215  87.1552798
  51.9109965 104.1061599  87.3621474  41.9415188 107.4557093  80.4131621
  41.8251446 106.7801996  81.0812706  42.0517448 106.9689467  79.5963774
  44.2846729 106.9167240  84.1178311  43.9204936 106.3897861  84.8291232
  45.1413845 106.5265709  83.9444796  50.1896029  98.2061573  91.3809577
  49.8579354  99.0756984  91.1570792  49.5941643  97.8897857  92.0603607
  43.9252216 101.9457140  79.1139659  44.0926618 102.8137376  79.4810130
  43.7349385 102.1084422  78.1900948  46.6827549 110.4074119  90.7805489
  46.3828272 111.3099158  90.6721297  46.3378608 110.1406302  91.6326642
  40.1340030 106.8587916  86.8142194  39.2090527 106.7264130  87.0219886
  40.3824444 107.6382135  87.3112136  50.0824693 102.9256659  88.4602927
  49.1741570 102.8572067  88.1661688  50.0312288 103.4028604  89.2884752
  43.9041437 104.4014797  80.0986326  43.7841062 104.8471848  80.9371806
  43.2094025 104.7500115  79.5399864  37.4948841 106.5021189  87.6485983
  37.6241223 106.7555668  88.5625395  36.8146293 107.0948897  87.3290638
  41.6648329 117.1718439  83.7476457  41.5872358 118.1226264  83.8264938
  41.0609972 116.8264312  84.4051383  44.1565558 104.3446305  96.4037824
  43.3798892 104.9040225  96.3940689  44.7956121 104.8303088  96.9252694
  51.9486339 101.1273097  90.2380801  51.3060719 101.4205630  89.5920595
  51.4441268 101.0126018  91.0433997  49.6026503 104.8736271  80.9266660
  50.5144359 105.1063657  80.7514358  49.0936150 105.4573315  80.3641739
  42.4111931 107.1531758  95.9655791  43.1526615 107.6916802  95.6890615
  41.7048916 107.7798047  96.1227343  47.8867270 109.2960898  94.5627953
  48.2950626 108.8543309  93.8182585  47.1644532 108.7213526  94.8162145
  44.2398340 104.2333505  91.9361510  45.0859536 104.6572919  92.0796159
  44.1796978 103.5767129  92.6300073  48.2096085 109.8562089  88.3180241
  47.5804947 110.0207803  87.6156309  47.8221747 110.2703699  89.0891205
  52.0885317 110.7916527  85.6724605  51.4036355 111.1715428  85.1221639
  52.1729166 111.4011853  86.4056553  47.3897786 101.8937873  93.5942683
  47.1458718 102.6479934  93.0576959  47.6657716 102.2723221  94.4289930
  49.3436249 108.4376486  92.2719949  49.5553144 109.0808246  91.5954330
  49.2965997 107.6038802  91.8041879  46.9462477 101.0494306  89.1756521
  46.0846956 101.3475560  89.4673258  46.9724912 101.2664705  88.2437554
  43.7624047 109.5936497  85.5830327  44.2262392 109.8724200  84.7934949
  43.4980845 108.6919942  85.4003417  40.6548128 109.1407979  88.5210090
  41.2249485 109.5695247  87.8827574  41.2456240 108.8590563  89.2194275
  42.6992933 105.7159649  82.3919892  43.4016976 106.1680693  82.8593818
  42.3673561 105.0743468  83.0199785  41.1473294 104.3071406  96.7671101
  40.5171955 104.9887687  97.0006498  41.0409382 104.1954488  95.8224239
  36.4418267 103.9743202  87.6937025  35.6517321 104.2300731  87.2177136
  36.9329514 104.7891540  87.7989066  50.4582076 111.3148441  90.4442306
  51.2799520 110.9128629  90.1624988  50.4544479 111.2116675  91.3958422
  38.3933012 104.3387781  84.6520502  37.5964176 104.4506476  85.1703998
  38.1658604 104.6774434  83.7861392  44.2238680 110.8632485  92.6003017
  44.2883112 111.3252892  93.4361188  43.5149604 110.2329849  92.7285326
  34.7255970 104.2273693  90.1252016  34.9764008 105.1120702  90.3909592
  35.2615518 104.0478294  89.3527108  58.5488070 107.6587190  86.7927278
  57.7951778 107.0894588  86.6371282  58.6835611 107.6249854  87.7397912
  43.9386698 112.5300592  82.4681997  43.8032372 113.3752128  82.8966845
  44.4796510 112.7319870  81.7047931  40.4254037  98.6092172  99.1296352
  40.0320983  98.0558370  99.8043996  41.2420178  98.9202750  99.5202870
  37.3916095 110.0476030  83.0409922  37.9040616 110.8419280  83.1915487
  38.0438808 109.3502321  82.9743523  39.2010980 113.1641786  85.1232675
  39.3777608 114.0859751  84.9353659  39.9967813 112.8500206  85.5527055
  43.3421998 100.0250051  96.7216609  44.0831712 100.6257204  96.6421071
  43.5739921  99.2827689  96.1634651  38.4863336 105.2106418  94.9994838
  38.3716851 104.3091675  95.3001937  37.6307854 105.4570115  94.6479655
  45.5655174 113.1524159  96.5982339  45.1219028 112.3660537  96.2803243
  46.2272388 113.3403309  95.9326230  40.3242295 114.6819960  91.1243017
  40.8749720 114.5537024  90.3520011  39.4853771 114.9814849  90.7737910
  47.6636412 113.4326958  94.6263740  47.6454887 114.2535840  94.1344009
  48.5856332 113.3081034  94.8513881  44.1209466 110.9471088  95.4687249
  44.6537803 110.1859376  95.2386557  43.5923547 110.6544740  96.2111403
  47.2879161  96.0531154  90.9980890  46.9443431  96.9432796  90.9220001
  47.6558124  95.8632812  90.1350475  35.3565012 108.3764684  83.8169493
  36.1940234 108.7861693  83.6003200  35.5343279 107.4364127  83.7869686
  47.2529444 106.0439765  79.5053325  46.7376067 106.8144370  79.7441713
  46.9806752 105.3704901  80.1286387  44.8376555 100.8889466  84.5638564
  43.9818151 100.4996316  84.3844203  45.2503507 100.9681427  83.7038349
  46.3675702  98.4235809  88.9630124  45.8640497  98.3865944  88.1497929
  46.6606308  99.3328552  89.0226780  42.6118587  98.5074539  87.9696305
  43.4771584  98.3117348  87.6102195  42.6796096  98.2784891  88.8965662
  52.2263718 108.7972120  81.4406499  51.4493161 108.4583279  80.9961661
  52.9055199 108.8024743  80.7661464  47.0415747 103.9166857  81.3313107
  46.7365883 104.2313006  82.1823250  47.9946189 103.9948277  81.3740440
  45.4862179 110.0757080  82.9806061  44.9583540 109.3409840  82.6679298
  44.9849682 110.8531757  82.7346029  50.4655025 108.2706101  88.0973107
  49.8078699 108.9605362  88.1853236  51.2695424 108.6602533  88.4407093
  40.2180906 100.7376747  85.3412672  40.7924658 100.5151928  84.6085865
  40.8051889 100.8065441  86.0941273  49.2760484 106.6250474  86.1477049
  49.7892365 107.2580465  86.6498758  49.9261708 106.0251669  85.7820409
  40.5450494 102.7681208  79.3608557  39.7087806 103.1055894  79.6817832
  40.4055263 102.6330188  78.4235694  42.5203574  97.6117996  84.0687742
  41.8667987  97.2967013  83.4444356  42.4784048  96.9893736  84.7947565
  43.6314779 107.8937291  75.9841034  42.7241841 107.6626544  76.1832183
  44.1285811 107.0974910  76.1715015  46.5382858 116.6034798  78.9037720
  45.8644557 116.9066495  79.5122678  46.9248680 117.4063878  78.5543177
  45.7541315 104.0999929  88.3935389  44.8363876 104.3214876  88.2357077
  46.1701458 104.1746240  87.5347097  46.5376362 105.4991345  83.5238069
  47.2848181 106.0112742  83.2145192  46.8067952 105.1775398  84.3842463
  44.8103012 107.9949886  80.5065024  43.9014232 107.7108918  80.6037494
  44.8398096 108.4148964  79.6468331  50.0422280 111.6056475  84.2756191
  49.5884607 110.7647385  84.3321382  49.4116247 112.2417873  84.6130971
  48.9855199 102.5348461  85.5056859  48.2477956 102.0225847  85.8367101
  49.2381973 102.0948843  84.6940136  48.4855219 113.4432972  85.2106009
  48.7778194 114.0038029  84.4918375  48.9953840 113.7361533  85.9659169
  49.0866827  95.3124713  86.0998628  49.3925704  94.4522077  85.8124543
  49.8119432  95.9042333  85.8997622  35.3791183 105.7155400  84.4880226
  35.1815583 105.1224760  83.7631293  34.8237847 105.4107610  85.2056165
  43.3587907 105.6078506  86.6074819  43.4136516 104.6552343  86.5317296
  42.5479109 105.7637945  87.0916118  44.5079100 109.5358629  77.8453102
  44.0698530 108.8194488  77.3858740  45.2489541 109.7634744  77.2838194
  41.2980266 104.2255566  84.3665198  40.4848132 104.5249736  84.7730390
  41.7939261 103.8311255  85.0839680  43.4488844 114.2213323  86.2999463
  43.4065023 114.4474169  85.3707995  44.3651543 113.9876697  86.4485264
  46.8954478 104.6897390  93.1980092  47.2503866 104.9168864  94.0574558
  47.5426609 105.0215767  92.5757347  52.6252215 107.8115826  83.9029421
  52.4870114 108.0017422  82.9750610  52.2688434 108.5735209  84.3597472
  40.7894341 101.7973921  89.9826433  41.4293721 101.6562681  89.2849396
  39.9571872 101.5108435  89.6065035  52.6521595 109.8792353  88.9140692
  53.0858101 109.7867642  89.7623746  53.3653175 109.8549854  88.2760708
  41.5654645 111.0976352  86.0961425  42.3595244 110.6026672  85.8944000
  40.8546337 110.5694215  85.7329131  46.3849490 113.4794447  90.4473793
  46.4386512 114.0485384  91.2151509  45.5164271 113.6496332  90.0827830
  37.8737409 105.2419434  82.1721178  36.9434997 105.1803889  82.3891140
  37.9694881 104.7195386  81.3757819  37.7922958 101.7674246  84.7599420
  38.0529775 102.6819580  84.6508580  38.6140130 101.2998689  84.9096033
  39.2647883 103.1812004  91.9298244  39.9370936 102.9729366  91.2810893
  38.4377669 102.9834090  91.4903477  53.5137144 109.9216054  91.4473578
  53.7073034 110.8261864  91.6932853  53.4137762 109.4623473  92.2812163
  45.1673455  99.8073945  93.9463905  44.5201370 100.5063894  93.8528382
  45.9374470 100.2410088  94.3140153  48.5752253 110.0722797  97.0214458
  48.4237759 109.8433348  96.1044542  48.5656932 111.0293398  97.0345803
  45.3437589 107.6454709  92.0060725  46.2729649 107.7965869  91.8329692
  44.9228619 107.7338730  91.1509371  44.1425921 111.6705374  89.7759262
  44.0037007 111.3024158  90.6485201  43.3540517 112.1853013  89.6043220
  44.7374073 116.7714470  81.1184799  44.9125829 116.3002514  81.9330422
  44.0506861 117.3980237  81.3466060  45.6931136 111.0486977  87.1648100
  45.3580969 111.0087747  88.0605750  45.1935082 110.3831692  86.6918511
  39.6675380 106.4554607  92.6900681  39.5295178 105.7234845  93.2912220
  40.5780304 106.3663507  92.4084869  48.6290328 108.3943011  77.4385160
  48.0119499 107.6689839  77.3418213  48.1606816 109.1552371  77.0952234
  42.2957681 106.1674566  92.1784361  43.0057299 105.5267758  92.1370980
  42.2526989 106.4187461  93.1010542  50.2844460 113.1041919  95.0990940
  50.2257006 112.4201139  94.4321523  50.6863978 113.8460909  94.6471566
  41.0086615 103.1539784  93.9980001  40.4723972 102.7030522  94.6501597
  40.4203323 103.2885693  93.2550465  40.4188874 102.6128435  76.5606464
  39.5418340 102.4917236  76.1968711  40.8946627 101.8214514  76.3085353
  50.2861867 111.0681503  93.3304920  49.3988646 110.7307425  93.4531319
  50.8560418 110.3364534  93.5673685  31.9391014 107.4005595  86.6547971
  32.6262054 107.0867325  86.0668987  31.7839143 108.3046960  86.3815223
  36.7425736 102.2895792  91.0832995  36.6583925 101.6821461  90.3483405
  35.9208442 102.7804810  91.0842491  43.8163020 115.7282956  90.2966163
  43.7433192 116.5337927  90.8085468  43.3740413 115.9274921  89.4714185
  43.6052800 114.9654726  83.8068985  42.8220322 115.5076406  83.9007209
  44.3045545 115.4828705  84.2063226  46.9149450 100.7749355  86.4503190
  47.4118149 100.0219317  86.1304260  46.1436431 100.8113672  85.8846399
  54.7679207 106.4789721  88.0921482  54.7569084 107.3614436  87.7215415
  53.8996587 106.1261271  87.8976019  46.2761704 115.6269790  92.4524322
  46.9889676 116.2617254  92.3800223  45.7851732 115.7233656  91.6364324
  47.9979231 109.5321042  84.0241613  47.0635509 109.6522505  83.8546318
  48.1755899 108.6293509  83.7601623  43.4984419 102.9166738  86.1774875
  43.1282206 102.3637778  86.8655780  43.9943511 102.3124872  85.6249875
  51.3851782 105.3738362  84.5591648  51.8512234 106.2066353  84.4851950
  51.8359282 104.9083343  85.2636906  41.3273617 113.3764233  93.2729893
  42.0283077 114.0100716  93.4259287  40.8568732 113.7178965  92.5125532
  49.4528013 111.7182183  81.5577800  49.7287857 111.6038777  82.4671674
  48.5832512 111.3199668  81.5189973  49.3568445  97.7418949  88.5982549
  48.4431525  97.9723175  88.7664756  49.7861546  97.8257393  89.4496581
  49.1274903 105.9308840  91.0982443  48.4746353 106.1784748  90.4434896
  49.5055283 105.1172979  90.7644920  46.0882077 115.9668534  85.2010613
  46.2704472 115.1490190  85.6638366  46.9115063 116.1836226  84.7635503
  46.4224243 114.8936719  82.4625662  46.9512009 114.3829173  81.8495824
  46.6852462 114.5779249  83.3271195  45.1762476 106.6728652  97.5848480
  44.5003113 106.5722781  98.2550855  45.9990110 106.5167865  98.0484477
  36.9241335 112.9100588  90.2060995  37.5094772 112.1644276  90.3388900
  36.7266174 113.2204545  91.0897659  39.7779991 115.9451835  85.2223438
  39.1090366 116.4297963  84.7387478  39.6392860 116.1921056  86.1366816
  31.5158990 105.4806188  88.9265438  31.5543090 104.9469779  89.7202557
  31.0099283 104.9541394  88.3076416  43.9185259 117.9795579  91.8206096
  44.4703567 118.1427201  92.5855181  44.2591453 118.5700017  91.1486121
  38.8949752 100.3270729  92.4227981  38.9591079 101.1885560  92.0105378
  38.8316873  99.7144730  91.6900339  38.3702025 102.3993861  96.0701015
  38.9974064 102.0170939  96.6838539  37.5129944 102.1808063  96.4356708
  48.7696133 112.8056837  97.6754751  49.3136037 113.4186795  97.1809705
  48.1882978 113.3636415  98.1921764  35.1467568 104.2070290  82.0019370
  35.4421009 103.2980969  81.9486424  34.2455603 104.1858030  81.6800372
  47.0553646 115.9277555  88.8069778  46.9304786 115.1267294  88.2980724
  47.7132738 116.4223748  88.3183748  38.6761815 102.2826287  87.9846918
  37.9548400 102.8962255  87.8454392  39.4655070 102.8184052  87.9063564
  49.1188555 113.7286575  90.4349328  48.1718890 113.6091926  90.3627655
  49.4671328 112.8409073  90.5175590  41.4788128  99.6180714  94.2587570
  42.0022530  99.8643010  95.0213880  41.2600461 100.4500748  93.8390708
  36.8755409 101.8884388  82.1258695  36.5468115 101.0081767  81.9433801
  37.2294780 101.8332057  83.0135084  46.1234988 113.5239291  86.6353681
  45.9759951 112.5955998  86.8161251  46.9488482 113.5459382  86.1510756
  39.9897232 102.1757358  82.4934173  40.3293305 102.7043279  81.7712781
  40.4369353 102.5137764  83.2692739  49.7269110 114.3467850  87.7218553
  50.6515657 114.1410711  87.5843004  49.5584413 114.0984251  88.6307895
  42.6840673 100.5594409  91.9437241  42.3437494  99.7602222  92.3457921
  41.9779679 100.8596119  91.3714074  43.3357145  97.6443721  90.3964564
  44.1583214  97.1704199  90.2743454  43.5795209  98.4234205  90.8963250
  41.9765380 100.6731980  80.6927465  42.6973742 101.0513232  80.1891182
  41.3530684 101.3920856  80.7962443  46.1196502 101.3777128  81.6285798
  46.3360117 102.2601766  81.3274626  45.6390570 100.9863342  80.8991440
  40.8595724 104.3362842  88.2056542  40.7140305 104.6503145  89.0980824
  40.3820927 104.9547742  87.6527441  42.7192107 101.3265390  88.2537432
  42.7053675 100.4306483  87.9169730  43.4364535 101.3336053  88.8875718
  44.5718237 101.7602730  90.2990559  44.3136015 102.6819801  90.2974890
  44.0403278 101.3633164  90.9891024  49.5164426 114.8653517  83.0780645
  49.6901304 114.2999939  82.3254497  50.0093317 115.6654412  82.8960135
  35.3341386 106.8768186  91.1444204  34.7894854 107.6527994  91.2764478
  36.2120736 107.2238991  90.9863325  42.1229003 100.2079770  83.5225002
  42.2444914  99.2796416  83.7215890  41.8331045 100.2218456  82.6103318
  44.9920193  97.8934680  86.6591722  45.0141890  97.9574013  85.7043701
  45.4088252  97.0539189  86.8532228  55.3703817 107.6289940  84.6970945
  55.8134963 106.8797265  84.2990068  54.4930328 107.6200076  84.3144676
  50.5039599 114.1820281  80.1777543  51.1990503 114.8026974  80.3964858
  50.8462749 113.3315633  80.4529921  36.1207408 106.0038082  94.0374360
  35.3789144 106.1520718  94.6238991  35.8000152 106.2646348  93.1741110
  52.4031022 111.6319987  81.7064874  52.9282346 111.9707260  80.9814194
  52.3153374 110.6967002  81.5228008  44.0651070 115.5454061  93.8354750
  44.3738197 115.3003207  94.7077450  44.8626552 115.7500699  93.3473621
  44.0871683 117.6991970  86.0660127  43.6476673 117.2068349  86.7592984
  44.8379799 117.1564938  85.8252202  36.5664021 113.8903511  86.0684755
  37.3922041 113.5907283  85.6883399  36.2158073 113.1211134  86.5174544
  41.5345555 113.2429979  88.1382429  40.9125564 112.5800684  87.8384657
  42.2050422 113.2691111  87.4556076  34.7672627 111.8089838  87.0273689
  33.9304535 111.3812012  86.8457690  34.7396272 112.0022281  87.9644480
  41.6070082 101.7211767  97.7314935  41.6558238 102.5973890  97.3492704
  42.1492596 101.1789160  97.1586578  52.0924928 112.2652891  97.0116072
  51.3020472 112.2477029  96.4720571  51.8558282 112.8041184  97.7665108
  52.2122803 109.1145357  94.3248800  52.2620808 108.9495364  95.2664323
  52.1036726 108.2472616  93.9346681  41.0959062 111.7933903  81.6140889
  41.2447182 112.4769367  80.9607562  41.9025505 111.7738993  82.1290345
  49.5026565 105.0976285  95.6408107  50.4036428 104.9582750  95.3492105
  49.5774540 105.2630740  96.5806284  43.8369371 102.4743140  94.4861293
  42.9672680 102.7676706  94.2143882  44.0728851 103.0583585  95.2068557
  53.7141000 111.5342298  94.5690822  53.4225808 111.8972279  95.4054283
  53.1013131 110.8209307  94.3904154  54.9136682 109.0995178  87.0893392
  55.7483573 109.5384982  87.2530952  55.0495811 108.6233831  86.2701638
  51.9628188 106.6574913  93.0370880  52.4382310 106.8502559  92.2289731
  51.0393753 106.7134099  92.7914263  38.8511695 107.8199080  82.6201958
  38.6057736 106.9161410  82.8182168  39.0207609 107.8216231  81.6781436
  46.5408404  98.6922757  92.0026714  47.0590348  99.4283784  91.6773202
  46.1863537  98.9986750  92.8373473  38.1207342 103.5527438  80.1188120
  37.4276587 103.6271793  79.4628156  37.8759094 102.7887781  80.6409636
  46.7920999  95.1123039  87.5227610  47.0722752  94.4446228  88.1488037
  47.5771606  95.3052135  87.0102274  44.5954467 114.2882033  79.0852637
  44.0228434 114.9072220  78.6323108  45.1687261 114.8381395  79.6192559
  50.6629857 103.5340673  91.2699185  51.6147280 103.6338771  91.2911409
  50.4933307 102.7418942  91.7797270  48.6844236 100.6196256  91.4558586
  48.0894169 100.9001269  90.7605075  48.3993933 101.1090157  92.2275327
  47.8151727 114.5719183  80.2161219  48.7482400 114.5064745  80.4194094
  47.7274940 115.4075450  79.7575752  50.4439744 113.8885054  77.1765166
  50.3653375 113.5544917  78.0700924  51.2649410 114.3806821  77.1756639
  53.1417935 106.7546793  90.3841485  53.1094255 105.8162794  90.5701169
  53.7518558 106.8330830  89.6507310  44.9801266 105.6242846  76.4268689
  45.9260370 105.4949054  76.4957107  44.6015511 104.8857508  76.9038117
  53.2912423 103.5457836  90.4299768  52.7751472 102.7616293  90.2429697
  54.1752372 103.2176553  90.5946288  50.9523150  97.2898852  86.3895581
  50.7547971  96.9813940  87.2738913  51.5622856  98.0160491  86.5193511
  58.9594485 107.8162800  89.5247522  59.6897873 107.5548088  90.0855225
  58.3501430 107.0791522  89.5649590  57.0409782 105.9570662  90.1221973
  56.3142945 105.8226627  89.5138465  56.6257069 106.2647491  90.9278691
  44.8639958 109.6760592  97.8869346  45.7842968 109.8539191  98.0809393
  44.8289541 108.7316637  97.7349045  43.1644183 103.5492822  76.3623574
  42.2575638 103.2525935  76.4386288  43.4420164 103.2522640  75.4957861
  34.0822123 104.8699186  86.8122621  33.7624907 104.0164494  86.5196995
  33.5355551 105.0847764  87.5680588  37.8602031 107.5861627  90.5292127
  38.0788040 108.5178734  90.5480161  38.2727804 107.2269601  91.3146931
  44.7806248  98.0929712  82.5167816  43.9706977  97.7476797  82.8923062
  45.4690665  97.7837256  83.1055427  46.7096797  97.1707759  84.1392112
  47.2627835  97.5903212  84.7982135  46.9466883  96.2443507  84.1815068
  42.7329896 103.1594832  99.9194876  42.6326623 104.1089189  99.8506967
  42.5151438 102.8313071  99.0470946  41.9342967 100.4079757  76.5035554
  42.7962131 100.7334656  76.7631371  42.1193312  99.6211253  75.9908619
  33.9510383 108.4902097  88.7815742  33.2573855 108.0756050  88.2685697
  34.6983374 108.5322634  88.1849161  50.0875604  99.2808284  83.6470777
  49.5074273  99.9393088  83.2648829  49.8211537  98.4585629  83.2358194
  48.5379170  98.6813342  85.8492097  49.0378949  98.7929876  85.0406416
  49.1814778  98.3774394  86.4892905  42.5961166 106.5891971  98.7359938
  42.1128248 107.3892331  98.9423827  42.6822105 106.5999916  97.7827382
  35.8647126 108.4220351  86.6581757  35.8417814 108.5208038  85.7063640
  36.1747762 109.2685502  86.9798923  38.5234504 110.4796506  90.7728372
  39.4777757 110.4480448  90.7058303  38.3247027 110.0187130  91.5878598
  39.1133886 109.0497622  93.3399169  39.9326775 109.5441701  93.3634007
  39.3870693 108.1329590  93.3116737  48.8700482 101.4408374  82.7027125
  47.9826337 101.7258025  82.4847320  49.2854471 101.2802138  81.8554402
  52.2215018 101.4654895  86.4181464  52.9975408 101.9551348  86.6906081
  51.4963152 101.8912949  86.8753334  54.6587577 102.1782515  87.4755405
  55.2532067 101.9378250  86.7648713  54.7314160 101.4589645  88.1028941
  48.0143695 111.2053049  76.7975145  48.7179545 111.4103051  77.4132800
  47.2906344 111.7729811  77.0624228  48.8441506 106.9562910  82.9177415
  48.7876707 107.4131462  82.0785047  49.3969848 106.1953595  82.7400258
  52.6546312 102.7452642  83.7427534  52.3983246 102.3449278  84.5735742
  52.0299180 103.4596436  83.6177674  56.9658649 105.4848715  86.2498826
  56.4058207 105.5541905  87.0230388  56.3602153 105.3089700  85.5298322
  49.9230393 111.6435578  78.8473605  50.7575997 111.2116777  78.6651080
  49.7614736 111.4717592  79.7750499  49.5776285 108.1467691  80.2129944
  49.5225089 107.9811963  79.2718388  48.9522340 108.8543724  80.3692134
  34.3668800 103.3835756  94.0391366  35.0127664 102.8734710  94.5278592
  34.1585951 104.1204438  94.6134792  46.8922192 110.4516603  99.5383507
  47.7613352 110.6257256  99.1770142  46.4128944 111.2711020  99.4159236
  42.8872410  97.6475800  79.7915263  42.8751080  98.5917640  79.9483533
  43.7795832  97.4645946  79.4974724  41.0608372 117.5713704  91.2172941
  41.9635619 117.6037315  91.5339436  40.8345742 116.6414155  91.2319276
  42.8161974 116.3244691  87.8783019  41.8657605 116.3246553  87.7647391
  43.1194460 115.5777425  87.3619054  46.7024530  94.2418577  84.0461199
  45.9356926  93.6877064  84.1917882  47.1135235  94.3140446  84.9075351
  38.7066291 100.5303373  98.1366381  39.5697752 100.1740178  98.3469705
  38.1331702 100.1917268  98.8241785  58.5514668 122.1605229  88.9428782
  59.1893078 122.0411977  88.2392122  58.4335511 123.1086073  89.0016734
  55.3604374 122.1132657  88.8790306  55.0222886 121.9973722  87.9910841
  56.2294142 121.7123822  88.8591312  55.8424157 123.2667509  94.8376512
  55.8312798 122.8720307  93.9657015  56.0044797 122.5333582  95.4310283
  53.0612654 120.8820905  78.2107246  53.3138174 120.3602426  77.4490709
  52.1237213 120.7187050  78.3133930  58.1055936 119.8856683  86.0181990
  58.8919026 119.4676106  85.6672407  58.3694641 120.7902775  86.1863638
  63.5064363 119.8231916  86.9214968  64.2389535 119.2531133  87.1552798
  62.7503719 119.4353517  87.3621474  55.1240483 122.2459158  84.1178311
  54.7598690 121.7189779  84.8291232  55.9807599 121.8557627  83.9444796
  61.0289784 113.5353490  91.3809577  60.6973109 114.4048901  91.1570792
  60.4335397 113.2189774  92.0603607  54.7645970 117.2749058  79.1139659
  54.9320372 118.1429294  79.4810130  54.5743139 117.4376339  78.1900948
  60.9218447 118.2548577  88.4602927  60.0135324 118.1863985  88.1661688
  60.8706043 118.7320522  89.2884752  54.7435191 119.7306715  80.0986326
  54.6234816 120.1763766  80.9371806  54.0487779 120.0792033  79.5399864
  54.9959313 119.6738222  96.4037824  54.2192647 120.2332142  96.3940689
  55.6349876 120.1595005  96.9252694  62.7880094 116.4565015  90.2380801
  62.1454474 116.7497548  89.5920595  62.2835022 116.3417935  91.0433997
  60.4420257 120.2028188  80.9266660  61.3538113 120.4355575  80.7514358
  59.9329904 120.7865232  80.3641739  55.0792095 119.5625423  91.9361510
  55.9253290 119.9864836  92.0796159  55.0190733 118.9059047  92.6300073
  58.2291540 117.2229791  93.5942683  57.9852472 117.9771852  93.0576959
  58.5051471 117.6015139  94.4289930  60.1830003 123.7668404  92.2719949
  60.3946898 124.4100163  91.5954330  60.1359751 122.9330720  91.8041879
  57.7856232 116.3786224  89.1756521  56.9240711 116.6767478  89.4673258
  57.8118667 116.5956623  88.2437554  53.5386687 121.0451567  82.3919892
  54.2410731 121.4972611  82.8593818  53.2067316 120.4035386  83.0199785
  51.9867049 119.6363324  96.7671101  51.3565710 120.3179605  97.0006498
  51.8803137 119.5246405  95.8224239  47.2812021 119.3035120  87.6937025
  46.4911075 119.5592648  87.2177136  47.7723269 120.1183458  87.7989066
  49.2326767 119.6679699  84.6520502  48.4357930 119.7798393  85.1703998
  49.0052359 120.0066351  83.7861392  69.3881824 122.9879107  86.7927278
  68.6345532 122.4186506  86.6371282  69.5229365 122.9541772  87.7397912
  51.2647792 113.9384090  99.1296352  50.8714737 113.3850288  99.8043996
  52.0813932 114.2494668  99.5202870  54.1815753 115.3541969  96.7216609
  54.9225466 115.9549122  96.6421071  54.4133675 114.6119606  96.1634651
  58.1272916 111.3823072  90.9980890  57.7837185 112.2724713  90.9220001
  58.4951878 111.1924729  90.1350475  58.0923198 121.3731683  79.5053325
  57.5769822 122.1436287  79.7441713  57.8200507 120.6996819  80.1286387
  55.6770309 116.2181384  84.5638564  54.8211906 115.8288234  84.3844203
  56.0897261 116.2973344  83.7038349  57.2069456 113.7527727  88.9630124
  56.7034252 113.7157862  88.1497929  57.5000063 114.6620469  89.0226780
  53.4512342 113.8366456  87.9696305  54.3165339 113.6409265  87.6102195
  53.5189851 113.6076808  88.8965662  63.0657472 124.1264037  81.4406499
  62.2886915 123.7875197  80.9961661  63.7448953 124.1316661  80.7661464
  57.8809501 119.2458775  81.3313107  57.5759637 119.5604924  82.1823250
  58.8339944 119.3240195  81.3740440  61.3048779 123.5998019  88.0973107
  60.6472454 124.2897280  88.1853236  62.1089179 123.9894451  88.4407093
  51.0574661 116.0668664  85.3412672  51.6318413 115.8443846  84.6085865
  51.6445643 116.1357359  86.0941273  60.1154238 121.9542391  86.1477049
  60.6286120 122.5872383  86.6498758  60.7655462 121.3543587  85.7820409
  51.3844248 118.0973125  79.3608557  50.5481560 118.4347812  79.6817832
  51.2449018 117.9622105  78.4235694  53.3597329 112.9409913  84.0687742
  52.7061741 112.6258930  83.4444356  53.3177803 112.3185654  84.7947565
  56.5935069 119.4291847  88.3935389  55.6757630 119.6506794  88.2357077
  57.0095213 119.5038157  87.5347097  57.3770117 120.8283263  83.5238069
  58.1241936 121.3404660  83.2145192  57.6461706 120.5067315  84.3842463
  59.8248954 117.8640379  85.5056859  59.0871711 117.3517765  85.8367101
  60.0775727 117.4240760  84.6940136  59.9260581 110.6416631  86.0998628
  60.2319458 109.7813994  85.8124543  60.6513186 111.2334251  85.8997622
  54.1981661 120.9370424  86.6074819  54.2530271 119.9844260  86.5317296
  53.3872863 121.0929863  87.0916118  52.1374021 119.5547484  84.3665198
  51.3241886 119.8541654  84.7730390  52.6333015 119.1603172  85.0839680
  57.7348233 120.0189308  93.1980092  58.0897620 120.2460781  94.0574558
  58.3820364 120.3507685  92.5757347  63.4645970 123.1407744  83.9029421
  63.3263868 123.3309340  82.9750610  63.1082188 123.9027127  84.3597472
  51.6288096 117.1265839  89.9826433  52.2687475 116.9854598  89.2849396
  50.7965626 116.8400353  89.6065035  63.4915349 125.2084271  88.9140692
  63.9251856 125.1159560  89.7623746  64.2046930 125.1841771  88.2760708
  48.7131163 120.5711351  82.1721178  47.7828751 120.5095807  82.3891140
  48.8088635 120.0487304  81.3757819  48.6316712 117.0966164  84.7599420
  48.8923529 118.0111497  84.6508580  49.4533884 116.6290607  84.9096033
  50.1041637 118.5103921  91.9298244  50.7764691 118.3021283  91.2810893
  49.2771424 118.3126007  91.4903477  64.3530899 125.2507972  91.4473578
  64.5466789 126.1553782  91.6932853  64.2531517 124.7915391  92.2812163
  56.0067209 115.1365862  93.9463905  55.3595124 115.8355812  93.8528382
  56.7768225 115.5702006  94.3140153  56.1831344 122.9746627  92.0060725
  57.1123404 123.1257787  91.8329692  55.7622374 123.0630648  91.1509371
  59.4684082 123.7234929  77.4385160  58.8513253 122.9981757  77.3418213
  59.0000571 124.4844289  77.0952234  53.1351435 121.4966484  92.1784361
  53.8451054 120.8559676  92.1370980  53.0920744 121.7479378  93.1010542
  51.8480369 118.4831701  93.9980001  51.3117726 118.0322440  94.6501597
  51.2597078 118.6177610  93.2550465  51.2582628 117.9420353  76.5606464
  50.3812095 117.8209154  76.1968711  51.7340381 117.1506431  76.3085353
  47.5819491 117.6187709  91.0832995  47.4977679 117.0113379  90.3483405
  46.7602197 118.1096727  91.0842491  57.7543204 116.1041273  86.4503190
  58.2511904 115.3511235  86.1304260  56.9830186 116.1405589  85.8846399
  65.6072962 121.8081638  88.0921482  65.5962838 122.6906354  87.7215415
  64.7390341 121.4553189  87.8976019  54.3378173 118.2458656  86.1774875
  53.9675961 117.6929696  86.8655780  54.8337266 117.6416789  85.6249875
  62.2245536 120.7030279  84.5591648  62.6905989 121.5358271  84.4851950
  62.6753037 120.2375261  85.2636906  60.1962199 113.0710866  88.5982549
  59.2825279 113.3015093  88.7664756  60.6255301 113.1549310  89.4496581
  59.9668658 121.2600758  91.0982443  59.3140108 121.5076666  90.4434896
  60.3449038 120.4464896  90.7644920  56.0156231 122.0020569  97.5848480
  55.3396868 121.9014699  98.2550855  56.8383865 121.8459783  98.0484477
  49.7343507 115.6562646  92.4227981  49.7984833 116.5177477  92.0105378
  49.6710627 115.0436648  91.6900339  49.2095779 117.7285779  96.0701015
  49.8367818 117.3462856  96.6838539  48.3523698 117.5099981  96.4356708
  45.9861322 119.5362208  82.0019370  46.2814763 118.6272887  81.9486424
  45.0849358 119.5149948  81.6800372  49.5155569 117.6118205  87.9846918
  48.7942155 118.2254172  87.8454392  50.3048825 118.1475970  87.9063564
  52.3181883 114.9472631  94.2587570  52.8416284 115.1934928  95.0213880
  52.0994216 115.7792666  93.8390708  47.7149164 117.2176306  82.1258695
  47.3861870 116.3373685  81.9433801  48.0688534 117.1623974  83.0135084
  50.8290987 117.5049276  82.4934173  51.1687059 118.0335197  81.7712781
  51.2763107 117.8429682  83.2692739  53.5234428 115.8886326  91.9437241
  53.1831248 115.0894139  92.3457921  52.8173434 116.1888037  91.3714074
  54.1750900 112.9735639  90.3964564  54.9976969 112.4996117  90.2743454
  54.4188963 113.7526122  90.8963250  52.8159134 116.0023897  80.6927465
  53.5367497 116.3805150  80.1891182  52.1924438 116.7212774  80.7962443
  56.9590257 116.7069046  81.6285798  57.1753871 117.5893684  81.3274626
  56.4784324 116.3155260  80.8991440  51.6989478 119.6654759  88.2056542
  51.5534059 119.9795062  89.0980824  51.2214682 120.2839660  87.6527441
  53.5585861 116.6557307  88.2537432  53.5447430 115.7598401  87.9169730
  54.2758289 116.6627971  88.8875718  55.4111992 117.0894648  90.2990559
  55.1529770 118.0111718  90.2974890  54.8797032 116.6925082  90.9891024
  52.9622757 115.5371688  83.5225002  53.0838668 114.6088334  83.7215890
  52.6724799 115.5510374  82.6103318  55.8313947 113.2226598  86.6591722
  55.8535644 113.2865931  85.7043701  56.2482006 112.3831107  86.8532228
  66.2097572 122.9581858  84.6970945  66.6528718 122.2089183  84.2990068
  65.3324082 122.9491994  84.3144676  52.4463837 117.0503685  97.7314935
  52.4951992 117.9265808  97.3492704  52.9886351 116.5081078  97.1586578
  63.0516557 124.4437275  94.3248800  63.1014562 124.2787282  95.2664323
  62.9430481 123.5764534  93.9346681  60.3420320 120.4268203  95.6408107
  61.2430183 120.2874668  95.3492105  60.4168294 120.5922657  96.5806284
  54.6763125 117.8035057  94.4861293  53.8066434 118.0968623  94.2143882
  54.9122605 118.3875502  95.2068557  65.7530437 124.4287096  87.0893392
  66.5877328 124.8676900  87.2530952  65.8889565 123.9525749  86.2701638
  62.8021942 121.9866831  93.0370880  63.2776064 122.1794477  92.2289731
  61.8787508 122.0426017  92.7914263  57.3802159 114.0214674  92.0026714
  57.8984103 114.7575701  91.6773202  57.0257292 114.3278668  92.8373473
  48.9601097 118.8819356  80.1188120  48.2670342 118.9563711  79.4628156
  48.7152848 118.1179699  80.6409636  57.6314753 110.4414957  87.5227610
  57.9116507 109.7738146  88.1488037  58.4165360 110.6344052  87.0102274
  61.5023611 118.8632591  91.2699185  62.4541034 118.9630689  91.2911409
  61.3327062 118.0710859  91.7797270  59.5237991 115.9488174  91.4558586
  58.9287923 116.2293187  90.7605075  59.2387688 116.4382075  92.2275327
  63.9811689 122.0838711  90.3841485  63.9488009 121.1454711  90.5701169
  64.5912313 122.1622747  89.6507310  55.8195020 120.9534764  76.4268689
  56.7654125 120.8240972  76.4957107  55.4409265 120.2149425  76.9038117
  64.1306178 118.8749754  90.4299768  63.6145226 118.0908211  90.2429697
  65.0146126 118.5468471  90.5946288  61.7916905 112.6190770  86.3895581
  61.5941726 112.3105858  87.2738913  62.4016610 113.3452408  86.5193511
  69.7988239 123.1454717  89.5247522  70.5291628 122.8840006  90.0855225
  69.1895185 122.4083439  89.5649590  67.8803536 121.2862580  90.1221973
  67.1536700 121.1518545  89.5138465  67.4650823 121.5939409  90.9278691
  54.0037937 118.8784740  76.3623574  53.0969393 118.5817853  76.4386288
  54.2813918 118.5814558  75.4957861  55.6200003 113.4221630  82.5167816
  54.8100731 113.0768715  82.8923062  56.3084420 113.1129173  83.1055427
  57.5490551 112.4999676  84.1392112  58.1021590 112.9195130  84.7982135
  57.7860638 111.5735425  84.1815068  53.5723650 118.4886750  99.9194876
  53.4720377 119.4381107  99.8506967  53.3545193 118.1604989  99.0470946
  52.7736722 115.7371675  76.5035554  53.6355886 116.0626573  76.7631371
  52.9587066 114.9503171  75.9908619  60.9269358 114.6100202  83.6470777
  60.3468027 115.2685006  83.2648829  60.6605291 113.7877546  83.2358194
  59.3772925 114.0105259  85.8492097  59.8772703 114.1221794  85.0406416
  60.0208533 113.7066312  86.4892905  59.7094236 116.7700292  82.7027125
  58.8220091 117.0549943  82.4847320  60.1248225 116.6094055  81.8554402
  63.0608772 116.7946813  86.4181464  63.8369163 117.2843265  86.6906081
  62.3356907 117.2204867  86.8753334  65.4981331 117.5074432  87.4755405
  66.0925822 117.2670168  86.7648713  65.5707915 116.7881563  88.1028941
  59.6835260 122.2854828  82.9177415  59.6270462 122.7423379  82.0785047
  60.2363603 121.5245513  82.7400258  63.4940066 118.0744560  83.7427534
  63.2377000 117.6741195  84.5735742  62.8692934 118.7888354  83.6177674
  67.8052404 120.8140633  86.2498826  67.2451962 120.8833822  87.0230388
  67.1995907 120.6381618  85.5298322  60.4170039 123.4759609  80.2129944
  60.3618843 123.3103881  79.2718388  59.7916095 124.1835642  80.3692134
  45.2062554 118.7127674  94.0391366  45.8521418 118.2026628  94.5278592
  44.9979706 119.4496355  94.6134792  53.7266165 112.9767718  79.7915263
  53.7144835 113.9209558  79.9483533  54.6189587 112.7937864  79.4974724
  57.5418284 109.5710495  84.0461199  56.7750680 109.0168982  84.1917882
  57.9528989 109.6432364  84.9075351  49.5460045 115.8595291  98.1366381
  50.4091507 115.5032095  98.3469705  48.9725456 115.5209185  98.8241785
  68.9666670 126.7114989  90.9980890  68.6230939 127.6016631  90.9220001
  69.3345633 126.5216647  90.1350475  70.7654336 125.9708548  86.0998628
  71.0713213 125.1105912  85.8124543  71.4906941 126.5626169  85.8997622
  68.4708508 125.7706875  87.5227610  68.7510261 125.1030064  88.1488037
  69.2559115 125.9635970  87.0102274  72.6310659 127.9482687  86.3895581
  72.4335480 127.6397775  87.2738913  73.2410365 128.6744326  86.5193511
  68.3812039 124.9002412  84.0461199  67.6144435 124.3460899  84.1917882
  68.7922744 124.9724281  84.9075351   4.3545897  22.5207764  75.6674088
   4.9924307  22.4014511  74.9637428   4.2366740  23.4688607  75.7262040
   1.1635603  22.4735192  75.6035613   0.8254114  22.3576256  74.7156148
   2.0325371  22.0726357  75.5836619   1.6455386  23.6270043  81.5621818
   1.6344027  23.2322842  80.6902322   1.8076025  22.8936116  82.1555590
   2.6021977  27.9941636  66.9046969   1.9509957  28.5795716  66.5180983
   3.3966340  28.5247831  66.9642006   3.9087165  20.2459217  72.7427296
   4.6950254  19.8278641  72.3917713   4.1725869  21.1505310  72.9108945
   4.0797242  25.6832068  67.4415953   3.4443075  25.7566694  68.1536858
   3.7494649  26.2725666  66.7635032   9.3095592  20.1834451  73.6460275
  10.0420764  19.6133667  73.8798104   8.5534948  19.7956051  74.0866780
   0.9271712  22.6061692  70.8423617   0.5629919  22.0792313  71.5536539
   1.7838828  22.2160161  70.6690103   3.3252532  26.0968571  77.5050796
   3.0253255  26.9993609  77.3966603   2.9803592  25.8300754  78.3571949
   6.7249676  18.6151111  75.1848233   5.8166553  18.5466519  74.8906994
   6.6737272  19.0923056  76.0130059   8.5911322  16.8167549  76.9626107
   7.9485703  17.1100082  76.3165902   8.0866251  16.7020470  77.7679304
   6.2451486  20.5630722  67.6511967   7.1569342  20.7958109  67.4759664
   5.7361133  21.1467767  67.0887045   4.5292254  24.9855350  81.2873259
   4.9375610  24.5437761  80.5427892   3.8069515  24.4107978  81.5407452
   0.8823324  19.9227957  78.6606816   1.7284519  20.3467371  78.8041465
   0.8221961  19.2661581  79.3545379   4.8521068  25.5456541  75.0425548
   4.2229931  25.7102255  74.3401616   4.4646730  25.9598150  75.8136512
   8.7310300  26.4810979  72.3969912   8.0461338  26.8609880  71.8466945
   8.8154150  27.0906305  73.1301860   4.0322769  17.5832325  80.3187990
   3.7883701  18.3374386  79.7822265   4.3082700  17.9617673  81.1535237
   5.9861232  24.1270938  78.9965255   6.1978127  24.7702698  78.3199636
   5.9390980  23.2933254  78.5287185   3.5887461  16.7388758  75.9001828
   2.7271940  17.0370012  76.1918565   3.6149895  16.9559157  74.9682860
   7.1007060  27.0042893  77.1687613   7.9224503  26.6023080  76.8870294
   7.0969463  26.9011127  78.1203729  15.1913053  23.3481642  73.5172584
  14.4376761  22.7789040  73.3616589  15.3260594  23.3144306  74.4643219
   0.5811681  28.2195044  69.1927304   0.4457356  29.0646580  69.6212151
   1.1221493  28.4214322  68.4293237   2.2080157  28.8418610  83.3227646
   1.7644011  28.0554989  83.0048550   2.8697371  29.0297761  82.6571536
   4.3061395  29.1221410  81.3509047   4.2879871  29.9430291  80.8589316
   5.2281315  28.9975486  81.5759188   3.8954427  21.7334217  66.2298632
   3.3801051  22.5038822  66.4687020   3.6231736  21.0599353  66.8531694
   8.8688701  24.4866572  68.1651806   8.0918144  24.1477731  67.7206968
   9.5480182  24.4919195  67.4906771   3.6840730  19.6061309  68.0558413
   3.3790866  19.9207458  68.9068556   4.6371172  19.6842729  68.0985746
   2.1287162  25.7651532  69.7051367   1.6008524  25.0304292  69.3924605
   1.6274665  26.5426209  69.4591336   7.1080008  23.9600553  74.8218414
   6.4503683  24.6499814  74.9098542   7.9120407  24.3496985  75.1652400
   5.9185467  22.3144926  72.8722355   6.4317349  22.9474917  73.3744065
   6.5686691  21.7146121  72.5065715   3.1807841  32.2929250  65.6283026
   2.5069540  32.5960947  66.2367984   3.5673663  33.0958330  65.2788484
   2.3966298  19.7894381  75.1180696   1.4788859  20.0109328  74.9602384
   2.8126441  19.8640692  74.2592403   3.1801346  21.1885797  70.2483376
   3.9273165  21.7007194  69.9390498   3.4492935  20.8669849  71.1087770
   1.4527996  23.6844337  67.2310330   0.5439215  23.4003370  67.3282800
   1.4823080  24.1043416  66.3713637   6.6847263  27.2950927  71.0001498
   6.2309590  26.4541837  71.0566688   6.0541230  27.9312325  71.3376278
   5.6280183  18.2242913  72.2302165   4.8902940  17.7120299  72.5612408
   5.8806956  17.7843295  71.4185442   5.1280202  29.1327424  71.9351316
   5.4203177  29.6932481  71.2163682   5.6378823  29.4255985  72.6904475
   1.1504084  25.2253081  64.5698409   0.7123514  24.5088940  64.1104046
   1.8914524  25.4529196  64.0083500   3.5379461  20.3791842  79.9225399
   3.8928849  20.6063315  80.7819864   4.1851593  20.7110219  79.3002654
   9.2677198  23.5010278  70.6274728   9.1295097  23.6911874  69.6995917
   8.9113417  24.2629661  71.0842779   9.2946578  25.5686805  75.6385999
   9.7283085  25.4762094  76.4869053  10.0078159  25.5444306  75.0006015
   3.0274473  29.1688899  77.1719100   3.0811495  29.7379836  77.9396816
   2.1589254  29.3390784  76.8073137  10.1562128  25.6110506  78.1718884
  10.3498018  26.5156316  78.4178159  10.0562746  25.1517925  79.0057469
   5.2177236  25.7617249  83.7459765   5.0662743  25.5327800  82.8289849
   5.2081916  26.7187850  83.7591110   1.9862573  23.3349161  78.7306031
   2.9154633  23.4860321  78.5574999   1.5653603  23.4233182  77.8754678
   1.3799056  32.4608922  67.8430106   1.5550812  31.9896965  68.6575728
   0.6931844  33.0874688  68.0711366   2.3356120  26.7381428  73.8893407
   2.0005952  26.6982198  74.7851057   1.8360065  26.0726144  73.4163817
   5.2715311  24.0837463  64.1630467   4.6544482  23.3584291  64.0663519
   4.8031800  24.8446823  63.8197541   6.9269443  28.7936371  81.8236247
   6.8681989  28.1095591  81.1566830   7.3288961  29.5355361  81.3716873
   6.9286850  26.7575955  80.0550227   6.0413629  26.4201877  80.1776625
   7.4985401  26.0258986  80.2918992   3.5574433  16.4643807  73.1748497
   4.0543133  15.7113769  72.8549567   2.7861415  16.5008124  72.6091706
  11.4104191  22.1684172  74.8166788  11.3994067  23.0508888  74.4460721
  10.5421570  21.8155723  74.6221325   2.9186687  31.3164241  79.1769628
   3.6314659  31.9511706  79.1045530   2.4276716  31.4128107  78.3609630
   4.6404214  25.2215494  70.7486920   3.7060493  25.3416957  70.5791624
   4.8180882  24.3187961  70.4846930   8.0276765  21.0632813  71.2836954
   8.4937217  21.8960805  71.2097257   8.4784266  20.5977795  71.9882213
   6.0952996  27.4076635  68.2823106   6.3712840  27.2933229  69.1916980
   5.2257495  27.0094120  68.2435279   5.7699887  21.6203292  77.8227750
   5.1171337  21.8679200  77.1680202   6.1480266  20.8067431  77.4890227
   2.7307060  31.6562986  71.9255920   2.9129455  30.8384641  72.3883672
   3.5540046  31.8730678  71.4880810   3.0649226  30.5831171  69.1870968
   3.5936992  30.0723625  68.5741131   3.3277445  30.2673701  70.0516501
   1.8187460  22.3623103  84.3093787   1.1428097  22.2617233  84.9796162
   2.6415093  22.2062317  84.7729784   0.5610242  33.6690031  78.5451403
   1.1128550  33.8321652  79.3100488   0.9016436  34.2594469  77.8731428
   5.4121117  28.4951288  84.4000057   5.9561021  29.1081247  83.9055012
   4.8307962  29.0530867  84.9167070   3.6978630  31.6172006  75.5315085
   3.5729769  30.8161746  75.0226030   4.3557721  32.1118200  75.0429055
   5.7613538  29.4181027  77.1594635   4.8143874  29.2986378  77.0872962
   6.1096311  28.5303525  77.2420896   2.7659971  29.2133743  73.3598987
   2.6184934  28.2850450  73.5406557   3.5913465  29.2353833  72.8756062
   6.3694093  30.0362301  74.4463860   7.2940641  29.8305163  74.3088311
   6.2009397  29.7878703  75.3553201   6.1589409  30.5547969  69.8025951
   6.3326287  29.9894391  69.0499804   6.6518301  31.3548864  69.6205441
  12.0128801  23.3184392  71.4216251  12.4559947  22.5691717  71.0235374
  11.1355311  23.3094528  71.0389983   7.1464582  29.8714733  66.9022850
   7.8415487  30.4921426  67.1210164   7.4887732  29.0210085  67.1775228
   9.0456005  27.3214439  68.4310180   9.5707329  27.6601712  67.7059500
   8.9578358  26.3861454  68.2473315   0.7076054  31.2348512  80.5600057
   1.0163180  30.9897659  81.4322757   1.5051536  31.4395151  80.0718927
   8.7349911  27.9547342  83.7361378   7.9445455  27.9371481  83.1965878
   8.4983266  28.4935636  84.4910415   8.8547786  24.8039809  81.0494107
   8.9045791  24.6389816  81.9909630   8.7461710  23.9367068  80.6591988
   6.1451549  20.7870737  82.3653414   7.0461411  20.6477202  82.0737411
   6.2199523  20.9525192  83.3051591  10.3565983  27.2236750  81.2936128
  10.0650791  27.5866731  82.1299589   9.7438114  26.5103759  81.1149461
  11.5561665  24.7889630  73.8138699  12.3908557  25.2279434  73.9776259
  11.6920794  24.3128283  72.9946944   8.6053171  22.3469365  79.7616186
   9.0807293  22.5397011  78.9535038   7.6818737  22.4028551  79.5159570
   1.2379450  29.9776485  65.8097943   0.6653417  30.5966672  65.3568415
   1.8112244  30.5275847  66.3437865   7.3054840  19.2235125  77.9944492
   8.2572263  19.3233223  78.0156716   7.1358291  18.4313394  78.5042576
   5.3269220  16.3090708  78.1803893   4.7319152  16.5895721  77.4850382
   5.0418916  16.7984609  78.9520634   4.4576710  30.2613635  66.9406526
   5.3907383  30.1959197  67.1439401   4.3699923  31.0969902  66.4821058
   7.0864727  29.5779505  63.9010473   7.0078358  29.2439369  64.7946231
   7.9074394  30.0701273  63.9001945   9.7842918  22.4441245  77.1086792
   9.7519238  21.5057245  77.2946476  10.3943542  22.5225281  76.3752617
   1.6226249  21.3137298  63.1513996   2.5685354  21.1843506  63.2202414
   1.2440494  20.5751960  63.6283424   9.9337407  19.2352288  77.1545075
   9.4176455  18.4510745  76.9675004  10.8177355  18.9071005  77.3191594
  15.6019468  23.5057252  76.2492829  16.3322856  23.2442540  76.8100532
  14.9926413  22.7685974  76.2894896  13.6834765  21.6465114  76.8467280
  12.9567929  21.5121079  76.2383771  13.2682052  21.9541943  77.6523998
   1.5064941  25.3655044  84.6114653   2.4267951  25.5433643  84.8054699
   1.4714524  24.4211089  84.4594352   6.7300587  14.9702736  70.3716083
   6.1499256  15.6287540  69.9894136   6.4636520  14.1480080  69.9603501
   5.5125465  17.1302826  69.4272431   4.6251320  17.4152477  69.2092626
   5.9279454  16.9696590  68.5799708   8.8640001  17.1549347  73.1426771
   9.6400391  17.6445800  73.4151388   8.1388135  17.5807401  73.5998640
  11.3012560  17.8676966  74.2000711  11.8957051  17.6272702  73.4894020
  11.3739144  17.1484097  74.8274248   4.6568679  26.8947501  63.5220451
   5.3604529  27.0997503  64.1378107   3.9331327  27.4624263  63.7869535
   5.4866489  22.6457362  69.6422722   5.4301690  23.1025914  68.8030354
   6.0394831  21.8848047  69.4645564   9.2971295  18.4347094  70.4672841
   9.0408229  18.0343730  71.2981049   8.6724163  19.1490888  70.3422980
  13.6083633  21.1743167  72.9744133  13.0483191  21.2436357  73.7475695
  13.0027136  20.9984152  72.2543629   6.5655376  27.3330030  65.5718911
   7.4000980  26.9011229  65.3896386   6.4039719  27.1612044  66.4995806
   6.2201268  23.8362143  66.9375251   6.1650072  23.6706415  65.9963695
   5.5947323  24.5438176  67.0937440   3.5347175  26.1411055  86.2628814
   4.4038335  26.3151708  85.9015448   3.0553927  26.9605472  86.1404543
  15.1939651  37.8499681  75.6674088  15.8318061  37.7306429  74.9637428
  15.0760494  38.7980525  75.7262040  12.0029357  37.8027109  75.6035613
  11.6647869  37.6868174  74.7156148  12.8719126  37.4018274  75.5836619
   7.8616173  39.6562586  71.5932504   7.2981038  39.5652523  70.8248792
   7.7468568  38.8362490  72.0734996  12.4849140  38.9561961  81.5621818
  12.4737781  38.5614759  80.6902322  12.6469780  38.2228034  82.1555590
   5.4080605  41.1513777  74.4316724   6.2001897  40.8104602  74.0163024
   5.6477255  41.2608752  75.3518878  13.4415732  43.3233553  66.9046969
  12.7903712  43.9087634  66.5180983  14.2360095  43.8539748  66.9642006
   7.3671359  40.4122691  67.3034103   8.1402235  39.8651678  67.1646979
   7.7196758  41.2766940  67.5148565   9.2056402  41.7399073  80.5101002
   8.9146268  42.6444704  80.3947669   9.8413386  41.7815600  81.2245072
  10.1312608  39.1175921  77.1002362  10.7276181  38.8931944  76.3859325
  10.1887580  38.3760667  77.7027810   9.7037637  36.5715357  64.9352553
   9.9563157  36.0496878  64.1736016   8.7662196  36.4081502  65.0379237
  14.7480920  35.5751135  72.7427296  15.5344009  35.1570558  72.3917713
  15.0119624  36.4797227  72.9108945  14.9190997  41.0123985  67.4415953
  14.2836830  41.0858612  68.1536858  14.5888403  41.6017584  66.7635032
  20.1489347  35.5126368  73.6460275  20.8814519  34.9425585  73.8798104
  19.3928702  35.1247969  74.0866780   9.4233926  38.4743463  67.1376928
   9.3070184  37.7988366  67.8058012   9.5336185  37.9875837  66.3209081
  11.7665466  37.9353610  70.8423617  11.4023674  37.4084231  71.5536539
  12.6232582  37.5452079  70.6690103  17.6714767  29.2247942  78.1054883
  17.3398092  30.0943353  77.8816098  17.0760380  28.9084226  78.7848914
  11.4070953  32.9643509  65.8384966  11.5745356  33.8323746  66.2055437
  11.2168123  33.1270791  64.9146255  14.1646287  41.4260488  77.5050796
  13.8647010  42.3285527  77.3966603  13.8197346  41.1592672  78.3571949
   7.6158768  37.8774285  73.5387501   6.6909265  37.7450499  73.7465192
   7.8643181  38.6568504  74.0357443  17.5643430  33.9443029  75.1848233
  16.6560308  33.8758437  74.8906994  17.5131026  34.4214973  76.0130059
  11.3860174  35.4201167  66.8231633  11.2659800  35.8658218  67.6617113
  10.6912763  35.7686485  66.2645171   4.9767579  37.5207559  74.3731290
   5.1059960  37.7742038  75.2870701   4.2965030  38.1135267  74.0535945
   9.1467066  48.1904809  70.4721764   9.0691096  49.1412634  70.5510244
   8.5428710  47.8450681  71.1296690  11.6384296  35.3632674  83.1283131
  10.8617630  35.9226594  83.1185995  12.2774859  35.8489457  83.6498001
  19.4305077  32.1459467  76.9626107  18.7879457  32.4392000  76.3165902
  18.9260005  32.0312387  77.7679304  17.0845240  35.8922640  67.6511967
  17.9963097  36.1250027  67.4759664  16.5754888  36.4759684  67.0887045
   9.8930669  38.1718127  82.6901098  10.6345353  38.7103171  82.4135921
   9.1867654  38.7984416  82.8472650  15.3686008  40.3147268  81.2873259
  15.7769364  39.8729678  80.5427892  14.6463270  39.7399895  81.5407452
  11.7217078  35.2519875  78.6606816  12.5678273  35.6759288  78.8041465
  11.6615716  34.5953499  79.3545379  15.6914823  40.8748459  75.0425548
  15.0623685  41.0394173  74.3401616  15.3040485  41.2890068  75.8136512
  19.5704055  41.8102896  72.3969912  18.8855093  42.1901798  71.8466945
  19.6547904  42.4198223  73.1301860  14.8716524  32.9124243  80.3187990
  14.6277455  33.6666304  79.7822265  15.1476454  33.2909591  81.1535237
  16.8254986  39.4562855  78.9965255  17.0371882  40.0994615  78.3199636
  16.7784735  38.6225172  78.5287185  14.4281215  32.0680676  75.9001828
  13.5665694  32.3661930  76.1918565  14.4543650  32.2851075  74.9682860
  11.2442785  40.6122867  72.3075633  11.7081130  40.8910570  71.5180256
  10.9799583  39.7106311  72.1248724   8.1366866  40.1594348  75.2455396
   8.7068223  40.5881617  74.6072881   8.7274978  39.8776933  75.9439582
  10.1811671  36.7346019  69.1165198  10.8835714  37.1867063  69.5839125
   9.8492299  36.0929838  69.7445091   8.6292032  35.3257776  83.4916408
   7.9990693  36.0074056  83.7251805   8.5228120  35.2140857  82.5469546
   3.9237005  34.9929572  74.4182332   3.1336059  35.2487100  73.9422443
   4.4148252  35.8077910  74.5234372  17.9400814  42.3334811  77.1687613
  18.7618258  41.9314998  76.8870294  17.9363217  42.2303045  78.1203729
   5.8751750  35.3574151  71.3765809   5.0782913  35.4692845  71.8949304
   5.6477342  35.6960803  70.5106699  11.7057418  41.8818854  79.3248323
  11.7701850  42.3439261  80.1606495  10.9968342  41.2516219  79.4530633
   2.2074708  35.2460062  76.8497323   2.4582746  36.1307072  77.1154899
   2.7434256  35.0664664  76.0772415  26.0306807  38.6773559  73.5172584
  25.2770516  38.1080957  73.3616589  26.1654349  38.6436224  74.4643219
  11.4205435  43.5486962  69.1927304  11.2851110  44.3938497  69.6212151
  11.9615248  43.7506239  68.4293237   7.9072775  29.6278541  85.8541659
   7.5139721  29.0744740  86.5289303   8.7238915  29.9389120  86.2448176
   4.8734833  41.0662400  69.7655229   5.3859353  41.8605650  69.9160793
   5.5257546  40.3688690  69.6988830   6.6829717  44.1828156  71.8477982
   6.8596346  45.1046121  71.6598966   7.4786551  43.8686575  72.2772362
  10.8240736  31.0436421  83.4461915  11.5650449  31.6443574  83.3666378
  11.0558659  30.3014058  82.8879958   5.9682074  36.2292788  81.7240145
   5.8535589  35.3278045  82.0247244   5.1126592  36.4756485  81.3724962
  13.0473912  44.1710528  83.3227646  12.6037766  43.3846907  83.0048550
  13.7091125  44.3589679  82.6571536   7.8061033  45.7006330  77.8488324
   8.3568458  45.5723393  77.0765318   6.9672509  46.0001219  77.4983217
  15.1455150  44.4513328  81.3509047  15.1273625  45.2722209  80.8589316
  16.0675070  44.3267403  81.5759188  11.6028204  41.9657458  82.1932555
  12.1356541  41.2045746  81.9631863  11.0742285  41.6731109  82.9356710
  14.7697899  27.0717524  77.7226197  14.4262168  27.9619165  77.6465308
  15.1376862  26.8819181  76.8595782   2.8383750  39.3951054  70.5414799
   3.6758972  39.8048062  70.3248507   3.0162017  38.4550496  70.5114993
  14.7348182  37.0626135  66.2298632  14.2194805  37.8330739  66.4687020
  14.4625490  36.3891271  66.8531694  12.3195293  31.9075835  71.2883870
  11.4636889  31.5182686  71.1089509  12.7322244  31.9867796  70.4283656
  13.8494439  29.4422179  75.6875430  13.3459235  29.4052314  74.8743236
  14.1425046  30.3514921  75.7472087  10.0937325  29.5260908  74.6941612
  10.9590322  29.3303717  74.3347501  10.1614834  29.2971260  75.6210969
  19.7082456  39.8158489  68.1651806  18.9311899  39.4769649  67.7206968
  20.3873937  39.8211112  67.4906771  14.5234485  34.9353227  68.0558413
  14.2184620  35.2499376  68.9068556  15.4764927  35.0134647  68.0985746
  12.9680917  41.0943450  69.7051367  12.4402278  40.3596210  69.3924605
  12.4668419  41.8718126  69.4591336  17.9473763  39.2892471  74.8218414
  17.2897437  39.9791732  74.9098542  18.7514162  39.6788902  75.1652400
   7.6999644  31.7563116  72.0657979   8.2743396  31.5338298  71.3331172
   8.2870627  31.8251811  72.8186580  16.7579221  37.6436843  72.8722355
  17.2711103  38.2766835  73.3744065  17.4080445  37.0438039  72.5065715
   8.0269231  33.7867577  66.0853864   7.1906544  34.1242264  66.4063139
   7.8874001  33.6516557  65.1481001  10.0022312  28.6304365  70.7933048
   9.3486724  28.3153382  70.1689663   9.9602786  28.0080106  71.5192871
  11.1133517  38.9123660  62.7086340  10.2060579  38.6812914  62.9077489
  11.6104549  38.1161280  62.8960322  14.0201596  47.6221167  65.6283026
  13.3463294  47.9252864  66.2367984  14.4067418  48.4250248  65.2788484
  13.2360052  35.1186299  75.1180696  12.3182614  35.3401246  74.9602384
  13.6520196  35.1932609  74.2592403  14.0195100  36.5177714  70.2483376
  14.7666919  37.0299112  69.9390498  14.2886690  36.1961767  71.1087770
  12.2921750  39.0136255  67.2310330  11.3832970  38.7295288  67.3282800
  12.3216834  39.4335334  66.3713637  17.5241018  42.6242845  71.0001498
  17.0703345  41.7833755  71.0566688  16.8934984  43.2604243  71.3376278
  16.4673937  33.5534831  72.2302165  15.7296694  33.0412217  72.5612408
  16.7200711  33.1135212  71.4185442  15.9673957  44.4619341  71.9351316
  16.2596931  45.0224398  71.2163682  16.4772577  44.7547902  72.6904475
  16.5685565  26.3311083  72.8243935  16.8744441  25.4708446  72.5369850
  17.2938169  26.9228703  72.6242929   2.8609921  36.7341769  71.2125533
   2.6634320  36.1411130  70.4876599   2.3056585  36.4293979  71.9301471
  10.8406644  36.6264876  73.3320126  10.8955254  35.6738712  73.2562602
  10.0297846  36.7824315  73.8161424  11.9897838  40.5544999  64.5698409
  11.5517268  39.8380858  64.1104046  12.7308279  40.7821114  64.0083500
   8.7799004  35.2441936  71.0910505   7.9666870  35.5436106  71.4975697
   9.2757998  34.8497624  71.8084987  10.9307582  45.2399692  73.0244769
  10.8883761  45.4660539  72.0953301  11.8470281  45.0063067  73.1730570
  14.3773216  35.7083760  79.9225399  14.7322604  35.9355233  80.7819864
  15.0245347  36.0402137  79.3002654  20.1070953  38.8302196  70.6274728
  19.9688851  39.0203792  69.6995917  19.7507172  39.5921579  71.0842779
   8.2713079  32.8160291  76.7071740   8.9112458  32.6749050  76.0094703
   7.4390610  32.5294804  76.3310342  20.1340332  40.8978723  75.6385999
  20.5676839  40.8054012  76.4869053  20.8471913  40.8736223  75.0006015
   9.0473383  42.1162721  72.8206732   9.8413981  41.6213042  72.6189307
   8.3365075  41.5880585  72.4574438  13.8668227  44.4980817  77.1719100
  13.9205250  45.0671753  77.9396816  12.9983009  44.6682702  76.8073137
   5.3556146  36.2605803  68.8966485   4.4253734  36.1990259  69.1136447
   5.4513618  35.7381756  68.1003126   5.2741695  32.7860616  71.4844726
   5.5348513  33.7005949  71.3753887   6.0958868  32.3185059  71.6341339
   6.7466621  34.1998373  78.6543551   7.4189674  33.9915735  78.0056200
   5.9196407  34.0020459  78.2148783  20.9955882  40.9402424  78.1718884
  21.1891772  41.8448234  78.4178159  20.8956500  40.4809843  79.0057469
  12.6492193  30.8260314  80.6709212  12.0020108  31.5250264  80.5773688
  13.4193208  31.2596458  81.0385460  16.0570991  41.0909166  83.7459765
  15.9056497  40.8619718  82.8289849  16.0475670  42.0479768  83.7591110
  12.8256327  38.6641079  78.7306031  13.7548387  38.8152239  78.5574999
  12.4047357  38.7525100  77.8754678  11.6244659  42.6891743  76.5004569
  11.4855745  42.3210528  77.3730507  10.8359255  43.2039383  76.3288527
  12.2192811  47.7900840  67.8430106  12.3944567  47.3188883  68.6575728
  11.5325599  48.4166606  68.0711366  13.1749874  42.0673346  73.8893407
  12.8399707  42.0274116  74.7851057  12.6753820  41.4018062  73.4163817
   7.1494118  37.4740976  79.4145988   7.0113916  36.7421215  80.0157527
   8.0599041  37.3849876  79.1330176  16.1109066  39.4129380  64.1630467
  15.4938236  38.6876209  64.0663519  15.6425554  40.1738741  63.8197541
   9.7776419  37.1860935  78.9029668  10.4876037  36.5454128  78.8616286
   9.7345727  37.4373830  79.8255848  17.7663197  44.1228289  81.8236247
  17.7075743  43.4387509  81.1566830  18.1682716  44.8647279  81.3716873
   8.4905353  34.1726153  80.7225307   7.9542710  33.7216892  81.3746904
   7.9022061  34.3072062  79.9795772   6.7853896  50.9390203  74.6169966
   7.0250494  51.5708727  75.2948984   5.9423093  50.5878243  74.9035325
   7.9007612  33.6314805  63.2851771   7.0237078  33.5103606  62.9214018
   8.3765365  32.8400883  63.0330659  17.7680605  42.0867873  80.0550227
  16.8807383  41.7493795  80.1776625  18.3379156  41.3550904  80.2918992
   4.2244474  33.3082161  77.8078302   4.1402663  32.7007831  77.0728712
   3.4027180  33.7991179  77.8087798  11.2981758  46.7469325  77.0211470
  11.2251929  47.5524297  77.5330774  10.8559151  46.9461291  76.1959491
  11.0871538  45.9841095  70.5314291  10.3039060  46.5262775  70.6252516
  11.7864283  46.5015075  70.9308533  14.3968188  31.7935725  73.1748497
  14.8936887  31.0405687  72.8549567  13.6255169  31.8300041  72.6091706
  22.2497945  37.4976090  74.8166788  22.2387821  38.3800806  74.4460721
  21.3815325  37.1447641  74.6221325  13.7580442  46.6456159  79.1769628
  14.4708414  47.2803624  79.1045530  13.2670470  46.7420025  78.3609630
  15.4797968  40.5507412  70.7486920  14.5454247  40.6708874  70.5791624
  15.6574637  39.6479879  70.4846930  10.9803156  33.9353108  72.9020181
  10.6100944  33.3824148  73.5901087  11.4762249  33.3311241  72.3495181
  18.8670520  36.3924731  71.2836954  19.3330972  37.2252723  71.2097257
  19.3178020  35.9269713  71.9882213   8.8092355  44.3950603  79.9975199
   9.5101815  45.0287086  80.1504594   8.3387470  44.7365334  79.2370839
  16.9346751  42.7368552  68.2823106  17.2106595  42.6225147  69.1916980
  16.0651250  42.3386037  68.2435279  16.8387183  28.7605318  75.3227856
  15.9250262  28.9909545  75.4910063  17.2680284  28.8443762  76.1741888
  16.6093641  36.9495210  77.8227750  15.9565091  37.1971118  77.1680202
  16.9874021  36.1359348  77.4890227  13.5700815  46.9854903  71.9255920
  13.7523209  46.1676559  72.3883672  14.3933801  47.2022595  71.4880810
  13.9042980  45.9123088  69.1870968  14.4330747  45.4015543  68.5741131
  14.1671200  45.5965619  70.0516501  12.6581214  37.6915021  84.3093787
  11.9821851  37.5909150  84.9796162  13.4808848  37.5354235  84.7729784
   4.4060073  43.9286958  76.9306302   4.9913510  43.1830646  77.0634206
   4.2084912  44.2390914  77.8142966   7.2598728  46.9638205  71.9468744
   6.5909104  47.4484333  71.4632784   7.1211598  47.2107425  72.8612123
  11.4003997  48.9981949  78.5451403  11.9522305  49.1613570  79.3100488
  11.7410190  49.5886386  77.8731428   6.3768490  31.3457098  79.1473287
   6.4409817  32.2071929  78.7350685   6.3135610  30.7331100  78.4145646
   5.8520763  33.4180231  82.7946322   6.4792801  33.0357308  83.4083846
   4.9948682  33.1994433  83.1602014  16.2514871  43.8243206  84.4000057
  16.7954775  44.4373164  83.9055012  15.6701716  44.3822784  84.9167070
   2.6286305  35.2256660  68.7264676   2.9239747  34.3167338  68.6731730
   1.7274341  35.2044399  68.4045679  14.5372384  46.9463924  75.5315085
  14.4123524  46.1453664  75.0226030  15.1951475  47.4410117  75.0429055
   6.1580552  33.3012657  74.7092225   5.4367138  33.9148624  74.5699698
   6.9473808  33.8370421  74.6308871  16.6007293  44.7472944  77.1594635
  15.6537628  44.6278295  77.0872962  16.9490066  43.8595442  77.2420896
   8.9606866  30.6367083  80.9832877   9.4841268  30.8829380  81.7459186
   8.7419199  31.4687118  80.5636014   4.3574147  32.9070758  68.8504002
   4.0286853  32.0268137  68.6679108   4.7113518  32.8518426  69.7380391
  13.6053726  44.5425660  73.3598987  13.4578688  43.6142368  73.5406557
  14.4307219  44.5645751  72.8756062   7.4715970  33.1943727  69.2179479
   7.8112043  33.7229649  68.4958088   7.9188091  33.5324134  69.9938046
  17.2087848  45.3654219  74.4463860  18.1334395  45.1597080  74.3088311
  17.0403151  45.1170620  75.3553201  10.1659411  31.5780778  78.6682547
   9.8256231  30.7788591  79.0703227   9.4598417  31.8782489  78.0959381
  10.8175883  28.6630091  77.1209870  11.6401952  28.1890569  76.9988761
  11.0613946  29.4420574  77.6208557   9.4584117  31.6918349  67.4172772
  10.1792480  32.0699602  66.9136489   8.8349421  32.4107226  67.5207750
  13.6015240  32.3963498  68.3531104  13.8178855  33.2788136  68.0519933
  13.1209307  32.0049711  67.6236746   8.3414462  35.3549211  74.9301849
   8.1959042  35.6689514  75.8226131   7.8639665  35.9734112  74.3772748
  10.2010844  32.3451759  74.9782739  10.1872413  31.4492853  74.6415037
  10.9183273  32.3522423  75.6121025  12.0536975  32.7789099  77.0235866
  11.7954753  33.7006170  77.0220196  11.5222016  32.3819534  77.7136330
  16.9983164  45.8839887  69.8025951  17.1720041  45.3186309  69.0499804
  17.4912055  46.6840781  69.6205441   2.8160124  37.8954556  77.8689510
   2.2713592  38.6714364  78.0009785   3.6939474  38.2425360  77.7108632
   9.6047740  31.2266140  70.2470309   9.7263652  30.2982786  70.4461196
   9.3149783  31.2404825  69.3348624  12.4738931  28.9121050  73.3837029
  12.4960628  28.9760383  72.4289008  12.8906990  28.0725559  73.5777535
  22.8522555  38.6476310  71.4216251  23.2953701  37.8983635  71.0235374
  21.9749065  38.6386446  71.0389983  17.9858336  45.2006651  66.9022850
  18.6809241  45.8213344  67.1210164  18.3281487  44.3502002  67.1775228
   3.6026146  37.0224452  80.7619667   2.8607882  37.1707087  81.3484297
   3.2818890  37.2832718  79.8986416  19.8849760  42.6506357  68.4310180
  20.4101084  42.9893629  67.7059500  19.7972112  41.7153372  68.2473315
  11.5469808  46.5640430  80.5600057  11.8556935  46.3189577  81.4322757
  12.3445290  46.7687069  80.0718927  11.5690420  48.7178340  72.7905434
  11.1295411  48.2254718  73.4838290  12.3198537  48.1751307  72.5497509
   4.0482759  44.9089881  72.7930062   4.8740779  44.6093653  72.4128705
   3.6976811  44.1397503  73.2419850   9.0164292  44.2616349  74.8627735
   8.3944302  43.5987054  74.5629963   9.6869159  44.2877481  74.1801383
   2.2491364  42.8276207  73.7518995   1.4123273  42.3998381  73.5702997
   2.2215010  43.0208650  74.6889786   9.0888820  32.7398137  84.4560241
   9.1376975  33.6160260  84.0738011   9.6311334  32.1975530  83.8831885
  19.5743666  43.2839260  83.7361378  18.7839209  43.2663399  83.1965878
  19.3377020  43.8227554  84.4910415  19.6941541  40.1331727  81.0494107
  19.7439546  39.9681734  81.9909630  19.5855464  39.2658986  80.6591988
   8.5777799  42.8120272  68.3386196   8.7265920  43.4955737  67.6852869
   9.3844243  42.7925362  68.8535652  16.9845303  36.1162655  82.3653414
  17.8855166  35.9769119  82.0737411  17.0593278  36.2817109  83.3051591
  11.3188108  33.4929509  81.2106600  10.4491418  33.7863075  80.9389189
  11.5547589  34.0769954  81.9313864  21.1959737  42.5528668  81.2936128
  20.9044546  42.9158649  82.1299589  20.5831869  41.8395676  81.1149461
  22.3955420  40.1181548  73.8138699  23.2302311  40.5571352  73.9776259
  22.5314549  39.6420201  72.9946944  19.4446926  37.6761283  79.7616186
  19.9201047  37.8688929  78.9535038  18.5212491  37.7320468  79.5159570
   6.3330432  38.8385450  69.3447265   6.0876474  37.9347780  69.5427475
   6.5026347  38.8402600  68.4026743  14.0227142  29.7109126  78.7272020
  14.5409086  30.4470153  78.4018509  13.6682275  30.0173120  79.5618779
   5.6026080  34.5713807  66.8433426   4.9095325  34.6458162  66.1873462
   5.3577832  33.8074151  67.3654943  14.2739736  26.1309409  74.2472917
  14.5541490  25.4632598  74.8733343  15.0590343  26.3238504  73.7347581
  12.0773205  45.3068403  65.8097943  11.5047172  45.9258590  65.3568415
  12.6505999  45.8567764  66.3437865  18.1448595  34.5527043  77.9944492
  19.0966018  34.6525140  78.0156716  17.9752045  33.7605311  78.5042576
  16.1662974  31.6382626  78.1803893  15.5712906  31.9187639  77.4850382
  15.8812671  32.1276527  78.9520634  15.2970465  45.5905553  66.9406526
  16.2301138  45.5251114  67.1439401  15.2093677  46.4261820  66.4821058
  17.9258481  44.9071423  63.9010473  17.8472113  44.5731287  64.7946231
  18.7468148  45.3993191  63.9001945  20.6236673  37.7733162  77.1086792
  20.5912993  36.8349163  77.2946476  21.2337296  37.8517199  76.3752617
  12.4620003  36.6429215  63.1513996  13.4079108  36.5135424  63.2202414
  12.0834248  35.9043877  63.6283424  20.7731161  34.5644206  77.1545075
  20.2570210  33.7802663  76.9675004  21.6571110  34.2362922  77.3191594
  18.4341888  28.3085221  73.1140888  18.2366709  28.0000310  73.9984220
  19.0441594  29.0346860  73.2438817  26.4413222  38.8349169  76.2492829
  27.1716611  38.5734457  76.8100532  25.8320168  38.0977891  76.2894896
  24.5228519  36.9757032  76.8467280  23.7961683  36.8412997  76.2383771
  24.1075806  37.2833860  77.6523998  12.3458696  40.6946962  84.6114653
  13.2661705  40.8725561  84.8054699  12.3108279  39.7503007  84.4594352
  10.6462921  34.5679192  63.0868881   9.7394376  34.2712305  63.1631595
  10.9238902  34.2709010  62.2203167   1.5640861  35.8885555  73.5367927
   1.2443645  35.0350863  73.2442301   1.0174289  36.1034133  74.2925895
   5.3420768  38.6047996  77.2537434   5.5606778  39.5365104  77.2725468
   5.7546542  38.2455971  78.0392238  12.2624986  29.1116082  69.2413122
  11.4525715  28.7663166  69.6168368  12.9509403  28.8023625  69.8300734
  14.1915535  28.1894128  70.8637419  14.7446573  28.6089582  71.5227442
  14.4285621  27.2629876  70.9060375  10.2148634  34.1781202  86.6440183
  10.1145361  35.1275559  86.5752274   9.9970176  33.8499441  85.7716253
   9.4161705  31.4266127  63.2280860  10.2780869  31.7521025  63.4876678
   9.6012049  30.6397623  62.7153926   1.4329121  39.5088467  75.5061049
   0.7392592  39.0942419  74.9931003   2.1802112  39.5509003  74.9094468
  17.5694342  30.2994653  70.3716083  16.9893011  30.9579458  69.9894136
  17.3030274  29.4771998  69.9603501  16.0197908  29.6999711  72.5737404
  16.5197686  29.8116246  71.7651722  16.6633516  29.3960764  73.2138212
  10.0779904  37.6078341  85.4605244   9.5946986  38.4078701  85.6669134
  10.1640843  37.6186286  84.5072688   3.3465863  39.4406720  73.3827064
   3.3236552  39.5394408  72.4308947   3.6566500  40.2871871  73.7044230
   6.0053241  41.4982876  77.4973678   6.9596495  41.4666818  77.4303610
   5.8065765  41.0373499  78.3123904   6.5952623  40.0683992  80.0644476
   7.4145512  40.5628070  80.0879313   6.8689431  39.1515960  80.0362043
  16.3519220  32.4594744  69.4272431  15.4645075  32.7444394  69.2092626
  16.7673209  32.2988507  68.5799708  19.7033756  32.4841265  73.1426771
  20.4794146  32.9737717  73.4151388  18.9781890  32.9099319  73.5998640
  22.1406314  33.1968884  74.2000711  22.7350805  32.9564620  73.4894020
  22.2132898  32.4776015  74.8274248   4.3603470  47.0402495  74.5143876
   4.2257938  46.2802896  73.9481874   3.9435532  47.7643395  74.0472665
  15.4962433  42.2239419  63.5220451  16.1998283  42.4289421  64.1378107
  14.7725082  42.7916180  63.7869535  16.3260243  37.9749280  69.6422722
  16.2695445  38.4317831  68.8030354  16.8788586  37.2139964  69.4645564
  20.1365049  33.7639012  70.4672841  19.8801984  33.3635647  71.2981049
  19.5117917  34.4782806  70.3422980  24.4477387  36.5035085  72.9744133
  23.8876945  36.5728274  73.7475695  23.8420891  36.3276070  72.2543629
   7.5172596  47.9371812  74.7262319   7.4004980  48.8817245  74.6241009
   6.6965042  47.6345374  75.1148118  17.4049131  42.6621948  65.5718911
  18.2394734  42.2303146  65.3896386  17.2433473  42.4903961  66.4995806
  17.0595023  39.1654061  66.9375251  17.0043827  38.9998332  65.9963695
  16.4341078  39.8730094  67.0937440   1.8487538  34.4022125  80.7636673
   2.4946401  33.8921079  81.2523898   1.6404689  35.1390807  81.3380098
  14.3740930  41.4702973  86.2628814  15.2432090  41.6443625  85.9015448
  13.8947681  42.2897390  86.1404543  10.3691148  28.6662170  66.5160569
  10.3569818  29.6104010  66.6728840  11.2614570  28.4832315  66.2220030
   8.5427110  48.5900074  77.9418247   9.4454357  48.6223684  78.2584742
   8.3164480  47.6600525  77.9564583  10.2980712  47.3431060  74.6028326
   9.3476343  47.3432922  74.4892698  10.6013198  46.5963795  74.0864360
  14.1843268  25.2604947  70.7706506  13.4175663  24.7063433  70.9163188
  14.5953973  25.3326815  71.6320658   6.1885029  31.5489742  84.8611687
   7.0516490  31.1926547  85.0715012   5.6150439  31.2103637  85.5487091
  26.0333406  53.1791599  75.6674088  26.6711816  53.0598346  74.9637428
  25.9154249  54.1272443  75.7262040  22.8423112  53.1319027  75.6035613
  22.5041623  53.0160092  74.7156148  23.7112880  52.7310192  75.5836619
  18.7009928  54.9854503  71.5932504  18.1374793  54.8944440  70.8248792
  18.5862323  54.1654408  72.0734996  23.3242895  54.2853879  81.5621818
  23.3131536  53.8906677  80.6902322  23.4863534  53.5519951  82.1555590
  16.2474360  56.4805695  74.4316724  17.0395651  56.1396520  74.0163024
  16.4871010  56.5900670  75.3518878  24.2809486  58.6525471  66.9046969
  23.6297466  59.2379551  66.5180983  25.0753849  59.1831666  66.9642006
  18.2065113  55.7414608  67.3034103  18.9795989  55.1943595  67.1646979
  18.5590512  56.6058858  67.5148565  20.0450156  57.0690990  80.5101002
  19.7540022  57.9736621  80.3947669  20.6807140  57.1107518  81.2245072
  20.9706363  54.4467839  77.1002362  21.5669935  54.2223861  76.3859325
  21.0281334  53.7052584  77.7027810  20.5431391  51.9007274  64.9352553
  20.7956912  51.3788796  64.1736016  19.6055950  51.7373420  65.0379237
  25.5874674  50.9043053  72.7427296  26.3737763  50.4862476  72.3917713
  25.8513378  51.8089145  72.9108945  25.7584751  56.3415903  67.4415953
  25.1230584  56.4150530  68.1536858  25.4282158  56.9309502  66.7635032
  30.9883101  50.8418286  73.6460275  31.7208273  50.2717503  73.8798104
  30.2322457  50.4539886  74.0866780  20.2627680  53.8035380  67.1376928
  20.1463938  53.1280284  67.8058012  20.3729940  53.3167754  66.3209081
  22.6059221  53.2645527  70.8423617  22.2417428  52.7376148  71.5536539
  23.4626337  52.8743996  70.6690103  28.5108522  44.5539860  78.1054883
  28.1791846  45.4235271  77.8816098  27.9154135  44.2376144  78.7848914
  22.2464708  48.2935427  65.8384966  22.4139110  49.1615664  66.2055437
  22.0561877  48.4562709  64.9146255  25.0040041  56.7552406  77.5050796
  24.7040764  57.6577445  77.3966603  24.6591101  56.4884589  78.3571949
  18.4552523  53.2066203  73.5387501  17.5303019  53.0742417  73.7465192
  18.7036936  53.9860422  74.0357443  28.4037185  49.2734946  75.1848233
  27.4954062  49.2050355  74.8906994  28.3524781  49.7506891  76.0130059
  22.2253929  50.7493085  66.8231633  22.1053554  51.1950135  67.6617113
  21.5306517  51.0978402  66.2645171  15.8161334  52.8499476  74.3731290
  15.9453715  53.1033955  75.2870701  15.1358785  53.4427184  74.0535945
  19.9860821  63.5196726  70.4721764  19.9084851  64.4704551  70.5510244
  19.3822465  63.1742599  71.1296690  22.4778051  50.6924592  83.1283131
  21.7011385  51.2518512  83.1185995  23.1168614  51.1781375  83.6498001
  30.2698831  47.4751385  76.9626107  29.6273212  47.7683918  76.3165902
  29.7653760  47.3604305  77.7679304  27.9238995  51.2214558  67.6511967
  28.8356851  51.4541945  67.4759664  27.4148642  51.8051602  67.0887045
  20.7324423  53.5010045  82.6901098  21.4739107  54.0395089  82.4135921
  20.0261408  54.1276334  82.8472650  26.2079763  55.6439186  81.2873259
  26.6163119  55.2021596  80.5427892  25.4857024  55.0691813  81.5407452
  22.5610833  50.5811792  78.6606816  23.4072028  51.0051206  78.8041465
  22.5009470  49.9245417  79.3545379  26.5308577  56.2040376  75.0425548
  25.9017440  56.3686090  74.3401616  26.1434239  56.6181986  75.8136512
  30.4097809  57.1394814  72.3969912  29.7248847  57.5193715  71.8466945
  30.4941658  57.7490141  73.1301860  25.7110278  48.2416161  80.3187990
  25.4671210  48.9958221  79.7822265  25.9870209  48.6201508  81.1535237
  27.6648741  54.7854773  78.9965255  27.8765636  55.4286533  78.3199636
  27.6178489  53.9517090  78.5287185  25.2674970  47.3972594  75.9001828
  24.4059449  47.6953847  76.1918565  25.2937404  47.6142993  74.9682860
  22.0836539  55.9414784  72.3075633  22.5474885  56.2202487  71.5180256
  21.8193337  55.0398229  72.1248724  18.9760620  55.4886266  75.2455396
  19.5461977  55.9173534  74.6072881  19.5668732  55.2068851  75.9439582
  21.0205425  52.0637937  69.1165198  21.7229469  52.5158980  69.5839125
  20.6886054  51.4221756  69.7445091  19.4685787  50.6549693  83.4916408
  18.8384447  51.3365974  83.7251805  19.3621875  50.5432775  82.5469546
  14.7630759  50.3221489  74.4182332  13.9729813  50.5779018  73.9422443
  15.2542007  51.1369827  74.5234372  28.7794569  57.6626729  77.1687613
  29.6012012  57.2606916  76.8870294  28.7756972  57.5594963  78.1203729
  16.7145505  50.6866069  71.3765809  15.9176668  50.7984763  71.8949304
  16.4871097  51.0252721  70.5106699  22.5451172  57.2110772  79.3248323
  22.6095605  57.6731179  80.1606495  21.8362096  56.5808137  79.4530633
  13.0468462  50.5751980  76.8497323  13.2976501  51.4598990  77.1154899
  13.5828011  50.3956581  76.0772415  22.2599190  58.8778879  69.1927304
  22.1244865  59.7230415  69.6212151  22.8009002  59.0798157  68.4293237
  18.7466529  44.9570459  85.8541659  18.3533475  44.4036658  86.5289303
  19.5632670  45.2681038  86.2448176  15.7128587  56.3954317  69.7655229
  16.2253108  57.1897568  69.9160793  16.3651300  55.6980608  69.6988830
  17.5223472  59.5120074  71.8477982  17.6990100  60.4338038  71.6598966
  18.3180305  59.1978493  72.2772362  21.6634490  46.3728338  83.4461915
  22.4044204  46.9735491  83.3666378  21.8952413  45.6305976  82.8879958
  16.8075828  51.5584706  81.7240145  16.6929344  50.6569963  82.0247244
  15.9520346  51.8048402  81.3724962  23.8867666  59.5002446  83.3227646
  23.4431520  58.7138824  83.0048550  24.5484880  59.6881596  82.6571536
  18.6454787  61.0298247  77.8488324  19.1962213  60.9015311  77.0765318
  17.8066263  61.3293136  77.4983217  25.9848904  59.7805246  81.3509047
  25.9667380  60.6014127  80.8589316  26.9068824  59.6559321  81.5759188
  22.4421958  57.2949375  82.1932555  22.9750295  56.5337663  81.9631863
  21.9136040  57.0023027  82.9356710  25.6091653  42.4009441  77.7226197
  25.2655923  43.2911083  77.6465308  25.9770616  42.2111099  76.8595782
  13.6777504  54.7242972  70.5414799  14.5152726  55.1339980  70.3248507
  13.8555772  53.7842414  70.5114993  25.5741936  52.3918052  66.2298632
  25.0588560  53.1622657  66.4687020  25.3019245  51.7183188  66.8531694
  23.1589047  47.2367753  71.2883870  22.3030643  46.8474603  71.1089509
  23.5715999  47.3159714  70.4283656  24.6888194  44.7714096  75.6875430
  24.1852989  44.7344232  74.8743236  24.9818801  45.6806839  75.7472087
  20.9331080  44.8552826  74.6941612  21.7984076  44.6595635  74.3347501
  21.0008589  44.6263178  75.6210969  25.3628239  50.2645144  68.0558413
  25.0578375  50.5791294  68.9068556  26.3158681  50.3426564  68.0985746
  23.8074671  56.4235368  69.7051367  23.2796033  55.6888127  69.3924605
  23.3062174  57.2010044  69.4591336  28.7867517  54.6184388  74.8218414
  28.1291192  55.3083650  74.9098542  29.5907916  55.0080820  75.1652400
  18.5393399  47.0855034  72.0657979  19.1137151  46.8630215  71.3331172
  19.1264381  47.1543728  72.8186580  27.5972976  52.9728761  72.8722355
  28.1104858  53.6058753  73.3744065  28.2474200  52.3729956  72.5065715
  18.8662986  49.1159495  66.0853864  18.0300298  49.4534182  66.4063139
  18.7267756  48.9808475  65.1481001  20.8416066  43.9596283  70.7933048
  20.1880479  43.6445300  70.1689663  20.7996541  43.3372023  71.5192871
  21.9527271  54.2415578  62.7086340  21.0454333  54.0104831  62.9077489
  22.4498303  53.4453197  62.8960322  24.8595350  62.9513085  65.6283026
  24.1857049  63.2544782  66.2367984  25.2461172  63.7542166  65.2788484
  24.0753807  50.4478216  75.1180696  23.1576368  50.6693163  74.9602384
  24.4913950  50.5224527  74.2592403  24.8588855  51.8469632  70.2483376
  25.6060674  52.3591029  69.9390498  25.1280444  51.5253685  71.1087770
  23.1315505  54.3428173  67.2310330  22.2226724  54.0587206  67.3282800
  23.1610589  54.7627251  66.3713637  28.3634772  57.9534762  71.0001498
  27.9097099  57.1125672  71.0566688  27.7328739  58.5896161  71.3376278
  27.3067692  48.8826748  72.2302165  26.5690449  48.3704135  72.5612408
  27.5594465  48.4427130  71.4185442  26.8067711  59.7911259  71.9351316
  27.0990686  60.3516316  71.2163682  27.3166332  60.0839820  72.6904475
  27.4079319  41.6603000  72.8243935  27.7138196  40.8000364  72.5369850
  28.1331924  42.2520621  72.6242929  13.7003675  52.0633687  71.2125533
  13.5028075  51.4703048  70.4876599  13.1450339  51.7585897  71.9301471
  21.6800399  51.9556793  73.3320126  21.7349009  51.0030630  73.2562602
  20.8691601  52.1116233  73.8161424  22.8291593  55.8836917  64.5698409
  22.3911022  55.1672775  64.1104046  23.5702033  56.1113031  64.0083500
  19.6192759  50.5733853  71.0910505  18.8060624  50.8728024  71.4975697
  20.1151753  50.1789542  71.8084987  21.7701337  60.5691610  73.0244769
  21.7277515  60.7952456  72.0953301  22.6864035  60.3354985  73.1730570
  25.2166970  51.0375678  79.9225399  25.5716358  51.2647151  80.7819864
  25.8639102  51.3694054  79.3002654  30.9464707  54.1594114  70.6274728
  30.8082606  54.3495710  69.6995917  30.5900926  54.9213496  71.0842779
  19.1106833  48.1452209  76.7071740  19.7506213  48.0040968  76.0094703
  18.2784364  47.8586722  76.3310342  30.9734087  56.2270641  75.6385999
  31.4070594  56.1345930  76.4869053  31.6865668  56.2028141  75.0006015
  19.8867137  57.4454639  72.8206732  20.6807736  56.9504959  72.6189307
  19.1758830  56.9172502  72.4574438  24.7061982  59.8272735  77.1719100
  24.7599004  60.3963671  77.9396816  23.8376763  59.9974620  76.8073137
  16.1949901  51.5897721  68.8966485  15.2647489  51.5282176  69.1136447
  16.2907373  51.0673674  68.1003126  16.1135450  48.1152534  71.4844726
  16.3742267  49.0297867  71.3753887  16.9352622  47.6476976  71.6341339
  17.5860375  49.5290291  78.6543551  18.2583429  49.3207653  78.0056200
  16.7590162  49.3312377  78.2148783  31.8349637  56.2694341  78.1718884
  32.0285527  57.1740152  78.4178159  31.7350255  55.8101760  79.0057469
  23.4885947  46.1552232  80.6709212  22.8413862  46.8542181  80.5773688
  24.2586963  46.5888376  81.0385460  26.8964745  56.4201084  83.7459765
  26.7450252  56.1911636  82.8289849  26.8869425  57.3771685  83.7591110
  23.6650082  53.9932997  78.7306031  24.5942142  54.1444156  78.5574999
  23.2441112  54.0817017  77.8754678  22.4638413  58.0183661  76.5004569
  22.3249499  57.6502446  77.3730507  21.6753010  58.5331301  76.3288527
  23.0586565  63.1192758  67.8430106  23.2338321  62.6480801  68.6575728
  22.3719353  63.7458524  68.0711366  24.0143629  57.3965264  73.8893407
  23.6793461  57.3566034  74.7851057  23.5147574  56.7309980  73.4163817
  17.9887872  52.8032894  79.4145988  17.8507670  52.0713133  80.0157527
  18.8992796  52.7141794  79.1330176  26.9502820  54.7421298  64.1630467
  26.3331991  54.0168126  64.0663519  26.4819309  55.5030658  63.8197541
  20.6170173  52.5152853  78.9029668  21.3269792  51.8746045  78.8616286
  20.5739481  52.7665748  79.8255848  28.6056952  59.4520207  81.8236247
  28.5469498  58.7679427  81.1566830  29.0076470  60.1939197  81.3716873
  19.3299107  49.5018071  80.7225307  18.7936464  49.0508810  81.3746904
  18.7415816  49.6363980  79.9795772  17.6247651  66.2682120  74.6169966
  17.8644249  66.9000645  75.2948984  16.7816847  65.9170160  74.9035325
  18.7401366  48.9606722  63.2851771  17.8630832  48.8395523  62.9214018
  19.2159119  48.1692801  63.0330659  28.6074359  57.4159790  80.0550227
  27.7201138  57.0785712  80.1776625  29.1772910  56.6842822  80.2918992
  10.2603506  53.7483882  73.3793278  10.9474546  53.4345612  72.7914293
  10.1051635  54.6525247  73.1060529  15.0638228  48.6374079  77.8078302
  14.9796417  48.0299748  77.0728712  14.2420935  49.1283097  77.8087798
  22.1375513  62.0761243  77.0211470  22.0645684  62.8816214  77.5330774
  21.6952906  62.2753209  76.1959491  21.9265292  61.3133013  70.5314291
  21.1432814  61.8554693  70.6252516  22.6258037  61.8306992  70.9308533
  25.2361942  47.1227642  73.1748497  25.7330642  46.3697605  72.8549567
  24.4648924  47.1591959  72.6091706  33.0891700  52.8268008  74.8166788
  33.0781576  53.7092723  74.4460721  32.2209079  52.4739559  74.6221325
  24.5974196  61.9748077  79.1769628  25.3102168  62.6095542  79.1045530
  24.1064225  62.0711943  78.3609630  26.3191723  55.8799330  70.7486920
  25.3848002  56.0000792  70.5791624  26.4968391  54.9771796  70.4846930
  21.8196911  49.2645025  72.9020181  21.4494699  48.7116066  73.5901087
  22.3156003  48.6603159  72.3495181  29.7064274  51.7216649  71.2836954
  30.1724726  52.5544640  71.2097257  30.1571775  51.2561630  71.9882213
  19.6486110  59.7242520  79.9975199  20.3495569  60.3579003  80.1504594
  19.1781225  60.0657252  79.2370839  27.7740505  58.0660470  68.2823106
  28.0500349  57.9517065  69.1916980  26.9045004  57.6677955  68.2435279
  27.6780937  44.0897236  75.3227856  26.7644017  44.3201463  75.4910063
  28.1074038  44.1735680  76.1741888  27.4487396  52.2787128  77.8227750
  26.7958846  52.5263035  77.1680202  27.8267775  51.4651266  77.4890227
  24.4094569  62.3146821  71.9255920  24.5916964  61.4968477  72.3883672
  25.2327555  62.5314513  71.4880810  24.7436735  61.2415006  69.1870968
  25.2724501  60.7307461  68.5741131  25.0064954  60.9257536  70.0516501
  23.4974969  53.0206939  84.3093787  22.8215606  52.9201068  84.9796162
  24.3202602  52.8646153  84.7729784  15.2453828  59.2578875  76.9306302
  15.8307264  58.5122563  77.0634206  15.0478666  59.5682832  77.8142966
  18.0992483  62.2930123  71.9468744  17.4302858  62.7776250  71.4632784
  17.9605353  62.5399343  72.8612123   9.8371482  51.8284476  75.6510745
   9.8755582  51.2948066  76.4447863   9.3311775  51.3019681  75.0321722
  22.2397751  64.3273866  78.5451403  22.7916059  64.4905488  79.3100488
  22.5803945  64.9178304  77.8731428  17.2162245  46.6749016  79.1473287
  17.2803571  47.5363847  78.7350685  17.1529365  46.0623018  78.4145646
  16.6914517  48.7472149  82.7946322  17.3186556  48.3649226  83.4083846
  15.8342436  48.5286351  83.1602014  27.0908626  59.1535124  84.4000057
  27.6348530  59.7665082  83.9055012  26.5095471  59.7114702  84.9167070
  13.4680060  50.5548578  68.7264676  13.7633501  49.6459256  68.6731730
  12.5668096  50.5336317  68.4045679  25.3766139  62.2755842  75.5315085
  25.2517278  61.4745582  75.0226030  26.0345230  62.7702035  75.0429055
  16.9974307  48.6304574  74.7092225  16.2760893  49.2440542  74.5699698
  17.7867563  49.1662339  74.6308871  27.4401047  60.0764862  77.1594635
  26.4931383  59.9570213  77.0872962  27.7883820  59.1887360  77.2420896
  19.8000620  45.9659001  80.9832877  20.3235022  46.2121297  81.7459186
  19.5812954  46.7979036  80.5636014  15.1967902  48.2362675  68.8504002
  14.8680608  47.3560054  68.6679108  15.5507272  48.1810344  69.7380391
  24.4447480  59.8717578  73.3598987  24.2972443  58.9434285  73.5406557
  25.2700974  59.8937669  72.8756062  18.3109725  48.5235645  69.2179479
  18.6505797  49.0521566  68.4958088  18.7581845  48.8616051  69.9938046
  28.0481602  60.6946137  74.4463860  28.9728150  60.4888998  74.3088311
  27.8796906  60.4462538  75.3553201  21.0053165  46.9072696  78.6682547
  20.6649986  46.1080509  79.0703227  20.2992172  47.2074407  78.0959381
  21.6569637  43.9922008  77.1209870  22.4795707  43.5182486  76.9988761
  21.9007701  44.7712492  77.6208557  20.2977872  47.0210267  67.4172772
  21.0186234  47.3991520  66.9136489  19.6743176  47.7399144  67.5207750
  24.4408995  47.7255416  68.3531104  24.6572609  48.6080054  68.0519933
  23.9603062  47.3341629  67.6236746  19.1808216  50.6841129  74.9301849
  19.0352797  50.9981432  75.8226131  18.7033420  51.3026029  74.3772748
  21.0404599  47.6743677  74.9782739  21.0266168  46.7784770  74.6415037
  21.7577027  47.6814341  75.6121025  22.8930730  48.1081017  77.0235866
  22.6348507  49.0298088  77.0220196  22.3615770  47.7111452  77.7136330
  27.8376918  61.2131804  69.8025951  28.0113796  60.6478227  69.0499804
  28.3305810  62.0132699  69.6205441  13.6553878  53.2246473  77.8689510
  13.1107346  54.0006281  78.0009785  14.5333228  53.5717278  77.7108632
  20.4441495  46.5558057  70.2470309  20.5657406  45.6274703  70.4461196
  20.1543537  46.5696743  69.3348624  23.3132685  44.2412968  73.3837029
  23.3354382  44.3052301  72.4289008  23.7300744  43.4017476  73.5777535
  33.6916310  53.9768227  71.4216251  34.1347456  53.2275552  71.0235374
  32.8142820  53.9678364  71.0389983  28.8252091  60.5298569  66.9022850
  29.5202996  61.1505261  67.1210164  29.1675241  59.6793920  67.1775228
  14.4419900  52.3516370  80.7619667  13.7001636  52.4999005  81.3484297
  14.1212644  52.6124635  79.8986416  22.3863563  61.8932348  80.5600057
  22.6950689  61.6481495  81.4322757  23.1839045  62.0978986  80.0718927
  22.4084175  64.0470257  72.7905434  21.9689165  63.5546636  73.4838290
  23.1592292  63.5043225  72.5497509  14.8876514  60.2381798  72.7930062
  15.7134534  59.9385570  72.4128705  14.5370566  59.4689421  73.2419850
  19.8558047  59.5908267  74.8627735  19.2338056  58.9278972  74.5629963
  20.5262914  59.6169398  74.1801383  13.0885119  58.1568125  73.7518995
  12.2517027  57.7290299  73.5702997  13.0608764  58.3500568  74.6889786
  19.9282574  48.0690055  84.4560241  19.9770730  48.9452177  84.0738011
  20.4705089  47.5267448  83.8831885  30.4137420  58.6131178  83.7361378
  29.6232964  58.5955317  83.1965878  30.1770775  59.1519472  84.4910415
  30.5335295  55.4623644  81.0494107  30.5833300  55.2973652  81.9909630
  30.4249219  54.5950903  80.6591988  19.4171554  58.1412190  68.3386196
  19.5659674  58.8247654  67.6852869  20.2237997  58.1217280  68.8535652
  27.8239058  51.4454572  82.3653414  28.7248920  51.3061037  82.0737411
  27.8987032  51.6109027  83.3051591  22.1581863  48.8221427  81.2106600
  21.2885172  49.1154993  80.9389189  22.3941343  49.4061872  81.9313864
  32.0353492  57.8820586  81.2936128  31.7438300  58.2450566  82.1299589
  31.4225623  57.1687594  81.1149461  30.2840680  53.0053200  79.7616186
  30.7594802  53.1980847  78.9535038  29.3606246  53.0612386  79.5159570
  17.1724187  54.1677368  69.3447265  16.9270229  53.2639698  69.5427475
  17.3420101  54.1694518  68.4026743  24.8620897  45.0401044  78.7272020
  25.3802841  45.7762071  78.4018509  24.5076029  45.3465037  79.5618779
  16.4419834  49.9005725  66.8433426  15.7489079  49.9750080  66.1873462
  16.1971586  49.1366069  67.3654943  25.1133491  41.4601326  74.2472917
  25.3935245  40.7924516  74.8733343  25.8984098  41.6530422  73.7347581
  22.9166959  60.6360320  65.8097943  22.3440926  61.2550507  65.3568415
  23.4899753  61.1859682  66.3437865  28.9842349  49.8818960  77.9944492
  29.9359772  49.9817058  78.0156716  28.8145800  49.0897229  78.5042576
  27.0056729  46.9674544  78.1803893  26.4106661  47.2479556  77.4850382
  26.7206425  47.4568445  78.9520634  26.1364219  60.9197470  66.9406526
  27.0694892  60.8543032  67.1439401  26.0487432  61.7553737  66.4821058
  28.7652236  60.2363341  63.9010473  28.6865867  59.9023204  64.7946231
  29.5861903  60.7285109  63.9001945  31.4630427  53.1025080  77.1086792
  31.4306747  52.1641081  77.2946476  32.0731051  53.1809117  76.3752617
  23.3013758  51.9721133  63.1513996  24.2472863  51.8427341  63.2202414
  22.9228003  51.2335795  63.6283424  31.6124915  49.8936124  77.1545075
  31.0963964  49.1094580  76.9675004  32.4964864  49.5654840  77.3191594
  29.2735642  43.6377139  73.1140888  29.0760464  43.3292227  73.9984220
  29.8835348  44.3638778  73.2438817  23.1852450  56.0238879  84.6114653
  24.1055460  56.2017478  84.8054699  23.1502033  55.0794925  84.4594352
  21.4856675  49.8971109  63.0868881  20.5788130  49.6004222  63.1631595
  21.7632656  49.6000928  62.2203167  12.4034615  51.2177473  73.5367927
  12.0837400  50.3642781  73.2442301  11.8568044  51.4326051  74.2925895
  16.1814523  53.9339914  77.2537434  16.4000533  54.8657022  77.2725468
  16.5940297  53.5747888  78.0392238  23.1018741  44.4407999  69.2413122
  22.2919469  44.0955084  69.6168368  23.7903158  44.1315543  69.8300734
  25.0309289  43.5186046  70.8637419  25.5840328  43.9381499  71.5227442
  25.2679375  42.5921794  70.9060375  21.0542388  49.5073120  86.6440183
  20.9539115  50.4567477  86.5752274  20.8363930  49.1791359  85.7716253
  20.2555460  46.7558045  63.2280860  21.1174624  47.0812943  63.4876678
  20.4405804  45.9689541  62.7153926  12.2722875  54.8380384  75.5061049
  11.5786347  54.4234337  74.9931003  13.0195866  54.8800921  74.9094468
  28.4088096  45.6286571  70.3716083  27.8286765  46.2871375  69.9894136
  28.1424029  44.8063916  69.9603501  26.8591662  45.0291629  72.5737404
  27.3591441  45.1408163  71.7651722  27.5027270  44.7252682  73.2138212
  20.9173658  52.9370258  85.4605244  20.4340740  53.7370619  85.6669134
  21.0034597  52.9478203  84.5072688  14.1859618  54.7698638  73.3827064
  14.1630306  54.8686325  72.4308947  14.4960254  55.6163789  73.7044230
  16.8446996  56.8274793  77.4973678  17.7990249  56.7958736  77.4303610
  16.6459519  56.3665417  78.3123904  17.4346378  55.3975909  80.0644476
  18.2539267  55.8919988  80.0879313  17.7083186  54.4807877  80.0362043
  27.1912974  47.7886662  69.4272431  26.3038829  48.0736312  69.2092626
  27.6066963  47.6280425  68.5799708  30.5427510  47.8133183  73.1426771
  31.3187900  48.3029635  73.4151388  29.8175644  48.2391237  73.5998640
  32.9800069  48.5260802  74.2000711  33.5744560  48.2856538  73.4894020
  33.0526653  47.8067932  74.8274248  15.1997225  62.3694413  74.5143876
  15.0651693  61.6094814  73.9481874  14.7829287  63.0935313  74.0472665
  26.3356188  57.5531336  63.5220451  27.0392038  57.7581339  64.1378107
  25.6118836  58.1208098  63.7869535  27.1653998  53.3041197  69.6422722
  27.1089199  53.7609749  68.8030354  27.7182340  52.5431882  69.4645564
  30.9758804  49.0930929  70.4672841  30.7195738  48.6927565  71.2981049
  30.3511672  49.8074723  70.3422980  18.3566350  63.2663730  74.7262319
  18.2398735  64.2109162  74.6241009  17.5358797  62.9637291  75.1148118
  28.2442885  57.9913865  65.5718911  29.0788489  57.5595064  65.3896386
  28.0827228  57.8195879  66.4995806  27.8988777  54.4945979  66.9375251
  27.8437581  54.3290250  65.9963695  27.2734832  55.2022012  67.0937440
  12.6881292  49.7314043  80.7636673  13.3340156  49.2212997  81.2523898
  12.4798443  50.4682725  81.3380098  25.2134684  56.7994891  86.2628814
  26.0825844  56.9735543  85.9015448  24.7341436  57.6189307  86.1404543
  21.2084903  43.9954088  66.5160569  21.1963572  44.9395928  66.6728840
  22.1008325  43.8124233  66.2220030  19.3820865  63.9191992  77.9418247
  20.2848111  63.9515602  78.2584742  19.1558235  62.9892443  77.9564583
  21.1374467  62.6722978  74.6028326  20.1870098  62.6724840  74.4892698
  21.4406953  61.9255713  74.0864360  25.0237022  40.5896864  70.7706506
  24.2569418  40.0355351  70.9163188  25.4347727  40.6618733  71.6320658
  17.0278783  46.8781660  84.8611687  17.8910245  46.5218465  85.0715012
  16.4544194  46.5395555  85.5487091  34.1636649  69.6145796  81.5621818
  34.1525290  69.2198595  80.6902322  34.3257289  68.8811869  82.1555590
  27.0868114  71.8097613  74.4316724  27.8789406  71.4688437  74.0163024
  27.3264764  71.9192588  75.3518878  30.8843911  72.3982908  80.5101002
  30.5933777  73.3028539  80.3947669  31.5200895  72.4399436  81.2245072
  31.8100117  69.7759757  77.1002362  32.4063690  69.5515779  76.3859325
  31.8675089  69.0344502  77.7027810  29.2946277  68.5358121  73.5387501
  28.3696774  68.4034335  73.7465192  29.5430690  69.3152340  74.0357443
  26.6555088  68.1791394  74.3731290  26.7847469  68.4325873  75.2870701
  25.9752539  68.7719102  74.0535945  31.5718177  68.8301963  82.6901098
  32.3132862  69.3687007  82.4135921  30.8655163  69.4568252  82.8472650
  29.8154375  70.8178184  75.2455396  30.3855732  71.2465452  74.6072881
  30.4062487  70.5360768  75.9439582  30.3079541  65.9841611  83.4916408
  29.6778202  66.6657892  83.7251805  30.2015629  65.8724693  82.5469546
  25.6024514  65.6513407  74.4182332  24.8123568  65.9070936  73.9422443
  26.0935761  66.4661745  74.5234372  27.5539259  66.0157986  71.3765809
  26.7570422  66.1276681  71.8949304  27.3264851  66.3544638  70.5106699
  23.8862217  65.9043897  76.8497323  24.1370255  66.7890907  77.1154899
  24.4221765  65.7248499  76.0772415  29.5860284  60.2862377  85.8541659
  29.1927230  59.7328575  86.5289303  30.4026424  60.5972955  86.2448176
  32.5028245  61.7020256  83.4461915  33.2437958  62.3027409  83.3666378
  32.7346168  60.9597894  82.8879958  27.6469583  66.8876623  81.7240145
  27.5323098  65.9861880  82.0247244  26.7914101  67.1340320  81.3724962
  29.4848542  76.3590165  77.8488324  30.0355967  76.2307228  77.0765318
  28.6460018  76.6585054  77.4983217  33.2815713  72.6241293  82.1932555
  33.8144050  71.8629581  81.9631863  32.7529794  72.3314945  82.9356710
  24.5171258  70.0534889  70.5414799  25.3546480  70.4631898  70.3248507
  24.6949526  69.1134331  70.5114993  31.7724834  60.1844744  74.6941612
  32.6377831  59.9887552  74.3347501  31.8402343  59.9555096  75.6210969
  29.3787153  62.4146952  72.0657979  29.9530905  62.1922133  71.3331172
  29.9658136  62.4835646  72.8186580  31.6809821  59.2888201  70.7933048
  31.0274233  58.9737218  70.1689663  31.6390295  58.6663941  71.5192871
  24.5397430  67.3925605  71.2125533  24.3421829  66.7994965  70.4876599
  23.9844094  67.0877815  71.9301471  29.9500588  63.4744126  76.7071740
  30.5899967  63.3332885  76.0094703  29.1178119  63.1878640  76.3310342
  27.0343655  66.9189639  68.8966485  26.1041243  66.8574094  69.1136447
  27.1301127  66.3965591  68.1003126  26.9529204  63.4444451  71.4844726
  27.2136022  64.3589785  71.3753887  27.7746377  62.9768894  71.6341339
  28.4254130  64.8582209  78.6543551  29.0977183  64.6499571  78.0056200
  27.5983916  64.6604295  78.2148783  34.3279702  61.4844149  80.6709212
  33.6807617  62.1834099  80.5773688  35.0980717  61.9180293  81.0385460
  34.5043836  69.3224914  78.7306031  35.4335896  69.4736074  78.5574999
  34.0834866  69.4108935  77.8754678  28.8281627  68.1324812  79.4145988
  28.6901425  67.4005050  80.0157527  29.7386550  68.0433712  79.1330176
  31.4563928  67.8444771  78.9029668  32.1663546  67.2037963  78.8616286
  31.4133236  68.0957666  79.8255848  30.1692862  64.8309989  80.7225307
  29.6330219  64.3800727  81.3746904  29.5809570  64.9655898  79.9795772
  28.4641405  81.5974038  74.6169966  28.7038003  82.2292562  75.2948984
  27.6210602  81.2462078  74.9035325  21.0997261  69.0775800  73.3793278
  21.7868301  68.7637530  72.7914293  20.9445389  69.9817165  73.1060529
  25.9031983  63.9665996  77.8078302  25.8190172  63.3591666  77.0728712
  25.0814689  64.4575015  77.8087798  30.4879864  75.0534438  79.9975199
  31.1889324  75.6870921  80.1504594  30.0174979  75.3949170  79.2370839
  26.0847582  74.5870793  76.9306302  26.6701019  73.8414481  77.0634206
  25.8872421  74.8974750  77.8142966  20.6765237  67.1576393  75.6510745
  20.7149336  66.6239984  76.4447863  20.1705530  66.6311599  75.0321722
  33.0791506  79.6565784  78.5451403  33.6309814  79.8197405  79.3100488
  33.4197699  80.2470222  77.8731428  28.0555999  62.0040934  79.1473287
  28.1197326  62.8655765  78.7350685  27.9923119  61.3914935  78.4145646
  27.5308272  64.0764066  82.7946322  28.1580310  63.6941144  83.4083846
  26.6736191  63.8578268  83.1602014  24.3073814  65.8840495  68.7264676
  24.6027256  64.9751174  68.6731730  23.4061850  65.8628235  68.4045679
  27.8368061  63.9596492  74.7092225  27.1154647  64.5732460  74.5699698
  28.6261317  64.4954257  74.6308871  30.6394375  61.2950918  80.9832877
  31.1628777  61.5413215  81.7459186  30.4206708  62.1270953  80.5636014
  26.0361656  63.5654593  68.8504002  25.7074362  62.6851972  68.6679108
  26.3901027  63.5102262  69.7380391  32.4963392  59.3213926  77.1209870
  33.3189461  58.8474404  76.9988761  32.7401455  60.1004410  77.6208557
  30.0201971  66.0133047  74.9301849  29.8746551  66.3273350  75.8226131
  29.5427174  66.6317947  74.3772748  24.4947633  68.5538391  77.8689510
  23.9501101  69.3298199  78.0009785  25.3726983  68.9009195  77.7108632
  25.2813655  67.6808287  80.7619667  24.5395391  67.8290923  81.3484297
  24.9606399  67.9416553  79.8986416  33.2477929  79.3762175  72.7905434
  32.8082920  78.8838554  73.4838290  33.9986046  78.8335143  72.5497509
  30.6951801  74.9200184  74.8627735  30.0731811  74.2570889  74.5629963
  31.3656668  74.9461316  74.1801383  23.9278873  73.4860042  73.7518995
  23.0910782  73.0582217  73.5702997  23.9002519  73.6792486  74.6889786
  30.7676329  63.3981972  84.4560241  30.8164484  64.2744095  84.0738011
  31.3098843  62.8559365  83.8831885  32.9975617  64.1513345  81.2106600
  32.1278927  64.4446911  80.9389189  33.2335098  64.7353790  81.9313864
  23.2428370  66.5469391  73.5367927  22.9231154  65.6934699  73.2442301
  22.6961798  66.7617969  74.2925895  27.0208277  69.2631832  77.2537434
  27.2394287  70.1948939  77.2725468  27.4334051  68.9039806  78.0392238
  31.8936143  64.8365037  86.6440183  31.7932870  65.7859394  86.5752274
  31.6757685  64.5083276  85.7716253  31.0949214  62.0849962  63.2280860
  31.9568378  62.4104861  63.4876678  31.2799558  61.2981458  62.7153926
  23.1116630  70.1672302  75.5061049  22.4180101  69.7526255  74.9931003
  23.8589621  70.2092839  74.9094468  25.0253372  70.0990556  73.3827064
  25.0024061  70.1978243  72.4308947  25.3354009  70.9455707  73.7044230
  27.6840750  72.1566711  77.4973678  28.6384004  72.1250653  77.4303610
  27.4853274  71.6957335  78.3123904  28.2740132  70.7267827  80.0644476
  29.0933021  71.2211906  80.0879313  28.5476940  69.8099795  80.0362043
  26.0390979  77.6986330  74.5143876  25.9045447  76.9386731  73.9481874
  25.6223041  78.4227230  74.0472665  29.1960105  78.5955647  74.7262319
  29.0792489  79.5401080  74.6241009  28.3752551  78.2929209  75.1148118
  23.5275047  65.0605961  80.7636673  24.1733910  64.5504915  81.2523898
  23.3192198  65.7974642  81.3380098  30.2214619  79.2483909  77.9418247
  31.1241866  79.2807520  78.2584742  29.9951989  78.3184360  77.9564583
  31.9768221  78.0014896  74.6028326  31.0263852  78.0016757  74.4892698
  32.2800707  77.2547630  74.0864360  27.8672538  62.2073578  84.8611687
  28.7303999  61.8510383  85.0715012  27.2937948  61.8687473  85.5487091
  47.7120915  83.8375434  75.6674088  48.3499325  83.7182182  74.9637428
  47.5941757  84.7856278  75.7262040  44.5210621  83.7902862  75.6035613
  44.1829132  83.6743927  74.7156148  45.3900389  83.3894027  75.5836619
  40.3797437  85.6438339  71.5932504  39.8162302  85.5528276  70.8248792
  40.2649832  84.8238243  72.0734996  45.0030404  84.9437714  81.5621818
  44.9919045  84.5490512  80.6902322  45.1651043  84.2103787  82.1555590
  37.9261869  87.1389530  74.4316724  38.7183160  86.7980355  74.0163024
  38.1658519  87.2484505  75.3518878  45.9596995  89.3109306  66.9046969
  45.3084975  89.8963387  66.5180983  46.7541358  89.8415501  66.9642006
  39.8852622  86.3998444  67.3034103  40.6583498  85.8527431  67.1646979
  40.2378021  87.2642693  67.5148565  41.7237665  87.7274826  80.5101002
  41.4327531  88.6320457  80.3947669  42.3594649  87.7691353  81.2245072
  42.6493872  85.1051674  77.1002362  43.2457444  84.8807697  76.3859325
  42.7068843  84.3636420  77.7027810  42.2218900  82.5591110  64.9352553
  42.4744421  82.0372631  64.1736016  41.2843459  82.3957255  65.0379237
  47.4372260  86.9999738  67.4415953  46.8018093  87.0734365  68.1536858
  47.1069667  87.5893337  66.7635032  41.9415189  84.4619216  67.1376928
  41.8251447  83.7864119  67.8058012  42.0517449  83.9751590  66.3209081
  44.2846730  83.9229363  70.8423617  43.9204937  83.3959984  71.5536539
  45.1413846  83.5327832  70.6690103  46.6827550  87.4136241  77.5050796
  46.3828273  88.3161280  77.3966603  46.3378610  87.1468425  78.3571949
  43.9041438  81.4076920  66.8231633  43.7841063  81.8533971  67.6617113
  43.2094026  81.7562238  66.2645171  37.4948843  83.5083312  74.3731290
  37.6241224  83.7617791  75.2870701  36.8146294  84.1011020  74.0535945
  41.6648330  94.1780562  70.4721764  41.5872360  95.1288387  70.5510244
  41.0609973  93.8326434  71.1296690  42.4111932  84.1593880  82.6901098
  43.1526616  84.6978924  82.4135921  41.7048917  84.7860169  82.8472650
  47.8867272  86.3023021  81.2873259  48.2950628  85.8605431  80.5427892
  47.1644533  85.7275648  81.5407452  44.2398342  81.2395628  78.6606816
  45.0859537  81.6635041  78.8041465  44.1796979  80.5829252  79.3545379
  48.2096086  86.8624212  75.0425548  47.5804949  87.0269926  74.3401616
  47.8221748  87.2765821  75.8136512  52.0885318  87.7978649  72.3969912
  51.4036356  88.1777551  71.8466945  52.1729167  88.4073976  73.1301860
  49.3436250  85.4438608  78.9965255  49.5553145  86.0870368  78.3199636
  49.2965998  84.6100925  78.5287185  43.7624048  86.5998620  72.3075633
  44.2262394  86.8786323  71.5180256  43.4980846  85.6982064  72.1248724
  40.6548129  86.1470101  75.2455396  41.2249486  86.5757370  74.6072881
  41.2456241  85.8652686  75.9439582  42.6992934  82.7221772  69.1165198
  43.4016978  83.1742816  69.5839125  42.3673563  82.0805591  69.7445091
  41.1473296  81.3133529  83.4916408  40.5171956  81.9949810  83.7251805
  41.0409384  81.2016610  82.5469546  50.4582078  88.3210564  77.1687613
  51.2799521  87.9190751  76.8870294  50.4544481  88.2178798  78.1203729
  44.2238681  87.8694607  79.3248323  44.2883114  88.3315014  80.1606495
  43.5149605  87.2391972  79.4530633  34.7255971  81.2335815  76.8497323
  34.9764010  82.1182825  77.1154899  35.2615520  81.0540417  76.0772415
  43.9386699  89.5362715  69.1927304  43.8032374  90.3814250  69.6212151
  44.4796511  89.7381992  68.4293237  37.3916096  87.0538153  69.7655229
  37.9040617  87.8481403  69.9160793  38.0438809  86.3564443  69.6988830
  39.2010981  90.1703909  71.8477982  39.3777609  91.0921874  71.6598966
  39.9967814  89.8562328  72.2772362  38.4863337  82.2168541  81.7240145
  38.3716853  81.3153798  82.0247244  37.6307855  82.4632238  81.3724962
  45.5655175  90.1586281  83.3227646  45.1219029  89.3722660  83.0048550
  46.2272389  90.3465432  82.6571536  40.3242296  91.6882083  77.8488324
  40.8749721  91.5599146  77.0765318  39.4853772  91.9876972  77.4983217
  47.6636413  90.4389081  81.3509047  47.6454889  91.2597962  80.8589316
  48.5856333  90.3143156  81.5759188  44.1209467  87.9533211  82.1932555
  44.6537804  87.1921499  81.9631863  43.5923549  87.6606862  82.9356710
  35.3565013  85.3826807  70.5414799  36.1940235  85.7923815  70.3248507
  35.5343281  84.4426249  70.5114993  47.2529445  83.0501888  66.2298632
  46.7376069  83.8206492  66.4687020  46.9806754  82.3767024  66.8531694
  45.4862180  87.0819203  69.7051367  44.9583542  86.3471963  69.3924605
  44.9849683  87.8593879  69.4591336  50.4655026  85.2768224  74.8218414
  49.8078701  85.9667485  74.9098542  51.2695425  85.6664655  75.1652400
  43.6314780  84.8999413  62.7086340  42.7241842  84.6688667  62.9077489
  44.1285812  84.1037033  62.8960322  46.5382859  93.6096921  65.6283026
  45.8644558  93.9128617  66.2367984  46.9248681  94.4126001  65.2788484
  44.8103014  85.0012008  67.2310330  43.9014233  84.7171041  67.3282800
  44.8398098  85.4211087  66.3713637  50.0422281  88.6118598  71.0001498
  49.5884608  87.7709508  71.0566688  49.4116248  89.2479996  71.3376278
  48.4855220  90.4495094  71.9351316  48.7778195  91.0100151  71.2163682
  48.9953841  90.7423655  72.6904475  35.3791184  82.7217522  71.2125533
  35.1815584  82.1286883  70.4876599  34.8237848  82.4169733  71.9301471
  43.3587908  82.6140629  73.3320126  43.4136518  81.6614465  73.2562602
  42.5479110  82.7700068  73.8161424  44.5079102  86.5420752  64.5698409
  44.0698531  85.8256611  64.1104046  45.2489542  86.7696867  64.0083500
  43.4488846  91.2275445  73.0244769  43.4065024  91.4536292  72.0953301
  44.3651544  90.9938820  73.1730570  46.8954479  81.6959513  79.9225399
  47.2503867  81.9230986  80.7819864  47.5426611  82.0277890  79.3002654
  52.6521596  86.8854476  75.6385999  53.0858103  86.7929765  76.4869053
  53.3653177  86.8611976  75.0006015  41.5654646  88.1038474  72.8206732
  42.3595245  87.6088795  72.6189307  40.8546339  87.5756338  72.4574438
  46.3849491  90.4856570  77.1719100  46.4386513  91.0547506  77.9396816
  45.5164272  90.6558455  76.8073137  39.2647884  80.1874126  78.6543551
  39.9370938  79.9791488  78.0056200  38.4377671  79.9896212  78.2148783
  53.5137145  86.9278177  78.1718884  53.7073036  87.8323987  78.4178159
  53.4137764  86.4685596  79.0057469  48.5752254  87.0784919  83.7459765
  48.4237761  86.8495471  82.8289849  48.5656934  88.0355521  83.7591110
  45.3437591  84.6516832  78.7306031  46.2729651  84.8027992  78.5574999
  44.9228621  84.7400853  77.8754678  44.1425922  88.6767496  76.5004569
  44.0037008  88.3086281  77.3730507  43.3540519  89.1915136  76.3288527
  44.7374074  93.7776593  67.8430106  44.9125830  93.3064636  68.6575728
  44.0506862  94.4042359  68.0711366  45.6931138  88.0549099  73.8893407
  45.3580970  88.0149869  74.7851057  45.1935083  87.3893815  73.4163817
  39.6675381  83.4616729  79.4145988  39.5295179  82.7296968  80.0157527
  40.5780305  83.3725629  79.1330176  42.2957682  83.1736689  78.9029668
  43.0057301  82.5329881  78.8616286  42.2526990  83.4249583  79.8255848
  50.2844461  90.1104042  81.8236247  50.2257007  89.4263262  81.1566830
  50.6863979  90.8523032  81.3716873  41.0086616  80.1601906  80.7225307
  40.4723973  79.7092645  81.3746904  40.4203325  80.2947815  79.9795772
  39.3035160  96.9265956  74.6169966  39.5431758  97.5584480  75.2948984
  38.4604356  96.5753996  74.9035325  50.2861868  88.0743626  80.0550227
  49.3988647  87.7369548  80.1776625  50.8560419  87.3426657  80.2918992
  31.9391015  84.4067718  73.3793278  32.6262055  84.0929448  72.7914293
  31.7839144  85.3109082  73.1060529  43.8163021  92.7345078  77.0211470
  43.7433193  93.5400050  77.5330774  43.3740415  92.9337044  76.1959491
  43.6052801  91.9716848  70.5314291  42.8220323  92.5138528  70.6252516
  44.3045546  92.4890828  70.9308533  46.2761705  92.6331912  79.1769628
  46.9889677  93.2679377  79.1045530  45.7851734  92.7295778  78.3609630
  47.9979232  86.5383165  70.7486920  47.0635511  86.6584627  70.5791624
  48.1755900  85.6355632  70.4846930  41.3273619  90.3826356  79.9975199
  42.0283078  91.0162839  80.1504594  40.8568734  90.7241087  79.2370839
  49.4528014  88.7244305  68.2823106  49.7287858  88.6100900  69.1916980
  48.5832513  88.3261790  68.2435279  49.1274904  82.9370963  77.8227750
  48.4746355  83.1846871  77.1680202  49.5055284  82.1235101  77.4890227
  46.0882078  92.9730656  71.9255920  46.2704473  92.1552312  72.3883672
  46.9115064  93.1898349  71.4880810  46.4224244  91.8998841  69.1870968
  46.9512010  91.3891296  68.5741131  46.6852463  91.5841372  70.0516501
  45.1762478  83.6790774  84.3093787  44.5003115  83.5784903  84.9796162
  45.9990111  83.5229988  84.7729784  36.9241337  89.9162711  76.9306302
  37.5094773  89.1706399  77.0634206  36.7266175  90.2266667  77.8142966
  39.7779992  92.9513958  71.9468744  39.1090367  93.4360086  71.4632784
  39.6392862  93.1983179  72.8612123  31.5158991  82.4868311  75.6510745
  31.5543091  81.9531902  76.4447863  31.0099284  81.9603516  75.0321722
  43.9185260  94.9857702  78.5451403  44.4703568  95.1489323  79.3100488
  44.2591454  95.5762139  77.8731428  38.3702026  79.4055984  82.7946322
  38.9974065  79.0233061  83.4083846  37.5129945  79.1870186  83.1602014
  48.7696135  89.8118959  84.4000057  49.3136039  90.4248917  83.9055012
  48.1882980  90.3698538  84.9167070  35.1467569  81.2132413  68.7264676
  35.4421010  80.3043091  68.6731730  34.2455605  81.1920152  68.4045679
  47.0553648  92.9339677  75.5315085  46.9304787  92.1329417  75.0226030
  47.7132739  93.4285870  75.0429055  49.1188556  90.7348697  77.1594635
  48.1718892  90.6154048  77.0872962  49.4671329  89.8471195  77.2420896
  46.1234989  90.5301413  73.3598987  45.9759952  89.6018121  73.5406557
  46.9488483  90.5521504  72.8756062  49.7269111  91.3529972  74.4463860
  50.6515659  91.1472833  74.3088311  49.5584415  91.1046373  75.3553201
  49.5164427  91.8715640  69.8025951  49.6901305  91.3062062  69.0499804
  50.0093319  92.6716534  69.6205441  35.3341387  83.8830309  77.8689510
  34.7894855  84.6590117  78.0009785  36.2120737  84.2301113  77.7108632
  50.5039600  91.1882404  66.9022850  51.1990505  91.8089097  67.1210164
  50.8462750  90.3377755  67.1775228  36.1207409  83.0100205  80.7619667
  35.3789145  83.1582840  81.3484297  35.8000153  83.2708471  79.8986416
  44.0651072  92.5516183  80.5600057  44.3738198  92.3065330  81.4322757
  44.8626554  92.7562822  80.0718927  44.0871684  94.7054093  72.7905434
  43.6476674  94.2130472  73.4838290  44.8379801  94.1627060  72.5497509
  36.5664023  90.8965634  72.7930062  37.3922043  90.5969406  72.4128705
  36.2158075  90.1273256  73.2419850  41.5345556  90.2492102  74.8627735
  40.9125565  89.5862807  74.5629963  42.2050423  90.2753234  74.1801383
  34.7672628  88.8151960  73.7518995  33.9304536  88.3874134  73.5702997
  34.7396273  89.0084403  74.6889786  52.0924929  89.2715013  83.7361378
  51.3020473  89.2539152  83.1965878  51.8558284  89.8103307  84.4910415
  52.2122804  86.1207480  81.0494107  52.2620809  85.9557487  81.9909630
  52.1036727  85.2534739  80.6591988  41.0959063  88.7996025  68.3386196
  41.2447183  89.4831490  67.6852869  41.9025506  88.7801115  68.8535652
  49.5026567  82.1038408  82.3653414  50.4036429  81.9644872  82.0737411
  49.5774541  82.2692862  83.3051591  53.7141001  88.5404421  81.2936128
  53.4225809  88.9034402  82.1299589  53.1013132  87.8271429  81.1149461
  51.9628189  83.6637036  79.7616186  52.4382311  83.8564682  78.9535038
  51.0393755  83.7196222  79.5159570  38.8511696  84.8261203  69.3447265
  38.6057738  83.9223533  69.5427475  39.0207610  84.8278353  68.4026743
  44.5954468  91.2944156  65.8097943  44.0228435  91.9134343  65.3568415
  45.1687262  91.8443517  66.3437865  47.8151728  91.5781306  66.9406526
  48.7482401  91.5126868  67.1439401  47.7274941  92.4137573  66.4821058
  50.4439745  90.8947176  63.9010473  50.3653376  90.5607040  64.7946231
  51.2649412  91.3868944  63.9001945  44.8639959  86.6822715  84.6114653
  45.7842969  86.8601314  84.8054699  44.8289542  85.7378760  84.4594352
  34.0822124  81.8761308  73.5367927  33.7624909  81.0226616  73.2442301
  33.5355553  82.0909886  74.2925895  37.8602032  84.5923749  77.2537434
  38.0788042  85.5240857  77.2725468  38.2727806  84.2331724  78.0392238
  42.7329897  80.1656955  86.6440183  42.6326624  81.1151312  86.5752274
  42.5151439  79.8375194  85.7716253  33.9510384  85.4964220  75.5061049
  33.2573856  85.0818173  74.9931003  34.6983375  85.5384756  74.9094468
  42.5961167  83.5954094  85.4605244  42.1128249  84.3954454  85.6669134
  42.6822106  83.6062039  84.5072688  35.8647127  85.4282474  73.3827064
  35.8417815  85.5270161  72.4308947  36.1747763  86.2747624  73.7044230
  38.5234505  87.4858629  77.4973678  39.4777758  87.4542571  77.4303610
  38.3247028  87.0249252  78.3123904  39.1133887  86.0559745  80.0644476
  39.9326776  86.5503823  80.0879313  39.3870695  85.1391713  80.0362043
  36.8784734  93.0278248  74.5143876  36.7439202  92.2678649  73.9481874
  36.4616796  93.7519148  74.0472665  48.0143697  88.2115172  63.5220451
  48.7179547  88.4165174  64.1378107  47.2906345  88.7791933  63.7869535
  40.0353859  93.9247565  74.7262319  39.9186244  94.8692998  74.6241009
  39.2146306  93.6221127  75.1148118  49.9230394  88.6497701  65.5718911
  50.7575998  88.2178899  65.3896386  49.7614737  88.4779714  66.4995806
  49.5776286  85.1529814  66.9375251  49.5225090  84.9874086  65.9963695
  48.9522341  85.8605847  67.0937440  34.3668801  80.3897878  80.7636673
  35.0127665  79.8796832  81.2523898  34.1585952  81.1266560  81.3380098
  46.8922193  87.4578726  86.2628814  47.7613353  87.6319378  85.9015448
  46.4128945  88.2773143  86.1404543  41.0608374  94.5775827  77.9418247
  41.9635620  94.6099437  78.2584742  40.8345744  93.6476278  77.9564583
  42.8161976  93.3306813  74.6028326  41.8657607  93.3308675  74.4892698
  43.1194462  92.5839548  74.0864360  58.5514669  99.1667352  75.6674088
  59.1893079  99.0474099  74.9637428  58.4335512 100.1148196  75.7262040
  55.3604375  99.1194780  75.6035613  55.0222887  99.0035845  74.7156148
  56.2294144  98.7185945  75.5836619  51.2191191 100.9730256  71.5932504
  50.6556056 100.8820193  70.8248792  51.1043586 100.1530161  72.0734996
  55.8424158 100.2729632  81.5621818  55.8312799  99.8782430  80.6902322
  56.0044798  99.5395704  82.1555590  48.7655623 102.4681448  74.4316724
  49.5576915 102.1272273  74.0163024  49.0052273 102.5776423  75.3518878
  56.7990750 104.6401224  66.9046969  56.1478730 105.2255305  66.5180983
  57.5935113 105.1707419  66.9642006  50.7246377 101.7290361  67.3034103
  51.4977253 101.1819348  67.1646979  51.0771776 102.5934611  67.5148565
  52.5631420 103.0566744  80.5101002  52.2721285 103.9612374  80.3947669
  53.1988404 103.0983271  81.2245072  53.4887626 100.4343592  77.1002362
  54.0851199 100.2099614  76.3859325  53.5462598  99.6928338  77.7027810
  53.0612655  97.8883027  64.9352553  53.3138175  97.3664549  64.1736016
  52.1237214  97.7249173  65.0379237  58.1055938  96.8918806  72.7427296
  58.8919027  96.4738229  72.3917713  58.3694642  97.7964898  72.9108945
  58.2766015 102.3291656  67.4415953  57.6411848 102.4026283  68.1536858
  57.9463421 102.9185255  66.7635032  63.5064365  96.8294039  73.6460275
  64.2389537  96.2593256  73.8798104  62.7503720  96.4415639  74.0866780
  52.7808943  99.7911133  67.1376928  52.6645202  99.1156037  67.8058012
  52.8911203  99.3043507  66.3209081  55.1240484  99.2521280  70.8423617
  54.7598692  98.7251901  71.5536539  55.9807600  98.8619749  70.6690103
  61.0289785  90.5415613  78.1054883  60.6973110  91.4111024  77.8816098
  60.4335398  90.2251897  78.7848914  54.7645971  94.2811180  65.8384966
  54.9320374  95.1491417  66.2055437  54.5743140  94.4438462  64.9146255
  57.5221305 102.7428159  77.5050796  57.2222028 103.6453198  77.3966603
  57.1772364 102.4760342  78.3571949  50.9733786  99.1941956  73.5387501
  50.0484283  99.0618170  73.7465192  51.2218199  99.9736175  74.0357443
  60.9218448  95.2610699  75.1848233  60.0135326  95.1926108  74.8906994
  60.8706044  95.7382644  76.0130059  54.7435192  96.7368838  66.8231633
  54.6234817  97.1825888  67.6617113  54.0487781  97.0854155  66.2645171
  48.3342597  98.8375229  74.3731290  48.4634978  99.0909708  75.2870701
  47.6540048  99.4302937  74.0535945  52.5042084 109.5072479  70.4721764
  52.4266114 110.4580304  70.5510244  51.9003728 109.1618352  71.1296690
  54.9959314  96.6800345  83.1283131  54.2192648  97.2394265  83.1185995
  55.6349877  97.1657128  83.6498001  62.7880095  93.4627138  76.9626107
  62.1454475  93.7559671  76.3165902  62.2835023  93.3480058  77.7679304
  60.4420258  97.2090311  67.6511967  61.3538115  97.4417698  67.4759664
  59.9329906  97.7927355  67.0887045  53.2505686  99.4885798  82.6901098
  53.9920371 100.0270842  82.4135921  52.5442672 100.1152087  82.8472650
  58.7261026 101.6314939  81.2873259  59.1344382 101.1897349  80.5427892
  58.0038288 101.0567566  81.5407452  55.0792096  96.5687545  78.6606816
  55.9253291  96.9926959  78.8041465  55.0190734  95.9121170  79.3545379
  59.0489841 102.1916129  75.0425548  58.4198703 102.3561843  74.3401616
  58.6615503 102.6057739  75.8136512  62.9279073 103.1270567  72.3969912
  62.2430111 103.5069468  71.8466945  63.0122922 103.7365894  73.1301860
  58.2291541  94.2291914  80.3187990  57.9852473  94.9833974  79.7822265
  58.5051472  94.6077261  81.1535237  60.1830004 100.7730526  78.9965255
  60.3946899 101.4162286  78.3199636  60.1359753  99.9392843  78.5287185
  57.7856233  93.3848347  75.9001828  56.9240712  93.6829600  76.1918565
  57.8118668  93.6018746  74.9682860  54.6017803 101.9290537  72.3075633
  55.0656148 102.2078240  71.5180256  54.3374601 101.0273982  72.1248724
  51.4941884 101.4762019  75.2455396  52.0643241 101.9049287  74.6072881
  52.0849996 101.1944604  75.9439582  53.5386689  98.0513690  69.1165198
  54.2410732  98.5034733  69.5839125  53.2067317  97.4097509  69.7445091
  51.9867050  96.6425446  83.4916408  51.3565711  97.3241727  83.7251805
  51.8803138  96.5308528  82.5469546  47.2812023  96.3097242  74.4182332
  46.4911077  96.5654771  73.9422443  47.7723270  97.1245580  74.5234372
  61.2975832 103.6502482  77.1687613  62.1193276 103.2482669  76.8870294
  61.2938235 103.5470716  78.1203729  49.2326768  96.6741822  71.3765809
  48.4357931  96.7860516  71.8949304  49.0052360  97.0128474  70.5106699
  55.0632436 103.1986525  79.3248323  55.1276868 103.6606932  80.1606495
  54.3543360 102.5683890  79.4530633  45.5649726  96.5627733  76.8497323
  45.8157764  97.4474743  77.1154899  46.1009274  96.3832334  76.0772415
  69.3881825  99.9941230  73.5172584  68.6345534  99.4248628  73.3616589
  69.5229366  99.9603895  74.4643219  54.7780453 104.8654632  69.1927304
  54.6426128 105.7106168  69.6212151  55.3190266 105.0673910  68.4293237
  51.2647793  90.9446212  85.8541659  50.8714739  90.3912411  86.5289303
  52.0813933  91.2556791  86.2448176  48.2309851 102.3830070  69.7655229
  48.7434371 103.1773321  69.9160793  48.8832564 101.6856361  69.6988830
  50.0404735 105.4995827  71.8477982  50.2171364 106.4213791  71.6598966
  50.8361569 105.1854246  72.2772362  54.1815754  92.3604091  83.4461915
  54.9225467  92.9611244  83.3666378  54.4133677  91.6181729  82.8879958
  49.3257092  97.5460459  81.7240145  49.2110607  96.6445716  82.0247244
  48.4701610  97.7924155  81.3724962  56.4048930 105.4878199  83.3227646
  55.9612784 104.7014577  83.0048550  57.0666143 105.6757349  82.6571536
  51.1636051 107.0174000  77.8488324  51.7143476 106.8891064  77.0765318
  50.3247527 107.3168889  77.4983217  58.5030168 105.7680999  81.3509047
  58.4848643 106.5889880  80.8589316  59.4250088 105.6435074  81.5759188
  54.9603222 103.2825128  82.1932555  55.4931559 102.5213416  81.9631863
  54.4317303 102.9898780  82.9356710  46.1958767 100.7118725  70.5414799
  47.0333989 101.1215733  70.3248507  46.3737035  99.7718167  70.5114993
  58.0923200  98.3793805  66.2298632  57.5769823  99.1498410  66.4687020
  57.8200508  97.7058941  66.8531694  55.6770311  93.2243506  71.2883870
  54.8211907  92.8350356  71.1089509  56.0897262  93.3035467  70.4283656
  57.2069457  90.7589849  75.6875430  56.7034253  90.7219985  74.8743236
  57.5000064  91.6682592  75.7472087  53.4512343  90.8428579  74.6941612
  54.3165340  90.6471388  74.3347501  53.5189852  90.6138931  75.6210969
  63.0657474 101.1326160  68.1651806  62.2886916 100.7937319  67.7206968
  63.7448955 101.1378783  67.4906771  57.8809503  96.2520897  68.0558413
  57.5759638  96.5667047  68.9068556  58.8339945  96.3302317  68.0985746
  56.3255935 102.4111121  69.7051367  55.7977296 101.6763880  69.3924605
  55.8243437 103.1885797  69.4591336  61.3048781 100.6060141  74.8218414
  60.6472455 101.2959403  74.9098542  62.1089180 100.9956573  75.1652400
  51.0574662  93.0730787  72.0657979  51.6318414  92.8505969  71.3331172
  51.6445645  93.1419482  72.8186580  60.1154239  98.9604514  72.8722355
  60.6286121  99.5934506  73.3744065  60.7655463  98.3605709  72.5065715
  51.3844249  95.1035248  66.0853864  50.5481562  95.4409935  66.4063139
  51.2449019  94.9684228  65.1481001  53.3597330  89.9472036  70.7933048
  52.7061742  89.6321053  70.1689663  53.3177804  89.3247776  71.5192871
  54.4708535 100.2291331  62.7086340  53.5635597  99.9980584  62.9077489
  54.9679567  99.4328950  62.8960322  57.3776614 108.9388838  65.6283026
  56.7038312 109.2420535  66.2367984  57.7642436 109.7417919  65.2788484
  56.5935070  96.4353969  75.1180696  55.6757632  96.6568916  74.9602384
  57.0095214  96.5100280  74.2592403  57.3770118  97.8345385  70.2483376
  58.1241937  98.3466782  69.9390498  57.6461708  97.5129438  71.1087770
  55.6496768 100.3303926  67.2310330  54.7407987 100.0462959  67.3282800
  55.6791852 100.7503004  66.3713637  60.8816036 103.9410515  71.0001498
  60.4278363 103.1001425  71.0566688  60.2510002 104.5771914  71.3376278
  59.8248955  94.8702501  72.2302165  59.0871712  94.3579888  72.5612408
  60.0775729  94.4302883  71.4185442  59.3248975 105.7787012  71.9351316
  59.6171949 106.3392069  71.2163682  59.8347595 106.0715573  72.6904475
  46.2184939  98.0509440  71.2125533  46.0209338  97.4578801  70.4876599
  45.6631603  97.7461650  71.9301471  54.1981662  97.9432546  73.3320126
  54.2530272  96.9906383  73.2562602  53.3872864  98.0991986  73.8161424
  55.3472856 101.8712670  64.5698409  54.9092286 101.1548528  64.1104046
  56.0883297 102.0988784  64.0083500  52.1374022  96.5609606  71.0910505
  51.3241888  96.8603777  71.4975697  52.6333016  96.1665295  71.8084987
  54.2882600 106.5567363  73.0244769  54.2458779 106.7828209  72.0953301
  55.2045299 106.3230738  73.1730570  57.7348234  97.0251431  79.9225399
  58.0897622  97.2522904  80.7819864  58.3820365  97.3569807  79.3002654
  63.4645971 100.1469867  70.6274728  63.3263869 100.3371463  69.6995917
  63.1082190 100.9089249  71.0842779  51.6288097  94.1327962  76.7071740
  52.2687476  93.9916721  76.0094703  50.7965627  93.8462475  76.3310342
  63.4915350 102.2146394  75.6385999  63.9251857 102.1221683  76.4869053
  64.2046931 102.1903894  75.0006015  52.4048401 103.4330392  72.8206732
  53.1988999 102.9380712  72.6189307  51.6940093 102.9048255  72.4574438
  57.2243245 105.8148488  77.1719100  57.2780268 106.3839424  77.9396816
  56.3558027 105.9850373  76.8073137  48.7131164  97.5773474  68.8966485
  47.7828752  97.5157929  69.1136447  48.8088636  97.0549427  68.1003126
  48.6316713  94.1028287  71.4844726  48.8923531  95.0173620  71.3753887
  49.4533886  93.6352729  71.6341339  50.1041639  95.5166044  78.6543551
  50.7764692  95.3083406  78.0056200  49.2771425  95.3188130  78.2148783
  64.3530900 102.2570094  78.1718884  64.5466790 103.1615905  78.4178159
  64.2531518 101.7977513  79.0057469  56.0067211  92.1427985  80.6709212
  55.3595126  92.8417934  80.5773688  56.7768226  92.5764129  81.0385460
  59.4146009 102.4076837  83.7459765  59.2631515 102.1787389  82.8289849
  59.4050688 103.3647438  83.7591110  56.1831345  99.9808750  78.7306031
  57.1123405 100.1319909  78.5574999  55.7622375 100.0692771  77.8754678
  54.9819677 104.0059414  76.5004569  54.8430763 103.6378199  77.3730507
  54.1934273 104.5207054  76.3288527  55.5767829 109.1068511  67.8430106
  55.7519585 108.6356554  68.6575728  54.8900617 109.7334277  68.0711366
  56.5324892 103.3841017  73.8893407  56.1974725 103.3441787  74.7851057
  56.0328838 102.7185733  73.4163817  50.5069136  98.7908647  79.4145988
  50.3688934  98.0588886  80.0157527  51.4174059  98.7017547  79.1330176
  59.4684084 100.7297051  64.1630467  58.8513254 100.0043879  64.0663519
  59.0000572 101.4906411  63.8197541  53.1351437  98.5028606  78.9029668
  53.8451055  97.8621798  78.8616286  53.0920745  98.7541501  79.8255848
  61.1238215 105.4395960  81.8236247  61.0650761 104.7555180  81.1566830
  61.5257734 106.1814950  81.3716873  51.8480371  95.4893824  80.7225307
  51.3117728  95.0384563  81.3746904  51.2597079  95.6239733  79.9795772
  50.1428914 112.2557873  74.6169966  50.3825512 112.8876398  75.2948984
  49.2998111 111.9045913  74.9035325  51.2582630  94.9482475  63.2851771
  50.3812096  94.8271276  62.9214018  51.7340383  94.1568554  63.0330659
  61.1255623 103.4035543  80.0550227  60.2382401 103.0661465  80.1776625
  61.6954174 102.6718575  80.2918992  42.7784770  99.7359635  73.3793278
  43.4655810  99.4221365  72.7914293  42.6232898 100.6401000  73.1060529
  47.5819492  94.6249832  77.8078302  47.4977681  94.0175501  77.0728712
  46.7602198  95.1158850  77.8087798  54.6556776 108.0636996  77.0211470
  54.5826947 108.8691967  77.5330774  54.2134169 108.2628962  76.1959491
  54.4446556 107.3008766  70.5314291  53.6614077 107.8430446  70.6252516
  55.1439301 107.8182745  70.9308533  57.7543206  93.1103395  73.1748497
  58.2511905  92.3573358  72.8549567  56.9830187  93.1467712  72.6091706
  65.6072963  98.8143761  74.8166788  65.5962839  99.6968476  74.4460721
  64.7390343  98.4615312  74.6221325  57.1155459 107.9623830  79.1769628
  57.8283432 108.5971295  79.1045530  56.6245488 108.0587696  78.3609630
  58.8372986 101.8675083  70.7486920  57.9029265 101.9876545  70.5791624
  59.0149655 100.9647549  70.4846930  54.3378174  95.2520778  72.9020181
  53.9675962  94.6991819  73.5901087  54.8337267  94.6478912  72.3495181
  62.2245538  97.7092402  71.2836954  62.6905990  98.5420393  71.2097257
  62.6753038  97.2437383  71.9882213  52.1667373 105.7118273  79.9975199
  52.8676833 106.3454756  80.1504594  51.6962488 106.0533005  79.2370839
  60.2921769 104.0536223  68.2823106  60.5681613 103.9392818  69.1916980
  59.4226268 103.6553708  68.2435279  60.1962200  90.0772989  75.3227856
  59.2825280  90.3077216  75.4910063  60.6255302  90.1611433  76.1741888
  59.9668659  98.2662881  77.8227750  59.3140109  98.5138788  77.1680202
  60.3449039  97.4527019  77.4890227  56.9275833 108.3022574  71.9255920
  57.1098227 107.4844230  72.3883672  57.7508819 108.5190266  71.4880810
  57.2617998 107.2290759  69.1870968  57.7905765 106.7183214  68.5741131
  57.5246218 106.9133289  70.0516501  56.0156232  99.0082692  84.3093787
  55.3396869  98.9076821  84.9796162  56.8383866  98.8521906  84.7729784
  47.7635091 105.2454628  76.9306302  48.3488528 104.4998316  77.0634206
  47.5659930 105.5558585  77.8142966  50.6173746 108.2805876  71.9468744
  49.9484122 108.7652003  71.4632784  50.4786616 108.5275096  72.8612123
  42.3552746  97.8160229  75.6510745  42.3936845  97.2823819  76.4447863
  41.8493039  97.2895434  75.0321722  54.7579015 110.3149619  78.5451403
  55.3097323 110.4781241  79.3100488  55.0985208 110.9054057  77.8731428
  49.7343508  92.6624769  79.1473287  49.7984835  93.5239600  78.7350685
  49.6710628  92.0498771  78.4145646  49.2095781  94.7347902  82.7946322
  49.8367819  94.3524979  83.4083846  48.3523700  94.5162104  83.1602014
  59.6089889 105.1410877  84.4000057  60.1529793 105.7540835  83.9055012
  59.0276734 105.6990455  84.9167070  45.9861323  96.5424331  68.7264676
  46.2814764  95.6335009  68.6731730  45.0849359  96.5212070  68.4045679
  57.8947402 108.2631595  75.5315085  57.7698542 107.4621335  75.0226030
  58.5526493 108.7577788  75.0429055  49.5155570  94.6180327  74.7092225
  48.7942156  95.2316295  74.5699698  50.3048826  95.1538092  74.6308871
  59.9582311 106.0640615  77.1594635  59.0112646 105.9445966  77.0872962
  60.3065084 105.1763113  77.2420896  52.3181884  91.9534754  80.9832877
  52.8416286  92.1997050  81.7459186  52.0994217  92.7854789  80.5636014
  47.7149165  94.2238428  68.8504002  47.3861871  93.3435807  68.6679108
  48.0688536  94.1686097  69.7380391  56.9628744 105.8593331  73.3598987
  56.8153706 104.9310039  73.5406557  57.7882237 105.8813422  72.8756062
  50.8290988  94.5111398  69.2179479  51.1687061  95.0397319  68.4958088
  51.2763109  94.8491804  69.9938046  60.5662866 106.6821890  74.4463860
  61.4909413 106.4764751  74.3088311  60.3978169 106.4338291  75.3553201
  53.5234429  92.8948449  78.6682547  53.1831249  92.0956262  79.0703227
  52.8173435  93.1950160  78.0959381  54.1750901  89.9797761  77.1209870
  54.9976970  89.5058240  76.9988761  54.4188964  90.7588245  77.6208557
  52.8159135  93.0086020  67.4172772  53.5367498  93.3867273  66.9136489
  52.1924439  93.7274897  67.5207750  56.9590258  93.7131169  68.3531104
  57.1753873  94.5955807  68.0519933  56.4784325  93.3217382  67.6236746
  51.6989480  96.6716882  74.9301849  51.5534060  96.9857185  75.8226131
  51.2214683  97.2901782  74.3772748  53.5585862  93.6619430  74.9782739
  53.5447431  92.7660523  74.6415037  54.2758291  93.6690094  75.6121025
  55.4111993  94.0956770  77.0235866  55.1529771  95.0173841  77.0220196
  54.8797034  93.6987205  77.7136330  60.3558182 107.2007557  69.8025951
  60.5295059 106.6353980  69.0499804  60.8487073 108.0008452  69.6205441
  46.1735142  99.2122226  77.8689510  45.6288610  99.9882034  78.0009785
  47.0514492  99.5593031  77.7108632  52.9622758  92.5433810  70.2470309
  53.0838670  91.6150456  70.4461196  52.6724801  92.5572496  69.3348624
  55.8313949  90.2288721  73.3837029  55.8535646  90.2928054  72.4289008
  56.2482008  89.3893229  73.5777535  66.2097573  99.9643980  71.4216251
  66.6528719  99.2151305  71.0235374  65.3324083  99.9554117  71.0389983
  61.3433354 106.5174322  66.9022850  62.0384259 107.1381014  67.1210164
  61.6856505 105.6669673  67.1775228  46.9601164  98.3392123  80.7619667
  46.2182900  98.4874758  81.3484297  46.6393908  98.6000388  79.8986416
  63.2424778 103.9674027  68.4310180  63.7676102 104.3061300  67.7059500
  63.1547130 103.0321043  68.2473315  54.9044826 107.8808101  80.5600057
  55.2131953 107.6357248  81.4322757  55.7020308 108.0854739  80.0718927
  54.9265438 110.0346010  72.7905434  54.4870429 109.5422389  73.4838290
  55.6773555 109.4918978  72.5497509  47.4057777 106.2257551  72.7930062
  48.2315797 105.9261323  72.4128705  47.0551829 105.4565174  73.2419850
  52.3739310 105.5784020  74.8627735  51.7519320 104.9154725  74.5629963
  53.0444177 105.6045151  74.1801383  45.6066382 104.1443878  73.7518995
  44.7698291 103.7166052  73.5702997  45.5790028 104.3376321  74.6889786
  52.4463838  94.0565808  84.4560241  52.4951993  94.9327930  84.0738011
  52.9886352  93.5143201  83.8831885  62.9318684 104.6006931  83.7361378
  62.1414227 104.5831070  83.1965878  62.6952038 105.1395225  84.4910415
  63.0516559 101.4499397  81.0494107  63.1014564 101.2849405  81.9909630
  62.9430482 100.5826656  80.6591988  51.9352817 104.1287943  68.3386196
  52.0840938 104.8123407  67.6852869  52.7419261 104.1093033  68.8535652
  60.3420321  97.4330325  82.3653414  61.2430184  97.2936790  82.0737411
  60.4168296  97.5984780  83.3051591  54.6763126  94.8097180  81.2106600
  53.8066436  95.1030746  80.9389189  54.9122607  95.3937625  81.9313864
  64.5534755 103.8696339  81.2936128  64.2619564 104.2326319  82.1299589
  63.9406887 103.1563347  81.1149461  65.7530438 101.4349219  73.8138699
  66.5877329 101.8739023  73.9776259  65.8889567 100.9587872  72.9946944
  62.8021944  98.9928953  79.7616186  63.2776065  99.1856600  78.9535038
  61.8787509  99.0488139  79.5159570  49.6905450 100.1553121  69.3447265
  49.4451492  99.2515451  69.5427475  49.8601365 100.1570271  68.4026743
  57.3802160  91.0276797  78.7272020  57.8984104  91.7637824  78.4018509
  57.0257293  91.3340790  79.5618779  48.9601098  95.8881478  66.8433426
  48.2670343  95.9625833  66.1873462  48.7152850  95.1241822  67.3654943
  55.4348223 106.6236073  65.8097943  54.8622190 107.2426261  65.3568415
  56.0081017 107.1735435  66.3437865  61.5023613  95.8694713  77.9944492
  62.4541036  95.9692811  78.0156716  61.3327063  95.0772982  78.5042576
  59.5237992  92.9550297  78.1803893  58.9287924  93.2355309  77.4850382
  59.2387689  93.4444198  78.9520634  58.6545483 106.9073224  66.9406526
  59.5876156 106.8418785  67.1439401  58.5668695 107.7429490  66.4821058
  61.2833499 106.2239094  63.9010473  61.2047131 105.8898957  64.7946231
  62.1043166 106.7160862  63.9001945  63.9811690  99.0900833  77.1086792
  63.9488011  98.1516834  77.2946476  64.5912314  99.1684870  76.3752617
  55.8195021  97.9596886  63.1513996  56.7654126  97.8303094  63.2202414
  55.4409266  97.2211548  63.6283424  64.1306179  95.8811877  77.1545075
  63.6145228  95.0970333  76.9675004  65.0146127  95.5530593  77.3191594
  69.7988240 100.1516840  76.2492829  70.5291629  99.8902128  76.8100532
  69.1895186  99.4145562  76.2894896  67.8803537  98.2924703  76.8467280
  67.1536701  98.1580668  76.2383771  67.4650824  98.6001531  77.6523998
  55.7033714 102.0114632  84.6114653  56.6236723 102.1893231  84.8054699
  55.6683297 101.0670678  84.4594352  54.0037938  95.8846863  63.0868881
  53.0969394  95.5879975  63.1631595  54.2813920  95.5876681  62.2203167
  44.9215879  97.2053226  73.5367927  44.6018663  96.3518534  73.2442301
  44.3749307  97.4201804  74.2925895  48.6995786  99.9215667  77.2537434
  48.9181796 100.8532775  77.2725468  49.1121560  99.5623641  78.0392238
  53.5723652  95.4948873  86.6440183  53.4720379  96.4443230  86.5752274
  53.3545194  95.1667112  85.7716253  52.7736723  92.7433798  63.2280860
  53.6355887  93.0688696  63.4876678  52.9587067  91.9565294  62.7153926
  44.7904139 100.8256137  75.5061049  44.0967610 100.4110090  74.9931003
  45.5377130 100.8676674  74.9094468  60.9269360  91.6162324  70.3716083
  60.3468029  92.2747128  69.9894136  60.6605292  90.7939669  69.9603501
  59.3772926  91.0167382  72.5737404  59.8772704  91.1283916  71.7651722
  60.0208534  90.7128435  73.2138212  53.4354922  98.9246012  85.4605244
  52.9522003  99.7246372  85.6669134  53.5215861  98.9353956  84.5072688
  46.7040881 100.7574391  73.3827064  46.6811570 100.8562078  72.4308947
  47.0141518 101.6039542  73.7044230  49.3628259 102.8150546  77.4973678
  50.3171513 102.7834489  77.4303610  49.1640783 102.3541170  78.3123904
  49.9527641 101.3851662  80.0644476  50.7720530 101.8795741  80.0879313
  50.2264449 100.4683630  80.0362043  59.7094238  93.7762415  69.4272431
  58.8220093  94.0612065  69.2092626  60.1248227  93.6156178  68.5799708
  63.0608774  93.8008936  73.1426771  63.8369164  94.2905388  73.4151388
  62.3356908  94.2266990  73.5998640  65.4981332  94.5136555  74.2000711
  66.0925823  94.2732291  73.4894020  65.5707916  93.7943685  74.8274248
  47.7178488 108.3570166  74.5143876  47.5832956 107.5970567  73.9481874
  47.3010550 109.0811066  74.0472665  58.8537451 103.5407089  63.5220451
  59.5573301 103.7457092  64.1378107  58.1300100 104.1083851  63.7869535
  59.6835261  99.2916951  69.6422722  59.6270463  99.7485502  68.8030354
  60.2363604  98.5307635  69.4645564  63.4940067  95.0806682  70.4672841
  63.2377002  94.6803318  71.2981049  62.8692935  95.7950476  70.3422980
  67.8052405  97.8202756  72.9744133  67.2451963  97.8895945  73.7475695
  67.1995908  97.6443740  72.2543629  50.8747614 109.2539483  74.7262319
  50.7579998 110.1984915  74.6241009  50.0540060 108.9513044  75.1148118
  60.7624148 103.9789618  65.5718911  61.5969752 103.5470817  65.3896386
  60.6008491 103.8071632  66.4995806  60.4170041 100.4821732  66.9375251
  60.3618844 100.3166003  65.9963695  59.7916096 101.1897765  67.0937440
  45.2062556  95.7189796  80.7636673  45.8521419  95.2088750  81.2523898
  44.9979707  96.4558478  81.3380098  57.7315948 102.7870644  86.2628814
  58.6007107 102.9611296  85.9015448  57.2522699 103.6065060  86.1404543
  51.9002128 109.9067745  77.9418247  52.8029375 109.9391355  78.2584742
  51.6739498 108.9768196  77.9564583  53.6555730 108.6598731  74.6028326
  52.7051361 108.6600593  74.4892698  53.9588216 107.9131466  74.0864360
  49.5460047  92.8657413  84.8611687  50.4091508  92.5094218  85.0715012
  48.9725457  92.5271308  85.5487091  69.3908424 114.4959270  75.6674088
  70.0286834 114.3766017  74.9637428  69.2729266 115.4440114  75.7262040
  66.1998130 114.4486698  75.6035613  65.8616641 114.3327762  74.7156148
  67.0687898 114.0477863  75.5836619  62.0584946 116.3022174  71.5932504
  61.4949811 116.2112111  70.8248792  61.9437341 115.4822079  72.0734996
  66.6817913 115.6021549  81.5621818  66.6706554 115.2074348  80.6902322
  66.8438552 114.8687622  82.1555590  59.6049377 117.7973366  74.4316724
  60.3970669 117.4564190  74.0163024  59.8446028 117.9068341  75.3518878
  67.6384504 119.9693142  66.9046969  66.9872484 120.5547222  66.5180983
  68.4328867 120.4999337  66.9642006  61.5640131 117.0582279  67.3034103
  62.3371007 116.5111266  67.1646979  61.9165530 117.9226528  67.5148565
  63.4025174 118.3858661  80.5101002  63.1115040 119.2904292  80.3947669
  64.0382158 118.4275189  81.2245072  64.3281381 115.7635510  77.1002362
  64.9244953 115.5391532  76.3859325  64.3856352 115.0220255  77.7027810
  63.9006409 113.2174945  64.9352553  64.1531930 112.6956466  64.1736016
  62.9630968 113.0541090  65.0379237  68.9449692 112.2210723  72.7427296
  69.7312781 111.8030147  72.3917713  69.2088396 113.1256816  72.9108945
  69.1159769 117.6583574  67.4415953  68.4805602 117.7318200  68.1536858
  68.7857176 118.2477173  66.7635032  74.3458119 112.1585957  73.6460275
  75.0783291 111.5885173  73.8798104  73.5897475 111.7707557  74.0866780
  63.6202698 115.1203051  67.1376928  63.5038956 114.4447954  67.8058012
  63.7304958 114.6335425  66.3209081  65.9634239 114.5813198  70.8423617
  65.5992446 114.0543819  71.5536539  66.8201355 114.1911667  70.6690103
  71.8683540 105.8707531  78.1054883  71.5366864 106.7402942  77.8816098
  71.2729153 105.5543815  78.7848914  65.6039726 109.6103098  65.8384966
  65.7714128 110.4783334  66.2055437  65.4136895 109.7730380  64.9146255
  68.3615059 118.0720077  77.5050796  68.0615782 118.9745116  77.3966603
  68.0166119 117.8052260  78.3571949  61.8127541 114.5233874  73.5387501
  60.8878037 114.3910088  73.7465192  62.0611954 115.3028093  74.0357443
  71.7612203 110.5902617  75.1848233  70.8529080 110.5218025  74.8906994
  71.7099799 111.0674562  76.0130059  65.5828947 112.0660755  66.8231633
  65.4628572 112.5117806  67.6617113  64.8881535 112.4146073  66.2645171
  59.1736352 114.1667147  74.3731290  59.3028733 114.4201626  75.2870701
  58.4933803 114.7594855  74.0535945  63.3435839 124.8364397  70.4721764
  63.2659869 125.7872222  70.5510244  62.7397482 124.4910270  71.1296690
  65.8353069 112.0092262  83.1283131  65.0586403 112.5686183  83.1185995
  66.4743632 112.4949045  83.6498001  73.6273849 108.7919055  76.9626107
  72.9848230 109.0851588  76.3165902  73.1228778 108.6771976  77.7679304
  71.2814013 112.5382228  67.6511967  72.1931869 112.7709615  67.4759664
  70.7723660 113.1219273  67.0887045  64.0899441 114.8177716  82.6901098
  64.8314125 115.3562760  82.4135921  63.3836426 115.4444005  82.8472650
  69.5654781 116.9606856  81.2873259  69.9738137 116.5189267  80.5427892
  68.8432042 116.3859484  81.5407452  65.9185851 111.8979463  78.6606816
  66.7647046 112.3218877  78.8041465  65.8584488 111.2413087  79.3545379
  69.8883595 117.5208047  75.0425548  69.2592458 117.6853761  74.3401616
  69.5009257 117.9349656  75.8136512  73.7672827 118.4562485  72.3969912
  73.0823865 118.8361386  71.8466945  73.8516676 119.0657811  73.1301860
  69.0685296 109.5583831  80.3187990  68.8246228 110.3125892  79.7822265
  69.3445226 109.9369179  81.1535237  71.0223759 116.1022444  78.9965255
  71.2340654 116.7454204  78.3199636  70.9753507 115.2684760  78.5287185
  68.6249988 108.7140264  75.9001828  67.7634467 109.0121518  76.1918565
  68.6512422 108.9310663  74.9682860  65.4411557 117.2582455  72.3075633
  65.9049903 117.5370158  71.5180256  65.1768355 116.3565900  72.1248724
  62.3335638 116.8053937  75.2455396  62.9036995 117.2341205  74.6072881
  62.9243750 116.5236521  75.9439582  64.3780443 113.3805607  69.1165198
  65.0804487 113.8326651  69.5839125  64.0461072 112.7389426  69.7445091
  62.8260805 111.9717364  83.4916408  62.1959465 112.6533645  83.7251805
  62.7196893 111.8600446  82.5469546  58.1205777 111.6389160  74.4182332
  57.3304831 111.8946689  73.9422443  58.6117025 112.4537498  74.5234372
  72.1369587 118.9794399  77.1687613  72.9587030 118.5774587  76.8870294
  72.1331990 118.8762633  78.1203729  60.0720523 112.0033739  71.3765809
  59.2751686 112.1152434  71.8949304  59.8446115 112.3420392  70.5106699
  65.9026190 118.5278443  79.3248323  65.9670623 118.9898850  80.1606495
  65.1937114 117.8975807  79.4530633  56.4043480 111.8919650  76.8497323
  56.6551519 112.7766660  77.1154899  56.9403029 111.7124252  76.0772415
  80.2275580 115.3233148  73.5172584  79.4739288 114.7540546  73.3616589
  80.3623121 115.2895812  74.4643219  65.6174208 120.1946550  69.1927304
  65.4819883 121.0398086  69.6212151  66.1584020 120.3965828  68.4293237
  62.1041547 106.2738130  85.8541659  61.7108493 105.7204328  86.5289303
  62.9207688 106.5848708  86.2448176  59.0703605 117.7121988  69.7655229
  59.5828126 118.5065238  69.9160793  59.7226318 117.0148278  69.6988830
  60.8798490 120.8287744  71.8477982  61.0565118 121.7505709  71.6598966
  61.6755323 120.5146164  72.2772362  65.0209508 107.6896009  83.4461915
  65.7619222 108.2903162  83.3666378  65.2527431 106.9473647  82.8879958
  60.1650846 112.8752376  81.7240145  60.0504362 111.9737633  82.0247244
  59.3095364 113.1216073  81.3724962  67.2442684 120.8170117  83.3227646
  66.8006538 120.0306495  83.0048550  67.9059898 121.0049267  82.6571536
  62.0029805 122.3465918  77.8488324  62.5537230 122.2182981  77.0765318
  61.1641281 122.6460807  77.4983217  69.3423922 121.0972916  81.3509047
  69.3242398 121.9181797  80.8589316  70.2643842 120.9726992  81.5759188
  65.7996976 118.6117046  82.1932555  66.3325313 117.8505334  81.9631863
  65.2711057 118.3190698  82.9356710  68.9666671 103.7177112  77.7226197
  68.6230941 104.6078754  77.6465308  69.3345634 103.5278770  76.8595782
  57.0352522 116.0410642  70.5414799  57.8727744 116.4507651  70.3248507
  57.2130790 115.1010085  70.5114993  68.9316954 113.7085723  66.2298632
  68.4163578 114.4790328  66.4687020  68.6594263 113.0350859  66.8531694
  66.5164065 108.5535424  71.2883870  65.6605661 108.1642274  71.1089509
  66.9291017 108.6327385  70.4283656  68.0463212 106.0881767  75.6875430
  67.5428007 106.0511902  74.8743236  68.3393819 106.9974510  75.7472087
  64.2906098 106.1720497  74.6941612  65.1559094 105.9763305  74.3347501
  64.3583607 105.9430849  75.6210969  73.9051228 116.4618078  68.1651806
  73.1280671 116.1229237  67.7206968  74.5842709 116.4670701  67.4906771
  68.7203257 111.5812815  68.0558413  68.4153393 111.8958964  68.9068556
  69.6733699 111.6594235  68.0985746  67.1649689 117.7403038  69.7051367
  66.6371051 117.0055798  69.3924605  66.6637192 118.5177715  69.4591336
  72.1442535 115.9352059  74.8218414  71.4866210 116.6251320  74.9098542
  72.9482934 116.3248491  75.1652400  61.8968417 108.4022705  72.0657979
  62.4712169 108.1797886  71.3331172  62.4839399 108.4711399  72.8186580
  70.9547994 114.2896432  72.8722355  71.4679876 114.9226423  73.3744065
  71.6049218 113.6897627  72.5065715  62.2238004 110.4327166  66.0853864
  61.3875316 110.7701852  66.4063139  62.0842773 110.2976146  65.1481001
  64.1991084 105.2763954  70.7933048  63.5455497 104.9612971  70.1689663
  64.1571559 104.6539694  71.5192871  65.3102289 115.5583249  62.7086340
  64.4029351 115.3272502  62.9077489  65.8073321 114.7620868  62.8960322
  68.2170368 124.2680756  65.6283026  67.5432067 124.5712453  66.2367984
  68.6036190 125.0709836  65.2788484  67.4328825 111.7645887  75.1180696
  66.5151386 111.9860834  74.9602384  67.8488968 111.8392198  74.2592403
  68.2163873 113.1637303  70.2483376  68.9635691 113.6758700  69.9390498
  68.4855462 112.8421356  71.1087770  66.4890523 115.6595844  67.2310330
  65.5801742 115.3754876  67.3282800  66.5185607 116.0794922  66.3713637
  71.7209790 119.2702433  71.0001498  71.2672117 118.4293343  71.0566688
  71.0903757 119.9063831  71.3376278  70.6642710 110.1994419  72.2302165
  69.9265466 109.6871805  72.5612408  70.9169483 109.7594801  71.4185442
  70.1642729 121.1078930  71.9351316  70.4565704 121.6683987  71.2163682
  70.6741350 121.4007491  72.6904475  70.7654337 102.9770671  72.8243935
  71.0713214 102.1168035  72.5369850  71.4906942 103.5688291  72.6242929
  57.0578693 113.3801358  71.2125533  56.8603093 112.7870718  70.4876599
  56.5025357 113.0753568  71.9301471  65.0375417 113.2724464  73.3320126
  65.0924027 112.3198301  73.2562602  64.2266619 113.4283903  73.8161424
  66.1866611 117.2004587  64.5698409  65.7486040 116.4840446  64.1104046
  66.9277051 117.4280702  64.0083500  62.9767777 111.8901524  71.0910505
  62.1635642 112.1895694  71.4975697  63.4726771 111.4957213  71.8084987
  65.1276355 121.8859281  73.0244769  65.0852533 122.1120127  72.0953301
  66.0439053 121.6522655  73.1730570  68.5741988 112.3543348  79.9225399
  68.9291376 112.5814821  80.7819864  69.2214120 112.6861725  79.3002654
  74.3039725 115.4761784  70.6274728  74.1657624 115.6663380  69.6995917
  73.9475944 116.2381167  71.0842779  62.4681851 109.4619879  76.7071740
  63.1081231 109.3208639  76.0094703  61.6359382 109.1754393  76.3310342
  74.3309105 117.5438311  75.6385999  74.7645612 117.4513600  76.4869053
  75.0440686 117.5195812  75.0006015  63.2442155 118.7622310  72.8206732
  64.0382754 118.2672630  72.6189307  62.5333848 118.2340173  72.4574438
  68.0637000 121.1440405  77.1719100  68.1174022 121.7131342  77.9396816
  67.1951781 121.3142290  76.8073137  59.5524919 112.9065392  68.8966485
  58.6222507 112.8449847  69.1136447  59.6482391 112.3841344  68.1003126
  59.4710468 109.4320204  71.4844726  59.7317285 110.3465538  71.3753887
  60.2927640 108.9644647  71.6341339  60.9435393 110.8457962  78.6543551
  61.6158447 110.6375324  78.0056200  60.1165180 110.6480048  78.2148783
  75.1924654 117.5862012  78.1718884  75.3860545 118.4907822  78.4178159
  75.0925273 117.1269431  79.0057469  66.8460965 107.4719902  80.6709212
  66.1988880 108.1709852  80.5773688  67.6161981 107.9056046  81.0385460
  70.2539763 117.7368755  83.7459765  70.1025270 117.5079306  82.8289849
  70.2444443 118.6939356  83.7591110  67.0225100 115.3100667  78.7306031
  67.9517160 115.4611827  78.5574999  66.6016130 115.3984688  77.8754678
  65.8213431 119.3351332  76.5004569  65.6824517 118.9670116  77.3730507
  65.0328028 119.8498971  76.3288527  66.4161583 124.4360428  67.8430106
  66.5913339 123.9648471  68.6575728  65.7294371 125.0626194  68.0711366
  67.3718646 118.7132935  73.8893407  67.0368479 118.6733704  74.7851057
  66.8722592 118.0477650  73.4163817  61.3462890 114.1200565  79.4145988
  61.2082688 113.3880803  80.0157527  62.2567814 114.0309465  79.1330176
  70.3077838 116.0588969  64.1630467  69.6907009 115.3335797  64.0663519
  69.8394327 116.8198329  63.8197541  63.9745191 113.8320524  78.9029668
  64.6844810 113.1913716  78.8616286  63.9314499 114.0833419  79.8255848
  71.9631970 120.7687877  81.8236247  71.9044516 120.0847097  81.1566830
  72.3651488 121.5106867  81.3716873  62.6874125 110.8185742  80.7225307
  62.1511482 110.3676480  81.3746904  62.0990834 110.9531651  79.9795772
  62.0976384 110.2774393  63.2851771  61.2205850 110.1563194  62.9214018
  62.5734137 109.4860471  63.0330659  71.9649377 118.7327461  80.0550227
  71.0776156 118.3953383  80.1776625  72.5347928 118.0010492  80.2918992
  53.6178524 115.0651553  73.3793278  54.3049564 114.7513283  72.7914293
  53.4626653 115.9692918  73.1060529  58.4213246 109.9541749  77.8078302
  58.3371435 109.3467419  77.0728712  57.5995953 110.4450768  77.8087798
  65.4950530 123.3928913  77.0211470  65.4220702 124.1983885  77.5330774
  65.0527924 123.5920879  76.1959491  65.2840310 122.6300684  70.5314291
  64.5007832 123.1722364  70.6252516  65.9833055 123.1474663  70.9308533
  68.5936960 108.4395313  73.1748497  69.0905660 107.6865275  72.8549567
  67.8223942 108.4759630  72.6091706  76.4466718 114.1435679  74.8166788
  76.4356594 115.0260394  74.4460721  75.5784097 113.7907229  74.6221325
  67.9549214 123.2915748  79.1769628  68.6677186 123.9263212  79.1045530
  67.4639243 123.3879614  78.3609630  69.6766741 117.1967000  70.7486920
  68.7423020 117.3168463  70.5791624  69.8543409 116.2939467  70.4846930
  65.1771929 110.5812696  72.9020181  64.8069716 110.0283736  73.5901087
  65.6731021 109.9770829  72.3495181  73.0639292 113.0384319  71.2836954
  73.5299744 113.8712311  71.2097257  73.5146793 112.5729301  71.9882213
  63.0061128 121.0410191  79.9975199  63.7070587 121.6746674  80.1504594
  62.5356243 121.3824923  79.2370839  71.1315523 119.3828141  68.2823106
  71.4075367 119.2684735  69.1916980  70.2620022 118.9845626  68.2435279
  71.0355955 105.4064906  75.3227856  70.1219035 105.6369133  75.4910063
  71.4649056 105.4903351  76.1741888  70.8062413 113.5954798  77.8227750
  70.1533864 113.8430706  77.1680202  71.1842793 112.7818937  77.4890227
  67.7669587 123.6314492  71.9255920  67.9491982 122.8136148  72.3883672
  68.5902573 123.8482184  71.4880810  68.1011753 122.5582677  69.1870968
  68.6299519 122.0475131  68.5741131  68.3639972 122.2425207  70.0516501
  66.8549986 114.3374609  84.3093787  66.1790624 114.2368739  84.9796162
  67.6777620 114.1813823  84.7729784  58.6028846 120.5746546  76.9306302
  59.1882282 119.8290234  77.0634206  58.4053684 120.8850503  77.8142966
  61.4567501 123.6097793  71.9468744  60.7877876 124.0943921  71.4632784
  61.3180370 123.8567014  72.8612123  53.1946500 113.1452146  75.6510745
  53.2330600 112.6115737  76.4447863  52.6886793 112.6187352  75.0321722
  65.5972769 125.6441537  78.5451403  66.1491077 125.8073158  79.3100488
  65.9378963 126.2345975  77.8731428  60.5737263 107.9916687  79.1473287
  60.6378589 108.8531518  78.7350685  60.5104383 107.3790688  78.4145646
  60.0489535 110.0639819  82.7946322  60.6761574 109.6816897  83.4083846
  59.1917454 109.8454021  83.1602014  70.4483644 120.4702794  84.4000057
  70.9923548 121.0832753  83.9055012  69.8670489 121.0282373  84.9167070
  56.8255078 111.8716248  68.7264676  57.1208519 110.9626927  68.6731730
  55.9243114 111.8503988  68.4045679  68.7341157 123.5923512  75.5315085
  68.6092296 122.7913252  75.0226030  69.3920248 124.0869706  75.0429055
  60.3549325 109.9472245  74.7092225  59.6335911 110.5608213  74.5699698
  61.1442581 110.4830010  74.6308871  70.7976065 121.3932533  77.1594635
  69.8506401 121.2737884  77.0872962  71.1458838 120.5055031  77.2420896
  63.1575638 107.2826671  80.9832877  63.6810040 107.5288968  81.7459186
  62.9387972 108.1146706  80.5636014  58.5542919 109.5530346  68.8504002
  58.2255626 108.6727725  68.6679108  58.9082290 109.4978015  69.7380391
  67.8022498 121.1885249  73.3598987  67.6547461 120.2601956  73.5406557
  68.6275992 121.2105339  72.8756062  61.6684743 109.8403316  69.2179479
  62.0080815 110.3689237  68.4958088  62.1156863 110.1783722  69.9938046
  71.4056620 122.0113807  74.4463860  72.3303168 121.8056669  74.3088311
  71.2371924 121.7630209  75.3553201  64.3628183 108.2240367  78.6682547
  64.0225004 107.4248180  79.0703227  63.6567190 108.5242077  78.0959381
  65.0144655 105.3089679  77.1209870  65.8370725 104.8350157  76.9988761
  65.2582719 106.0880163  77.6208557  63.6552890 108.3377937  67.4172772
  64.3761252 108.7159190  66.9136489  63.0318194 109.0566814  67.5207750
  67.7984013 109.0423086  68.3531104  68.0147627 109.9247724  68.0519933
  67.3178080 108.6509300  67.6236746  62.5383234 112.0008800  74.9301849
  62.3927815 112.3149103  75.8226131  62.0608438 112.6193700  74.3772748
  64.3979617 108.9911348  74.9782739  64.3841186 108.0952441  74.6415037
  65.1152045 108.9982011  75.6121025  66.2505748 109.4248688  77.0235866
  65.9923525 110.3465758  77.0220196  65.7190788 109.0279122  77.7136330
  71.1951936 122.5299475  69.8025951  71.3688814 121.9645897  69.0499804
  71.6880828 123.3300370  69.6205441  57.0128896 114.5414144  77.8689510
  56.4682364 115.3173952  78.0009785  57.8908246 114.8884949  77.7108632
  63.8016513 107.8725728  70.2470309  63.9232424 106.9442374  70.4461196
  63.5118555 107.8864414  69.3348624  66.6707703 105.5580638  73.3837029
  66.6929400 105.6219971  72.4289008  67.0875762 104.7185147  73.5777535
  77.0491328 115.2935898  71.4216251  77.4922474 114.5443223  71.0235374
  76.1717838 115.2846034  71.0389983  72.1827109 121.8466239  66.9022850
  72.8778014 122.4672932  67.1210164  72.5250259 120.9961591  67.1775228
  57.7994918 113.6684040  80.7619667  57.0576654 113.8166676  81.3484297
  57.4787662 113.9292306  79.8986416  74.0818532 119.2965945  68.4310180
  74.6069856 119.6353218  67.7059500  73.9940885 118.3612960  68.2473315
  65.7438581 123.2100019  80.5600057  66.0525707 122.9649165  81.4322757
  66.5414063 123.4146657  80.0718927  65.7659193 125.3637928  72.7905434
  65.3264183 124.8714307  73.4838290  66.5167310 124.8210896  72.5497509
  58.2451532 121.5549469  72.7930062  59.0709552 121.2553241  72.4128705
  57.8945584 120.7857091  73.2419850  63.2133065 120.9075937  74.8627735
  62.5913074 120.2446642  74.5629963  63.8837932 120.9337069  74.1801383
  56.4460137 119.4735795  73.7518995  55.6092045 119.0457970  73.5702997
  56.4183782 119.6668239  74.6889786  63.2857592 109.3857725  84.4560241
  63.3345748 110.2619848  84.0738011  63.8280107 108.8435118  83.8831885
  73.7712438 119.9298849  83.7361378  72.9807982 119.9122987  83.1965878
  73.5345793 120.4687142  84.4910415  73.8910313 116.7791315  81.0494107
  73.9408318 116.6141322  81.9909630  73.7824236 115.9118574  80.6591988
  62.7746572 119.4579861  68.3386196  62.9234692 120.1415325  67.6852869
  63.5813015 119.4384951  68.8535652  71.1814076 112.7622243  82.3653414
  72.0823938 112.6228708  82.0737411  71.2562050 112.9276698  83.3051591
  65.5156881 110.1389098  81.2106600  64.6460190 110.4322664  80.9389189
  65.7516361 110.7229543  81.9313864  75.3928510 119.1988256  81.2936128
  75.1013318 119.5618237  82.1299589  74.7800641 118.4855265  81.1149461
  76.5924192 116.7641136  73.8138699  77.4271084 117.2030940  73.9776259
  76.7283321 116.2879789  72.9946944  73.6415698 114.3220871  79.7616186
  74.1169820 114.5148517  78.9535038  72.7181264 114.3780057  79.5159570
  60.5299205 115.4845038  69.3447265  60.2845247 114.5807368  69.5427475
  60.6995119 115.4862189  68.4026743  68.2195915 106.3568715  78.7272020
  68.7377859 107.0929742  78.4018509  67.8651047 106.6632708  79.5618779
  59.7994852 111.2173396  66.8433426  59.1064097 111.2917751  66.1873462
  59.5546604 110.4533739  67.3654943  68.4708509 102.7768997  74.2472917
  68.7510263 102.1092186  74.8733343  69.2559116 102.9698093  73.7347581
  66.2741977 121.9527991  65.8097943  65.7015944 122.5718178  65.3568415
  66.8474771 122.5027353  66.3437865  72.3417367 111.1986631  77.9944492
  73.2934790 111.2984729  78.0156716  72.1720818 110.4064900  78.5042576
  70.3631747 108.2842214  78.1803893  69.7681679 108.5647227  77.4850382
  70.0781443 108.7736115  78.9520634  69.4939237 122.2365141  66.9406526
  70.4269910 122.1710703  67.1439401  69.4062450 123.0721408  66.4821058
  72.1227254 121.5531012  63.9010473  72.0440885 121.2190875  64.7946231
  72.9436921 122.0452779  63.9001945  74.8205445 114.4192751  77.1086792
  74.7881765 113.4808752  77.2946476  75.4306069 114.4976788  76.3752617
  66.6588776 113.2888804  63.1513996  67.6047881 113.1595012  63.2202414
  66.2803021 112.5503466  63.6283424  74.9699933 111.2103794  77.1545075
  74.4538982 110.4262251  76.9675004  75.8539882 110.8822511  77.3191594
  72.6310660 104.9544810  73.1140888  72.4335482 104.6459898  73.9984220
  73.2410366 105.6806449  73.2438817  80.6381995 115.4808758  76.2492829
  81.3685383 115.2194046  76.8100532  80.0288940 114.7437480  76.2894896
  78.7197292 113.6216620  76.8467280  77.9930456 113.4872585  76.2383771
  78.3044579 113.9293449  77.6523998  66.5427468 117.3406550  84.6114653
  67.4630478 117.5185149  84.8054699  66.5077051 116.3962595  84.4594352
  64.8431693 111.2138780  63.0868881  63.9363148 110.9171893  63.1631595
  65.1207674 110.9168598  62.2203167  55.7609633 112.5345144  73.5367927
  55.4412418 111.6810452  73.2442301  55.2143062 112.7493722  74.2925895
  59.5389541 115.2507585  77.2537434  59.7575551 116.1824692  77.2725468
  59.9515315 114.8915559  78.0392238  66.4593759 105.7575670  69.2413122
  65.6494487 105.4122755  69.6168368  67.1478176 105.4483214  69.8300734
  68.3884307 104.8353717  70.8637419  68.9415346 105.2549170  71.5227442
  68.6254393 103.9089465  70.9060375  64.4117406 110.8240790  86.6440183
  64.3114133 111.7735147  86.5752274  64.1938948 110.4959029  85.7716253
  63.6130478 108.0725715  63.2280860  64.4749642 108.3980614  63.4876678
  63.7980822 107.2857211  62.7153926  55.6297893 116.1548055  75.5061049
  54.9361365 115.7402008  74.9931003  56.3770884 116.1968592  74.9094468
  71.7663114 106.9454242  70.3716083  71.1861783 107.6039046  69.9894136
  71.4999047 106.1231586  69.9603501  70.2166680 106.3459300  72.5737404
  70.7166459 106.4575834  71.7651722  70.8602288 106.0420352  73.2138212
  64.2748676 114.2537929  85.4605244  63.7915758 115.0538289  85.6669134
  64.3609615 114.2645874  84.5072688  57.5434636 116.0866309  73.3827064
  57.5205324 116.1853996  72.4308947  57.8535272 116.9331460  73.7044230
  60.2022014 118.1442464  77.4973678  61.1565267 118.1126406  77.4303610
  60.0034537 117.6833088  78.3123904  60.7921396 116.7143580  80.0644476
  61.6114285 117.2087659  80.0879313  61.0658204 115.7975548  80.0362043
  70.5487992 109.1054332  69.4272431  69.6613847 109.3903983  69.2092626
  70.9641981 108.9448096  68.5799708  73.9002528 109.1300853  73.1426771
  74.6762918 109.6197306  73.4151388  73.1750662 109.5558907  73.5998640
  76.3375087 109.8428472  74.2000711  76.9319578 109.6024208  73.4894020
  76.4101671 109.1235603  74.8274248  69.6931206 118.8699007  63.5220451
  70.3967056 119.0749009  64.1378107  68.9693854 119.4375769  63.7869535
  70.5229016 114.6208868  69.6422722  70.4664217 115.0777420  68.8030354
  71.0757358 113.8599553  69.4645564  74.3333822 110.4098600  70.4672841
  74.0770756 110.0095236  71.2981049  73.7086690 111.1242394  70.3422980
  78.6446160 113.1494673  72.9744133  78.0845718 113.2187863  73.7475695
  78.0389663 112.9735658  72.2543629  71.6017903 119.3081536  65.5718911
  72.4363507 118.8762735  65.3896386  71.4402246 119.1363550  66.4995806
  71.2563795 115.8113649  66.9375251  71.2012599 115.6457921  65.9963695
  70.6309850 116.5189682  67.0937440  56.0456310 111.0481714  80.7636673
  56.6915174 110.5380668  81.2523898  55.8373461 111.7850395  81.3380098
  68.5709702 118.1162561  86.2628814  69.4400862 118.2903214  85.9015448
  68.0916454 118.9356978  86.1404543  64.5659921 105.3121758  66.5160569
  64.5538590 106.2563598  66.6728840  65.4583342 105.1291904  66.2220030
  62.7395883 125.2359662  77.9418247  63.6423129 125.2683273  78.2584742
  62.5133253 124.3060113  77.9564583  64.4949485 123.9890649  74.6028326
  63.5445116 123.9892510  74.4892698  64.7981971 123.2423383  74.0864360
  68.3812040 101.9064535  70.7706506  67.6144436 101.3523022  70.9163188
  68.7922745 101.9786404  71.6320658  60.3853801 108.1949331  84.8611687
  61.2485263 107.8386136  85.0715012  59.8119212 107.8563226  85.5487091
  80.2302178 129.8251187  75.6674088  80.8680588 129.7057935  74.9637428
  80.1123021 130.7732031  75.7262040  77.0391884 129.7778615  75.6035613
  76.7010396 129.6619680  74.7156148  77.9081653 129.3769780  75.5836619
  77.5211667 130.9313467  81.5621818  77.5100308 130.5366265  80.6902322
  77.6832307 130.1979540  82.1555590  74.7400164 128.5466863  64.9352553
  74.9925684 128.0248384  64.1736016  73.8024723 128.3833008  65.0379237
  79.7843447 127.5502641  72.7427296  80.5706536 127.1322064  72.3917713
  80.0482151 128.4548733  72.9108945  85.1851874 127.4877874  73.6460275
  85.9177046 126.9177091  73.8798104  84.4291229 127.0999475  74.0866780
  76.8027993 129.9105116  70.8423617  76.4386201 129.3835737  71.5536539
  77.6595109 129.5203585  70.6690103  82.7077294 121.1999448  78.1054883
  82.3760619 122.0694859  77.8816098  82.1122907 120.8835732  78.7848914
  76.4433480 124.9395015  65.8384966  76.6107883 125.8075252  66.2055437
  76.2530649 125.1022297  64.9146255  82.6005957 125.9194535  75.1848233
  81.6922835 125.8509943  74.8906994  82.5493553 126.3966479  76.0130059
  76.4222701 127.3952673  66.8231633  76.3022326 127.8409724  67.6617113
  75.7275290 127.7437991  66.2645171  76.6746823 127.3384180  83.1283131
  75.8980157 127.8978100  83.1185995  77.3137386 127.8240963  83.6498001
  84.4667604 124.1210973  76.9626107  83.8241984 124.4143506  76.3165902
  83.9622532 124.0063893  77.7679304  82.1207767 127.8674146  67.6511967
  83.0325624 128.1001533  67.4759664  81.6117414 128.4511190  67.0887045
  76.7579605 127.2271381  78.6606816  77.6040800 127.6510794  78.8041465
  76.6978243 126.5705005  79.3545379  79.9079050 124.8875749  80.3187990
  79.6639982 125.6417810  79.7822265  80.1838981 125.2661097  81.1535237
  79.4643742 124.0432182  75.9001828  78.6028221 124.3413436  76.1918565
  79.4906177 124.2602581  74.9682860  75.2174198 128.7097525  69.1165198
  75.9198241 129.1618569  69.5839125  74.8854826 128.0681344  69.7445091
  73.6654559 127.3009282  83.4916408  73.0353220 127.9825563  83.7251805
  73.5590647 127.1892363  82.5469546  68.9599532 126.9681078  74.4182332
  68.1698586 127.2238606  73.9422443  69.4510779 127.7829416  74.5234372
  70.9114277 127.3325657  71.3765809  70.1145440 127.4444351  71.8949304
  70.6839869 127.6712309  70.5106699  72.9435302 121.6030048  85.8541659
  72.5502247 121.0496246  86.5289303  73.7601442 121.9140626  86.2448176
  75.8603263 123.0187927  83.4461915  76.6012976 123.6195080  83.3666378
  76.0921186 122.2765564  82.8879958  79.8060426 119.0469030  77.7226197
  79.4624695 119.9370671  77.6465308  80.1739388 118.8570687  76.8595782
  79.7710709 129.0377641  66.2298632  79.2557332 129.8082245  66.4687020
  79.4988017 128.3642777  66.8531694  77.3557820 123.8827341  71.2883870
  76.4999416 123.4934192  71.1089509  77.7684771 123.9619302  70.4283656
  78.8856966 121.4173685  75.6875430  78.3821762 121.3803820  74.8743236
  79.1787573 122.3266427  75.7472087  75.1299852 121.5012414  74.6941612
  75.9952849 121.3055223  74.3347501  75.1977361 121.2722766  75.6210969
  79.5597012 126.9104733  68.0558413  79.2547147 127.2250882  68.9068556
  80.5127454 126.9886153  68.0985746  72.7362171 123.7314622  72.0657979
  73.3105923 123.5089804  71.3331172  73.3233154 123.8003317  72.8186580
  81.7941748 129.6188349  72.8722355  82.3073630 130.2518341  73.3744065
  82.4442972 129.0189545  72.5065715  73.0631758 125.7619083  66.0853864
  72.2269071 126.0993770  66.4063139  72.9236528 125.6268063  65.1481001
  75.0384839 120.6055871  70.7933048  74.3849251 120.2904888  70.1689663
  74.9965313 119.9831612  71.5192871  78.2722579 127.0937805  75.1180696
  77.3545141 127.3152752  74.9602384  78.6882723 127.1684115  74.2592403
  79.0557627 128.4929220  70.2483376  79.8029446 129.0050618  69.9390498
  79.3249217 128.1713273  71.1087770  81.5036464 125.5286337  72.2302165
  80.7659221 125.0163723  72.5612408  81.7563238 125.0886718  71.4185442
  81.6048091 118.3062589  72.8243935  81.9106968 117.4459952  72.5369850
  82.3300696 118.8980209  72.6242929  75.8769171 128.6016382  73.3320126
  75.9317781 127.6490218  73.2562602  75.0660373 128.7575821  73.8161424
  73.8161531 127.2193442  71.0910505  73.0029397 127.5187612  71.4975697
  74.3120525 126.8249130  71.8084987  79.4135743 127.6835266  79.9225399
  79.7685131 127.9106739  80.7819864  80.0607874 128.0153643  79.3002654
  73.3075606 124.7911797  76.7071740  73.9474985 124.6500556  76.0094703
  72.4753136 124.5046310  76.3310342  70.3918673 128.2357309  68.8966485
  69.4616261 128.1741765  69.1136447  70.4876145 127.7133262  68.1003126
  70.3104222 124.7612122  71.4844726  70.5711040 125.6757455  71.3753887
  71.1321395 124.2936565  71.6341339  71.7829148 126.1749879  78.6543551
  72.4552201 125.9667241  78.0056200  70.9558934 125.9771965  78.2148783
  77.6854720 122.8011820  80.6709212  77.0382635 123.5001770  80.5773688
  78.4555735 123.2347964  81.0385460  77.8618854 130.6392585  78.7306031
  78.7910914 130.7903745  78.5574999  77.4409884 130.7276606  77.8754678
  81.1471593 131.3880887  64.1630467  80.5300763 130.6627715  64.0663519
  80.6788081 132.1490247  63.8197541  74.8138946 129.1612442  78.9029668
  75.5238564 128.5205634  78.8616286  74.7708254 129.4125336  79.8255848
  73.5267880 126.1477659  80.7225307  72.9905237 125.6968398  81.3746904
  72.9384588 126.2823568  79.9795772  72.9370139 125.6066311  63.2851771
  72.0599605 125.4855112  62.9214018  73.4127892 124.8152389  63.0330659
  69.2607001 125.2833667  77.8078302  69.1765190 124.6759337  77.0728712
  68.4389707 125.7742685  77.8087798  79.4330715 123.7687231  73.1748497
  79.9299414 123.0157193  72.8549567  78.6617696 123.8051547  72.6091706
  76.0165683 125.9104614  72.9020181  75.6463471 125.3575654  73.5901087
  76.5124776 125.3062747  72.3495181  83.9033047 128.3676237  71.2836954
  84.3693499 129.2004229  71.2097257  84.3540547 127.9021219  71.9882213
  81.8749709 120.7356824  75.3227856  80.9612789 120.9661051  75.4910063
  82.3042811 120.8195268  76.1741888  81.6456168 128.9246716  77.8227750
  80.9927618 129.1722624  77.1680202  82.0236548 128.1110854  77.4890227
  77.6943741 129.6666527  84.3093787  77.0184378 129.5660656  84.9796162
  78.5171375 129.5105741  84.7729784  71.4131017 123.3208604  79.1473287
  71.4772344 124.1823435  78.7350685  71.3498137 122.7082606  78.4145646
  70.8883290 125.3931737  82.7946322  71.5155328 125.0108814  83.4083846
  70.0311208 125.1745939  83.1602014  67.6648832 127.2008166  68.7264676
  67.9602273 126.2918844  68.6731730  66.7636868 127.1795906  68.4045679
  71.1943079 125.2764163  74.7092225  70.4729665 125.8900130  74.5699698
  71.9836335 125.8121927  74.6308871  73.9969393 122.6118589  80.9832877
  74.5203795 122.8580886  81.7459186  73.7781726 123.4438624  80.5636014
  69.3936674 124.8822264  68.8504002  69.0649380 124.0019643  68.6679108
  69.7476045 124.8269932  69.7380391  72.5078497 125.1695234  69.2179479
  72.8474570 125.6981155  68.4958088  72.9550618 125.5075640  69.9938046
  75.2021938 123.5532284  78.6682547  74.8618758 122.7540097  79.0703227
  74.4960944 123.8533995  78.0959381  75.8538410 120.6381597  77.1209870
  76.6764479 120.1642075  76.9988761  76.0976473 121.4172080  77.6208557
  74.4946644 123.6669855  67.4172772  75.2155007 124.0451108  66.9136489
  73.8711948 124.3858732  67.5207750  78.6377767 124.3715004  68.3531104
  78.8541382 125.2539642  68.0519933  78.1571834 123.9801218  67.6236746
  73.3776989 127.3300717  74.9301849  73.2321569 127.6441020  75.8226131
  72.9002192 127.9485618  74.3772748  75.2373371 124.3203265  74.9782739
  75.2234940 123.4244359  74.6415037  75.9545800 124.3273929  75.6121025
  77.0899502 124.7540606  77.0235866  76.8317280 125.6757676  77.0220196
  76.5584542 124.3571040  77.7136330  74.6410267 123.2017646  70.2470309
  74.7626179 122.2734292  70.4461196  74.3512310 123.2156332  69.3348624
  77.5101458 120.8872556  73.3837029  77.5323155 120.9511889  72.4289008
  77.9269517 120.0477065  73.5777535  74.1251347 124.7149643  84.4560241
  74.1739502 125.5911766  84.0738011  74.6673861 124.1727036  83.8831885
  82.0207830 128.0914161  82.3653414  82.9217693 127.9520625  82.0737411
  82.0955805 128.2568615  83.3051591  76.3550635 125.4681015  81.2106600
  75.4853945 125.7614581  80.9389189  76.5910116 126.0521460  81.9313864
  79.0589669 121.6860632  78.7272020  79.5771613 122.4221659  78.4018509
  78.7044802 121.9924626  79.5618779  70.6388607 126.5465313  66.8433426
  69.9457852 126.6209668  66.1873462  70.3940359 125.7825657  67.3654943
  79.3102263 118.1060915  74.2472917  79.5904017 117.4384104  74.8733343
  80.0952870 118.2990010  73.7347581  83.1811122 126.5278549  77.9944492
  84.1328545 126.6276646  78.0156716  83.0114572 125.7356817  78.5042576
  81.2025501 123.6134132  78.1803893  80.6075433 123.8939145  77.4850382
  80.9175198 124.1028033  78.9520634  77.4982530 128.6180721  63.1513996
  78.4441635 128.4886930  63.2202414  77.1196775 127.8795383  63.6283424
  85.8093688 126.5395712  77.1545075  85.2932737 125.7554169  76.9675004
  86.6933636 126.2114429  77.3191594  83.4704415 120.2836728  73.1140888
  83.2729236 119.9751816  73.9984220  84.0804120 121.0098366  73.2438817
  75.6825447 126.5430698  63.0868881  74.7756903 126.2463811  63.1631595
  75.9601428 126.2460516  62.2203167  77.2987513 121.0867588  69.2413122
  76.4888242 120.7414673  69.6168368  77.9871930 120.7775131  69.8300734
  79.2278061 120.1645634  70.8637419  79.7809100 120.5841088  71.5227442
  79.4648148 119.2381382  70.9060375  75.2511161 126.1532708  86.6440183
  75.1507888 127.1027065  86.5752274  75.0332703 125.8250947  85.7716253
  74.4524232 123.4017633  63.2280860  75.3143396 123.7272531  63.4876678
  74.6374576 122.6149129  62.7153926  82.6056869 122.2746160  70.3716083
  82.0255538 122.9330964  69.9894136  82.3392801 121.4523504  69.9603501
  81.0560435 121.6751217  72.5737404  81.5560213 121.7867752  71.7651722
  81.6996043 121.3712270  73.2138212  81.3881747 124.4346250  69.4272431
  80.5007602 124.7195901  69.2092626  81.8035736 124.2740013  68.5799708
  84.7396283 124.4592771  73.1426771  85.5156673 124.9489223  73.4151388
  84.0144417 124.8850825  73.5998640  87.1768841 125.1720390  74.2000711
  87.7713332 124.9316126  73.4894020  87.2495425 124.4527521  74.8274248
  81.3622770 129.9500786  69.6422722  81.3057972 130.4069337  68.8030354
  81.9151113 129.1891470  69.4645564  85.1727576 125.7390518  70.4672841
  84.9164510 125.3387153  71.2981049  84.5480444 126.4534312  70.3422980
  82.0957550 131.1405567  66.9375251  82.0406353 130.9749839  65.9963695
  81.4703605 131.8481600  67.0937440  66.8850065 126.3773631  80.7636673
  67.5308928 125.8672585  81.2523898  66.6767216 127.1142313  81.3380098
  75.4053675 120.6413676  66.5160569  75.3932345 121.5855516  66.6728840
  76.2977097 120.4583822  66.2220030  79.2205795 117.2356453  70.7706506
  78.4538190 116.6814939  70.9163188  79.6316500 117.3078322  71.6320658
  71.2247556 123.5241249  84.8611687  72.0879017 123.1678053  85.0715012
  70.6512966 123.1855143  85.5487091  15.1939652  14.8561804  62.3919395
  15.8318062  14.7368551  61.6882735  15.0760495  15.8042648  62.4507347
  12.0029359  14.8089232  62.3280920  11.6647870  14.6930297  61.4401454
  12.8719127  14.4080397  62.3081926   7.8616174  16.6624708  58.3177811
   7.2981039  16.5714645  57.5494098   7.7468569  15.8424613  58.7980303
  12.4849142  15.9624084  68.2867125  12.4737782  15.5676882  67.4147629
  12.6469781  15.2290156  68.8800897   5.4080606  18.1575900  61.1562031
   6.2001898  17.8166725  60.7408330   5.6477256  18.2670875  62.0764184
  13.4415733  20.3295676  53.6292275  12.7903713  20.9149756  53.2426289
  14.2360096  20.8601871  53.6887313   7.3671360  17.4184813  54.0279410
   8.1402236  16.8713800  53.8892286   7.7196759  18.2829062  54.2393871
   9.2056403  18.7461195  67.2346309   8.9146269  19.6506826  67.1192975
   9.8413387  18.7877723  67.9490379  10.1312610  16.1238044  63.8247669
  10.7276182  15.8994066  63.1104632  10.1887581  15.3822789  64.4273117
   9.7037638  13.5777479  51.6597860   9.9563159  13.0559001  50.8981323
   8.7662197  13.4143625  51.7624543  14.7480921  12.5813258  59.4672603
  15.5344010  12.1632681  59.1163020  15.0119625  13.4859350  59.6354251
  14.9190998  18.0186108  54.1661260  14.2836831  18.0920734  54.8782164
  14.5888405  18.6079707  53.4880339  20.1489348  12.5188491  60.3705581
  20.8814520  11.9487708  60.6043411  19.3928704  12.1310091  60.8112087
   9.4233927  15.4805585  53.8622235   9.3070185  14.8050489  54.5303319
   9.5336187  14.9937959  53.0454388  11.7665468  14.9415732  57.5668924
  11.4023675  14.4146353  58.2781845  12.6232584  14.5514201  57.3935409
  14.1646288  18.4322611  64.2296103  13.8647011  19.3347650  64.1211910
  13.8197347  18.1654794  65.0817256   7.6158769  14.8836408  60.2632807
   6.6909266  14.7512622  60.4710499   7.8643183  15.6630627  60.7602750
  17.5643432  10.9505151  61.9093540  16.6560309  10.8820560  61.6152301
  17.5131027  11.4277096  62.7375366  11.3860176  12.4263290  53.5476939
  11.2659801  12.8720340  54.3862419  10.6912764  12.7748607  52.9890477
   9.1467068  25.1966931  57.1967070   9.0691097  26.1474756  57.2755551
   8.5428711  24.8512804  57.8541997  11.6384297  12.3694797  69.8528437
  10.8617632  12.9288717  69.8431302  12.2774861  12.8551580  70.3743307
  19.4305078   9.1521590  63.6871414  18.7879458   9.4454123  63.0411209
  18.9260007   9.0374510  64.4924611  17.0845242  12.8984763  54.3757273
  17.9963098  13.1312149  54.2004971  16.5754889  13.4821807  53.8132352
   9.8930670  15.1780250  69.4146404  10.6345354  15.7165294  69.1381228
   9.1867655  15.8046539  69.5717956  15.3686009  17.3209391  68.0118566
  15.7769365  16.8791801  67.2673198  14.6463271  16.7462018  68.2652759
  11.7217079  12.2581997  65.3852123  12.5678275  12.6821411  65.5286772
  11.6615717  11.6015622  66.0790686  15.6914824  17.8810581  61.7670855
  15.0623686  18.0456295  61.0646923  15.3040486  18.2952191  62.5381819
  19.5704056  18.8165019  59.1215218  18.8855094  19.1963920  58.5712252
  19.6547905  19.4260346  59.8547166  14.8716525   9.9186366  67.0433296
  14.6277457  10.6728426  66.5067572  15.1476455  10.2971713  67.8780543
  16.8254988  16.4624978  65.7210562  17.0371883  17.1056738  65.0444943
  16.7784736  15.6287295  65.2532492  14.4281217   9.0742799  62.6247134
  13.5665696   9.3724052  62.9163872  14.4543651   9.2913198  61.6928167
  11.2442786  17.6184989  59.0320940  11.7081131  17.8972692  58.2425562
  10.9799584  16.7168434  58.8494031   8.1366867  17.1656471  61.9700703
   8.7068224  17.5943739  61.3318188   8.7274979  16.8839055  62.6684889
  10.1811672  13.7408142  55.8410505  10.8835715  14.1929185  56.3084431
   9.8492300  13.0991960  56.4690398  17.9400815  19.3396933  63.8932919
  18.7618259  18.9377121  63.6115601  17.9363218  19.2365168  64.8449035
  11.7057419  18.8880977  66.0493630  11.7701851  19.3501384  66.8851802
  10.9968343  18.2578342  66.1775940  26.0306809  15.6835682  60.2417891
  25.2770517  15.1143080  60.0861895  26.1654350  15.6498346  61.1888526
  11.4205437  20.5549084  55.9172610  11.2851111  21.4000620  56.3457458
  11.9615249  20.7568362  55.1538544   4.8734834  18.0724522  56.4900535
   5.3859355  18.8667773  56.6406100   5.5257547  17.3750813  56.4234137
   6.6829719  21.1890279  58.5723288   6.8596347  22.1108243  58.3844272
   7.4786552  20.8748698  59.0017668  13.0473913  21.1772651  70.0472952
  12.6037767  20.3909029  69.7293857  13.7091127  21.3651801  69.3816843
   7.8061034  22.7068452  64.5733631   8.3568459  22.5785516  63.8010625
   6.9672510  23.0063341  64.2228524  15.1455151  21.4575451  68.0754354
  15.1273626  22.2784332  67.5834623  16.0675071  21.3329526  68.3004495
  11.6028205  18.9719580  68.9177862  12.1356542  18.2107868  68.6877170
  11.0742286  18.6793232  69.6602016  14.7348183  14.0688257  52.9543939
  14.2194806  14.8392862  53.1932326  14.4625491  13.3953393  53.5777000
  19.7082457  16.8220612  54.8897112  18.9311900  16.4831771  54.4452274
  20.3873938  16.8273235  54.2152077  14.5234486  11.9415349  54.7803720
  14.2184622  12.2561498  55.6313863  15.4764928  12.0196769  54.8231053
  12.9680918  18.1005573  56.4296674  12.4402279  17.3658332  56.1169911
  12.4668421  18.8780249  56.1836642  17.9473764  16.2954593  61.5463720
  17.2897438  16.9853855  61.6343849  18.7514163  16.6851025  61.8897707
  16.7579223  14.6498966  59.5967662  17.2711104  15.2828958  60.0989372
  17.4080447  14.0500161  59.2311022  11.1133518  15.9185783  49.4331647
  10.2060580  15.6875036  49.6322796  11.6104550  15.1223402  49.6205628
  14.0201597  24.6283290  52.3528333  13.3463296  24.9314987  52.9613291
  14.4067419  25.4312370  52.0033790  13.2360054  12.1248421  61.8426002
  12.3182615  12.3463368  61.6847691  13.6520197  12.1994732  60.9837710
  14.0195101  13.5239837  56.9728683  14.7666920  14.0361234  56.6635805
  14.2886691  13.2023890  57.8333076  12.2921752  16.0198378  53.9555637
  11.3832971  15.7357411  54.0528107  12.3216835  16.4397456  53.0958944
  17.5241019  19.6304967  57.7246805  17.0703346  18.7895877  57.7811995
  16.8934986  20.2666366  58.0621585  16.4673939  10.5596953  58.9547472
  15.7296695  10.0474339  59.2857715  16.7200712  10.1197335  58.1430749
  15.9673958  21.4681464  58.6596623  16.2596933  22.0286521  57.9408988
  16.4772579  21.7610025  59.4149782  10.8406646  13.6326998  60.0565432
  10.8955255  12.6800835  59.9807909  10.0297848  13.7886437  60.5406731
  11.9897839  17.5607121  51.2943716  11.5517269  16.8442980  50.8349353
  12.7308280  17.7883236  50.7328807  10.9307583  22.2461815  59.7490076
  10.8883762  22.4722661  58.8198608  11.8470282  22.0125190  59.8975877
  14.3773217  12.7145883  66.6470705  14.7322605  12.9417356  67.5065171
  15.0245348  13.0464259  66.0247960  20.1070954  15.8364318  57.3520034
  19.9688853  16.0265914  56.4241223  19.7507173  16.5983701  57.8088085
  20.1340334  17.9040845  62.3631306  20.5676840  17.8116135  63.2114360
  20.8471914  17.8798346  61.7251322   9.0473384  19.1224844  59.5452039
   9.8413983  18.6275164  59.3434614   8.3365077  18.5942707  59.1819744
  13.8668229  21.5042940  63.8964406  13.9205251  22.0733876  64.6642122
  12.9983010  21.6744825  63.5318443  20.9955883  17.9464546  64.8964191
  21.1891773  18.8510357  65.1423466  20.8956501  17.4871965  65.7302776
  16.0570992  18.0971289  70.4705072  15.9056498  17.8681841  69.5535155
  16.0475671  19.0541890  70.4836417  12.8256328  15.6703202  65.4551338
  13.7548388  15.8214361  65.2820305  12.4047358  15.7587222  64.5999985
  11.6244660  19.6953866  63.2249876  11.4855746  19.3272650  64.0975814
  10.8359256  20.2101505  63.0533834  12.2192812  24.7962962  54.5675412
  12.3944568  24.3251006  55.3821035  11.5325600  25.4228729  54.7956673
  13.1749875  19.0735469  60.6138714  12.8399708  19.0336239  61.5096363
  12.6753821  18.4080185  60.1409124   7.1494119  14.4803099  66.1391295
   7.0113917  13.7483338  66.7402834   8.0599043  14.3911999  65.8575482
  16.1109067  16.4191503  50.8875773  15.4938238  15.6938331  50.7908826
  15.6425555  17.1800863  50.5442847   9.7776420  14.1923058  65.6274974
  10.4876038  13.5516250  65.5861593   9.7345728  14.4435953  66.5501155
  17.7663199  21.1290411  68.5481554  17.7075745  20.4449632  67.8812137
  18.1682717  21.8709401  68.0962180   6.7853897  27.9452325  61.3415272
   7.0250496  28.5770849  62.0194291   5.9423094  27.5940365  61.6280632
  17.7680606  19.0929995  66.7795533  16.8807385  18.7555917  66.9021932
  18.3379157  18.3613027  67.0164299  11.2981759  23.7531448  63.7456776
  11.2251931  24.5586419  64.2576081  10.8559152  23.9523414  62.9204798
  11.0871539  22.9903218  57.2559598  10.3039061  23.5324898  57.3497823
  11.7864284  23.5077197  57.6553839  14.3968189   8.7997847  59.8993803
  14.8936889   8.0467810  59.5794874  13.6255171   8.8362164  59.3337013
  22.2497946  14.5038213  61.5412095  22.2387823  15.3862928  61.1706028
  21.3815326  14.1509764  61.3466632  13.7580443  23.6518282  65.9014935
  14.4708415  24.2865747  65.8290837  13.2670471  23.7482148  65.0854937
  15.4797970  17.5569534  57.4732227  14.5454248  17.6770997  57.3036931
  15.6574638  16.6542001  57.2092237  18.8670521  13.3986854  58.0082261
  19.3330973  14.2314845  57.9342564  19.3178022  12.9331835  58.7127519
   8.8092356  21.4012725  66.7220506   9.5101816  22.0349208  66.8749900
   8.3387471  21.7427457  65.9616145  16.9346752  19.7430675  55.0068413
  17.2106596  19.6287270  55.9162287  16.0651251  19.3448160  54.9680586
  16.6093642  13.9557333  64.5473056  15.9565093  14.2033240  63.8925509
  16.9874022  13.1421471  64.2135534  13.5700816  23.9917026  58.6501227
  13.7523211  23.1738682  59.1128979  14.3933802  24.2084718  58.2126117
  13.9042982  22.9185211  55.9116275  14.4330748  22.4077666  55.2986437
  14.1671201  22.6027741  56.7761808  12.6581215  14.6977144  71.0339093
  11.9821852  14.5971273  71.7041469  13.4808849  14.5416357  71.4975091
   4.4060074  20.9349080  63.6551609   4.9913511  20.1892768  63.7879513
   4.2084913  21.2453037  64.5388273   7.2598730  23.9700328  58.6714051
   6.5909105  24.4546455  58.1878091   7.1211599  24.2169548  59.5857430
  11.4003998  26.0044071  65.2696709  11.9522306  26.1675693  66.0345795
  11.7410192  26.5948509  64.5976734  16.2514873  20.8305329  71.1245364
  16.7954776  21.4435287  70.6300319  15.6701717  21.3884907  71.6412377
  14.5372385  23.9526047  62.2560392  14.4123525  23.1515787  61.7471337
  15.1951477  24.4472240  61.7674361  16.6007294  21.7535067  63.8839942
  15.6537629  21.6340418  63.8118268  16.9490067  20.8657565  63.9666203
  13.6053727  21.5487783  60.0844294  13.4578690  20.6204490  60.2651864
  14.4307221  21.5707874  59.6001369  17.2087849  22.3716342  61.1709167
  18.1334396  22.1659203  61.0333618  17.0403152  22.1232743  62.0798508
  16.9983165  22.8902009  56.5271258  17.1720043  22.3248432  55.7745110
  17.4912056  23.6902904  56.3450748  22.8522556  15.6538432  58.1461558
  23.2953702  14.9045757  57.7480681  21.9749067  15.6448568  57.7635290
  17.9858338  22.2068774  53.6268156  18.6809242  22.8275466  53.8455471
  18.3281488  21.3564125  53.9020534  19.8849761  19.6568479  55.1555487
  20.4101085  19.9955752  54.4304807  19.7972113  18.7215494  54.9718622
  11.5469810  23.5702553  67.2845364  11.8556936  23.3251700  68.1568063
  12.3445292  23.7749191  66.7964234  11.5690422  25.7240462  59.5150740
  11.1295412  25.2316841  60.2083597  12.3198539  25.1813430  59.2742816
   4.0482761  21.9152003  59.5175368   4.8740780  21.6155775  59.1374012
   3.6976813  21.1459626  59.9665157   9.0164294  21.2678471  61.5873042
   8.3944303  20.6049176  61.2875270   9.6869161  21.2939603  60.9046690
   2.2491366  19.8338330  60.4764302   1.4123274  19.4060504  60.2948303
   2.2215011  20.0270773  61.4135093  19.5743667  20.2901383  70.4606685
  18.7839211  20.2725522  69.9211184  19.3377021  20.8289676  71.2155722
  19.6941542  17.1393849  67.7739414  19.7439547  16.9743857  68.7154936
  19.5855465  16.2721108  67.3837294   8.5777801  19.8182395  55.0631502
   8.7265921  20.5017859  54.4098175   9.3844244  19.7987485  55.5780958
  16.9845304  13.1224777  69.0898720  17.8855167  12.9831242  68.7982718
  17.0593279  13.2879232  70.0296898  21.1959739  19.5590791  68.0181435
  20.9044547  19.9220771  68.8544896  20.5831870  18.8457799  67.8394767
  22.3955421  17.1243670  60.5384005  23.2302312  17.5633474  60.7021566
  22.5314550  16.6482324  59.7192251  19.4446927  14.6823405  66.4861493
  19.9201049  14.8751052  65.6780344  18.5212492  14.7382591  66.2404877
   6.3330434  15.8447572  56.0692571   6.0876476  14.9409902  56.2672782
   6.5026348  15.8464723  55.1272049  12.0773206  22.3130525  52.5343250
  11.5047173  22.9320712  52.0813722  12.6506000  22.8629887  53.0683172
  18.1448596  11.5589165  64.7189799  19.0966019  11.6587263  64.7402023
  17.9752046  10.7667434  65.2287883  16.1662975   8.6444749  64.9049200
  15.5712908   8.9249761  64.2095688  15.8812672   9.1338649  65.6765941
  15.2970466  22.5967675  53.6651832  16.2301139  22.5313237  53.8684708
  15.2093679  23.4323942  53.2066365  17.9258483  21.9133546  50.6255780
  17.8472114  21.5793409  51.5191538  18.7468149  22.4055314  50.6247252
  20.6236674  14.7795285  63.8332098  20.5912994  13.8411286  64.0191782
  21.2337297  14.8579322  63.0997923  12.4620005  13.6491338  49.8759302
  13.4079109  13.5197546  49.9447720  12.0834250  12.9106000  50.3528731
  20.7731162  11.5706328  63.8790382  20.2570211  10.7864785  63.6920310
  21.6571111  11.2425045  64.0436901  26.4413224  15.8411292  62.9738135
  27.1716612  15.5796580  63.5345838  25.8320169  15.1040014  63.0140203
  24.5228521  13.9819154  63.5712586  23.7961684  13.8475119  62.9629078
  24.1075808  14.2895983  64.3769304  12.3458697  17.7009084  71.3359959
  13.2661707  17.8787683  71.5300006  12.3108280  16.7565130  71.1839659
   5.3420770  15.6110119  63.9782741   5.5606780  16.5427227  63.9970774
   5.7546544  15.2518093  64.7637544  17.5694343   7.3056776  57.0961390
  16.9893012   7.9641580  56.7139442  17.3030276   6.4834121  56.6848807
  10.0779905  14.6140463  72.1850551   9.5946987  15.4140824  72.3914440
  10.1640844  14.6248408  71.2317995   3.3465865  16.4468843  60.1072370
   3.3236553  16.5456530  59.1554254   3.6566501  17.2933994  60.4289537
   6.0053243  18.5044998  64.2218985   6.9596496  18.4728940  64.1548916
   5.8065766  18.0435622  65.0369211   6.5952625  17.0746114  66.7889783
   7.4145514  17.5690193  66.8124620   6.8689432  16.1578082  66.7607350
  16.3519221   9.4656866  56.1517738  15.4645076   9.7506517  55.9337933
  16.7673210   9.3050630  55.3045015  19.7033757   9.4903387  59.8672077
  20.4794147   9.9799840  60.1396694  18.9781891   9.9161442  60.3243947
  22.1406316  10.2031007  60.9246018  22.7350806   9.9626743  60.2139326
  22.2132899   9.4838137  61.5519554   4.3603471  24.0464618  61.2389183
   4.2257939  23.2865018  60.6727181   3.9435534  24.7705517  60.7717972
  15.4962434  19.2301541  50.2465758  16.1998285  19.4351544  50.8623414
  14.7725083  19.7978303  50.5114842  16.3260245  14.9811402  56.3668028
  16.2695446  15.4379954  55.5275661  16.8788587  14.2202087  56.1890871
  20.1365051  10.7701134  57.1918148  19.8801985  10.3697770  58.0226355
  19.5117919  11.4844928  57.0668287  24.4477388  13.5097208  59.6989439
  23.8876946  13.5790397  60.4721001  23.8420892  13.3338192  58.9788935
   7.5172597  24.9433935  61.4507625   7.4004981  25.8879367  61.3486316
   6.6965044  24.6407496  61.8393425  17.4049132  19.6684070  52.2964218
  18.2394736  19.2365269  52.1141693  17.2433475  19.4966084  53.2241113
  17.0595024  16.1716184  53.6620557  17.0043828  16.0060455  52.7209002
  16.4341079  16.8792217  53.8182747  14.3740931  18.4765096  72.9874120
  15.2432091  18.6505748  72.6260755  13.8947683  19.2959512  72.8649850
   8.5427111  25.5962197  64.6663554   9.4454358  25.6285807  64.9830049
   8.3164481  24.6662647  64.6809890  10.2980713  24.3493183  61.3273632
   9.3476344  24.3495045  61.2138005  10.6013200  23.6025918  60.8109667
  26.0333407  30.1853721  62.3919395  26.6711817  30.0660469  61.6882735
  25.9154250  31.1334565  62.4507347  22.8423113  30.1381150  62.3280920
  22.5041625  30.0222214  61.4401454  23.7112881  29.7372315  62.3081926
  18.7009929  31.9916626  58.3177811  18.1374794  31.9006563  57.5494098
  18.5862324  31.1716530  58.7980303  23.3242896  31.2916001  68.2867125
  23.3131537  30.8968800  67.4147629  23.4863536  30.5582074  68.8800897
  16.2474361  33.4867818  61.1562031  17.0395653  33.1458642  60.7408330
  16.4871011  33.5962793  62.0764184  24.2809488  35.6587594  53.6292275
  23.6297467  36.2441674  53.2426289  25.0753850  36.1893789  53.6887313
  18.2065115  32.7476731  54.0279410  18.9795991  32.2005718  53.8892286
  18.5590514  33.6120980  54.2393871  20.0450157  34.0753113  67.2346309
  19.7540023  34.9798744  67.1192975  20.6807142  34.1169641  67.9490379
  20.9706364  31.4529962  63.8247669  21.5669936  31.2285984  63.1104632
  21.0281336  30.7114707  64.4273117  20.5431393  28.9069397  51.6597860
  20.7956913  28.3850918  50.8981323  19.6055952  28.7435542  51.7624543
  25.5874675  27.9105175  59.4672603  26.3737765  27.4924598  59.1163020
  25.8513380  28.8151267  59.6354251  25.7584753  33.3478026  54.1661260
  25.1230586  33.4212652  54.8782164  25.4282159  33.9371624  53.4880339
  30.9883103  27.8480408  60.3705581  31.7208274  27.2779625  60.6043411
  30.2322458  27.4602009  60.8112087  20.2627681  30.8097503  53.8622235
  20.1463939  30.1342406  54.5303319  20.3729941  30.3229877  53.0454388
  22.6059222  30.2707650  57.5668924  22.2417429  29.7438271  58.2781845
  23.4626338  29.8806119  57.3935409  28.5108523  21.5601983  64.8300190
  28.1791848  22.4297394  64.6061405  27.9154136  21.2438267  65.5094220
  22.2464709  25.2997550  52.5630272  22.4139112  26.1677786  52.9300743
  22.0561878  25.4624831  51.6391562  25.0040042  33.7614529  64.2296103
  24.7040765  34.6639567  64.1211910  24.6591102  33.4946712  65.0817256
  18.4552524  30.2128325  60.2632807  17.5303020  30.0804540  60.4710499
  18.7036937  30.9922545  60.7602750  28.4037186  26.2797069  61.9093540
  27.4954064  26.2112477  61.6152301  28.3524782  26.7569014  62.7375366
  22.2253930  27.7555207  53.5476939  22.1053555  28.2012258  54.3862419
  21.5306518  28.1040525  52.9890477  15.8161335  29.8561599  61.0976596
  15.9453716  30.1096078  62.0116008  15.1358786  30.4489307  60.7781251
  19.9860822  40.5258849  57.1967070  19.9084852  41.4766674  57.2755551
  19.3822466  40.1804721  57.8541997  22.4778052  27.6986714  69.8528437
  21.7011386  28.2580635  69.8431302  23.1168615  28.1843497  70.3743307
  30.2698833  24.4813507  63.6871414  29.6273213  24.7746040  63.0411209
  29.7653761  24.3666428  64.4924611  27.9238996  28.2276680  54.3757273
  28.8356852  28.4604067  54.2004971  27.4148643  28.8113725  53.8132352
  20.7324424  30.5072168  69.4146404  21.4739109  31.0457212  69.1381228
  20.0261410  31.1338456  69.5717956  26.2079764  32.6501308  68.0118566
  26.6163120  32.2083719  67.2673198  25.4857025  32.0753936  68.2652759
  22.5610834  27.5873915  65.3852123  23.4072029  28.0113329  65.5286772
  22.5009472  26.9307539  66.0790686  26.5308579  33.2102499  61.7670855
  25.9017441  33.3748213  61.0646923  26.1434241  33.6244108  62.5381819
  30.4097810  34.1456937  59.1215218  29.7248849  34.5255838  58.5712252
  30.4941660  34.7552263  59.8547166  25.7110279  25.2478283  67.0433296
  25.4671211  26.0020344  66.5067572  25.9870210  25.6263631  67.8780543
  27.6648742  31.7916896  65.7210562  27.8765637  32.4348656  65.0444943
  27.6178490  30.9579212  65.2532492  25.2674971  24.4034716  62.6247134
  24.4059450  24.7015970  62.9163872  25.2937406  24.6205115  61.6928167
  22.0836540  32.9476907  59.0320940  22.5474886  33.2264610  58.2425562
  21.8193339  32.0460351  58.8494031  18.9760621  32.4948388  61.9700703
  19.5461979  32.9235657  61.3318188  19.5668733  32.2130973  62.6684889
  21.0205426  29.0700059  55.8410505  21.7229470  29.5221103  56.3084431
  20.6886055  28.4283878  56.4690398  19.4685788  27.6611816  70.2161714
  18.8384449  28.3428097  70.4497111  19.3621876  27.5494898  69.2714853
  14.7630760  27.3283612  61.1427639  13.9729814  27.5841140  60.6667749
  15.2542008  28.1431950  61.2479679  28.7794570  34.6688851  63.8932919
  29.6012014  34.2669038  63.6115601  28.7756973  34.5657085  64.8449035
  16.7145506  27.6928191  58.1011115  15.9176669  27.8046885  58.6194611
  16.4871098  28.0314843  57.2352006  22.5451173  34.2172894  66.0493630
  22.6095606  34.6793302  66.8851802  21.8362097  33.5870259  66.1775940
  13.0468463  27.5814102  63.5742629  13.2976502  28.4661112  63.8400205
  13.5828012  27.4018704  62.8017721  36.8700563  31.0127600  60.2417891
  36.1164271  30.4434998  60.0861895  37.0048104  30.9790264  61.1888526
  22.2599191  35.8841002  55.9172610  22.1244866  36.7292538  56.3457458
  22.8009004  36.0860280  55.1538544  18.7466531  21.9632582  72.5786965
  18.3533476  21.4098780  73.2534610  19.5632671  22.2743160  72.9693483
  15.7128588  33.4016440  56.4900535  16.2253109  34.1959690  56.6406100
  16.3651301  32.7042730  56.4234137  17.5223473  36.5182196  58.5723288
  17.6990102  37.4400161  58.3844272  18.3180307  36.2040615  59.0017668
  21.6634492  23.3790461  70.1707222  22.4044205  23.9797614  70.0911684
  21.8952415  22.6368099  69.6125265  16.8075830  28.5646828  68.4485452
  16.6929345  27.6632085  68.7492551  15.9520347  28.8110525  68.0970268
  23.8867667  36.5064568  70.0472952  23.4431522  35.7200947  69.7293857
  24.5484881  36.6943719  69.3816843  18.6454789  38.0360370  64.5733631
  19.1962214  37.9077433  63.8010625  17.8066265  38.3355259  64.2228524
  25.9848906  36.7867368  68.0754354  25.9667381  37.6076249  67.5834623
  26.9068826  36.6621444  68.3004495  22.4421960  34.3011498  68.9177862
  22.9750296  33.5399786  68.6877170  21.9136041  34.0085150  69.6602016
  25.6091655  19.4071564  64.4471504  25.2655924  20.2973205  64.3710614
  25.9770617  19.2173221  63.5841089  13.6777505  31.7305094  57.2660106
  14.5152727  32.1402103  57.0493814  13.8555773  30.7904536  57.2360300
  25.5741937  29.3980175  52.9543939  25.0588561  30.1684780  53.1932326
  25.3019246  28.7245311  53.5777000  23.1589048  24.2429876  58.0129177
  22.3030645  23.8536726  57.8334816  23.5716000  24.3221836  57.1528963
  24.6888195  21.7776219  62.4120737  24.1852991  21.7406354  61.5988542
  24.9818802  22.6868962  62.4717394  20.9331081  21.8614949  61.4186919
  21.7984078  21.6657757  61.0592808  21.0008590  21.6325300  62.3456275
  30.5476212  32.1512530  54.8897112  29.7705654  31.8123689  54.4452274
  31.2267692  32.1565153  54.2152077  25.3628241  27.2707267  54.7803720
  25.0578376  27.5853416  55.6313863  26.3158683  27.3488687  54.8231053
  23.8074672  33.4297490  56.4296674  23.2796034  32.6950250  56.1169911
  23.3062175  34.2072167  56.1836642  28.7867518  31.6246511  61.5463720
  28.1291193  32.3145772  61.6343849  29.5907918  32.0142943  61.8897707
  18.5393400  24.0917157  58.7903285  19.1137152  23.8692338  58.0576478
  19.1264382  24.1605851  59.5431887  27.5972977  29.9790883  59.5967662
  28.1104859  30.6120875  60.0989372  28.2474201  29.3792079  59.2311022
  18.8662987  26.1221618  52.8099171  18.0300299  26.4596304  53.1308445
  18.7267757  25.9870597  51.8726308  20.8416068  20.9658405  57.5178355
  20.1880480  20.6507423  56.8934970  20.7996542  20.3434146  58.2438178
  21.9527273  31.2477701  49.4331647  21.0454334  31.0166954  49.6322796
  22.4498305  30.4515320  49.6205628  24.8595351  39.9575208  52.3528333
  24.1857050  40.2606905  52.9613291  25.2461173  40.7604288  52.0033790
  24.0753808  27.4540339  61.8426002  23.1576369  27.6755286  61.6847691
  24.4913952  27.5286650  60.9837710  24.8588856  28.8531755  56.9728683
  25.6060675  29.3653152  56.6635805  25.1280445  28.5315807  57.8333076
  23.1315506  31.3490295  53.9555637  22.2226725  31.0649328  54.0528107
  23.1610590  31.7689374  53.0958944  28.3634773  34.9596885  57.7246805
  27.9097101  34.1187795  57.7811995  27.7328740  35.5958283  58.0621585
  27.3067693  25.8888871  58.9547472  26.5690450  25.3766257  59.2857715
  27.5594467  25.4489253  58.1430749  26.8067713  36.7973382  58.6596623
  27.0990687  37.3578439  57.9408988  27.3166333  37.0901943  59.4149782
  27.4079320  18.6665123  59.5489241  27.7138197  17.8062486  59.2615156
  28.1331925  19.2582743  59.3488235  13.7003676  29.0695810  57.9370839
  13.5028076  28.4765170  57.2121906  13.1450340  28.7648020  58.6546778
  21.6800400  28.9618916  60.0565432  21.7349010  28.0092752  59.9807909
  20.8691602  29.1178355  60.5406731  22.8291594  32.8899039  51.2943716
  22.3911024  32.1734898  50.8349353  23.5702035  33.1175154  50.7328807
  19.6192760  27.5795976  57.8155811  18.8060626  27.8790146  58.2221003
  20.1151754  27.1851665  58.5330294  21.7701338  37.5753733  59.7490076
  21.7277517  37.8014579  58.8198608  22.6864037  37.3417107  59.8975877
  25.2166972  28.0437800  66.6470705  25.5716359  28.2709273  67.5065171
  25.8639103  28.3756177  66.0247960  30.9464709  31.1656236  57.3520034
  30.8082607  31.3557832  56.4241223  30.5900927  31.9275619  57.8088085
  19.1106835  25.1514331  63.4317046  19.7506214  25.0103090  62.7340010
  18.2784365  24.8648845  63.0555648  30.9734088  33.2332763  62.3631306
  31.4070595  33.1408052  63.2114360  31.6865669  33.2090264  61.7251322
  19.8867139  34.4516762  59.5452039  20.6807737  33.9567082  59.3434614
  19.1758831  33.9234625  59.1819744  24.7061983  36.8334857  63.8964406
  24.7599005  37.4025794  64.6642122  23.8376764  37.0036742  63.5318443
  16.1949902  28.5959843  55.6211791  15.2647490  28.5344299  55.8381753
  16.2907374  28.0735796  54.8248433  16.1135451  25.1214656  58.2090033
  16.3742268  26.0359990  58.0999193  16.9352623  24.6539099  58.3586646
  17.5860376  26.5352413  65.3788858  18.2583430  26.3269776  64.7301506
  16.7590163  26.3374499  64.9394090  31.8349638  33.2756464  64.8964191
  32.0285528  34.1802274  65.1423466  31.7350256  32.8163883  65.7302776
  23.4885948  23.1614354  67.3954518  22.8413864  23.8604304  67.3018995
  24.2586964  23.5950498  67.7630767  26.8964746  33.4263207  70.4705072
  26.7450253  33.1973758  69.5535155  26.8869426  34.3833808  70.4836417
  23.6650083  30.9995119  65.4551338  24.5942143  31.1506279  65.2820305
  23.2441113  31.0879140  64.5999985  22.4638415  35.0245784  63.2249876
  22.3249500  34.6564568  64.0975814  21.6753011  35.5393423  63.0533834
  23.0586567  40.1254880  54.5675412  23.2338322  39.6542923  55.3821035
  22.3719355  40.7520646  54.7956673  24.0143630  34.4027386  60.6138714
  23.6793462  34.3628156  61.5096363  23.5147575  33.7372102  60.1409124
  17.9887874  29.8095016  66.1391295  17.8507672  29.0775255  66.7402834
  18.8992797  29.7203917  65.8575482  26.9502821  31.7483421  50.8875773
  26.3331992  31.0230249  50.7908826  26.4819310  32.5092781  50.5442847
  20.6170174  29.5214976  65.6274974  21.3269793  28.8808168  65.5861593
  20.5739483  29.7727871  66.5501155  28.6056953  36.4582329  68.5481554
  28.5469499  35.7741549  67.8812137  29.0076471  37.2001319  68.0962180
  19.3299108  26.5080194  67.4470614  18.7936465  26.0570932  68.0992210
  18.7415817  26.6426102  66.7041078  17.6247652  43.2744243  61.3415272
  17.8644250  43.9062767  62.0194291  16.7816848  42.9232283  61.6280632
  18.7401367  25.9668845  50.0097077  17.8630834  25.8457646  49.6459324
  19.2159120  25.1754923  49.7575966  28.6074360  34.4221913  66.7795533
  27.7201139  34.0847835  66.9021932  29.1772911  33.6904944  67.0164299
  10.2603507  30.7546005  60.1038585  10.9474547  30.4407735  59.5159600
  10.1051636  31.6587369  59.8305836  15.0638230  25.6436201  64.5323608
  14.9796418  25.0361871  63.7974018  14.2420936  26.1345220  64.5333105
  22.1375514  39.0823365  63.7456776  22.0645685  39.8878337  64.2576081
  21.6952907  39.2815331  62.9204798  21.9265293  38.3195135  57.2559598
  21.1432815  38.8616816  57.3497823  22.6258039  38.8369115  57.6553839
  25.2361943  24.1289765  59.8993803  25.7330643  23.3759727  59.5794874
  24.4648925  24.1654082  59.3337013  33.0891701  29.8330130  61.5412095
  33.0781577  30.7154846  61.1706028  32.2209080  29.4801681  61.3466632
  24.5974197  38.9810199  65.9014935  25.3102169  39.6157664  65.8290837
  24.1064226  39.0774065  65.0854937  26.3191724  32.8861452  57.4732227
  25.3848003  33.0062915  57.3036931  26.4968393  31.9833919  57.2092237
  21.8196912  26.2707148  59.6265488  21.4494700  25.7178188  60.3146394
  22.3156005  25.6665281  59.0740488  29.7064276  28.7278771  58.0082261
  30.1724728  29.5606763  57.9342564  30.1571776  28.2623753  58.7127519
  19.6486111  36.7304643  66.7220506  20.3495570  37.3641126  66.8749900
  19.1781226  37.0719374  65.9616145  27.7740507  35.0722593  55.0068413
  28.0500351  34.9579187  55.9162287  26.9045005  34.6740078  54.9680586
  27.6780938  21.0959358  62.0473162  26.7644018  21.3263585  62.2155369
  28.1074040  21.1797802  62.8987195  27.4487397  29.2849250  64.5473056
  26.7958847  29.5325158  63.8925509  27.8267777  28.4713389  64.2135534
  24.4094571  39.3208944  58.6501227  24.5916965  38.5030599  59.1128979
  25.2327557  39.5376636  58.2126117  24.7436736  38.2477129  55.9116275
  25.2724503  37.7369583  55.2986437  25.0064956  37.9319659  56.7761808
  23.4974970  30.0269061  71.0339093  22.8215607  29.9263191  71.7041469
  24.3202604  29.8708275  71.4975091  15.2453829  36.2640998  63.6551609
  15.8307266  35.5184686  63.7879513  15.0478667  36.5744955  64.5388273
  18.0992484  39.2992245  58.6714051  17.4302859  39.7838373  58.1878091
  17.9605354  39.5461466  59.5857430   9.8371484  28.8346598  62.3756052
   9.8755583  28.3010189  63.1693170   9.3311776  28.3081804  61.7567029
  22.2397753  41.3335989  65.2696709  22.7916061  41.4967610  66.0345795
  22.5803946  41.9240427  64.5976734  17.2162246  23.6811139  65.8718594
  17.2803572  24.5425970  65.4595992  17.1529366  23.0685140  65.1390953
  16.6914518  25.7534271  69.5191628  17.3186557  25.3711349  70.1329153
  15.8342437  25.5348473  69.8847321  27.0908627  36.1597246  71.1245364
  27.6348531  36.7727205  70.6300319  26.5095472  36.7176825  71.6412377
  13.4680061  27.5610700  55.4509983  13.7633502  26.6521379  55.3977037
  12.5668097  27.5398440  55.1290985  25.3766140  39.2817964  62.2560392
  25.2517279  38.4807704  61.7471337  26.0345231  39.7764158  61.7674361
  16.9974308  25.6366697  61.4337532  16.2760894  26.2502665  61.2945005
  17.7867564  26.1724462  61.3554178  27.4401048  37.0826984  63.8839942
  26.4931384  36.9632336  63.8118268  27.7883821  36.1949482  63.9666203
  19.8000622  22.9721123  67.7078184  20.3235024  23.2183420  68.4704493
  19.5812955  23.8041158  67.2881321  15.1967903  25.2424798  55.5749308
  14.8680609  24.3622177  55.3924414  15.5507273  25.1872467  56.4625698
  24.4447482  36.8779701  60.0844294  24.2972444  35.9496408  60.2651864
  25.2700975  36.8999791  59.6001369  18.3109726  25.5297768  55.9424786
  18.6505798  26.0583689  55.2203394  18.7581846  25.8678174  56.7183353
  28.0481603  37.7008259  61.1709167  28.9728151  37.4951121  61.0333618
  27.8796907  37.4524661  62.0798508  21.0053167  23.9134818  65.3927854
  20.6649987  23.1142632  65.7948534  20.2992173  24.2136529  64.8204687
  21.6569639  20.9984131  63.8455177  22.4795708  20.5244609  63.7234067
  21.9007702  21.7774615  64.3453863  20.2977873  24.0272389  54.1418079
  21.0186236  24.4053642  53.6381796  19.6743177  24.7461266  54.2453057
  24.4408996  24.7317538  55.0776411  24.6572610  25.6142176  54.7765239
  23.9603063  24.3403752  54.3482053  19.1808217  27.6903252  61.6547156
  19.0352798  28.0043555  62.5471437  18.7033421  28.3088152  61.1018054
  21.0404600  24.6805800  61.7028045  21.0266169  23.7846893  61.3660343
  21.7577028  24.6876463  62.3366331  22.8930731  25.1143140  63.7481173
  22.6348509  26.0360210  63.7465503  22.3615771  24.7173574  64.4381637
  27.8376920  38.2193927  56.5271258  28.0113797  37.6540349  55.7745110
  28.3305811  39.0194822  56.3450748  13.6553879  30.2308596  64.5934817
  13.1107348  31.0068404  64.7255091  14.5333229  30.5779400  64.4353938
  20.4441496  23.5620180  56.9715615  20.5657407  22.6336826  57.1706503
  20.1543539  23.5758866  56.0593931  23.3132687  21.2475090  60.1082335
  23.3354383  21.3114423  59.1534315  23.7300746  20.4079599  60.3022841
  33.6916311  30.9830350  58.1461558  34.1347457  30.2337675  57.7480681
  32.8142821  30.9740486  57.7635290  28.8252092  37.5360691  53.6268156
  29.5202997  38.1567384  53.8455471  29.1675242  36.6856042  53.9020534
  14.4419901  29.3578492  67.4864974  13.7001637  29.5061128  68.0729604
  14.1212646  29.6186758  66.6231723  30.7243515  34.9860397  55.1555487
  31.2494839  35.3247670  54.4304807  30.6365868  34.0507412  54.9718622
  22.3863564  38.8994470  67.2845364  22.6950690  38.6543617  68.1568063
  23.1839046  39.1041109  66.7964234  22.4084176  41.0532380  59.5150740
  21.9689166  40.5608759  60.2083597  23.1592293  40.5105348  59.2742816
  14.8876515  37.2443921  59.5175368  15.7134535  36.9447693  59.1374012
  14.5370567  36.4751543  59.9665157  19.8558048  36.5970389  61.5873042
  19.2338057  35.9341094  61.2875270  20.5262915  36.6231521  60.9046690
  13.0885120  35.1630247  60.4764302  12.2517028  34.7352422  60.2948303
  13.0608766  35.3562691  61.4135093  19.9282576  25.0752177  71.1805548
  19.9770731  25.9514300  70.7983318  20.4705090  24.5329570  70.6077191
  30.4137421  35.6193300  70.4606685  29.6232965  35.6017439  69.9211184
  30.1770776  36.1581594  71.2155722  30.5335296  32.4685767  67.7739414
  30.5833301  32.3035774  68.7154936  30.4249220  31.6013026  67.3837294
  19.4171555  35.1474312  55.0631502  19.5659675  35.8309777  54.4098175
  20.2237999  35.1279403  55.5780958  27.8239059  28.4516695  69.0898720
  28.7248922  28.3123160  68.7982718  27.8987033  28.6171150  70.0296898
  22.1581864  25.8283550  67.9351907  21.2885174  26.1217116  67.6634495
  22.3941344  26.4123995  68.6559170  32.0353493  34.8882708  68.0181435
  31.7438302  35.2512689  68.8544896  31.4225625  34.1749717  67.8394767
  33.2349176  32.4535588  60.5384005  34.0696067  32.8925392  60.7021566
  33.3708304  31.9774241  59.7192251  30.2840681  30.0115323  66.4861493
  30.7594803  30.2042969  65.6780344  29.3606247  30.0674509  66.2404877
  17.1724188  31.1739490  56.0692571  16.9270230  30.2701820  56.2672782
  17.3420103  31.1756641  55.1272049  24.8620898  22.0463167  65.4517327
  25.3802842  22.7824193  65.1263816  24.5076031  22.3527160  66.2864086
  16.4419836  26.9067848  53.5678733  15.7489081  26.9812203  52.9118769
  16.1971588  26.1428191  54.0900250  25.1133492  18.4663449  60.9718224
  25.3935246  17.7986638  61.5978650  25.8984099  18.6592545  60.4592887
  22.9166961  37.6422443  52.5343250  22.3440928  38.2612630  52.0813722
  23.4899754  38.1921805  53.0683172  28.9842350  26.8881083  64.7189799
  29.9359773  26.9879181  64.7402023  28.8145801  26.0959352  65.2287883
  27.0056730  23.9736666  64.9049200  26.4106662  24.2541679  64.2095688
  26.7206427  24.4630567  65.6765941  26.1364220  37.9259593  53.6651832
  27.0694894  37.8605155  53.8684708  26.0487433  38.7615860  53.2066365
  28.7652237  37.2425463  50.6255780  28.6865869  36.9085327  51.5191538
  29.5861904  37.7347231  50.6247252  31.4630428  30.1087203  63.8332098
  31.4306748  29.1703203  64.0191782  32.0731052  30.1871239  63.0997923
  23.3013759  28.9783256  49.8759302  24.2472864  28.8489464  49.9447720
  22.9228004  28.2397918  50.3528731  31.6124917  26.8998246  63.8790382
  31.0963965  26.1156703  63.6920310  32.4964865  26.5716963  64.0436901
  29.2735644  20.6439262  59.8386194  29.0760465  20.3354350  60.7229526
  29.8835349  21.3700901  59.9684124  37.2806978  31.1703210  62.9738135
  38.0110367  30.9088498  63.5345838  36.6713924  30.4331932  63.0140203
  35.3622275  29.3111072  63.5712586  34.6355439  29.1767037  62.9629078
  34.9469562  29.6187901  64.3769304  23.1852452  33.0301002  71.3359959
  24.1055461  33.2079601  71.5300006  23.1502035  32.0857047  71.1839659
  21.4856676  26.9033232  49.8114188  20.5788132  26.6066345  49.8876901
  21.7632657  26.6063050  48.9448474  12.4034617  28.2239595  60.2613234
  12.0837401  27.3704904  59.9687608  11.8568045  28.4388174  61.0171201
  16.1814524  30.9402036  63.9782741  16.4000534  31.8719144  63.9970774
  16.5940298  30.5810011  64.7637544  23.1018742  21.4470122  55.9658429
  22.2919470  21.1017207  56.3413675  23.7903159  21.1377666  56.5546040
  25.0309290  20.5248169  57.5882726  25.5840329  20.9443622  58.2472749
  25.2679377  19.5983917  57.6305682  21.0542390  26.5135242  73.3685489
  20.9539116  27.4629599  73.2997581  20.8363932  26.1853481  72.4961560
  20.2555461  23.7620167  49.9526167  21.1174625  24.0875066  50.2121984
  20.4405805  22.9751663  49.4399233  12.2722877  31.8442507  62.2306356
  11.5786348  31.4296460  61.7176310  13.0195868  31.8863043  61.6339775
  28.4088097  22.6348694  57.0961390  27.8286766  23.2933498  56.7139442
  28.1424030  21.8126038  56.6848807  26.8591664  22.0353751  59.2982710
  27.3591442  22.1470286  58.4897029  27.5027272  21.7314804  59.9383519
  20.9173660  29.9432381  72.1850551  20.4340741  30.7432741  72.3914440
  21.0034599  29.9540326  71.2317995  14.1859619  31.7760761  60.1072370
  14.1630307  31.8748448  59.1554254  14.4960256  32.6225912  60.4289537
  16.8446997  33.8336916  64.2218985  17.7990251  33.8020858  64.1548916
  16.6459521  33.3727540  65.0369211  17.4346379  32.4038032  66.7889783
  18.2539268  32.8982111  66.8124620  17.7083187  31.4870000  66.7607350
  27.1912975  24.7948784  56.1517738  26.3038830  25.0798435  55.9337933
  27.6066964  24.6342548  55.3045015  30.5427512  24.8195305  59.8672077
  31.3187902  25.3091758  60.1396694  29.8175646  25.2453359  60.3243947
  32.9800070  25.5322924  60.9246018  33.5744561  25.2918660  60.2139326
  33.0526654  24.8130055  61.5519554  15.1997226  39.3756535  61.2389183
  15.0651694  38.6156936  60.6727181  14.7829288  40.0997435  60.7717972
  26.3356189  34.5593459  50.2465758  27.0392039  34.7643461  50.8623414
  25.6118838  35.1270221  50.5114842  27.1653999  30.3103320  56.3668028
  27.1089201  30.7671872  55.5275661  27.7182342  29.5494005  56.1890871
  30.9758805  26.0993052  57.1918148  30.7195739  25.6989688  58.0226355
  30.3511673  26.8136846  57.0668287  35.2871143  28.8389125  59.6989439
  34.7270701  28.9082315  60.4721001  34.6814646  28.6630110  58.9788935
  18.3566352  40.2725852  61.4507625  18.2398736  41.2171285  61.3486316
  17.5358798  39.9699414  61.8393425  28.2442886  34.9975988  52.2964218
  29.0788490  34.5657186  52.1141693  28.0827229  34.8258002  53.2241113
  27.8988778  31.5008101  53.6620557  27.8437582  31.3352373  52.7209002
  27.2734834  32.2084134  53.8182747  12.6881293  26.7376166  67.4881980
  13.3340157  26.2275120  67.9769205  12.4798445  27.4744847  68.0625405
  25.2134686  33.8057013  72.9874120  26.0825845  33.9797665  72.6260755
  24.7341437  34.6251430  72.8649850  21.2084904  21.0016210  53.2405876
  21.1963574  21.9458050  53.3974147  22.1008326  20.8186356  52.9465337
  19.3820866  40.9254114  64.6663554  20.2848113  40.9577724  64.9830049
  19.1558236  39.9954565  64.6809890  21.1374468  39.6785101  61.3273632
  20.1870099  39.6786962  61.2138005  21.4406954  38.9317835  60.8109667
  25.0237023  17.5958987  57.4951813  24.2569419  17.0417474  57.6408495
  25.4347728  17.6680856  58.3565964  17.0278784  23.8843783  71.5856994
  17.8910246  23.5280588  71.7960318  16.4544195  23.5457678  72.2732398
  36.8727161  45.5145639  62.3919395  37.5105571  45.3952386  61.6882735
  36.7548004  46.4626483  62.4507347  33.6816868  45.4673067  62.3280920
  33.3435379  45.3514132  61.4401454  34.5506636  45.0664232  62.3081926
  29.5403683  47.3208544  58.3177811  28.9768548  47.2298481  57.5494098
  29.4256078  46.5008448  58.7980303  34.1636651  46.6207919  68.2867125
  34.1525291  46.2260717  67.4147629  34.3257290  45.8873992  68.8800897
  27.0868115  48.8159735  61.1562031  27.8789407  48.4750560  60.7408330
  27.3264765  48.9254710  62.0764184  29.0458869  48.0768648  54.0279410
  29.8189745  47.5297636  53.8892286  29.3984268  48.9412898  54.2393871
  30.8843912  49.4045031  67.2346309  30.5933778  50.3090662  67.1192975
  31.5200896  49.4461558  67.9490379  31.8100119  46.7821879  63.8247669
  32.4063691  46.5577902  63.1104632  31.8675090  46.0406625  64.4273117
  31.3825147  44.2361315  51.6597860  31.6350668  43.7142836  50.8981323
  30.4449706  44.0727460  51.7624543  36.4268430  43.2397093  59.4672603
  37.2131519  42.8216516  59.1163020  36.6907134  44.1443185  59.6354251
  36.5978507  48.6769943  54.1661260  35.9624340  48.7504570  54.8782164
  36.2675914  49.2663542  53.4880339  31.1021436  46.1389421  53.8622235
  30.9857694  45.4634324  54.5303319  31.2123696  45.6521794  53.0454388
  33.4452977  45.5999568  57.5668924  33.0811184  45.0730189  58.2781845
  34.3020093  45.2098037  57.3935409  39.3502277  36.8893900  64.8300190
  39.0185602  37.7589311  64.6061405  38.7547891  36.5730184  65.5094220
  33.0858464  40.6289467  52.5630272  33.2532866  41.4969704  52.9300743
  32.8955633  40.7916749  51.6391562  35.8433797  49.0906446  64.2296103
  35.5434520  49.9931485  64.1211910  35.4984856  48.8238629  65.0817256
  29.2946278  45.5420243  60.2632807  28.3696775  45.4096457  60.4710499
  29.5430692  46.3214462  60.7602750  39.2430941  41.6088986  61.9093540
  38.3347818  41.5404395  61.6152301  39.1918536  42.0860931  62.7375366
  33.0647685  43.0847125  53.5476939  32.9447310  43.5304176  54.3862419
  32.3700273  43.4332443  52.9890477  26.6555089  45.1853517  61.0976596
  26.7847471  45.4387996  62.0116008  25.9752541  45.7781225  60.7781251
  33.3171806  43.0278632  69.8528437  32.5405140  43.5872552  69.8431302
  33.9562369  43.5135415  70.3743307  41.1092587  39.8105425  63.6871414
  40.4666967  40.1037958  63.0411209  40.6047516  39.6958345  64.4924611
  38.7632751  43.5568598  54.3757273  39.6750607  43.7895985  54.2004971
  38.2542398  44.1405642  53.8132352  31.5718179  45.8364085  69.4146404
  32.3132863  46.3749129  69.1381228  30.8655164  46.4630374  69.5717956
  37.0473518  47.9793226  68.0118566  37.4556874  47.5375636  67.2673198
  36.3250780  47.4045853  68.2652759  33.4004588  42.9165833  65.3852123
  34.2465784  43.3405246  65.5286772  33.3403226  42.2599457  66.0790686
  36.5504034  40.5770201  67.0433296  36.3064966  41.3312262  66.5067572
  36.8263964  40.9555549  67.8780543  36.1068725  39.7326634  62.6247134
  35.2453205  40.0307888  62.9163872  36.1331160  39.9497033  61.6928167
  32.9230295  48.2768825  59.0320940  33.3868640  48.5556528  58.2425562
  32.6587093  47.3752269  58.8494031  29.8154376  47.8240306  61.9700703
  30.3855733  48.2527574  61.3318188  30.4062488  47.5422891  62.6684889
  31.8599181  44.3991977  55.8410505  32.5623224  44.8513021  56.3084431
  31.5279809  43.7575796  56.4690398  30.3079542  42.9903734  70.2161714
  29.6778203  43.6720014  70.4497111  30.2015630  42.8786815  69.2714853
  25.6024515  42.6575530  61.1427639  24.8123569  42.9133058  60.6667749
  26.0935762  43.4723867  61.2479679  27.5539260  43.0220109  58.1011115
  26.7570424  43.1338803  58.6194611  27.3264852  43.3606761  57.2352006
  33.3844928  49.5464812  66.0493630  33.4489360  50.0085219  66.8851802
  32.6755852  48.9162177  66.1775940  23.8862218  42.9106020  63.5742629
  24.1370256  43.7953030  63.8400205  24.4221766  42.7310622  62.8017721
  29.5860285  37.2924499  72.5786965  29.1927231  36.7390698  73.2534610
  30.4026426  37.6035078  72.9693483  26.5522343  48.7308358  56.4900535
  27.0646864  49.5251608  56.6406100  27.2045056  48.0334648  56.4234137
  28.3617228  51.8474114  58.5723288  28.5383856  52.7692079  58.3844272
  29.1574061  51.5332533  59.0017668  32.5028246  38.7082379  70.1707222
  33.2437960  39.3089532  70.0911684  32.7346169  37.9660016  69.6125265
  27.6469584  43.8938746  68.4485452  27.5323099  42.9924003  68.7492551
  26.7914102  44.1402443  68.0970268  34.7261422  51.8356486  70.0472952
  34.2825276  51.0492865  69.7293857  35.3878636  52.0235637  69.3816843
  29.4848543  53.3652288  64.5733631  30.0355968  53.2369351  63.8010625
  28.6460019  53.6647177  64.2228524  33.2815714  49.6303416  68.9177862
  33.8144051  48.8691704  68.6877170  32.7529795  49.3377067  69.6602016
  36.4485409  34.7363481  64.4471504  36.1049679  35.6265123  64.3710614
  36.8164372  34.5465139  63.5841089  24.5171260  47.0597012  57.2660106
  25.3546482  47.4694020  57.0493814  24.6949527  46.1196454  57.2360300
  36.4135692  44.7272093  52.9543939  35.8982315  45.4976697  53.1932326
  36.1413000  44.0537229  53.5777000  33.9982803  39.5721793  58.0129177
  33.1424399  39.1828644  57.8334816  34.4109755  39.6513754  57.1528963
  35.5281950  37.1068137  62.4120737  35.0246745  37.0698272  61.5988542
  35.8212556  38.0160879  62.4717394  31.7724835  37.1906866  61.4186919
  32.6377832  36.9949675  61.0592808  31.8402344  36.9617218  62.3456275
  36.2021995  42.5999185  54.7803720  35.8972131  42.9145334  55.6313863
  37.1552437  42.6780605  54.8231053  29.3787154  39.4209074  58.7903285
  29.9530906  39.1984256  58.0576478  29.9658137  39.4897769  59.5431887
  38.4366732  45.3082801  59.5967662  38.9498613  45.9412793  60.0989372
  39.0867956  44.7083997  59.2311022  29.7056742  41.4513535  52.8099171
  28.8694054  41.7888222  53.1308445  29.5661511  41.3162515  51.8726308
  31.6809822  36.2950323  57.5178355  31.0274235  35.9799340  56.8934970
  31.6390296  35.6726064  58.2438178  32.7921027  46.5769618  49.4331647
  31.8848089  46.3458872  49.6322796  33.2892059  45.7807237  49.6205628
  34.9147563  42.7832257  61.8426002  33.9970124  43.0047204  61.6847691
  35.3307706  42.8578567  60.9837710  35.6982610  44.1823672  56.9728683
  36.4454429  44.6945070  56.6635805  35.9674200  43.8607725  57.8333076
  33.9709261  46.6782213  53.9555637  33.0620480  46.3941246  54.0528107
  34.0004344  47.0981292  53.0958944  38.1461447  41.2180789  58.9547472
  37.4084204  40.7058175  59.2857715  38.3988221  40.7781170  58.1430749
  38.2473075  33.9957041  59.5489241  38.5531952  33.1354404  59.2615156
  38.9725680  34.5874661  59.3488235  24.5397431  44.3987727  57.9370839
  24.3421831  43.8057088  57.2121906  23.9844095  44.0939937  58.6546778
  32.5194155  44.2910834  60.0565432  32.5742764  43.3384670  59.9807909
  31.7085357  44.4470273  60.5406731  33.6685348  48.2190957  51.2943716
  33.2304778  47.5026816  50.8349353  34.4095789  48.4467072  50.7328807
  30.4586514  42.9087893  57.8155811  29.6454380  43.2082064  58.2221003
  30.9545509  42.5143582  58.5330294  36.0560726  43.3729718  66.6470705
  36.4110114  43.6001191  67.5065171  36.7032857  43.7048095  66.0247960
  29.9500589  40.4806249  63.4317046  30.5899969  40.3395008  62.7340010
  29.1178120  40.1940762  63.0555648  30.7260893  49.7808679  59.5452039
  31.5201492  49.2859000  59.3434614  30.0152586  49.2526543  59.1819744
  27.0343657  43.9251761  55.6211791  26.1041245  43.8636217  55.8381753
  27.1301129  43.4027714  54.8248433  26.9529206  40.4506574  58.2090033
  27.2136023  41.3651907  58.0999193  27.7746378  39.9831017  58.3586646
  28.4254131  41.8644331  65.3788858  29.0977184  41.6561693  64.7301506
  27.5983918  41.6666417  64.9394090  34.3279703  38.4906272  67.3954518
  33.6807618  39.1896222  67.3018995  35.0980718  38.9242416  67.7630767
  37.7358501  48.7555124  70.4705072  37.5844007  48.5265676  69.5535155
  37.7263180  49.7125726  70.4836417  34.5043837  46.3287037  65.4551338
  35.4335897  46.4798197  65.2820305  34.0834867  46.4171058  64.5999985
  28.8281628  45.1386934  66.1391295  28.6901426  44.4067173  66.7402834
  29.7386552  45.0495834  65.8575482  37.7896576  47.0775338  50.8875773
  37.1725747  46.3522167  50.7908826  37.3213064  47.8384699  50.5442847
  31.4563929  44.8506893  65.6274974  32.1663547  44.2100086  65.5861593
  31.4133237  45.1019788  66.5501155  30.1692863  41.8372111  67.4470614
  29.6330220  41.3862850  68.0992210  29.5809571  41.9718020  66.7041078
  28.4641406  58.6036161  61.3415272  28.7038005  59.2354685  62.0194291
  27.6210603  58.2524201  61.6280632  29.5795122  41.2960763  50.0097077
  28.7024588  41.1749564  49.6459324  30.0552875  40.5046841  49.7575966
  21.0997262  46.0837922  60.1038585  21.7868302  45.7699652  59.5159600
  20.9445391  46.9879287  59.8305836  25.9031984  40.9728119  64.5323608
  25.8190173  40.3653789  63.7974018  25.0814691  41.4637137  64.5333105
  36.0755698  39.4581683  59.8993803  36.5724398  38.7051645  59.5794874
  35.3042679  39.4945999  59.3337013  32.6590667  41.5999066  59.6265488
  32.2888454  41.0470106  60.3146394  33.1549759  40.9957199  59.0740488
  30.4879865  52.0596561  66.7220506  31.1889325  52.6933044  66.8749900
  30.0174980  52.4011292  65.9616145  38.5174693  36.4251276  62.0473162
  37.6037773  36.6555503  62.2155369  38.9467794  36.5089720  62.8987195
  38.2881151  44.6141168  64.5473056  37.6352602  44.8617075  63.8925509
  38.6661531  43.8005306  64.2135534  34.3368724  45.3560979  71.0339093
  33.6609361  45.2555108  71.7041469  35.1596358  45.2000193  71.4975091
  26.0847583  51.5932916  63.6551609  26.6701020  50.8476604  63.7879513
  25.8872422  51.9036872  64.5388273  28.9386239  54.6284163  58.6714051
  28.2696614  55.1130291  58.1878091  28.7999108  54.8753383  59.5857430
  20.6765238  44.1638516  62.3756052  20.7149338  43.6302107  63.1693170
  20.1705531  43.6373721  61.7567029  28.0556000  39.0103056  65.8718594
  28.1197327  39.8717887  65.4595992  27.9923121  38.3977058  65.1390953
  27.5308273  41.0826189  69.5191628  28.1580312  40.7003266  70.1329153
  26.6736192  40.8640391  69.8847321  24.3073816  42.8902618  55.4509983
  24.6027257  41.9813296  55.3977037  23.4061851  42.8690357  55.1290985
  27.8368063  40.9658615  61.4337532  27.1154648  41.5794582  61.2945005
  28.6261318  41.5016379  61.3554178  30.6394376  38.3013041  67.7078184
  31.1628778  38.5475338  68.4704493  30.4206709  39.1333076  67.2881321
  26.0361657  40.5716716  55.5749308  25.7074363  39.6914095  55.3924414
  26.3901028  40.5164384  56.4625698  29.1503480  40.8589685  55.9424786
  29.4899553  41.3875607  55.2203394  29.5975601  41.1970092  56.7183353
  31.8446921  39.2426736  65.3927854  31.5043742  38.4434549  65.7948534
  31.1385928  39.5428447  64.8204687  32.4963393  36.3276049  63.8455177
  33.3189462  35.8536527  63.7234067  32.7401457  37.1066532  64.3453863
  31.1371628  39.3564307  54.1418079  31.8579990  39.7345560  53.6381796
  30.5136932  40.0753184  54.2453057  35.2802750  40.0609456  55.0776411
  35.4966365  40.9434094  54.7765239  34.7996818  39.6695669  54.3482053
  30.0201972  43.0195169  61.6547156  29.8746553  43.3335472  62.5471437
  29.5427175  43.6380070  61.1018054  31.8798355  40.0097717  61.7028045
  31.8659923  39.1138811  61.3660343  32.5970783  40.0168381  62.3366331
  33.7324485  40.4435057  63.7481173  33.4742263  41.3652128  63.7465503
  33.2009526  40.0465492  64.4381637  24.4947634  45.5600514  64.5934817
  23.9501102  46.3360322  64.7255091  25.3726984  45.9071318  64.4353938
  31.2835251  38.8912097  56.9715615  31.4051162  37.9628744  57.1706503
  30.9937293  38.9050783  56.0593931  34.1526441  36.5767008  60.1082335
  34.1748138  36.6406341  59.1534315  34.5694500  35.7371517  60.3022841
  25.2813656  44.6870410  67.4864974  24.5395392  44.8353045  68.0729604
  24.9606400  44.9478675  66.6231723  25.7270270  52.5735839  59.5175368
  26.5528289  52.2739610  59.1374012  25.3764322  51.8043461  59.9665157
  30.6951803  51.9262307  61.5873042  30.0731812  51.2633012  61.2875270
  31.3656670  51.9523439  60.9046690  23.9278875  50.4922165  60.4764302
  23.0910783  50.0644339  60.2948303  23.9002520  50.6854608  61.4135093
  30.7676330  40.4044095  71.1805548  30.8164486  41.2806218  70.7983318
  31.3098844  39.8621488  70.6077191  38.6632813  43.7808612  69.0898720
  39.5642676  43.6415077  68.7982718  38.7380788  43.9463067  70.0296898
  32.9975619  41.1575467  67.9351907  32.1278928  41.4509033  67.6634495
  33.2335099  41.7415912  68.6559170  28.0117943  46.5031408  56.0692571
  27.7663985  45.5993738  56.2672782  28.1813857  46.5048558  55.1272049
  35.7014652  37.3755084  65.4517327  36.2196596  38.1116111  65.1263816
  35.3469785  37.6819077  66.2864086  27.2813590  42.2359765  53.5678733
  26.5882835  42.3104120  52.9118769  27.0365342  41.4720109  54.0900250
  35.9527247  33.7955367  60.9718224  36.2329000  33.1278556  61.5978650
  36.7377854  33.9884462  60.4592887  39.8236105  42.2173001  64.7189799
  40.7753528  42.3171098  64.7402023  39.6539555  41.4251269  65.2287883
  37.8450484  39.3028584  64.9049200  37.2500417  39.5833597  64.2095688
  37.5600181  39.7922485  65.6765941  34.1407514  44.3075173  49.8759302
  35.0866618  44.1781381  49.9447720  33.7621759  43.5689835  50.3528731
  40.1129398  35.9731179  59.8386194  39.9154219  35.6646268  60.7229526
  40.7229104  36.6992818  59.9684124  34.0246206  48.3592919  71.3359959
  34.9449216  48.5371519  71.5300006  33.9895789  47.4148965  71.1839659
  32.3250431  42.2325150  49.8114188  31.4181886  41.9358262  49.8876901
  32.6026412  41.9354968  48.9448474  23.2428371  43.5531513  60.2613234
  22.9231155  42.6996821  59.9687608  22.6961799  43.7680091  61.0171201
  27.0208279  46.2693954  63.9782741  27.2394288  47.2011062  63.9970774
  27.4334053  45.9101929  64.7637544  33.9412496  36.7762039  55.9658429
  33.1313225  36.4309124  56.3413675  34.6296913  36.4669583  56.5546040
  35.8703045  35.8540086  57.5882726  36.4234083  36.2735540  58.2472749
  36.1073131  34.9275834  57.6305682  31.8936144  41.8427160  73.3685489
  31.7932871  42.7921517  73.2997581  31.6757686  41.5145399  72.4961560
  31.0949215  39.0912085  49.9526167  31.9568379  39.4166983  50.2121984
  31.2799560  38.3043581  49.4399233  23.1116631  47.1734425  62.2306356
  22.4180103  46.7588377  61.7176310  23.8589622  47.2154961  61.6339775
  39.2481852  37.9640611  57.0961390  38.6680521  38.6225415  56.7139442
  38.9817785  37.1417956  56.6848807  37.6985418  37.3645669  59.2982710
  38.1985197  37.4762204  58.4897029  38.3421026  37.0606722  59.9383519
  31.7567414  45.2724299  72.1850551  31.2734496  46.0724659  72.3914440
  31.8428353  45.2832244  71.2317995  25.0253374  47.1052678  60.1072370
  25.0024062  47.2040366  59.1554254  25.3354010  47.9517829  60.4289537
  27.6840752  49.1628833  64.2218985  28.6384005  49.1312776  64.1548916
  27.4853275  48.7019457  65.0369211  28.2740134  47.7329950  66.7889783
  29.0933023  48.2274028  66.8124620  28.5476941  46.8161918  66.7607350
  38.0306730  40.1240702  56.1517738  37.1432585  40.4090352  55.9337933
  38.4460719  39.9634465  55.3045015  41.3821266  40.1487223  59.8672077
  42.1581656  40.6383675  60.1396694  40.6569400  40.5745277  60.3243947
  26.0390980  54.7048453  61.2389183  25.9045448  53.9448854  60.6727181
  25.6223043  55.4289353  60.7717972  37.1749943  49.8885376  50.2465758
  37.8785793  50.0935379  50.8623414  36.4512592  50.4562138  50.5114842
  38.0047754  45.6395238  56.3668028  37.9482955  46.0963789  55.5275661
  38.5576096  44.8785922  56.1890871  29.1960106  55.6017770  61.4507625
  29.0792490  56.5463202  61.3486316  28.3752552  55.2991332  61.8393425
  38.7382533  46.8300019  53.6620557  38.6831337  46.6644290  52.7209002
  38.1128588  47.5376052  53.8182747  23.5275048  42.0668083  67.4881980
  24.1733912  41.5567037  67.9769205  23.3192199  42.8036765  68.0625405
  36.0528440  49.1348931  72.9874120  36.9219600  49.3089583  72.6260755
  35.5735192  49.9543348  72.8649850  32.0478658  36.3308128  53.2405876
  32.0357328  37.2749968  53.3974147  32.9402080  36.1478273  52.9465337
  35.8630778  32.9250905  57.4951813  35.0963174  32.3709391  57.6408495
  36.2741483  32.9972773  58.3565964  27.8672539  39.2135700  71.5856994
  28.7304000  38.8572505  71.7960318  27.2937950  38.8749595  72.2732398
  50.4439746  67.9009299  50.6255780  50.3653378  67.5669162  51.5191538
  51.2649413  68.3931067  50.6247252  56.7990751  81.6463347  53.6292275
  56.1478731  82.2317427  53.2426289  57.5935114  82.1769542  53.6887313
  53.0612656  74.8945150  51.6597860  53.3138177  74.3726671  50.8981323
  52.1237215  74.7311295  51.7624543  58.2766016  79.3353779  54.1661260
  57.6411849  79.4088405  54.8782164  57.9463423  79.9247377  53.4880339
  54.7435194  73.7430960  53.5476939  54.6234819  74.1888011  54.3862419
  54.0487782  74.0916278  52.9890477  53.5386690  75.0575812  55.8410505
  54.2410733  75.5096856  56.3084431  53.2067318  74.4159631  56.4690398
  49.2326769  73.6803944  58.1011115  48.4357933  73.7922638  58.6194611
  49.0052361  74.0190596  57.2352006  46.1958769  77.7180847  57.2660106
  47.0333991  78.1277856  57.0493814  46.3737036  76.7780289  57.2360300
  58.0923201  75.3855928  52.9543939  57.5769824  76.1560533  53.1932326
  57.8200509  74.7121064  53.5777000  63.0657475  78.1388283  54.8897112
  62.2886918  77.7999442  54.4452274  63.7448956  78.1440906  54.2152077
  57.8809504  73.2583020  54.7803720  57.5759640  73.5729169  55.6313863
  58.8339946  73.3364440  54.8231053  56.3255936  79.4173243  56.4296674
  55.7977297  78.6826003  56.1169911  55.8243439  80.1947920  56.1836642
  51.3844251  72.1097371  52.8099171  50.5481563  72.4472057  53.1308445
  51.2449020  71.9746350  51.8726308  54.4708536  77.2353454  49.4331647
  53.5635598  77.0042707  49.6322796  54.9679568  76.4391073  49.6205628
  55.6496769  77.3366048  53.9555637  54.7407989  77.0525081  54.0528107
  55.6791853  77.7565127  53.0958944  60.8816037  80.9472638  57.7246805
  60.4278364  80.1063548  57.7811995  60.2510004  81.5834036  58.0621585
  55.3472857  78.8774792  51.2943716  54.9092287  78.1610651  50.8349353
  56.0883298  79.1050907  50.7328807  52.1374023  73.5671729  57.8155811
  51.3241889  73.8665899  58.2221003  52.6333018  73.1727418  58.5330294
  48.7131166  74.5835596  55.6211791  47.7828754  74.5220052  55.8381753
  48.8088638  74.0611549  54.8248433  59.4684085  77.7359174  50.8875773
  58.8513256  77.0106002  50.7908826  59.0000573  78.4968534  50.5442847
  51.2582631  71.9544598  50.0097077  50.3812097  71.8333399  49.6459324
  51.7340384  71.1630676  49.7575966  42.7784771  76.7421758  60.1038585
  43.4655811  76.4283488  59.5159600  42.6232900  77.6463122  59.8305836
  52.1667374  82.7180396  66.7220506  52.8676834  83.3516879  66.8749900
  51.6962489  83.0595127  65.9616145  60.2921770  81.0598346  55.0068413
  60.5681614  80.9454940  55.9162287  59.4226269  80.6615831  54.9680586
  56.9590259  70.7193291  55.0776411  57.1753874  71.6017929  54.7765239
  56.4784327  70.3279505  54.3482053  61.3433356  83.5236444  53.6268156
  62.0384260  84.1443137  53.8455471  61.6856506  82.6731796  53.9020534
  63.2424779  80.9736150  55.1555487  63.7676103  81.3123423  54.4304807
  63.1547131  80.0383165  54.9718622  45.6066384  81.1506000  60.4764302
  44.7698292  80.7228175  60.2948303  45.5790029  81.3438444  61.4135093
  48.9601099  72.8943601  53.5678733  48.2670344  72.9687956  52.9118769
  48.7152851  72.1303944  54.0900250  55.4348224  83.6298196  52.5343250
  54.8622191  84.2488383  52.0813722  56.0081018  84.1797558  53.0683172
  61.2833501  83.2301216  50.6255780  61.2047132  82.8961080  51.5191538
  62.1043167  83.7222984  50.6247252  55.8195023  74.9659009  49.8759302
  56.7654127  74.8365217  49.9447720  55.4409268  74.2273671  50.3528731
  54.0037940  72.8908985  49.8114188  53.0969395  72.5942098  49.8876901
  54.2813921  72.5938803  48.9448474  58.8537452  80.5469212  50.2465758
  59.5573302  80.7519214  50.8623414  58.1300101  81.1145974  50.5114842
  60.7624150  80.9851741  52.2964218  61.5969754  80.5532940  52.1141693
  60.6008493  80.8133755  53.2241113  60.4170042  77.4883854  53.6620557
  60.3618846  77.3228126  52.7209002  59.7916097  78.1959887  53.8182747
  51.9002129  86.9129867  64.6663554  52.8029376  86.9453477  64.9830049
  51.6739499  85.9830318  64.6809890  69.3908425  91.5021392  62.3919395
  70.0286835  91.3828140  61.6882735  69.2729268  92.4502236  62.4507347
  66.1998131  91.4548820  62.3280920  65.8616643  91.3389885  61.4401454
  67.0687899  91.0539985  62.3081926  62.0584947  93.3084297  58.3177811
  61.4949812  93.2174234  57.5494098  61.9437342  92.4884201  58.7980303
  59.6049379  94.8035488  61.1562031  60.3970671  94.4626313  60.7408330
  59.8446029  94.9130463  62.0764184  67.6384506  96.9755264  53.6292275
  66.9872485  97.5609345  53.2426289  68.4328868  97.5061459  53.6887313
  61.5640133  94.0644402  54.0279410  62.3371009  93.5173389  53.8892286
  61.9165532  94.9288651  54.2393871  63.4025175  95.3920784  67.2346309
  63.1115041  96.2966415  67.1192975  64.0382160  95.4337311  67.9490379
  64.3281382  92.7697632  63.8247669  64.9244954  92.5453655  63.1104632
  64.3856354  92.0282378  64.4273117  63.9006411  90.2237068  51.6597860
  64.1531931  89.7018589  50.8981323  62.9630970  90.0603213  51.7624543
  68.9449693  89.2272846  59.4672603  69.7312783  88.8092269  59.1163020
  69.2088398  90.1318938  59.6354251  69.1159771  94.6645696  54.1661260
  68.4805604  94.7380323  54.8782164  68.7857177  95.2539295  53.4880339
  74.3458120  89.1648079  60.3705581  75.0783292  88.5947296  60.6043411
  73.5897476  88.7769680  60.8112087  63.6202699  92.1265174  53.8622235
  63.5038957  91.4510077  54.5303319  63.7304959  91.6397548  53.0454388
  65.9634240  91.5875321  57.5668924  65.5992447  91.0605942  58.2781845
  66.8201356  91.1973790  57.3935409  65.6039727  86.6165220  52.5630272
  65.7714130  87.4845457  52.9300743  65.4136896  86.7792502  51.6391562
  68.3615060  95.0782199  64.2296103  68.0615783  95.9807238  64.1211910
  68.0166120  94.8114383  65.0817256  61.8127542  91.5295996  60.2632807
  60.8878038  91.3972210  60.4710499  62.0611955  92.3090215  60.7602750
  65.5828948  89.0722878  53.5476939  65.4628573  89.5179929  54.3862419
  64.8881536  89.4208196  52.9890477  59.1736353  91.1729270  61.0976596
  59.3028734  91.4263749  62.0116008  58.4933804  91.7656978  60.7781251
  63.3435840 101.8426520  57.1967070  63.2659870 102.7934345  57.2755551
  62.7397484 101.4972392  57.8541997  71.2814014  89.5444351  54.3757273
  72.1931870  89.7771738  54.2004971  70.7723661  90.1281395  53.8132352
  64.0899442  91.8239838  69.4146404  64.8314127  92.3624882  69.1381228
  63.3836428  92.4506127  69.5717956  69.8883596  94.5270170  61.7670855
  69.2592459  94.6915884  61.0646923  69.5009259  94.9411779  62.5381819
  73.7672828  95.4624607  59.1215218  73.0823867  95.8423509  58.5712252
  73.8516678  96.0719934  59.8547166  71.0223760  93.1084566  65.7210562
  71.2340655  93.7516326  65.0444943  70.9753508  92.2746883  65.2532492
  65.4411558  94.2644578  59.0320940  65.9049904  94.5432281  58.2425562
  65.1768356  93.3628022  58.8494031  62.3335639  93.8116059  61.9700703
  62.9036997  94.2403328  61.3318188  62.9243751  93.5298644  62.6684889
  64.3780444  90.3867730  55.8410505  65.0804488  90.8388774  56.3084431
  64.0461073  89.7451549  56.4690398  72.1369588  95.9856522  63.8932919
  72.9587032  95.5836709  63.6115601  72.1331991  95.8824756  64.8449035
  65.9026191  95.5340565  66.0493630  65.9670624  95.9960972  66.8851802
  65.1937115  94.9037930  66.1775940  80.2275581  92.3295270  60.2417891
  79.4739289  91.7602668  60.0861895  80.3623122  92.2957935  61.1888526
  65.6174209  97.2008673  55.9172610  65.4819884  98.0460208  56.3457458
  66.1584022  97.4027950  55.1538544  59.0703606  94.7184111  56.4900535
  59.5828127  95.5127361  56.6406100  59.7226319  94.0210401  56.4234137
  60.8798491  97.8349867  58.5723288  61.0565119  98.7567832  58.3844272
  61.6755325  97.5208286  59.0017668  60.1650848  89.8814499  68.4485452
  60.0504363  88.9799756  68.7492551  59.3095365  90.1278196  68.0970268
  67.2442685  97.8232239  70.0472952  66.8006540  97.0368618  69.7293857
  67.9059899  98.0111390  69.3816843  62.0029807  99.3528041  64.5733631
  62.5537232  99.2245104  63.8010625  61.1641283  99.6522930  64.2228524
  69.3423923  98.1035039  68.0754354  69.3242399  98.9243920  67.5834623
  70.2643844  97.9789114  68.3004495  65.7996978  95.6179169  68.9177862
  66.3325314  94.8567457  68.6877170  65.2711059  95.3252820  69.6602016
  57.0352523  93.0472765  57.2660106  57.8727745  93.4569773  57.0493814
  57.2130791  92.1072207  57.2360300  68.9316955  90.7147846  52.9543939
  68.4163579  91.4852450  53.1932326  68.6594264  90.0412982  53.5777000
  73.9051229  93.4680200  54.8897112  73.1280672  93.1291360  54.4452274
  74.5842710  93.4732823  54.2152077  68.7203259  88.5874938  54.7803720
  68.4153394  88.9021087  55.6313863  69.6733701  88.6656358  54.8231053
  67.1649690  94.7465161  56.4296674  66.6371052  94.0117921  56.1169911
  66.6637193  95.5239837  56.1836642  72.1442536  92.9414181  61.5463720
  71.4866211  93.6313443  61.6343849  72.9482936  93.3310613  61.8897707
  70.9547995  91.2958554  59.5967662  71.4679877  91.9288546  60.0989372
  71.6049219  90.6959750  59.2311022  62.2238005  87.4389288  52.8099171
  61.3875317  87.7763975  53.1308445  62.0842775  87.3038268  51.8726308
  65.3102291  92.5645371  49.4331647  64.4029352  92.3334625  49.6322796
  65.8073323  91.7682991  49.6205628  68.2170369 101.2742878  52.3528333
  67.5432068 101.5774575  52.9613291  68.6036191 102.0771959  52.0033790
  68.2163874  90.1699425  56.9728683  68.9635693  90.6820823  56.6635805
  68.4855463  89.8483478  57.8333076  66.4890524  92.6657966  53.9555637
  65.5801743  92.3816999  54.0528107  66.5185608  93.0857045  53.0958944
  71.7209791  96.2764556  57.7246805  71.2672118  95.4355466  57.7811995
  71.0903758  96.9125954  58.0621585  70.1642731  98.1141052  58.6596623
  70.4565705  98.6746109  57.9408988  70.6741351  98.4069613  59.4149782
  65.0375418  90.2786587  60.0565432  65.0924028  89.3260423  59.9807909
  64.2266620  90.4346026  60.5406731  66.1866612  94.2066710  51.2943716
  65.7486042  93.4902569  50.8349353  66.9277053  94.4342825  50.7328807
  65.1276356  98.8921403  59.7490076  65.0852535  99.1182250  58.8198608
  66.0439055  98.6584778  59.8975877  74.3039727  92.4823907  57.3520034
  74.1657625  92.6725503  56.4241223  73.9475945  93.2443290  57.8088085
  74.3309106  94.5500434  62.3631306  74.7645613  94.4575723  63.2114360
  75.0440687  94.5257934  61.7251322  63.2442157  95.7684432  59.5452039
  64.0382755  95.2734753  59.3434614  62.5333849  95.2402296  59.1819744
  68.0637001  98.1502528  63.8964406  68.1174023  98.7193464  64.6642122
  67.1951782  98.3204413  63.5318443  75.1924656  94.5924135  64.8964191
  75.3860546  95.4969945  65.1423466  75.0925274  94.1331554  65.7302776
  70.2539764  94.7430877  70.4705072  70.1025271  94.5141429  69.5535155
  70.2444444  95.7001479  70.4836417  67.0225101  92.3162790  65.4551338
  67.9517161  92.4673950  65.2820305  66.6016131  92.4046811  64.5999985
  65.8213433  96.3413454  63.2249876  65.6824518  95.9732239  64.0975814
  65.0328029  96.8561094  63.0533834  66.4161585 101.4422551  54.5675412
  66.5913340 100.9710594  55.3821035  65.7294373 102.0688317  54.7956673
  67.3718648  95.7195057  60.6138714  67.0368480  95.6795827  61.5096363
  66.8722593  95.0539773  60.1409124  61.3462892  91.1262687  66.1391295
  61.2082690  90.3942926  66.7402834  62.2567815  91.0371587  65.8575482
  70.3077839  93.0651091  50.8875773  69.6907010  92.3397920  50.7908826
  69.8394328  93.8260452  50.5442847  63.9745192  90.8382646  65.6274974
  64.6844811  90.1975839  65.5861593  63.9314501  91.0895541  66.5501155
  71.9631971  97.7750000  68.5481554  71.9044517  97.0909220  67.8812137
  72.3651489  98.5168990  68.0962180  60.9822670 104.5911914  61.3415272
  61.2219268 105.2230438  62.0194291  60.1391866 104.2399954  61.6280632
  62.0976385  87.2836516  50.0097077  61.2205852  87.1625317  49.6459324
  62.5734138  86.4922594  49.7575966  71.9649378  95.7389584  66.7795533
  71.0776157  95.4015506  66.9021932  72.5347929  95.0072615  67.0164299
  53.6178525  92.0713675  60.1038585  54.3049565  91.7575406  59.5159600
  53.4626654  92.9755040  59.8305836  65.4950532 100.3991036  63.7456776
  65.4220703 101.2046008  64.2576081  65.0527925 100.5983002  62.9204798
  65.2840311  99.6362806  57.2559598  64.5007833 100.1784486  57.3497823
  65.9833057 100.1536786  57.6553839  76.4466719  91.1497801  61.5412095
  76.4356595  92.0322517  61.1706028  75.5784098  90.7969352  61.3466632
  67.9549215 100.2977870  65.9014935  68.6677187 100.9325335  65.8290837
  67.4639244 100.3941736  65.0854937  69.6766742  94.2029123  57.4732227
  68.7423021  94.3230585  57.3036931  69.8543411  93.3001590  57.2092237
  73.0639293  90.0446442  58.0082261  73.5299746  90.8774434  57.9342564
  73.5146794  89.5791424  58.7127519  63.0061129  98.0472314  66.7220506
  63.7070588  98.6808797  66.8749900  62.5356244  98.3887045  65.9616145
  71.1315525  96.3890263  55.0068413  71.4075368  96.2746858  55.9162287
  70.2620023  95.9907748  54.9680586  70.8062415  90.6016921  64.5473056
  70.1533865  90.8492828  63.8925509  71.1842795  89.7881059  64.2135534
  67.7669589 100.6376614  58.6501227  67.9491983  99.8198270  59.1128979
  68.5902575 100.8544306  58.2126117  68.1011754  99.5644799  55.9116275
  68.6299521  99.0537254  55.2986437  68.3639974  99.2487330  56.7761808
  58.6028847  97.5808669  63.6551609  59.1882284  96.8352357  63.7879513
  58.4053685  97.8912625  64.5388273  61.4567502 100.6159916  58.6714051
  60.7877877 101.1006044  58.1878091  61.3180372 100.8629136  59.5857430
  53.1946502  90.1514269  62.3756052  53.2330601  89.6177860  63.1693170
  52.6886794  89.6249474  61.7567029  65.5972771 102.6503660  65.2696709
  66.1491079 102.8135281  66.0345795  65.9378964 103.2408097  64.5976734
  70.4483645  97.4764917  71.1245364  70.9923549  98.0894875  70.6300319
  69.8670490  98.0344495  71.6412377  68.7341158 100.5985635  62.2560392
  68.6092297  99.7975375  61.7471337  69.3920249 101.0931828  61.7674361
  70.7976066  98.3994655  63.8839942  69.8506402  98.2800006  63.8118268
  71.1458839  97.5117153  63.9666203  67.8022500  98.1947371  60.0844294
  67.6547462  97.2664079  60.2651864  68.6275993  98.2167462  59.6001369
  61.6684744  86.8465438  55.9424786  62.0080816  87.3751360  55.2203394
  62.1156864  87.1845845  56.7183353  71.4056621  99.0175930  61.1709167
  72.3303169  98.8118791  61.0333618  71.2371925  98.7692331  62.0798508
  63.6552891  85.3440060  54.1418079  64.3761254  85.7221313  53.6381796
  63.0318195  86.0628937  54.2453057  62.5383235  89.0070922  61.6547156
  62.3927816  89.3211225  62.5471437  62.0608439  89.6255823  61.1018054
  71.1951938  99.5361598  56.5271258  71.3688815  98.9708020  55.7745110
  71.6880829 100.3362492  56.3450748  77.0491329  92.2998020  58.1461558
  77.4922475  91.5505346  57.7480681  76.1717839  92.2908157  57.7635290
  72.1827110  98.8528362  53.6268156  72.8778015  99.4735055  53.8455471
  72.5250260  98.0023713  53.9020534  74.0818533  96.3028067  55.1555487
  74.6069857  96.6415340  54.4304807  73.9940886  95.3675083  54.9718622
  65.7438582 100.2162141  67.2845364  66.0525708  99.9711288  68.1568063
  66.5414064 100.4208780  66.7964234  65.7659194 102.3700051  59.5150740
  65.3264184 101.8776429  60.2083597  66.5167311 101.8273018  59.2742816
  58.2451533  98.5611592  59.5175368  59.0709553  98.2615363  59.1374012
  57.8945585  97.7919214  59.9665157  63.2133066  97.9138060  61.5873042
  62.5913075  97.2508765  61.2875270  63.8837933  97.9399192  60.9046690
  56.4460138  96.4797918  60.4764302  55.6092046  96.0520092  60.2948303
  56.4183783  96.6730361  61.4135093  73.7712439  96.9360971  70.4606685
  72.9807983  96.9185110  69.9211184  73.5345794  97.4749265  71.2155722
  73.8910314  93.7853438  67.7739414  73.9408319  93.6203445  68.7154936
  73.7824238  92.9180697  67.3837294  62.7746573  96.4641983  55.0631502
  62.9234693  97.1477448  54.4098175  63.5813017  96.4447073  55.5780958
  75.3928511  96.2050379  68.0181435  75.1013320  96.5680360  68.8544896
  74.7800642  95.4917387  67.8394767  76.5924194  93.7703259  60.5384005
  77.4271085  94.2093063  60.7021566  76.7283322  93.2941912  59.7192251
  73.6415699  91.3282994  66.4861493  74.1169821  91.5210640  65.6780344
  72.7181265  91.3842179  66.2404877  60.5299206  92.4907161  56.0692571
  60.2845248  91.5869491  56.2672782  60.6995121  92.4924311  55.1272049
  66.2741979  98.9590114  52.5343250  65.7015946  99.5780301  52.0813722
  66.8474772  99.5089475  53.0683172  69.4939238  99.2427264  53.6651832
  70.4269912  99.1772825  53.8684708  69.4062451 100.0783531  53.2066365
  72.1227255  98.5593134  50.6255780  72.0440887  98.2252998  51.5191538
  72.9436922  99.0514902  50.6247252  74.8205446  91.4254873  63.8332098
  74.7881766  90.4870874  64.0191782  75.4306070  91.5038910  63.0997923
  66.6588777  90.2950926  49.8759302  67.6047882  90.1657135  49.9447720
  66.2803022  89.5565588  50.3528731  80.6381996  92.4870880  62.9738135
  81.3685385  92.2256168  63.5345838  80.0288942  91.7499602  63.0140203
  78.7197293  90.6278743  63.5712586  77.9930457  90.4934708  62.9629078
  78.3044580  90.9355571  64.3769304  66.5427470  94.3468673  71.3359959
  67.4630479  94.5247272  71.5300006  66.5077053  93.4024718  71.1839659
  64.8431694  88.2200903  49.8114188  63.9363150  87.9234015  49.8876901
  65.1207675  87.9230721  48.9448474  59.5389542  92.2569707  63.9782741
  59.7575552  93.1886815  63.9970774  59.9515316  91.8977682  64.7637544
  66.4593760  82.7637792  55.9658429  65.6494488  82.4184877  56.3413675
  67.1478177  82.4545336  56.5546040  63.6130479  85.0787838  49.9526167
  64.4749643  85.4042736  50.2121984  63.7980823  84.2919334  49.4399233
  55.6297895  93.1610178  62.2306356  54.9361366  92.7464130  61.7176310
  56.3770886  93.2030714  61.6339775  64.2748678  91.2600052  72.1850551
  63.7915759  92.0600412  72.3914440  64.3609617  91.2707997  71.2317995
  57.5434637  93.0928431  60.1072370  57.5205325  93.1916119  59.1554254
  57.8535274  93.9393582  60.4289537  60.2022015  95.1504586  64.2218985
  61.1565269  95.1188529  64.1548916  60.0034539  94.6895210  65.0369211
  60.7921397  93.7205703  66.7889783  61.6114286  94.2149781  66.8124620
  61.0658205  92.8037671  66.7607350  76.3375088  86.8490595  60.9246018
  76.9319579  86.6086331  60.2139326  76.4101672  86.1297726  61.5519554
  58.5572244 100.6924206  61.2389183  58.4226712  99.9324607  60.6727181
  58.1404306 101.4165106  60.7717972  69.6931207  95.8761130  50.2465758
  70.3967057  96.0811132  50.8623414  68.9693856  96.4437891  50.5114842
  70.5229017  91.6270991  56.3668028  70.4664219  92.0839542  55.5275661
  71.0757360  90.8661675  56.1890871  74.3333823  87.4160723  57.1918148
  74.0770757  87.0157358  58.0226355  73.7086691  88.1304517  57.0668287
  78.6446161  90.1556796  59.6989439  78.0845719  90.2249985  60.4721001
  78.0389664  89.9797781  58.9788935  61.7141370 101.5893523  61.4507625
  61.5973754 102.5338955  61.3486316  60.8933816 101.2867085  61.8393425
  71.6017904  96.3143659  52.2964218  72.4363508  95.8824857  52.1141693
  71.4402247  96.1425672  53.2241113  71.2563796  92.8175772  53.6620557
  71.2012600  92.6520043  52.7209002  70.6309852  93.5251805  53.8182747
  68.5709704  95.1224684  72.9874120  69.4400863  95.2965336  72.6260755
  68.0916455  95.9419101  72.8649850  64.5659922  82.3183881  53.2405876
  64.5538592  83.2625721  53.3974147  65.4583344  82.1354026  52.9465337
  62.7395884 102.2421785  64.6663554  63.6423131 102.2745395  64.9830049
  62.5133254 101.3122236  64.6809890  64.4949486 100.9952771  61.3273632
  63.5445117 100.9954633  61.2138005  64.7981972 100.2485506  60.8109667
  80.2302179 106.8313310  62.3919395  80.8680589 106.7120057  61.6882735
  80.1123022 107.7794154  62.4507347  77.0391886 106.7840738  62.3280920
  76.7010397 106.6681803  61.4401454  77.9081654 106.3831903  62.3081926
  72.8978701 108.6376214  58.3177811  72.3343566 108.5466151  57.5494098
  72.7831096 107.8176119  58.7980303  77.5211669 107.9375590  68.2867125
  77.5100309 107.5428388  67.4147629  77.6832308 107.2041662  68.8800897
  70.4443133 110.1327406  61.1562031  71.2364425 109.7918231  60.7408330
  70.6839783 110.2422381  62.0764184  78.4778260 112.3047182  53.6292275
  77.8266240 112.8901262  53.2426289  79.2722623 112.8353377  53.6887313
  72.4033887 109.3936319  54.0279410  73.1764763 108.8465306  53.8892286
  72.7559286 110.2580569  54.2393871  74.2418930 110.7212701  67.2346309
  73.9508796 111.6258332  67.1192975  74.8775914 110.7629229  67.9490379
  75.1675137 108.0989550  63.8247669  75.7638709 107.8745572  63.1104632
  75.2250108 107.3574295  64.4273117  74.7400165 105.5528985  51.6597860
  74.9925686 105.0310507  50.8981323  73.8024724 105.3895131  51.7624543
  79.7843448 104.5564764  59.4672603  80.5706537 104.1384187  59.1163020
  80.0482152 105.4610856  59.6354251  79.9553525 109.9937614  54.1661260
  79.3199358 110.0672241  54.8782164  79.6250932 110.5831213  53.4880339
  85.1851875 104.4939997  60.3705581  85.9177047 103.9239214  60.6043411
  84.4291231 104.1061597  60.8112087  74.4596454 107.4557091  53.8622235
  74.3432712 106.7801995  54.5303319  74.5698714 106.9689465  53.0454388
  76.8027995 106.9167238  57.5668924  76.4386202 106.3897859  58.2781845
  77.6595111 106.5265707  57.3935409  82.7077295  98.2061571  64.8300190
  82.3760620  99.0756982  64.6061405  82.1122909  97.8897855  65.5094220
  76.4433482 101.9457138  52.5630272  76.6107884 102.8137374  52.9300743
  76.2530651 102.1084420  51.6391562  79.2008815 110.4074117  64.2296103
  78.9009538 111.3099156  64.1211910  78.8559874 110.1406300  65.0817256
  72.6521296 106.8587914  60.2632807  71.7271793 106.7264128  60.4710499
  72.9005710 107.6382133  60.7602750  82.6005959 102.9256657  61.9093540
  81.6922836 102.8572066  61.6152301  82.5493554 103.4028602  62.7375366
  76.4222703 104.4014796  53.5476939  76.3022328 104.8471846  54.3862419
  75.7275291 104.7500113  52.9890477  70.0130107 106.5021187  61.0976596
  70.1422489 106.7555666  62.0116008  69.3327559 107.0948895  60.7781251
  74.1829595 117.1718437  57.1967070  74.1053624 118.1226262  57.2755551
  73.5791238 116.8264310  57.8541997  76.6746824 104.3446303  69.8528437
  75.8980158 104.9040223  69.8431302  77.3137387 104.8303086  70.3743307
  84.4667605 101.1273096  63.6871414  83.8241985 101.4205629  63.0411209
  83.9622534 101.0126016  64.4924611  82.1207769 104.8736269  54.3757273
  83.0325625 105.1063656  54.2004971  81.6117416 105.4573313  53.8132352
  74.9293197 107.1531756  69.4146404  75.6707881 107.6916800  69.1381228
  74.2230182 107.7798045  69.5717956  80.4048536 109.2960897  68.0118566
  80.8131892 108.8543307  67.2673198  79.6825798 108.7213524  68.2652759
  76.7579606 104.2333503  65.3852123  77.6040802 104.6572917  65.5286772
  76.6978244 103.5767128  66.0790686  80.7277351 109.8562087  61.7670855
  80.0986213 110.0207801  61.0646923  80.3403013 110.2703697  62.5381819
  84.6066583 110.7916525  59.1215218  83.9217621 111.1715426  58.5712252
  84.6910432 111.4011852  59.8547166  79.9079052 101.8937872  67.0433296
  79.6639984 102.6479932  66.5067572  80.1838982 102.2723219  67.8780543
  81.8617514 108.4376484  65.7210562  82.0734410 109.0808244  65.0444943
  81.8147263 107.6038801  65.2532492  79.4643743 101.0494305  62.6247134
  78.6028222 101.3475558  62.9163872  79.4906178 101.2664704  61.6928167
  76.2805313 109.5936495  59.0320940  76.7443658 109.8724198  58.2425562
  76.0162111 108.6919940  58.8494031  73.1729394 109.1407977  61.9700703
  73.7430751 109.5695245  61.3318188  73.7637506 108.8590562  62.6684889
  75.2174199 105.7159648  55.8410505  75.9198242 106.1680691  56.3084431
  74.8854827 105.0743467  56.4690398  73.6654560 104.3071404  70.2161714
  73.0353221 104.9887685  70.4497111  73.5590648 104.1954486  69.2714853
  68.9599533 103.9743200  61.1427639  68.1698587 104.2300729  60.6667749
  69.4510780 104.7891538  61.2479679  82.9763342 111.3148440  63.8932919
  83.7980786 110.9128627  63.6115601  82.9725745 111.2116674  64.8449035
  70.9114278 104.3387780  58.1011115  70.1145442 104.4506474  58.6194611
  70.6839870 104.6774432  57.2352006  76.7419946 110.8632483  66.0493630
  76.8064378 111.3252890  66.8851802  76.0330870 110.2329848  66.1775940
  67.2437236 104.2273691  63.5742629  67.4945274 105.1120701  63.8400205
  67.7796784 104.0478292  62.8017721  91.0669335 107.6587188  60.2417891
  90.3133044 107.0894586  60.0861895  91.2016877 107.6249852  61.1888526
  76.4567964 112.5300590  55.9172610  76.3213638 113.3752126  56.3457458
  76.9977776 112.7319868  55.1538544  72.9435303  98.6092170  72.5786965
  72.5502249  98.0558369  73.2534610  73.7601443  98.9202749  72.9693483
  69.9097361 110.0476028  56.4900535  70.4221881 110.8419279  56.6406100
  70.5620074 109.3502319  56.4234137  71.7192246 113.1641785  58.5723288
  71.8958874 114.0859749  58.3844272  72.5149079 112.8500204  59.0017668
  75.8603264 100.0250049  70.1707222  76.6012978 100.6257202  70.0911684
  76.0921187  99.2827687  69.6125265  71.0044602 105.2106416  68.4485452
  70.8898117 104.3091674  68.7492551  70.1489120 105.4570113  68.0970268
  78.0836440 113.1524157  70.0472952  77.6400294 112.3660535  69.7293857
  78.7453653 113.3403307  69.3816843  72.8423561 114.6819958  64.5733631
  73.3930986 114.5537022  63.8010625  72.0035037 114.9814847  64.2228524
  80.1817678 113.4326957  68.0754354  80.1636153 114.2535838  67.5834623
  81.1037598 113.3081032  68.3004495  76.6390732 110.9471086  68.9177862
  77.1719069 110.1859374  68.6877170  76.1104813 110.6544738  69.6602016
  79.8060427  96.0531152  64.4471504  79.4624696  96.9432794  64.3710614
  80.1739390  95.8632810  63.5841089  67.8746278 108.3764683  57.2660106
  68.7121500 108.7861691  57.0493814  68.0524545 107.4364125  57.2360300
  79.7710710 106.0439763  52.9543939  79.2557333 106.8144368  53.1932326
  79.4988018 105.3704899  53.5777000  77.3557821 100.8889464  58.0129177
  76.4999417 100.4996314  57.8334816  77.7684773 100.9681425  57.1528963
  78.8856967  98.4235807  62.4120737  78.3821763  98.3865942  61.5988542
  79.1787574  99.3328550  62.4717394  75.1299853  98.5074537  61.4186919
  75.9952850  98.3117346  61.0592808  75.1977362  98.2784889  62.3456275
  84.7444984 108.7972118  54.8897112  83.9674427 108.4583277  54.4452274
  85.4236465 108.8024741  54.2152077  79.5597013 103.9166855  54.7803720
  79.2547149 104.2313005  55.6313863  80.5127455 103.9948275  54.8231053
  78.0043445 110.0757079  56.4296674  77.4764806 109.3409838  56.1169911
  77.5030948 110.8531755  56.1836642  82.9836291 108.2706099  61.5463720
  82.3259965 108.9605361  61.6343849  83.7876690 108.6602531  61.8897707
  72.7362172 100.7376745  58.7903285  73.3105924 100.5151926  58.0576478
  73.3233155 100.8065439  59.5431887  81.7941750 106.6250472  59.5967662
  82.3073631 107.2580464  60.0989372  82.4442974 106.0251667  59.2311022
  73.0631760 102.7681206  52.8099171  72.2269072 103.1055893  53.1308445
  72.9236529 102.6330186  51.8726308  75.0384840  97.6117994  57.5178355
  74.3849253  97.2967011  56.8934970  74.9965314  96.9893734  58.2438178
  76.1496045 107.8937289  49.4331647  75.2423107 107.6626542  49.6322796
  76.6467077 107.0974908  49.6205628  79.0564124 116.6034796  52.3528333
  78.3825823 116.9066493  52.9613291  79.4429946 117.4063876  52.0033790
  78.2722581 104.0999927  61.8426002  77.3545142 104.3214874  61.6847691
  78.6882724 104.1746238  60.9837710  79.0557628 105.4991343  56.9728683
  79.8029447 106.0112740  56.6635805  79.3249218 105.1775396  57.8333076
  77.3284278 107.9949884  53.9555637  76.4195498 107.7108917  54.0528107
  77.3579362 108.4148962  53.0958944  82.5603546 111.6056473  57.7246805
  82.1065873 110.7647383  57.7811995  81.9297513 112.2417872  58.0621585
  81.5036465 102.5348459  58.9547472  80.7659222 102.0225846  59.2857715
  81.7563239 102.0948841  58.1430749  81.0036485 113.4432970  58.6596623
  81.2959459 114.0038027  57.9408988  81.5135106 113.7361531  59.4149782
  81.6048093  95.3124711  59.5489241  81.9106970  94.4522075  59.2615156
  82.3300698  95.9042332  59.3488235  67.8972449 105.7155398  57.9370839
  67.6996849 105.1224759  57.2121906  67.3419113 105.4107608  58.6546778
  75.8769173 105.6078504  60.0565432  75.9317782 104.6552341  59.9807909
  75.0660375 105.7637944  60.5406731  77.0260366 109.5358627  51.2943716
  76.5879796 108.8194486  50.8349353  77.7670807 109.7634742  50.7328807
  73.8161532 104.2255564  57.8155811  73.0029398 104.5249735  58.2221003
  74.3120527 103.8311253  58.5330294  75.9670110 114.2213321  59.7490076
  75.9246289 114.4474167  58.8198608  76.8832809 113.9876696  59.8975877
  79.4135744 104.6897389  66.6470705  79.7685132 104.9168862  67.5065171
  80.0607875 105.0215765  66.0247960  85.1433481 107.8115825  57.3520034
  85.0051380 108.0017420  56.4241223  84.7869700 108.5735207  57.8088085
  73.3075607 101.7973920  63.4317046  73.9474987 101.6562679  62.7340010
  72.4753138 101.5108433  63.0555648  85.1702861 109.8792352  62.3631306
  85.6039367 109.7867641  63.2114360  85.8834441 109.8549852  61.7251322
  74.0835911 111.0976350  59.5452039  74.8776510 110.6026670  59.3434614
  73.3727603 110.5694213  59.1819744  78.9030756 113.4794446  63.8964406
  78.9567778 114.0485382  64.6642122  78.0345537 113.6496331  63.5318443
  70.3918675 105.2419432  55.6211791  69.4616263 105.1803887  55.8381753
  70.4876147 104.7195385  54.8248433  70.3104224 101.7674245  58.2090033
  70.5711041 102.6819578  58.0999193  71.1321396 101.2998687  58.3586646
  71.7829149 103.1812002  65.3788858  72.4552202 102.9729364  64.7301506
  70.9558935 102.9834088  64.9394090  86.0318410 109.9216052  64.8964191
  86.2254300 110.8261863  65.1423466  85.9319028 109.4623471  65.7302776
  77.6854721  99.8073943  67.3954518  77.0382636 100.5063892  67.3018995
  78.4555736 100.2410087  67.7630767  81.0933519 110.0722795  70.4705072
  80.9419025 109.8433347  69.5535155  81.0838198 111.0293396  70.4836417
  77.8618855 107.6454708  65.4551338  78.7910915 107.7965867  65.2820305
  77.4409885 107.7338728  64.5999985  76.6607187 111.6705372  63.2249876
  76.5218273 111.3024156  64.0975814  75.8721783 112.1853012  63.0533834
  77.2555339 116.7714469  54.5675412  77.4307095 116.3002512  55.3821035
  76.5688127 117.3980235  54.7956673  78.2112402 111.0486975  60.6138714
  77.8762235 111.0087745  61.5096363  77.7116348 110.3831691  60.1409124
  72.1856646 106.4554605  66.1391295  72.0476444 105.7234844  66.7402834
  73.0961570 106.3663505  65.8575482  81.1471594 108.3943009  50.8875773
  80.5300765 107.6689837  50.7908826  80.6788082 109.1552369  50.5442847
  74.8138947 106.1674564  65.6274974  75.5238565 105.5267756  65.5861593
  74.7708255 106.4187459  66.5501155  82.8025726 113.1041917  68.5481554
  82.7438272 112.4201138  67.8812137  83.2045244 113.8460907  68.0962180
  73.5267881 103.1539782  67.4470614  72.9905238 102.7030520  68.0992210
  72.9384589 103.2885691  66.7041078  71.8216424 119.9203831  61.3415272
  72.0613023 120.5522355  62.0194291  70.9785621 119.5691871  61.6280632
  72.9370140 102.6128433  50.0097077  72.0599606 102.4917234  49.6459324
  73.4127893 101.8214512  49.7575966  82.8043133 111.0681501  66.7795533
  81.9169912 110.7307423  66.9021932  83.3741684 110.3364533  67.0164299
  64.4572280 107.4005593  60.1038585  65.1443320 107.0867323  59.5159600
  64.3020409 108.3046958  59.8305836  69.2607002 102.2895790  64.5323608
  69.1765191 101.6821459  63.7974018  68.4389708 102.7804808  64.5333105
  76.3344286 115.7282954  63.7456776  76.2614458 116.5337925  64.2576081
  75.8921679 115.9274920  62.9204798  76.1234066 114.9654724  57.2559598
  75.3401588 115.5076404  57.3497823  76.8226811 115.4828703  57.6553839
  79.4330716 100.7749353  59.8993803  79.9299415 100.0219316  59.5794874
  78.6617697 100.8113670  59.3337013  87.2860473 106.4789719  61.5412095
  87.2750350 107.3614434  61.1706028  86.4177853 106.1261270  61.3466632
  78.7942970 115.6269788  65.9014935  79.5070942 116.2617253  65.8290837
  78.3032998 115.7233654  65.0854937  80.5160497 109.5321040  57.4732227
  79.5816775 109.6522503  57.3036931  80.6937165 108.6293507  57.2092237
  76.0165685 102.9166736  59.6265488  75.6463472 102.3637777  60.3146394
  76.5124777 102.3124870  59.0740488  83.9033048 105.3738360  58.0082261
  84.3693500 106.2066351  57.9342564  84.3540548 104.9083341  58.7127519
  73.8454883 113.3764231  66.7220506  74.5464343 114.0100714  66.8749900
  73.3749998 113.7178963  65.9616145  81.9709279 111.7182181  55.0068413
  82.2469123 111.6038776  55.9162287  81.1013778 111.3199666  54.9680586
  81.8749711  97.7418947  62.0473162  80.9612791  97.9723174  62.2155369
  82.3042812  97.8257391  62.8987195  81.6456169 105.9308839  64.5473056
  80.9927619 106.1784746  63.8925509  82.0236549 105.1172977  64.2135534
  78.6063343 115.9668532  58.6501227  78.7885738 115.1490188  59.1128979
  79.4296329 116.1836224  58.2126117  78.9405509 114.8936717  55.9116275
  79.4693275 114.3829172  55.2986437  79.2033728 114.5779247  56.7761808
  77.6943742 106.6728650  71.0339093  77.0184379 106.5722779  71.7041469
  78.5171376 106.5167864  71.4975091  69.4422601 112.9100586  63.6551609
  70.0276038 112.1644274  63.7879513  69.2447440 113.2204543  64.5388273
  72.2961257 115.9451834  58.6714051  71.6271632 116.4297961  58.1878091
  72.1574126 116.1921054  59.5857430  64.0340256 105.4806187  62.3756052
  64.0724356 104.9469777  63.1693170  63.5280549 104.9541392  61.7567029
  76.4366525 117.9795577  65.2696709  76.9884833 118.1427199  66.0345795
  76.7772719 118.5700015  64.5976734  71.4131018 100.3270727  65.8718594
  71.4772345 101.1885558  65.4595992  71.3498139  99.7144729  65.1390953
  70.8883291 102.3993860  69.5191628  71.5155330 102.0170937  70.1329153
  70.0311210 102.1808062  69.8847321  81.2877399 112.8056835  71.1245364
  81.8317303 113.4186793  70.6300319  80.7064244 113.3636413  71.6412377
  67.6648834 104.2070289  55.4509983  67.9602275 103.2980967  55.3977037
  66.7636869 104.1858028  55.1290985  79.5734912 115.9277553  62.2560392
  79.4486052 115.1267293  61.7471337  80.2314004 116.4223746  61.7674361
  71.1943081 102.2826285  61.4337532  70.4729666 102.8962253  61.2945005
  71.9836336 102.8184050  61.3554178  81.6369821 113.7286573  63.8839942
  80.6900156 113.6091924  63.8118268  81.9852594 112.8409071  63.9666203
  73.9969394  99.6180712  67.7078184  74.5203796  99.8643008  68.4704493
  73.7781727 100.4500747  67.2881321  69.3936675 101.8884386  55.5749308
  69.0649381 101.0081765  55.3924414  69.7476046 101.8332055  56.4625698
  78.6416254 113.5239289  60.0844294  78.4941217 112.5955996  60.2651864
  79.4669748 113.5459380  59.6001369  72.5078498 102.1757356  55.9424786
  72.8474571 102.7043277  55.2203394  72.9550619 102.5137762  56.7183353
  82.2450376 114.3467848  61.1709167  83.1696923 114.1410709  61.0333618
  82.0765679 114.0984249  62.0798508  75.2021939 100.5594407  65.3927854
  74.8618760  99.7602220  65.7948534  74.4960945 100.8596118  64.8204687
  75.8538411  97.6443719  63.8455177  76.6764480  97.1704197  63.7234067
  76.0976475  98.4234203  64.3453863  74.4946646 100.6731978  54.1418079
  75.2155008 101.0513231  53.6381796  73.8711950 101.3920855  54.2453057
  78.6377768 101.3777127  55.0776411  78.8541383 102.2601765  54.7765239
  78.1571836 100.9863340  54.3482053  73.3776990 104.3362840  61.6547156
  73.2321570 104.6503143  62.5471437  72.9002193 104.9547740  61.1018054
  75.2373373 101.3265388  61.7028045  75.2234941 100.4306481  61.3660343
  75.9545801 101.3336052  62.3366331  77.0899503 101.7602728  63.7481173
  76.8317281 102.6819799  63.7465503  76.5584544 101.3633163  64.4381637
  82.0345692 114.8653515  56.5271258  82.2082570 114.2999938  55.7745110
  82.5274583 115.6654410  56.3450748  67.8522652 106.8768184  64.5934817
  67.3076120 107.6527992  64.7255091  68.7302002 107.2238989  64.4353938
  74.6410269 100.2079768  56.9715615  74.7626180  99.2796414  57.1706503
  74.3512311 100.2218454  56.0593931  77.5101459  97.8934679  60.1082335
  77.5323156  97.9574012  59.1534315  77.9269518  97.0539187  60.3022841
  87.8885083 107.6289938  58.1461558  88.3316229 106.8797263  57.7480681
  87.0111594 107.6200075  57.7635290  83.0220865 114.1820280  53.6268156
  83.7171769 114.8026972  53.8455471  83.3644015 113.3315631  53.9020534
  68.6388674 106.0038081  67.4864974  67.8970410 106.1520716  68.0729604
  68.3181418 106.2646346  66.6231723  84.9212288 111.6319985  55.1555487
  85.4463612 111.9707258  54.4304807  84.8334640 110.6967000  54.9718622
  76.5832336 115.5454059  67.2845364  76.8919463 115.3003206  68.1568063
  77.3807818 115.7500697  66.7964234  76.6052948 117.6991968  59.5150740
  76.1657939 117.2068347  60.2083597  77.3561065 117.1564936  59.2742816
  69.0845287 113.8903509  59.5175368  69.9103307 113.5907281  59.1374012
  68.7339339 113.1211132  59.9665157  74.0526821 113.2429978  61.5873042
  73.4306830 112.5800683  61.2875270  74.7231688 113.2691109  60.9046690
  67.2853893 111.8089836  60.4764302  66.4485801 111.3812010  60.2948303
  67.2577538 112.0022279  61.4135093  74.1251348 101.7211766  71.1805548
  74.1739504 102.5973888  70.7983318  74.6673862 101.1789159  70.6077191
  84.6106194 112.2652889  70.4606685  83.8201738 112.2477028  69.9211184
  84.3739548 112.8041182  71.2155722  84.7304069 109.1145355  67.7739414
  84.7802074 108.9495363  68.7154936  84.6217992 108.2472614  67.3837294
  73.6140328 111.7933901  55.0631502  73.7628448 112.4769365  54.4098175
  74.4206771 111.7738991  55.5780958  82.0207831 105.0976283  69.0898720
  82.9217694 104.9582748  68.7982718  82.0955806 105.2630738  70.0296898
  76.3550637 102.4743138  67.9351907  75.4853946 102.7676704  67.6634495
  76.5910117 103.0583583  68.6559170  86.2322266 111.5342297  68.0181435
  85.9407074 111.8972277  68.8544896  85.6194397 110.8209305  67.8394767
  87.4317948 109.0995176  60.5384005  88.2664839 109.5384981  60.7021566
  87.5677077 108.6233830  59.7192251  84.4809454 106.6574911  66.4861493
  84.9563576 106.8502558  65.6780344  83.5575019 106.7134097  66.2404877
  71.3692961 107.8199079  56.0692571  71.1239002 106.9161409  56.2672782
  71.5388875 107.8216229  55.1272049  79.0589670  98.6922755  65.4517327
  79.5771614  99.4283782  65.1263816  78.7044803  98.9986748  66.2864086
  70.6388608 103.5527436  53.5678733  69.9457853 103.6271791  52.9118769
  70.3940360 102.7887780  54.0900250  79.3102265  95.1123037  60.9718224
  79.5904018  94.4446226  61.5978650  80.0952872  95.3052133  60.4592887
  77.1135733 114.2882031  52.5343250  76.5409700 114.9072218  52.0813722
  77.6868527 114.8381393  53.0683172  83.1811123 103.5340671  64.7189799
  84.1328546 103.6338769  64.7402023  83.0114573 102.7418940  65.2287883
  81.2025502 100.6196255  64.9049200  80.6075435 100.9001267  64.2095688
  80.9175199 101.1090156  65.6765941  80.3332993 114.5719181  53.6651832
  81.2663666 114.5064743  53.8684708  80.2456206 115.4075448  53.2066365
  82.9621010 113.8885052  50.6255780  82.8834641 113.5544915  51.5191538
  83.7830676 114.3806820  50.6247252  85.6599201 106.7546791  63.8332098
  85.6275521 105.8162792  64.0191782  86.2699824 106.8330828  63.0997923
  77.4982532 105.6242844  49.8759302  78.4441636 105.4949052  49.9447720
  77.1196777 104.8857506  50.3528731  85.8093689 103.5457835  63.8790382
  85.2932738 102.7616291  63.6920310  86.6933638 103.2176551  64.0436901
  83.4704416  97.2898850  59.8386194  83.2729237  96.9813938  60.7229526
  84.0804122  98.0160489  59.9684124  91.4775751 107.8162798  62.9738135
  92.2079139 107.5548086  63.5345838  90.8682696 107.0791520  63.0140203
  89.5591048 105.9570661  63.5712586  88.8324211 105.8226625  62.9629078
  89.1438335 106.2647489  64.3769304  77.3821224 109.6760590  71.3359959
  78.3024234 109.8539189  71.5300006  77.3470807 108.7316636  71.1839659
  75.6825449 103.5492820  49.8114188  74.7756904 103.2525933  49.8876901
  75.9601430 103.2522639  48.9448474  66.6003389 104.8699184  60.2613234
  66.2806173 104.0164492  59.9687608  66.0536817 105.0847762  61.0171201
  70.3783297 107.5861625  63.9782741  70.5969306 108.5178733  63.9970774
  70.7909070 107.2269599  64.7637544  77.2987514  98.0929710  55.9658429
  76.4888243  97.7476795  56.3413675  77.9871931  97.7837254  56.5546040
  79.2278063  97.1707757  57.5882726  79.7809101  97.5903210  58.2472749
  79.4648149  96.2443505  57.6305682  75.2511162 103.1594831  73.3685489
  75.1507889 104.1089188  73.2997581  75.0332704 102.8313070  72.4961560
  74.4524233 100.4079756  49.9526167  75.3143397 100.7334654  50.2121984
  74.6374578  99.6211252  49.4399233  66.4691649 108.4902095  62.2306356
  65.7755121 108.0756048  61.7176310  67.2164640 108.5322632  61.6339775
  82.6056870  99.2808282  57.0961390  82.0255539  99.9393086  56.7139442
  82.3392803  98.4585627  56.6848807  81.0560436  98.6813340  59.2982710
  81.5560215  98.7929874  58.4897029  81.6996044  98.3774393  59.9383519
  75.1142432 106.5891969  72.1850551  74.6309514 107.3892330  72.3914440
  75.2003371 106.5999914  71.2317995  68.3828392 108.4220349  60.1072370
  68.3599080 108.5208036  59.1554254  68.6929028 109.2685500  60.4289537
  71.0415770 110.4796504  64.2218985  71.9959023 110.4480446  64.1548916
  70.8428293 110.0187128  65.0369211  71.6315152 109.0497620  66.7889783
  72.4508041 109.5441699  66.8124620  71.9051959 108.1329588  66.7607350
  81.3881748 101.4408373  56.1517738  80.5007603 101.7258023  55.9337933
  81.8035737 101.2802136  55.3045015  84.7396284 101.4654894  59.8672077
  85.5156674 101.9551346  60.1396694  84.0144418 101.8912948  60.3243947
  87.1768843 102.1782513  60.9246018  87.7713333 101.9378249  60.2139326
  87.2495426 101.4589643  61.5519554  69.3965998 116.0216124  61.2389183
  69.2620466 115.2616525  60.6727181  68.9798061 116.7457024  60.7717972
  80.5324961 111.2053047  50.2465758  81.2360811 111.4103050  50.8623414
  79.8087610 111.7729809  50.5114842  81.3622772 106.9562908  56.3668028
  81.3057973 107.4131460  55.5275661  81.9151114 106.1953593  56.1890871
  85.1727578 102.7452640  57.1918148  84.9164512 102.3449276  58.0226355
  84.5480446 103.4596434  57.0668287  89.4839915 105.4848714  59.6989439
  88.9239473 105.5541903  60.4721001  88.8783419 105.3089698  58.9788935
  72.5535124 116.9185441  61.4507625  72.4367508 117.8630873  61.3486316
  71.7327570 116.6159002  61.8393425  82.4411659 111.6435576  52.2964218
  83.2757263 111.2116775  52.1141693  82.2796002 111.4717590  53.2241113
  82.0957551 108.1467690  53.6620557  82.0406355 107.9811961  52.7209002
  81.4703606 108.8543723  53.8182747  66.8850066 103.3835754  67.4881980
  67.5308929 102.8734708  67.9769205  66.6767217 104.1204436  68.0625405
  79.4103458 110.4516602  72.9874120  80.2794618 110.6257254  72.6260755
  78.9310210 111.2711018  72.8649850  75.4053676  97.6475799  53.2405876
  75.3932346  98.5917639  53.3974147  76.2977098  97.4645944  52.9465337
  73.5789638 117.5713703  64.6663554  74.4816885 117.6037313  64.9830049
  73.3527008 116.6414154  64.6809890  75.3343240 116.3244689  61.3273632
  74.3838871 116.3246551  61.2138005  75.6375726 115.5777424  60.8109667
  79.2205796  94.2418575  57.4951813  78.4538192  93.6877062  57.6408495
  79.6316501  94.3140444  58.3565964  71.2247557 100.5303371  71.5856994
  72.0879018 100.1740176  71.7960318  70.6512968 100.1917266  72.2732398
  91.0695934 122.1605228  62.3919395  91.7074344 122.0411975  61.6882735
  90.9516777 123.1086071  62.4507347  87.8785640 122.1132656  62.3280920
  87.5404152 121.9973720  61.4401454  88.7475408 121.7123821  62.3081926
  83.7372456 123.9668132  58.3177811  83.1737321 123.8758069  57.5494098
  83.6224851 123.1468036  58.7980303  88.3605423 123.2667507  68.2867125
  88.3494064 122.8720306  67.4147629  88.5226063 122.5333580  68.8800897
  81.2836888 125.4619324  61.1562031  82.0758180 125.1210148  60.7408330
  81.5233538 125.5714299  62.0764184  83.2427642 124.7228237  54.0279410
  84.0158518 124.1757224  53.8892286  83.5953041 125.5872486  54.2393871
  85.0812684 126.0504619  67.2346309  84.7902550 126.9550250  67.1192975
  85.7169669 126.0921147  67.9490379  86.0068891 123.4281468  63.8247669
  86.6032463 123.2037490  63.1104632  86.0643863 122.6866213  64.4273117
  85.5793919 120.8820903  51.6597860  85.8319440 120.3602424  50.8981323
  84.6418479 120.7187048  51.7624543  90.6237202 119.8856681  59.4672603
  91.4100292 119.4676105  59.1163020  90.8875907 120.7902774  59.6354251
  96.0245629 119.8231915  60.3705581  96.7570801 119.2531131  60.6043411
  95.2684985 119.4353515  60.8112087  85.2990208 122.7849009  53.8622235
  85.1826466 122.1093912  54.5303319  85.4092468 122.2981383  53.0454388
  87.6421749 122.2459156  57.5668924  87.2779956 121.7189777  58.2781845
  88.4988865 121.8557625  57.3935409  93.5471050 113.5353489  64.8300190
  93.2154375 114.4048900  64.6061405  92.9516663 113.2189773  65.5094220
  87.2827236 117.2749056  52.5630272  87.4501638 118.1429292  52.9300743
  87.0924405 117.4376337  51.6391562  83.4915051 122.1879831  60.2632807
  82.5665547 122.0556046  60.4710499  83.7399464 122.9674051  60.7602750
  93.4399713 118.2548575  61.9093540  92.5316590 118.1863983  61.6152301
  93.3887309 118.7320520  62.7375366  87.2616457 119.7306713  53.5476939
  87.1416082 120.1763764  54.3862419  86.5669045 120.0792031  52.9890477
  80.8523862 121.8313105  61.0976596  80.9816243 122.0847584  62.0116008
  80.1721313 122.4240813  60.7781251  87.5140579 119.6738220  69.8528437
  86.7373913 120.2332141  69.8431302  88.1531142 120.1595003  70.3743307
  95.3061360 116.4565013  63.6871414  94.6635740 116.7497546  63.0411209
  94.8016288 116.3417934  64.4924611  92.9601523 120.2028186  54.3757273
  93.8719379 120.4355573  54.2004971  92.4511170 120.7865231  53.8132352
  85.7686951 122.4823674  69.4146404  86.5101636 123.0208718  69.1381228
  85.0623937 123.1089963  69.5717956  91.2442291 124.6252814  68.0118566
  91.6525647 124.1835225  67.2673198  90.5219552 124.0505442  68.2652759
  87.5973361 119.5625421  65.3852123  88.4434556 119.9864835  65.5286772
  87.5371999 118.9059045  66.0790686  90.7472806 117.2229789  67.0433296
  90.5033738 117.9771850  66.5067572  91.0232737 117.6015137  67.8780543
  90.3037498 116.3786222  62.6247134  89.4421977 116.6767476  62.9163872
  90.3299933 116.5956621  61.6928167  87.1199067 124.9228413  59.0320940
  87.5837413 125.2016116  58.2425562  86.8555865 124.0211858  58.8494031
  84.0123148 124.4699895  61.9700703  84.5824505 124.8987163  61.3318188
  84.6031260 124.1882479  62.6684889  86.0567953 121.0451565  55.8410505
  86.7591997 121.4972609  56.3084431  85.7248582 120.4035384  56.4690398
  84.5048315 119.6363322  70.2161714  83.8746976 120.3179603  70.4497111
  84.3984403 119.5246404  69.2714853  79.7993287 119.3035118  61.1427639
  79.0092341 119.5592647  60.6667749  80.2904535 120.1183456  61.2479679
  81.7508033 119.6679697  58.1011115  80.9539196 119.7798391  58.6194611
  81.5233625 120.0066349  57.2352006  87.5813700 126.1924400  66.0493630
  87.6458133 126.6544808  66.8851802  86.8724624 125.5621765  66.1775940
  78.0830990 119.5565608  63.5742629  78.3339029 120.4412618  63.8400205
  78.6190539 119.3770210  62.8017721  83.7829058 113.9384088  72.5786965
  83.3896003 113.3850286  73.2534610  84.5995198 114.2494666  72.9693483
  80.7491115 125.3767946  56.4900535  81.2615636 126.1711196  56.6406100
  81.4013828 124.6794236  56.4234137  82.5586000 128.4933702  58.5723288
  82.7352628 129.4151667  58.3844272  83.3542834 128.1792121  59.0017668
  86.6997019 115.3541967  70.1707222  87.4406732 115.9549120  70.0911684
  86.9314941 114.6119605  69.6125265  81.8438357 120.5398334  68.4485452
  81.7291872 119.6383591  68.7492551  80.9882874 120.7862031  68.0970268
  83.6817316 130.0111876  64.5733631  84.2324741 129.8828939  63.8010625
  82.8428791 130.3106765  64.2228524  87.4784487 126.2763004  68.9177862
  88.0112823 125.5151292  68.6877170  86.9498568 125.9836656  69.6602016
  90.6454182 111.3823070  64.4471504  90.3018451 112.2724712  64.3710614
  91.0133144 111.1924727  63.5841089  78.7140032 123.7056600  57.2660106
  79.5515254 124.1153609  57.0493814  78.8918300 122.7656042  57.2360300
  90.6104464 121.3731681  52.9543939  90.0951088 122.1436286  53.1932326
  90.3381773 120.6996817  53.5777000  88.1951575 116.2181382  58.0129177
  87.3393172 115.8288232  57.8334816  88.6078527 116.2973343  57.1528963
  89.7250722 113.7527725  62.4120737  89.2215518 113.7157860  61.5988542
  90.0181329 114.6620468  62.4717394  85.9693608 113.8366455  61.4186919
  86.8346605 113.6409263  61.0592808  86.0371117 113.6076806  62.3456275
  90.3990767 119.2458773  54.7803720  90.0940903 119.5604922  55.6313863
  91.3521210 119.3240193  54.8231053  88.8437199 125.4048996  56.4296674
  88.3158561 124.6701756  56.1169911  88.3424702 126.1823673  56.1836642
  83.5755927 116.0668663  58.7903285  84.1499679 115.8443844  58.0576478
  84.1626909 116.1357357  59.5431887  92.6335504 121.9542390  59.5967662
  93.1467386 122.5872381  60.0989372  93.2836728 121.3543585  59.2311022
  83.9025514 118.0973124  52.8099171  83.0662826 118.4347810  53.1308445
  83.7630284 117.9622103  51.8726308  85.8778595 112.9409912  57.5178355
  85.2243007 112.6258929  56.8934970  85.8359069 112.3185652  58.2438178
  86.9889800 123.2229207  49.4331647  86.0816861 122.9918460  49.6322796
  87.4860831 122.4266826  49.6205628  89.1116335 119.4291845  61.8426002
  88.1938896 119.6506792  61.6847691  89.5276479 119.5038156  60.9837710
  89.8951383 120.8283261  56.9728683  90.6423202 121.3404658  56.6635805
  90.1642972 120.5067313  57.8333076  88.1678033 123.3241801  53.9555637
  87.2589252 123.0400834  54.0528107  88.1973117 123.7440880  53.0958944
  92.3430220 117.8640377  58.9547472  91.6052977 117.3517763  59.2857715
  92.5956993 117.4240759  58.1430749  92.4441847 110.6416629  59.5489241
  92.7500724 109.7813992  59.2615156  93.1694452 111.2334249  59.3488235
  78.7366203 121.0447316  57.9370839  78.5390603 120.4516676  57.2121906
  78.1812867 120.7399526  58.6546778  86.7162927 120.9370422  60.0565432
  86.7711537 119.9844258  59.9807909  85.9054129 121.0929861  60.5406731
  87.8654121 124.8650545  51.2943716  87.4273551 124.1486404  50.8349353
  88.6064562 125.0926660  50.7328807  84.6555287 119.5547482  57.8155811
  83.8423152 119.8541652  58.2221003  85.1514281 119.1603171  58.5330294
  90.2529499 120.0189306  66.6470705  90.6078886 120.2460779  67.5065171
  90.9001630 120.3507683  66.0247960  84.1469362 117.1265837  63.4317046
  84.7868741 116.9854596  62.7340010  83.3146892 116.8400351  63.0555648
  84.9229666 126.4268268  59.5452039  85.7170264 125.9318588  59.3434614
  84.2121358 125.8986131  59.1819744  81.2312429 120.5711350  55.6211791
  80.3010017 120.5095805  55.8381753  81.3269901 120.0487302  54.8248433
  81.1497978 117.0966162  58.2090033  81.4104795 118.0111496  58.0999193
  81.9715150 116.6290605  58.3586646  82.6222903 118.5103920  65.3788858
  83.2945957 118.3021282  64.7301506  81.7952690 118.3126006  64.9394090
  88.5248475 115.1365860  67.3954518  87.8776390 115.8355810  67.3018995
  89.2949491 115.5702004  67.7630767  88.7012610 122.9746625  65.4551338
  89.6304670 123.1257785  65.2820305  88.2803640 123.0630646  64.5999985
  87.5000942 126.9997290  63.2249876  87.3612027 126.6316074  64.0975814
  86.7115538 127.5144929  63.0533834  89.0506157 126.3778892  60.6138714
  88.7155989 126.3379662  61.5096363  88.5510102 125.7123608  60.1409124
  83.0250401 121.7846522  66.1391295  82.8870199 121.0526761  66.7402834
  83.9355324 121.6955423  65.8575482  91.9865348 123.7234927  50.8875773
  91.3694519 122.9981755  50.7908826  91.5181837 124.4844287  50.5442847
  85.6532701 121.4966482  65.6274974  86.3632320 120.8559674  65.5861593
  85.6102010 121.7479377  66.5501155  84.3661635 118.4831700  67.4470614
  83.8298992 118.0322438  68.0992210  83.7778344 118.6177609  66.7041078
  83.7763894 117.9420351  50.0097077  82.8993361 117.8209152  49.6459324
  84.2521647 117.1506429  49.7575966  75.2966034 122.7297511  60.1038585
  75.9837074 122.4159241  59.5159600  75.1414163 123.6338875  59.8305836
  80.1000757 117.6187707  64.5323608  80.0158945 117.0113377  63.7974018
  79.2783463 118.1096726  64.5333105  90.2724470 116.1041271  59.8993803
  90.7693170 115.3511233  59.5794874  89.5011452 116.1405588  59.3337013
  91.3554251 124.8612958  57.4732227  90.4210530 124.9814421  57.3036931
  91.5330920 123.9585425  57.2092237  86.8559439 118.2458654  59.6265488
  86.4857227 117.6929694  60.3146394  87.3518532 117.6416787  59.0740488
  94.7426802 120.7030277  58.0082261  95.2087255 121.5358269  57.9342564
  95.1934303 120.2375259  58.7127519  84.6848638 128.7056149  66.7220506
  85.3858097 129.3392632  66.8749900  84.2143753 129.0470880  65.9616145
  92.7143465 113.0710864  62.0473162  91.8006545 113.3015091  62.2155369
  93.1436567 113.1549308  62.8987195  92.4849924 121.2600756  64.5473056
  91.8321374 121.5076664  63.8925509  92.8630304 120.4464895  64.2135534
  88.5337497 122.0020567  71.0339093  87.8578134 121.9014697  71.7041469
  89.3565131 121.8459781  71.4975091  80.2816356 128.2392504  63.6551609
  80.8669793 127.4936192  63.7879513  80.0841194 128.5496461  64.5388273
  74.8734011 120.8098104  62.3756052  74.9118110 120.2761695  63.1693170
  74.3674303 120.2833310  61.7567029  82.2524773 115.6562645  65.8718594
  82.3166099 116.5177476  65.4595992  82.1891893 115.0436646  65.1390953
  81.7277045 117.7285777  69.5191628  82.3549084 117.3462855  70.1329153
  80.8704964 117.5099979  69.8847321  78.5042588 119.5362206  55.4509983
  78.7996029 118.6272885  55.3977037  77.6030624 119.5149946  55.1290985
  82.0336835 117.6118203  61.4337532  81.3123421 118.2254171  61.2945005
  82.8230091 118.1475968  61.3554178  84.8363149 114.9472629  67.7078184
  85.3597550 115.1934926  68.4704493  84.6175482 115.7792664  67.2881321
  80.2330430 117.2176304  55.5749308  79.9043136 116.3373683  55.3924414
  80.5869800 117.1623973  56.4625698  83.3472253 117.5049274  55.9424786
  83.6868325 118.0335195  55.2203394  83.7944373 117.8429680  56.7183353
  86.0415694 115.8886325  65.3927854  85.7012514 115.0894138  65.7948534
  85.3354700 116.1888035  64.8204687  86.6932166 112.9735637  63.8455177
  87.5158235 112.4996115  63.7234067  86.9370229 113.7526121  64.3453863
  85.3340400 116.0023895  54.1418079  86.0548763 116.3805148  53.6381796
  84.7105704 116.7212772  54.2453057  89.4771523 116.7069044  55.0776411
  89.6935137 117.5893682  54.7765239  88.9965590 116.3155258  54.3482053
  84.2170744 119.6654758  61.6547156  84.0715325 119.9795061  62.5471437
  83.7395948 120.2839658  61.1018054  86.0767127 116.6557306  61.7028045
  86.0628696 115.7598399  61.3660343  86.7939555 116.6627969  62.3366331
  87.9293258 117.0894646  63.7481173  87.6711036 118.0111716  63.7465503
  87.3978298 116.6925080  64.4381637  78.6916406 122.2060102  64.5934817
  78.1469875 122.9819910  64.7255091  79.5695756 122.5530906  64.4353938
  85.4804023 115.5371686  56.9715615  85.6019934 114.6088332  57.1706503
  85.1906065 115.5510372  56.0593931  88.3495213 113.2226596  60.1082335
  88.3716910 113.2865929  59.1534315  88.7663272 112.3831105  60.3022841
  79.4782428 121.3329998  67.4864974  78.7364164 121.4812634  68.0729604
  79.1575173 121.5938264  66.6231723  79.9239042 129.2195427  59.5175368
  80.7497062 128.9199199  59.1374012  79.5733094 128.4503049  59.9665157
  84.8920575 128.5721895  61.5873042  84.2700584 127.9092600  61.2875270
  85.5625442 128.5983027  60.9046690  78.1247647 127.1381753  60.4764302
  77.2879555 126.7103928  60.2948303  78.0971292 127.3314197  61.4135093
  84.9645103 117.0503683  71.1805548  85.0133258 117.9265806  70.7983318
  85.5067617 116.5081076  70.6077191  84.4534082 127.1225819  55.0631502
  84.6022202 127.8061283  54.4098175  85.2600525 127.1030909  55.5780958
  92.8601586 120.4268201  69.0898720  93.7611448 120.2874666  68.7982718
  92.9349560 120.5922656  70.0296898  87.1944391 117.8035056  67.9351907
  86.3247700 118.0968622  67.6634495  87.4303871 118.3875501  68.6559170
  82.2086715 123.1490996  56.0692571  81.9632757 122.2453326  56.2672782
  82.3782630 123.1508147  55.1272049  89.8983425 114.0214673  65.4517327
  90.4165369 114.7575699  65.1263816  89.5438558 114.3278666  66.2864086
  81.4782363 118.8819354  53.5678733  80.7851607 118.9563709  52.9118769
  81.2334114 118.1179697  54.0900250  90.1496019 110.4414955  60.9718224
  90.4297773 109.7738144  61.5978650  90.9346626 110.6344051  60.4592887
  94.0204877 118.8632589  64.7189799  94.9722300 118.9630687  64.7402023
  93.8508328 118.0710858  65.2287883  92.0419257 115.9488172  64.9049200
  91.4469189 116.2293185  64.2095688  91.7568954 116.4382073  65.6765941
  88.3376286 120.9534762  49.8759302  89.2835391 120.8240970  49.9447720
  87.9590531 120.2149424  50.3528731  96.6487444 118.8749752  63.8790382
  96.1326492 118.0908209  63.6920310  97.5327392 118.5468469  64.0436901
  94.3098171 112.6190768  59.8386194  94.1122992 112.3105856  60.7229526
  94.9197876 113.3452407  59.9684124  88.2214979 125.0052508  71.3359959
  89.1417988 125.1831107  71.5300006  88.1864562 124.0608553  71.1839659
  86.5219203 118.8784738  49.8114188  85.6150659 118.5817851  49.8876901
  86.7995184 118.5814556  48.9448474  77.4397144 120.1991102  60.2613234
  77.1199928 119.3456410  59.9687608  76.8930572 120.4139680  61.0171201
  81.2177051 122.9153543  63.9782741  81.4363061 123.8470650  63.9970774
  81.6302825 122.5561517  64.7637544  88.1381269 113.4221628  55.9658429
  87.3281997 113.0768713  56.3413675  88.8265686 113.1129172  56.5546040
  90.0671817 112.4999675  57.5882726  90.6202856 112.9195128  58.2472749
  90.3041904 111.5735423  57.6305682  86.0904916 118.4886748  73.3685489
  85.9901643 119.4381105  73.2997581  85.8726459 118.1604987  72.4961560
  85.2917988 115.7371673  49.9526167  86.1537152 116.0626572  50.2121984
  85.4768332 114.9503169  49.4399233  77.3085404 123.8194013  62.2306356
  76.6148875 123.4047966  61.7176310  78.0558395 123.8614550  61.6339775
  93.4450624 114.6100200  57.0961390  92.8649293 115.2685004  56.7139442
  93.1786557 113.7877544  56.6848807  91.8954191 114.0105258  59.2982710
  92.3953969 114.1221792  58.4897029  92.5389799 113.7066310  59.9383519
  85.9536187 121.9183887  72.1850551  85.4703268 122.7184247  72.3914440
  86.0397126 121.9291832  71.2317995  79.2222146 123.7512267  60.1072370
  79.1992834 123.8499954  59.1554254  79.5322783 124.5977418  60.4289537
  81.8809524 125.8088422  64.2218985  82.8352778 125.7772364  64.1548916
  81.6822048 125.3479046  65.0369211  82.4708906 124.3789538  66.7889783
  83.2901795 124.8733617  66.8124620  82.7445714 123.4621506  66.7607350
  92.2275502 116.7700290  56.1517738  91.3401357 117.0549941  55.9337933
  92.6429491 116.6094054  55.3045015  95.5790038 116.7946811  59.8672077
  96.3550429 117.2843264  60.1396694  94.8538173 117.2204865  60.3243947
  98.0162597 117.5074430  60.9246018  98.6107088 117.2670166  60.2139326
  98.0889181 116.7881561  61.5519554  92.2016526 122.2854826  56.3668028
  92.1451727 122.7423378  55.5275661  92.7544869 121.5245511  56.1890871
  96.0121332 118.0744558  57.1918148  95.7558266 117.6741194  58.0226355
  95.3874200 118.7888352  57.0668287  92.9351305 123.4759607  53.6620557
  92.8800109 123.3103879  52.7209002  92.3097361 124.1835640  53.8182747
  77.7243820 118.7127672  67.4881980  78.3702684 118.2026626  67.9769205
  77.5160971 119.4496353  68.0625405  86.2447431 112.9767716  53.2405876
  86.2326101 113.9209556  53.3974147  87.1370853 112.7937862  52.9465337
  90.0599550 109.5710493  57.4951813  89.2931946 109.0168980  57.6408495
  90.4710255 109.6432362  58.3565964  82.0641311 115.8595289  71.5856994
  82.9272773 115.5032094  71.7960318  81.4906722 115.5209184  72.2732398
  26.0333408   7.1915844  49.1164702  26.6711818   7.0722591  48.4128042
  25.9154251   8.1396688  49.1752654  22.8423114   7.1443272  49.0526226
  22.5041626   7.0284337  48.1646761  23.7112883   6.7434437  49.0327232
  18.7009930   8.9978749  45.0423117  18.1374795   8.9068686  44.2739405
  18.5862325   8.1778653  45.5225610  23.3242897   8.2978124  55.0112432
  23.3131538   7.9030922  54.1392935  23.4863537   7.5644196  55.6046203
  16.2474362  10.4929940  47.8807338  17.0395654  10.1520765  47.4653637
  16.4871012  10.6024915  48.8009491  24.2809489  12.6649716  40.3537582
  23.6297469  13.2503797  39.9671596  25.0753852  13.1955911  40.4132620
  18.2065116   9.7538853  40.7524716  18.9795992   9.2067840  40.6137592
  18.5590515  10.6183103  40.9639178  20.0450159  11.0815236  53.9591616
  19.7540025  11.9860867  53.8438282  20.6807143  11.1231763  54.6735685
  20.9706365   8.4592084  50.5492975  21.5669938   8.2348107  49.8349938
  21.0281337   7.7176830  51.1518423  20.5431394   5.9131520  38.3843166
  20.7956914   5.3913041  37.6226629  19.6055953   5.7497665  38.4869850
  25.5874677   4.9167298  46.1917910  26.3737766   4.4986721  45.8408327
  25.8513381   5.8213390  46.3599558  25.7584754  10.3540148  40.8906566
  25.1230587  10.4274775  41.6027471  25.4282160  10.9433747  40.2125646
  30.9883104   4.8542531  47.0950888  31.7208276   4.2841748  47.3288718
  30.2322459   4.4664132  47.5357394  20.2627683   7.8159625  40.5867541
  20.1463941   7.1404529  41.2548626  20.3729942   7.3291999  39.7699694
  22.6059223   7.2769773  44.2914231  22.2417431   6.7500394  45.0027152
  23.4626339   6.8868242  44.1180716  25.0040044  10.7676651  50.9541409
  24.7040767  11.6701690  50.8457217  24.6591103  10.5008834  51.8062562
  18.4552525   7.2190448  46.9878114  17.5303022   7.0866662  47.1955806
  18.7036938   7.9984667  47.4848056  28.4037187   3.2859191  48.6338847
  27.4954065   3.2174600  48.3397608  28.3524783   3.7631136  49.4620672
  22.2253931   4.7617330  40.2722246  22.1053557   5.2074381  41.1107726
  21.5306520   5.1102647  39.7135784  19.9860823  17.5320972  43.9212377
  19.9084853  18.4828797  44.0000858  19.3822467  17.1866844  44.5787303
  22.4778053   4.7048837  56.5773744  21.7011387   5.2642757  56.5676609
  23.1168616   5.1905620  57.0988614  30.2698834   1.4875630  50.4116721
  29.6273214   1.7808163  49.7656515  29.7653762   1.3728550  51.2169917
  27.9238997   5.2338803  41.1002580  28.8356854   5.4666190  40.9250277
  27.4148645   5.8175847  40.5377659  20.7324426   7.5134290  56.1391711
  21.4739110   8.0519334  55.8626535  20.0261411   8.1400579  56.2963263
  26.2079765   9.6563431  54.7363872  26.6163121   9.2145841  53.9918505
  25.4857027   9.0816058  54.9898065  22.5610835   4.5936038  52.1097429
  23.4072030   5.0175451  52.2532078  22.5009473   3.9369662  52.8035993
  26.5308580  10.2164621  48.4916161  25.9017442  10.3810336  47.7892229
  26.1434242  10.6306231  49.2627125  30.4097812  11.1519059  45.8460525
  29.7248850  11.5317961  45.2957558  30.4941661  11.7614386  46.5792473
  25.7110281   2.2540406  53.7678603  25.4671212   3.0082466  53.2312879
  25.9870211   2.6325754  54.6025850  27.6648743   8.7979018  52.4455869
  27.8765639   9.4410778  51.7690250  27.6178492   7.9641335  51.9777799
  25.2674972   1.4096839  49.3492441  24.4059451   1.7078093  49.6409178
  25.2937407   1.6267238  48.4173473  22.0836542   9.9539030  45.7566246
  22.5474887  10.2326732  44.9670869  21.8193340   9.0522474  45.5739337
  18.9760623   9.5010511  48.6946010  19.5461980   9.9297779  48.0563494
  19.5668735   9.2193096  49.3930195  21.0205428   6.0762182  42.5655812
  21.7229471   6.5283226  43.0329738  20.6886056   5.4346001  43.1935705
  28.7794571  11.6750974  50.6178226  29.6012015  11.2731161  50.3360908
  28.7756974  11.5719208  51.5694342  22.5451175  11.2235017  52.7738936
  22.6095607  11.6855424  53.6097108  21.8362099  10.5932382  52.9021246
  36.8700564   8.0189722  46.9663197  36.1164273   7.4497120  46.8107202
  37.0048106   7.9852387  47.9133832  22.2599192  12.8903125  42.6417917
  22.1244867  13.7354660  43.0702765  22.8009005  13.0922402  41.8783851
  15.7128590  10.4078563  43.2145842  16.2253110  11.2021813  43.3651407
  16.3651303   9.7104853  43.1479443  17.5223474  13.5244319  45.2968595
  17.6990103  14.4462284  45.1089579  18.3180308  13.2102738  45.7262975
  23.8867669  13.5126691  56.7718259  23.4431523  12.7263070  56.4539163
  24.5484882  13.7005842  56.1062150  18.6454790  15.0422493  51.2978937
  19.1962215  14.9139556  50.5255931  17.8066266  15.3417382  50.9473830
  25.9848907  13.7929491  54.7999660  25.9667382  14.6138372  54.3079929
  26.9068827  13.6683566  55.0249801  22.4421961  11.3073620  55.6423169
  22.9750298  10.5461909  55.4122477  21.9136042  11.0147272  56.3847323
  25.5741939   6.4042297  39.6789245  25.0588562   7.1746902  39.9177633
  25.3019247   5.7307434  40.3022307  30.5476213   9.1574652  41.6142419
  29.7705656   8.8185812  41.1697581  31.2267694   9.1627275  40.9397384
  25.3628242   4.2769390  41.5049027  25.0578377   4.5915539  42.3559170
  26.3158684   4.3550809  41.5476360  23.8074674  10.4359613  43.1541981
  23.2796035   9.7012372  42.8415218  23.3062176  11.2134289  42.9081949
  28.7867520   8.6308633  48.2709027  28.1291194   9.3207895  48.3589155
  29.5907919   9.0205065  48.6143013  27.5972978   6.9853006  46.3212969
  28.1104860   7.6182998  46.8234678  28.2474202   6.3854202  45.9556329
  21.9527274   8.2539823  36.1576954  21.0454336   8.0229077  36.3568103
  22.4498306   7.4577442  36.3450935  24.8595353  16.9637330  39.0773640
  24.1857051  17.2669027  39.6858598  25.2461175  17.7666411  38.7279097
  24.0753809   4.4602462  48.5671309  23.1576371   4.6817409  48.4092997
  24.4913953   4.5348772  47.7083016  24.8588857   5.8593877  43.6973989
  25.6060676   6.3715275  43.3881111  25.1280447   5.5377930  44.5578383
  23.1315507   8.3552418  40.6800944  22.2226727   8.0711451  40.7773413
  23.1610591   8.7751497  39.8204251  28.3634775  11.9659008  44.4492111
  27.9097102  11.1249917  44.5057302  27.7328741  12.6020406  44.7866891
  27.3067694   2.8950994  45.6792779  26.5690451   2.3828380  46.0103021
  27.5594468   2.4551375  44.8676056  26.8067714  13.8035504  45.3841929
  27.0990688  14.3640561  44.6654295  27.3166335  14.0964065  46.1395088
  21.6800401   5.9681039  46.7810739  21.7349011   5.0154875  46.7053216
  20.8691603   6.1240478  47.2652037  22.8291595   9.8961162  38.0189022
  22.3911025   9.1797021  37.5594660  23.5702036  10.1237277  37.4574114
  21.7701339  14.5815855  46.4735383  21.7277518  14.8076702  45.5443915
  22.6864038  14.3479230  46.6221184  25.2166973   5.0499923  53.3716012
  25.5716361   5.2771396  54.2310478  25.8639104   5.3818300  52.7493267
  30.9464710   8.1718359  44.0765341  30.8082608   8.3619955  43.1486530
  30.5900929   8.9337742  44.5333392  30.9734089  10.2394886  49.0876612
  31.4070596  10.1470175  49.9359666  31.6865670  10.2152386  48.4496628
  19.8867140  11.4578884  46.2697345  20.6807738  10.9629204  46.0679920
  19.1758832  10.9296747  45.9065051  24.7061984  13.8396980  50.6209713
  24.7599007  14.4087916  51.3887429  23.8376766  14.0098865  50.2563750
  31.8349639  10.2818586  51.6209498  32.0285529  11.1864397  51.8668773
  31.7350257   9.8226005  52.4548083  26.8964748  10.4325329  57.1950378
  26.7450254  10.2035881  56.2780462  26.8869427  11.3895931  57.2081723
  23.6650084   8.0057242  52.1796645  24.5942144   8.1568402  52.0065612
  23.2441114   8.0941263  51.3245291  22.4638416  12.0307906  49.9495182
  22.3249502  11.6626691  50.8221121  21.6753012  12.5455546  49.7779140
  23.0586568  17.1317003  41.2920719  23.2338324  16.6605046  42.1066342
  22.3719356  17.7582769  41.5201980  24.0143631  11.4089509  47.3384020
  23.6793464  11.3690279  48.2341670  23.5147577  10.7434225  46.8654430
  17.9887875   6.8157139  52.8636601  17.8507673   6.0837378  53.4648140
  18.8992798   6.7266039  52.5820789  26.9502823   8.7545543  37.6121080
  26.3331993   8.0292372  37.5154133  26.4819311   9.5154904  37.2688154
  20.6170176   6.5277098  52.3520281  21.3269794   5.8870291  52.3106899
  20.5739484   6.7789993  53.2746462  28.6056954  13.4644452  55.2726860
  28.5469501  12.7803672  54.6057443  29.0076473  14.2063442  54.8207486
  17.6247653  20.2806366  48.0660579  17.8644251  20.9124890  48.7439598
  16.7816850  19.9294406  48.3525938  28.6074362  11.4284036  53.5040840
  27.7201140  11.0909957  53.6267239  29.1772913  10.6967067  53.7409605
  22.1375515  16.0885488  50.4702083  22.0645686  16.8940459  50.9821388
  21.6952908  16.2877454  49.6450104  21.9265295  15.3257258  43.9804905
  21.1432817  15.8678938  44.0743129  22.6258040  15.8431238  44.3799146
  25.2361945   1.1351887  46.6239110  25.7330644   0.3821850  46.3040180
  24.4648926   1.1716204  46.0582319  33.0891702   6.8392253  48.2657402
  33.0781578   7.7216968  47.8951335  32.2209082   6.4863804  48.0711939
  24.5974199  15.9872322  52.6260242  25.3102171  16.6219787  52.5536143
  24.1064227  16.0836188  51.8100244  26.3191725   9.8923575  44.1977533
  25.3848004  10.0125037  44.0282238  26.4968394   8.9896041  43.9337543
  29.7064277   5.7340894  44.7327568  30.1724729   6.5668886  44.6587870
  30.1571777   5.2685876  45.4372826  19.6486112  13.7366765  53.4465813
  20.3495572  14.3703248  53.5995207  19.1781227  14.0781497  52.6861452
  27.7740508  12.0784715  41.7313720  28.0500352  11.9641310  42.6407594
  26.9045007  11.6802200  41.6925893  27.4487398   6.2911373  51.2718363
  26.7958848   6.5387280  50.6170816  27.8267778   5.4775511  50.9380840
  24.4094572  16.3271066  45.3746533  24.5916966  15.5092722  45.8374286
  25.2327558  16.5438758  44.9371423  24.7436737  15.2539251  42.6361582
  25.2724504  14.7431706  42.0231744  25.0064957  14.9381781  43.5007115
  23.4974971   7.0331184  57.7584400  22.8215608   6.9325313  58.4286775
  24.3202605   6.8770398  58.2220397  15.2453830  13.2703121  50.3796915
  15.8307267  12.5246808  50.5124819  15.0478669  13.5807077  51.2633579
  18.0992485  16.3054368  45.3959358  17.4302861  16.7900496  44.9123398
  17.9605355  16.5523588  46.3102736  22.2397754  18.3398111  51.9942016
  22.7916062  18.5029733  52.7591101  22.5803947  18.9302549  51.3222041
  27.0908628  13.1659369  57.8490670  27.6348532  13.7789327  57.3545625
  26.5095473  13.7238947  58.3657683  25.3766141  16.2880087  48.9805698
  25.2517281  15.4869827  48.4716644  26.0345232  16.7826280  48.4919668
  27.4401050  14.0889107  50.6085248  26.4931385  13.9694458  50.5363575
  27.7883823  13.2011605  50.6911510  24.4447483  13.8841823  46.8089600
  24.2972445  12.9558531  46.9897171  25.2700976  13.9061914  46.3246676
  28.0481605  14.7070382  47.8954473  28.9728152  14.5013243  47.7578924
  27.8796908  14.4586783  48.8043815  27.8376921  15.2256049  43.2516565
  28.0113798  14.6602472  42.4990417  28.3305812  16.0256944  43.0696055
  33.6916312   7.9892472  44.8706864  34.1347458   7.2399798  44.4725988
  32.8142822   7.9802609  44.4880596  28.8252093  14.5422814  40.3513463
  29.5202998  15.1629507  40.5700778  29.1675244  13.6918165  40.6265841
  30.7243517  11.9922519  41.8800794  31.2494841  12.3309792  41.1550114
  30.6365869  11.0569535  41.6963928  22.3863565  15.9056593  54.0090670
  22.6950692  15.6605740  54.8813370  23.1839047  16.1103231  53.5209541
  22.4084177  18.0594503  46.2396047  21.9689168  17.5670881  46.9328904
  23.1592294  17.5167470  45.9988122  14.8876516  14.2506044  46.2420675
  15.7134536  13.9509815  45.8619319  14.5370568  13.4813666  46.6910464
  19.8558049  13.6032512  48.3118349  19.2338059  12.9403217  48.0120576
  20.5262916  13.6293644  47.6291996  13.0885121  12.1692370  47.2009609
  12.2517030  11.7414544  47.0193610  13.0608767  12.3624813  48.1380400
  30.4137423  12.6255423  57.1851992  29.6232966  12.6079562  56.6456491
  30.1770777  13.1643717  57.9401028  30.5335298   9.4747889  54.4984720
  30.5833303   9.3097897  55.4400243  30.4249221   8.6075148  54.1082601
  19.4171556  12.1536435  41.7876809  19.5659677  12.8371899  41.1343482
  20.2238000  12.1341525  42.3026265  27.8239060   5.4578817  55.8144027
  28.7248923   5.3185282  55.5228025  27.8987035   5.6233272  56.7542204
  32.0353495  11.8944831  54.7426742  31.7438303  12.2574811  55.5790203
  31.4225626  11.1811839  54.5640074  33.2349177   9.4597711  47.2629312
  34.0696068   9.8987515  47.4266872  33.3708306   8.9836364  46.4437558
  30.2840683   7.0177446  53.2106800  30.7594804   7.2105092  52.4025651
  29.3606248   7.0736631  52.9650183  17.1724189   8.1801613  42.7937878
  16.9270231   7.2763943  42.9918088  17.3420104   8.1818763  41.8517356
  22.9166962  14.6484566  39.2588557  22.3440929  15.2674753  38.8059028
  23.4899756  15.1983927  39.7928478  28.9842352   3.8943206  51.4435105
  29.9359775   3.9941303  51.4647329  28.8145802   3.1021474  51.9533190
  27.0056731   0.9798789  51.6294506  26.4106663   1.2603802  50.9340995
  26.7206428   1.4692690  52.4011247  26.1364222  14.9321716  40.3897139
  27.0694895  14.8667277  40.5930014  26.0487435  15.7677983  39.9311671
  28.7652238  14.2487586  37.3501086  28.6865870  13.9147450  38.2436844
  29.5861905  14.7409354  37.3492559  31.4630430   7.1149325  50.5577405
  31.4306750   6.1765326  50.7437089  32.0731053   7.1933362  49.8243230
  23.3013760   5.9845378  36.6004609  24.2472865   5.8551586  36.6693027
  22.9228005   5.2460040  37.0774037  31.6124918   3.9060369  50.6035688
  31.0963967   3.1218825  50.4165617  32.4964867   3.5779085  50.7682208
  37.2806979   8.1765332  49.6983442  38.0110368   7.9150620  50.2591145
  36.6713925   7.4394054  49.7385510  35.3622277   6.3173195  50.2957893
  34.6355440   6.1829160  49.6874385  34.9469563   6.6250023  51.1014611
  23.1852453  10.0363124  58.0605266  24.1055462  10.2141723  58.2545313
  23.1502036   9.0919170  57.9084965  16.1814525   7.9464159  50.7028047
  16.4000535   8.8781267  50.7216081  16.5940299   7.5872133  51.4882851
  28.4088099  -0.3589184  43.8206696  27.8286768   0.2995620  43.4384749
  28.1424031  -1.1811839  43.4094114  20.9173661   6.9494504  58.9095858
  20.4340743   7.7494864  59.1159747  21.0034600   6.9602449  57.9563302
  14.1859620   8.7822883  46.8317677  14.1630309   8.8810571  45.8799560
  14.4960257   9.6288034  47.1534843  16.8446998  10.8399038  50.9464292
  17.7990252  10.8082981  50.8794223  16.6459522  10.3789662  51.7614517
  17.4346380   9.4100154  53.5135089  18.2539269   9.9044233  53.5369926
  17.7083188   8.4932123  53.4852657  27.1912977   1.8010907  42.8763045
  26.3038832   2.0860557  42.6583239  27.6066966   1.6404670  42.0290322
  30.5427513   1.8257428  46.5917384  31.3187903   2.3153880  46.8642001
  29.8175647   2.2515482  47.0489253  32.9800071   2.5385047  47.6491325
  33.5744562   2.2980783  46.9384633  33.0526655   1.8192178  48.2764861
  15.1997227  16.3818658  47.9634489  15.0651695  15.6219059  47.3972487
  14.7829289  17.1059558  47.4963278  26.3356190  11.5655581  36.9711065
  27.0392040  11.7705584  37.5868720  25.6118839  12.1332343  37.2360148
  27.1654000   7.3165443  43.0913335  27.1089202   7.7733994  42.2520967
  27.7182343   6.5556127  42.9136178  30.9758806   3.1055175  43.9163454
  30.7195741   2.7051810  44.7471662  30.3511674   3.8198968  43.7913594
  35.2871144   5.8451248  46.4234746  34.7270702   5.9144437  47.1966308
  34.6814648   5.6692232  45.7034242  18.3566353  17.2787975  48.1752932
  18.2398737  18.2233407  48.0731622  17.5358799  16.9761536  48.5638731
  28.2442888  12.0038111  39.0209525  29.0788491  11.5719309  38.8387000
  28.0827230  11.8320124  39.9486419  27.8988780   8.5070224  40.3865864
  27.8437584   8.3414495  39.4454308  27.2734835   9.2146257  40.5428054
  25.2134687  10.8119136  59.7119427  26.0825847  10.9859788  59.3506062
  24.7341438  11.6313553  59.5895156  19.3820867  17.9316237  51.3908860
  20.2848114  17.9639847  51.7075355  19.1558237  17.0016688  51.4055196
  21.1374469  16.6847223  48.0518939  20.1870100  16.6849085  47.9383311
  21.4406955  15.9379958  47.5354974  36.8727163  22.5207762  49.1164702
  37.5105573  22.4014509  48.4128042  36.7548006  23.4688606  49.1752654
  33.6816869  22.4735190  49.0526226  33.3435380  22.3576255  48.1646761
  34.5506637  22.0726355  49.0327232  29.5403685  24.3270666  45.0423117
  28.9768550  24.2360603  44.2739405  29.4256080  23.5070571  45.5225610
  34.1636652  23.6270042  55.0112432  34.1525293  23.2322840  54.1392935
  34.3257291  22.8936114  55.6046203  27.0868117  25.8221858  47.8807338
  27.8789408  25.4812682  47.4653637  27.3264767  25.9316833  48.8009491
  35.1203243  27.9941634  40.3537582  34.4691223  28.5795714  39.9671596
  35.9147606  28.5247829  40.4132620  29.0458870  25.0830771  40.7524716
  29.8189746  24.5359758  40.6137592  29.3984269  25.9475020  40.9639178
  30.8843913  26.4107153  53.9591616  30.5933779  27.3152784  53.8438282
  31.5200897  26.4523681  54.6735685  31.8100120  23.7884002  50.5492975
  32.4063692  23.5640024  49.8349938  31.8675091  23.0468747  51.1518423
  31.3825148  21.2423437  38.3843166  31.6350669  20.7204958  37.6226629
  30.4449707  21.0789583  38.4869850  36.4268431  20.2459216  46.1917910
  37.2131520  19.8278639  45.8408327  36.6907135  21.1505308  46.3599558
  36.5978508  25.6832066  40.8906566  35.9624341  25.7566692  41.6027471
  36.2675915  26.2725665  40.2125646  41.8276858  20.1834449  47.0950888
  42.5602030  19.6133666  47.3288718  41.0716214  19.7956049  47.5357394
  31.1021437  23.1451543  40.5867541  30.9857695  22.4696447  41.2548626
  31.2123697  22.6583917  39.7699694  33.4452978  22.6061690  44.2914231
  33.0811185  22.0792311  45.0027152  34.3020094  22.2160159  44.1180716
  39.3502279  13.8956023  51.5545497  39.0185603  14.7651434  51.3306712
  38.7547892  13.5792307  52.2339527  33.0858465  17.6351590  39.2875579
  33.2532867  18.5031826  39.6546050  32.8955634  17.7978872  38.3636868
  35.8433798  26.0968569  50.9541409  35.5434521  26.9993608  50.8457217
  35.4984858  25.8300752  51.8062562  29.2946280  22.5482366  46.9878114
  28.3696776  22.4158580  47.1955806  29.5430693  23.3276585  47.4848056
  39.2430942  18.6151109  48.6338847  38.3347819  18.5466517  48.3397608
  39.1918538  19.0923054  49.4620672  33.0647686  20.0909247  40.2722246
  32.9447311  20.5366298  41.1107726  32.3700274  20.4394565  39.7135784
  26.6555091  22.1915639  47.8221903  26.7847472  22.4450118  48.7361315
  25.9752542  22.7843347  47.5026558  30.8254578  32.8612889  43.9212377
  30.7478608  33.8120714  44.0000858  30.2216222  32.5158762  44.5787303
  33.3171808  20.0340755  56.5773744  32.5405142  20.5934675  56.5676609
  33.9562371  20.5197538  57.0988614  41.1092588  16.8167547  50.4116721
  40.4666969  17.1100081  49.7656515  40.6047517  16.7020468  51.2169917
  38.7632752  20.5630721  41.1002580  39.6750608  20.7958107  40.9250277
  38.2542399  21.1467765  40.5377659  31.5718180  22.8426208  56.1391711
  32.3132864  23.3811252  55.8626535  30.8655165  23.4692497  56.2963263
  37.0473520  24.9855348  54.7363872  37.4556876  24.5437759  53.9918505
  36.3250781  24.4107976  54.9898065  33.4004590  19.9227955  52.1097429
  34.2465785  20.3467369  52.2532078  33.3403227  19.2661580  52.8035993
  37.3702334  25.5456539  48.4916161  36.7411197  25.7102253  47.7892229
  36.9827996  25.9598149  49.2627125  41.2491566  26.4810977  45.8460525
  40.5642604  26.8609878  45.2957558  41.3335415  27.0906304  46.5792473
  36.5504035  17.5832324  53.7678603  36.3064967  18.3374384  53.2312879
  36.8263966  17.9617671  54.6025850  38.5042498  24.1270936  52.4455869
  38.7159393  24.7702696  51.7690250  38.4572246  23.2933253  51.9777799
  36.1068727  16.7388757  49.3492441  35.2453206  17.0370010  49.6409178
  36.1331161  16.9559156  48.4173473  32.9230296  25.2830947  45.7566246
  33.3868642  25.5618650  44.9670869  32.6587094  24.3814392  45.5739337
  29.8154377  24.8302429  48.6946010  30.3855734  25.2589697  48.0563494
  30.4062489  24.5485013  49.3930195  31.8599182  21.4054100  42.5655812
  32.5623226  21.8575143  43.0329738  31.5279811  20.7637918  43.1935705
  30.3079544  19.9965856  56.9407021  29.6778204  20.6782137  57.1742418
  30.2015632  19.8848938  55.9960159  25.6024516  19.6637652  47.8672945
  24.8123570  19.9195181  47.3913056  26.0935764  20.4785990  47.9724986
  39.6188326  27.0042891  50.6178226  40.4405769  26.6023079  50.3360908
  39.6150729  26.9011126  51.5694342  27.5539262  20.0282231  44.8256422
  26.7570425  20.1400926  45.3439918  27.3264854  20.3668884  43.9597312
  33.3844929  26.5526935  52.7738936  33.4489362  27.0147342  53.6097108
  32.6755853  25.9224300  52.9021246  23.8862219  19.9168143  50.2987936
  24.1370258  20.8015153  50.5645512  24.4221768  19.7372744  49.5263028
  47.7094319  23.3481640  46.9663197  46.9558027  22.7789038  46.8107202
  47.8441860  23.3144304  47.9133832  33.0992947  28.2195042  42.6417917
  32.9638622  29.0646578  43.0702765  33.6402759  28.4214320  41.8783851
  29.5860286  14.2986622  59.3032272  29.1927232  13.7452821  59.9779916
  30.4026427  14.6097200  59.6938790  26.5522344  25.7370480  43.2145842
  27.0646865  26.5313730  43.3651407  27.2045057  25.0396771  43.1479443
  28.3617229  28.8536236  45.2968595  28.5383857  29.7754201  45.1089579
  29.1574062  28.5394656  45.7262975  32.5028247  15.7144501  56.8952529
  33.2437961  16.3151654  56.8156991  32.7346170  14.9722139  56.3370571
  27.6469585  20.9000868  55.1730758  27.5323101  19.9986126  55.4737857
  26.7914103  21.1464565  54.8215575  34.7261423  28.8418609  56.7718259
  34.2825277  28.0554987  56.4539163  35.3878637  29.0297759  56.1062150
  29.4848544  30.3714410  51.2978937  30.0355970  30.2431474  50.5255931
  28.6460020  30.6709299  50.9473830  36.8242661  29.1221409  54.7999660
  36.8061137  29.9430290  54.3079929  37.7462581  28.9975484  55.0249801
  33.2815715  26.6365538  55.6423169  33.8144052  25.8753826  55.4122477
  32.7529797  26.3439190  56.3847323  36.4485410  11.7425604  51.1716810
  36.1049680  12.6327246  51.0955921  36.8164373  11.5527262  50.3086395
  24.5171261  24.0659135  43.9905412  25.3546483  24.4756143  43.7739120
  24.6949529  23.1258577  43.9605606  36.4135693  21.7334215  39.6789245
  35.8982317  22.5038820  39.9177633  36.1413002  21.0599351  40.3022307
  33.9982804  16.5783916  44.7374484  33.1424400  16.1890766  44.5580122
  34.4109756  16.6575877  43.8774269  35.5281951  14.1130259  49.1366044
  35.0246746  14.0760394  48.3233849  35.8212558  15.0223002  49.1962700
  31.7724837  14.1968989  48.1432225  32.6377833  14.0011798  47.7838115
  31.8402346  13.9679341  49.0701582  41.3869967  24.4866570  41.6142419
  40.6099410  24.1477729  41.1697581  42.0661448  24.4919193  40.9397384
  36.2021996  19.6061307  41.5049027  35.8972132  19.9207456  42.3559170
  37.1552438  19.6842727  41.5476360  34.6468428  25.7651531  43.1541981
  34.1189790  25.0304290  42.8415218  34.1455931  26.5426207  42.9081949
  39.6261274  23.9600551  48.2709027  38.9684949  24.6499812  48.3589155
  40.4301673  24.3496983  48.6143013  29.3787156  16.4271197  45.5148592
  29.9530908  16.2046378  44.7821785  29.9658138  16.4959891  46.2677193
  38.4366733  22.3144924  46.3212969  38.9498615  22.9474916  46.8234678
  39.0867957  21.7146119  45.9556329  29.7056743  18.4575658  39.5344477
  28.8694055  18.7950344  39.8553752  29.5661513  18.3224638  38.5971614
  31.6809823  13.3012446  44.2423662  31.0274236  12.9861463  43.6180276
  31.6390298  12.6788186  44.9683484  32.7921028  23.5831741  36.1576954
  31.8848090  23.3520994  36.3568103  33.2892060  22.7869360  36.3450935
  35.6989107  32.2929248  39.0773640  35.0250806  32.5960945  39.6858598
  36.0854929  33.0958328  38.7279097  34.9147564  19.7894379  48.5671309
  33.9970125  20.0109326  48.4092997  35.3307707  19.8640690  47.7083016
  35.6982612  21.1885795  43.6973989  36.4454431  21.7007192  43.3881111
  35.9674201  20.8669848  44.5578383  33.9709262  23.6844336  40.6800944
  33.0620481  23.4003369  40.7773413  34.0004346  24.1043414  39.8204251
  39.2028529  27.2950925  44.4492111  38.7490856  26.4541835  44.5057302
  38.5722496  27.9312324  44.7866891  38.1461449  18.2242911  45.6792779
  37.4084206  17.7120297  46.0103021  38.3988222  17.7843293  44.8676056
  37.6461468  29.1327422  45.3841929  37.9384443  29.6932479  44.6654295
  38.1560089  29.4255983  46.1395088  38.2473076  11.0019163  46.2734548
  38.5531953  10.1416527  45.9860463  38.9725681  11.5936783  46.0733542
  24.5397432  21.4049850  44.6616146  24.3421832  20.8119211  43.9367212
  23.9844096  21.1002060  45.3792085  32.5194156  21.2972956  46.7810739
  32.5742766  20.3446793  46.7053216  31.7085358  21.4532395  47.2652037
  33.6685350  25.2253079  38.0189022  33.2304779  24.5088938  37.5594660
  34.4095790  25.4529194  37.4574114  30.4586516  19.9150016  44.5401118
  29.6454381  20.2144187  44.9466310  30.9545510  19.5205705  45.2575600
  32.6095094  29.9107773  46.4735383  32.5671272  30.1368619  45.5443915
  33.5257792  29.6771148  46.6221184  36.0560727  20.3791841  53.3716012
  36.4110115  20.6063314  54.2310478  36.7032859  20.7110217  52.7493267
  41.7858464  23.5010276  44.0765341  41.6476363  23.6911872  43.1486530
  41.4294683  24.2629659  44.5333392  29.9500590  17.4868372  50.1562353
  30.5899970  17.3457131  49.4585316  29.1178121  17.2002885  49.7800955
  41.8127844  25.5686803  49.0876612  42.2464351  25.4762093  49.9359666
  42.5259425  25.5444304  48.4496628  30.7260894  26.7870802  46.2697345
  31.5201493  26.2921122  46.0679920  30.0152587  26.2588665  45.9065051
  35.5455739  29.1688898  50.6209713  35.5992761  29.7379834  51.3887429
  34.6770520  29.3390783  50.2563750  27.0343658  20.9313884  42.3457098
  26.1041246  20.8698339  42.5627060  27.1301130  20.4089836  41.5493739
  26.9529207  17.4568697  44.9335340  27.2136024  18.3714030  44.8244500
  27.7746379  16.9893139  45.0831952  28.4254132  18.8706454  52.1034164
  29.0977186  18.6623816  51.4546813  27.5983919  18.6728540  51.6639396
  42.6743394  25.6110504  51.6209498  42.8679284  26.5156315  51.8668773
  42.5744012  25.1517923  52.4548083  34.3279704  15.4968395  54.1199825
  33.6807619  16.1958344  54.0264301  35.0980720  15.9304539  54.4876073
  37.7358502  25.7617247  57.1950378  37.5844009  25.5327799  56.2780462
  37.7263182  26.7187848  57.2081723  34.5043839  23.3349160  52.1796645
  35.4335899  23.4860319  52.0065612  34.0834869  23.4233180  51.3245291
  33.3032170  27.3599824  49.9495182  33.1643256  26.9918608  50.8221121
  32.5146767  27.8747463  49.7779140  33.8980322  32.4608920  41.2920719
  34.0732078  31.9896964  42.1066342  33.2113110  33.0874687  41.5201980
  34.8537386  26.7381427  47.3384020  34.5187218  26.6982197  48.2341670
  34.3541331  26.0726143  46.8654430  28.8281629  22.1449057  52.8636601
  28.6901427  21.4129296  53.4648140  29.7386553  22.0557957  52.5820789
  37.7896577  24.0837461  37.6121080  37.1725748  23.3584289  37.5154133
  37.3213066  24.8446821  37.2688154  31.4563930  21.8569016  52.3520281
  32.1663549  21.2162208  52.3106899  31.4133238  22.1081911  53.2746462
  39.4450709  28.7936369  55.2726860  39.3863255  28.1095590  54.6057443
  39.8470227  29.5355359  54.8207486  30.1692864  18.8434234  54.1715920
  29.6330221  18.3924972  54.8237517  29.5809573  18.9780143  53.4286385
  28.4641408  35.6098283  48.0660579  28.7038006  36.2416807  48.7439598
  27.6210604  35.2586323  48.3525938  29.5795123  18.3022885  36.7342384
  28.7024589  18.1811686  36.3704631  30.0552876  17.5108964  36.4821273
  39.4468116  26.7575953  53.5040840  38.5594895  26.4201875  53.6267239
  40.0166667  26.0258985  53.7409605  21.0997263  23.0900045  46.8283891
  21.7868303  22.7761775  46.2404907  20.9445392  23.9941410  46.5551143
  25.9031985  17.9790242  51.2568915  25.8190174  17.3715911  50.5219325
  25.0814692  18.4699260  51.2578411  32.9769270  31.4177406  50.4702083
  32.9039441  32.2232377  50.9821388  32.5346663  31.6169371  49.6450104
  32.7659049  30.6549176  43.9804905  31.9826571  31.1970856  44.0743129
  33.4651794  31.1723155  44.3799146  36.0755699  16.4643805  46.6239110
  36.5724399  15.7113767  46.3040180  35.3042681  16.5008122  46.0582319
  43.9285457  22.1684171  48.2657402  43.9175333  23.0508886  47.8951335
  43.0602836  21.8155722  48.0711939  35.4367953  31.3164240  52.6260242
  36.1495925  31.9511705  52.5536143  34.9457982  31.4128106  51.8100244
  37.1585480  25.2215492  44.1977533  36.2241759  25.3416955  44.0282238
  37.3362148  24.3187959  43.9337543  32.6590668  18.6061188  46.3510795
  32.2888456  18.0532229  47.0391700  33.1549760  18.0019322  45.7985795
  40.5458031  21.0632812  44.7327568  41.0118483  21.8960803  44.6587870
  40.9965532  20.5977793  45.4372826  30.4879867  29.0658683  53.4465813
  31.1889326  29.6995166  53.5995207  30.0174982  29.4073415  52.6861452
  38.6134262  27.4076633  41.7313720  38.8894106  27.2933228  42.6407594
  37.7438761  27.0094118  41.6925893  38.5174694  13.4313399  48.7718469
  37.6037774  13.6617625  48.9400676  38.9467795  13.5151843  49.6232501
  38.2881153  21.6203291  51.2718363  37.6352603  21.8679198  50.6170816
  38.6661532  20.8067429  50.9380840  35.2488326  31.6562984  45.3746533
  35.4310721  30.8384640  45.8374286  36.0721312  31.8730676  44.9371423
  35.5830492  30.5831169  42.6361582  36.1118258  30.0723623  42.0231744
  35.8458711  30.2673699  43.5007115  34.3368726  22.3623102  57.7584400
  33.6609363  22.2617231  58.4286775  35.1596359  22.2062315  58.2220397
  26.0847585  28.5995038  50.3796915  26.6701021  27.8538726  50.5124819
  25.8872423  28.9098995  51.2633579  28.9386240  31.6346286  45.3959358
  28.2696615  32.1192413  44.9123398  28.7999110  31.8815506  46.3102736
  20.6765239  21.1700638  49.1001358  20.7149339  20.6364229  49.8938476
  20.1705532  20.6435844  48.4812336  33.0791508  33.6690029  51.9942016
  33.6309816  33.8321651  52.7591101  33.4197702  34.2594467  51.3222041
  28.0556002  16.0165179  52.5963901  28.1197328  16.8780010  52.1841298
  27.9923122  15.4039181  51.8636259  27.5308274  18.0888311  56.2436935
  28.1580313  17.7065389  56.8574459  26.6736193  17.8702513  56.6092627
  37.9302383  28.4951287  57.8490670  38.4742287  29.1081245  57.3545625
  37.3489228  29.0530865  58.3657683  24.3073817  19.8964741  42.1755290
  24.6027258  18.9875419  42.1222343  23.4061853  19.8752480  41.8536292
  36.2159896  31.6172005  48.9805698  36.0911035  30.8161744  48.4716644
  36.8738987  32.1118198  48.4919668  27.8368064  17.9720737  48.1582838
  27.1154650  18.5856705  48.0190312  28.6261320  18.5078502  48.0799484
  38.2794804  29.4181025  50.6085248  37.3325140  29.2986376  50.5363575
  38.6277577  28.5303523  50.6911510  30.6394377  15.3075164  54.4323490
  31.1628779  15.5537460  55.1949799  30.4206711  16.1395198  54.0126627
  26.0361659  17.5778838  42.2994615  25.7074365  16.6976217  42.1169721
  26.3901029  17.5226507  43.1871004  35.2841237  29.2133741  46.8089600
  35.1366200  28.2850448  46.9897171  36.1094731  29.2353832  46.3246676
  29.1503482  17.8651808  42.6670093  29.4899554  18.3937729  41.9448701
  29.5975602  18.2032214  43.4428659  38.8875359  30.0362300  47.8954473
  39.8121907  29.8305161  47.7578924  38.7190663  29.7878701  48.8043815
  31.8446923  16.2488859  52.1173161  31.5043743  15.4496672  52.5193841
  31.1385929  16.5490570  51.5449994  32.4963394  13.3338171  50.5700484
  33.3189464  12.8598649  50.4479374  32.7401458  14.1128655  51.0699170
  31.1371629  16.3626430  40.8663385  31.8579991  16.7407682  40.3627102
  30.5136933  17.0815306  40.9698363  35.2802752  17.0671579  41.8021718
  35.4966366  17.9496216  41.5010546  34.7996819  16.6757792  41.0727360
  30.0201973  20.0257292  48.3792462  29.8746554  20.3397595  49.2716744
  29.5427177  20.6442192  47.8263361  31.8798356  17.0159840  48.4273352
  31.8659925  16.1200933  48.0905650  32.5970784  17.0230504  49.0611638
  33.7324487  17.4497180  50.4726479  33.4742265  18.3714251  50.4710810
  33.2009527  17.0527615  51.1626943  38.6770675  30.5547967  43.2516565
  38.8507553  29.9894390  42.4990417  39.1699567  31.3548862  43.0696055
  24.4947635  22.5662636  51.3180123  23.9501103  23.3422444  51.4500398
  25.3726985  22.9133441  51.1599245  31.2835252  15.8974220  43.6960922
  31.4051163  14.9690866  43.8951809  30.9937294  15.9112906  42.7839237
  34.1526442  13.5829131  46.8327642  34.1748139  13.6468464  45.8779621
  34.5694501  12.7433639  47.0268148  44.5310067  23.3184390  44.8706864
  44.9741213  22.5691715  44.4725988  43.6536577  23.3094526  44.4880596
  39.6645848  29.8714732  40.3513463  40.3596753  30.4921424  40.5700778
  40.0068998  29.0210083  40.6265841  25.2813657  21.6932532  54.2110280
  24.5395393  21.8415168  54.7974911  24.9606401  21.9540798  53.3477030
  41.5637271  27.3214437  41.8800794  42.0888595  27.6601710  41.1550114
  41.4759624  26.3861452  41.6963928  33.2257320  31.2348511  54.0090670
  33.5344446  30.9897657  54.8813370  34.0232802  31.4395149  53.5209541
  33.2477932  33.3886420  46.2396047  32.8082922  32.8962799  46.9328904
  33.9986049  32.8459388  45.9988122  25.7270271  29.5797961  46.2420675
  26.5528291  29.2801733  45.8619319  25.3764323  28.8105584  46.6910464
  30.6951804  28.9324429  48.3118349  30.0731813  28.2695134  48.0120576
  31.3656671  28.9585561  47.6291996  23.9278876  27.4984288  47.2009609
  23.0910784  27.0706462  47.0193610  23.9002521  27.6916731  48.1380400
  30.7676331  17.4106217  57.9050855  30.8164487  18.2868340  57.5228624
  31.3098846  16.8683610  57.3322498  41.2531177  27.9547341  57.1851992
  40.4626721  27.9371480  56.6456491  41.0164532  28.4935634  57.9401028
  41.3729052  24.8039807  54.4984720  41.4227057  24.6389815  55.4400243
  41.2642976  23.9367066  54.1082601  30.2565311  27.4828353  41.7876809
  30.4053431  28.1663817  41.1343482  31.0631754  27.4633443  42.3026265
  38.6632815  20.7870735  55.8144027  39.5642677  20.6477200  55.5228025
  38.7380789  20.9525190  56.7542204  32.9975620  18.1637590  54.6597213
  32.1278929  18.4571156  54.3879802  33.2335100  18.7478035  55.3804477
  42.8747249  27.2236749  54.7426742  42.5832057  27.5866729  55.5790203
  42.2619380  26.5103757  54.5640074  44.0742931  24.7889628  47.2629312
  44.9089823  25.2279432  47.4266872  44.2102060  24.3128282  46.4437558
  41.1234437  22.3469363  53.2106800  41.5988559  22.5397010  52.4025651
  40.2000003  22.4028549  52.9650183  28.0117944  23.5093530  42.7937878
  27.7663986  22.6055860  42.9918088  28.1813858  23.5110681  41.8517356
  35.7014654  14.3817207  52.1762634  36.2196598  15.1178234  51.8509122
  35.3469786  14.6881200  53.0109393  27.2813591  19.2421888  40.2924039
  26.5882836  19.3166243  39.6364075  27.0365343  18.4782232  40.8145556
  35.9527248  10.8017489  47.6963530  36.2329002  10.1340678  48.3223957
  36.7377855  10.9946585  47.1838194  33.7560716  29.9776483  39.2588557
  33.1834683  30.5966670  38.8059028  34.3293510  30.5275845  39.7928478
  39.8236106  19.2235123  51.4435105  40.7753529  19.3233221  51.4647329
  39.6539557  18.4313392  51.9533190  37.8450486  16.3090707  51.6294506
  37.2500418  16.5895719  50.9340995  37.5600182  16.7984607  52.4011247
  36.9757976  30.2613633  40.3897139  37.9088649  30.1959195  40.5930014
  36.8881189  31.0969900  39.9311671  39.6045993  29.5779504  37.3501086
  39.5259624  29.2439367  38.2436844  40.4255660  30.0701272  37.3492559
  42.3024184  22.4441243  50.5577405  42.2700504  21.5057244  50.7437089
  42.9124808  22.5225280  49.8243230  34.1407515  21.3137296  36.6004609
  35.0866620  21.1843504  36.6693027  33.7621760  20.5751958  37.0774037
  42.4518673  19.2352286  50.6035688  41.9357721  18.4510743  50.4165617
  43.3358621  18.9071003  50.7682208  40.1129399  12.9793302  46.5631501
  39.9154221  12.6708390  47.4474833  40.7229105  13.7054941  46.6929431
  48.1200734  23.5057250  49.6983442  48.8504122  23.2442538  50.2591145
  47.5107679  22.7685972  49.7385510  46.2016031  21.6465112  50.2957893
  45.4749195  21.5121077  49.6874385  45.7863318  21.9541941  51.1014611
  34.0246207  25.3655042  58.0605266  34.9449217  25.5433641  58.2545313
  33.9895790  24.4211087  57.9084965  32.3250432  19.2387272  36.5359494
  31.4181887  18.9420385  36.6122208  32.6026413  18.9417090  35.6693781
  23.2428372  20.5593636  46.9858541  22.9231157  19.7058944  46.6932915
  22.6961801  20.7742214  47.7416508  27.0208280  23.2756077  50.7028047
  27.2394290  24.2073185  50.7216081  27.4334054  22.9164051  51.4882851
  33.9412498  13.7824162  42.6903736  33.1313226  13.4371247  43.0658982
  34.6296915  13.4731706  43.2791347  35.8703046  12.8602209  44.3128032
  36.4234085  13.2797662  44.9718055  36.1073132  11.9337957  44.3550988
  31.8936145  18.8489283  60.0930796  31.7932872  19.7983639  60.0242887
  31.6757687  18.5207521  59.2206866  31.0949217  16.0974208  36.6771473
  31.9568381  16.4229106  36.9367291  31.2799561  15.3105703  36.1644539
  23.1116632  24.1796547  48.9551662  22.4180104  23.7650500  48.4421617
  23.8589623  24.2217084  48.3585081  39.2481853  14.9702734  43.8206696
  38.6680522  15.6287538  43.4384749  38.9817786  14.1480079  43.4094114
  37.6985420  14.3707792  46.0228017  38.1985198  14.4824326  45.2142336
  38.3421027  14.0668845  46.6628825  31.7567415  22.2786421  58.9095858
  31.2734497  23.0786781  59.1159747  31.8428354  22.2894366  57.9563302
  25.0253375  24.1114801  46.8317677  25.0024063  24.2102488  45.8799560
  25.3354011  24.9579952  47.1534843  27.6840753  26.1690956  50.9464292
  28.6384006  26.1374898  50.8794223  27.4853276  25.7081580  51.7614517
  28.2740135  24.7392072  53.5135089  29.0933024  25.2336151  53.5369926
  28.5476943  23.8224040  53.4852657  38.0306731  17.1302824  42.8763045
  37.1432586  17.4152475  42.6583239  38.4460720  16.9696588  42.0290322
  41.3821267  17.1549345  46.5917384  42.1581657  17.6445798  46.8642001
  40.6569401  17.5807400  47.0489253  43.8193826  17.8676965  47.6491325
  44.4138317  17.6272701  46.9384633  43.8920410  17.1484095  48.2764861
  26.0390982  31.7110576  47.9634489  25.9045450  30.9510976  47.3972487
  25.6223044  32.4351475  47.4963278  37.1749945  26.8947499  36.9711065
  37.8785795  27.0997502  37.5868720  36.4512593  27.4624261  37.2360148
  38.0047755  22.6457360  43.0913335  37.9482956  23.1025912  42.2520967
  38.5576097  21.8848045  42.9136178  41.8152561  18.4347092  43.9163454
  41.5589495  18.0343728  44.7471662  41.1905429  19.1490886  43.7913594
  46.1264899  21.1743165  46.4234746  45.5664457  21.2436355  47.1966308
  45.5208402  20.9984150  45.7034242  29.1960107  32.6079893  48.1752932
  29.0792492  33.5525325  48.0731622  28.3752554  32.3053454  48.5638731
  39.0836642  27.3330028  39.0209525  39.9182246  26.9011227  38.8387000
  38.9220985  27.1612042  39.9486419  38.7382534  23.8362142  40.3865864
  38.6831338  23.6706413  39.4454308  38.1128589  24.5438175  40.5428054
  23.5275049  19.0730206  54.2127286  24.1733913  18.5629160  54.7014511
  23.3192200  19.8098888  54.7870712  36.0528441  26.1411053  59.7119427
  36.9219601  26.3151706  59.3506062  35.5735193  26.9605470  59.5895156
  32.0478660  13.3370251  39.9651182  32.0357329  14.2812091  40.1219453
  32.9402082  13.1540396  39.6710644  30.2214622  33.2608154  51.3908860
  31.1241868  33.2931765  51.7075355  29.9951992  32.3308605  51.4055196
  31.9768224  32.0139141  48.0518939  31.0263855  32.0141003  47.9383311
  32.2800710  31.2671876  47.5354974  35.8630779   9.9313027  44.2197119
  35.0963175   9.3771514  44.3653802  36.2741484  10.0034896  45.0811271
  27.8672540  16.2197823  58.3102301  28.7304002  15.8634628  58.5205625
  27.2937951  15.8811718  58.9977705  47.7120917  37.8499679  49.1164702
  48.3499327  37.7306427  48.4128042  47.5941760  38.7980523  49.1752654
  44.5210623  37.8027108  49.0526226  44.1829135  37.6868172  48.1646761
  45.3900392  37.4018273  49.0327232  40.3797439  39.6562584  45.0423117
  39.8162304  39.5652521  44.2739405  40.2649834  38.8362488  45.5225610
  37.9261871  41.1513776  47.8807338  38.7183163  40.8104600  47.4653637
  38.1658521  41.2608751  48.8009491  45.9596998  43.3233552  40.3537582
  45.3084978  43.9087632  39.9671596  46.7541361  43.8539747  40.4132620
  39.8852625  40.4122689  40.7524716  40.6583501  39.8651676  40.6137592
  40.2378024  41.2766938  40.9639178  42.6493874  39.1175920  50.5492975
  43.2457447  38.8931942  49.8349938  42.7068846  38.3760665  51.1518423
  42.2218903  36.5715355  38.3843166  42.4744423  36.0496876  37.6226629
  41.2843462  36.4081500  38.4869850  47.2662186  35.5751133  46.1917910
  48.0525275  35.1570556  45.8408327  47.5300890  36.4797225  46.3599558
  47.4372263  41.0123984  40.8906566  46.8018096  41.0858610  41.6027471
  47.1069669  41.6017582  40.2125646  52.6670613  35.5126366  47.0950888
  53.3995785  34.9425583  47.3288718  51.9109968  35.1247967  47.5357394
  41.9415192  38.4743461  40.5867541  41.8251450  37.7988364  41.2548626
  42.0517451  37.9875835  39.7699694  44.2846732  37.9353608  44.2914231
  43.9204940  37.4084229  45.0027152  45.1413848  37.5452077  44.1180716
  50.1896033  29.2247941  51.5545497  49.8579358  30.0943352  51.3306712
  49.5941646  28.9084225  52.2339527  43.9252219  32.9643508  39.2875579
  44.0926622  33.8323744  39.6546050  43.7349389  33.1270789  38.3636868
  46.6827553  41.4260487  50.9541409  46.3828276  42.3285525  50.8457217
  46.3378612  41.1592670  51.8062562  40.1340034  37.8774283  46.9878114
  39.2090531  37.7450497  47.1955806  40.3824447  38.6568503  47.4848056
  50.0824696  33.9443027  48.6338847  49.1741574  33.8758435  48.3397608
  50.0312292  34.4214972  49.4620672  43.9041440  35.4201165  40.2722246
  43.7841066  35.8658216  41.1107726  43.2094029  35.7686483  39.7135784
  37.4948845  37.5207557  47.8221903  37.6241226  37.7742036  48.7361315
  36.8146296  38.1135265  47.5026558  41.6648332  48.1904807  43.9212377
  41.5872362  49.1412632  44.0000858  41.0609976  47.8450679  44.5787303
  51.9486343  32.1459465  50.4116721  51.3060723  32.4391998  49.7656515
  51.4441271  32.0312385  51.2169917  49.6026506  35.8922638  41.1002580
  50.5144363  36.1250025  40.9250277  49.0936154  36.4759683  40.5377659
  48.2096089  40.8748457  48.4916161  47.5804951  41.0394171  47.7892229
  47.8221751  41.2890066  49.2627125  52.0885321  41.8102895  45.8460525
  51.4036359  42.1901796  45.2957558  52.1729170  42.4198221  46.5792473
  46.9462481  32.0680674  49.3492441  46.0846960  32.3661928  49.6409178
  46.9724916  32.2851073  48.4173473  43.7624051  40.6122865  45.7566246
  44.2262396  40.8910568  44.9670869  43.4980849  39.7106309  45.5739337
  40.6548132  40.1594346  48.6946010  41.2249489  40.5881615  48.0563494
  41.2456244  39.8776931  49.3930195  42.6992937  36.7346017  42.5655812
  43.4016980  37.1867061  43.0329738  42.3673565  36.0929836  43.1935705
  41.1473298  35.3257774  56.9407021  40.5171959  36.0074055  57.1742418
  41.0409386  35.2140855  55.9960159  36.4418271  34.9929570  47.8672945
  35.6517325  35.2487098  47.3913056  36.9329518  35.8077908  47.9724986
  38.3933016  35.3574149  44.8256422  37.5964179  35.4692843  45.3439918
  38.1658608  35.6960801  43.9597312  44.2238684  41.8818852  52.7738936
  44.2883116  42.3439260  53.6097108  43.5149608  41.2516217  52.9021246
  34.7255974  35.2460060  50.2987936  34.9764012  36.1307070  50.5645512
  35.2615522  35.0664662  49.5263028  58.5488073  38.6773558  46.9663197
  57.7951782  38.1080956  46.8107202  58.6835614  38.6436222  47.9133832
  43.9386701  43.5486960  42.6417917  43.8032376  44.3938496  43.0702765
  44.4796514  43.7506237  41.8783851  40.4254041  29.6278540  59.3032272
  40.0320987  29.0744738  59.9779916  41.2420181  29.9389118  59.6938790
  37.3916099  41.0662398  43.2145842  37.9040619  41.8605648  43.3651407
  38.0438812  40.3688688  43.1479443  39.2010983  44.1828154  45.2968595
  39.3777612  45.1046119  45.1089579  39.9967817  43.8686573  45.7262975
  43.3422002  31.0436419  56.8952529  44.0831715  31.6443572  56.8156991
  43.5739925  30.3014057  56.3370571  38.4863340  36.2292786  55.1730758
  38.3716855  35.3278043  55.4737857  37.6307858  36.4756483  54.8215575
  40.3242299  45.7006328  51.2978937  40.8749724  45.5723391  50.5255931
  39.4853775  46.0001217  50.9473830  47.2879165  27.0717522  51.1716810
  46.9443434  27.9619163  51.0955921  47.6558127  26.8819179  50.3086395
  35.3565016  39.3951052  43.9905412  36.1940238  39.8048061  43.7739120
  35.5343283  38.4550494  43.9605606  47.2529448  37.0626133  39.6789245
  46.7376071  37.8330737  39.9177633  46.9806756  36.3891269  40.3022307
  44.8376559  31.9075834  44.7374484  43.9818155  31.5182684  44.5580122
  45.2503510  31.9867794  43.8774269  46.3675705  29.4422177  49.1366044
  45.8640501  29.4052312  48.3233849  46.6606312  30.3514920  49.1962700
  42.6118591  29.5260907  48.1432225  43.4771588  29.3303715  47.7838115
  42.6796100  29.2971258  49.0701582  52.2263722  39.8158487  41.6142419
  51.4493165  39.4769647  41.1697581  52.9055203  39.8211111  40.9397384
  47.0415751  34.9353225  41.5049027  46.7365886  35.2499374  42.3559170
  47.9946193  35.0134645  41.5476360  45.4862183  41.0943448  43.1541981
  44.9583544  40.3596208  42.8415218  44.9849685  41.8718125  42.9081949
  50.4655029  39.2892469  48.2709027  49.8078703  39.9791730  48.3589155
  51.2695428  39.6788901  48.6143013  40.2180910  31.7563115  45.5148592
  40.7924662  31.5338296  44.7821785  40.8051893  31.8251809  46.2677193
  49.2760487  37.6436841  46.3212969  49.7892369  38.2766833  46.8234678
  49.9261711  37.0438037  45.9556329  40.5450497  33.7867576  39.5344477
  39.7087810  34.1242262  39.8553752  40.4055267  33.6516555  38.5971614
  42.5203578  28.6304363  44.2423662  41.8667990  28.3153381  43.6180276
  42.4784052  28.0080104  44.9683484  43.6314783  38.9123659  36.1576954
  42.7241845  38.6812912  36.3568103  44.1285815  38.1161278  36.3450935
  46.5382862  47.6221166  39.0773640  45.8644560  47.9252862  39.6858598
  46.9248684  48.4250246  38.7279097  45.7541318  35.1186297  48.5671309
  44.8363880  35.3401244  48.4092997  46.1701462  35.1932607  47.7083016
  46.5376366  36.5177713  43.6973989  47.2848185  37.0299110  43.3881111
  46.8067956  36.1961765  44.5578383  44.8103016  39.0136253  40.6800944
  43.9014236  38.7295286  40.7773413  44.8398100  39.4335332  39.8204251
  48.9855203  33.5534829  45.6792779  48.2477960  33.0412215  46.0103021
  49.2381977  33.1135211  44.8676056  49.0866831  26.3311081  46.2734548
  49.3925707  25.4708444  45.9860463  49.8119435  26.9228701  46.0733542
  35.3791187  36.7341768  44.6616146  35.1815586  36.1411128  43.9367212
  34.8237851  36.4293978  45.3792085  43.3587910  36.6264874  46.7810739
  43.4136520  35.6738710  46.7053216  42.5479112  36.7824313  47.2652037
  44.5079104  40.5544997  38.0189022  44.0698534  39.8380856  37.5594660
  45.2489545  40.7821112  37.4574114  41.2980270  35.2441934  44.5401118
  40.4848136  35.5436104  44.9466310  41.7939264  34.8497623  45.2575600
  43.4488848  45.2399691  46.4735383  43.4065027  45.4660537  45.5443915
  44.3651547  45.0063065  46.6221184  52.6252219  38.8302194  44.0765341
  52.4870117  39.0203790  43.1486530  52.2688438  39.5921577  44.5333392
  40.7894345  32.8160289  50.1562353  41.4293724  32.6749048  49.4585316
  39.9571876  32.5294803  49.7800955  52.6521598  40.8978721  49.0876612
  53.0858105  40.8054010  49.9359666  53.3653179  40.8736222  48.4496628
  41.5654649  42.1162720  46.2697345  42.3595247  41.6213040  46.0679920
  40.8546341  41.5880583  45.9065051  37.8737412  36.2605801  42.3457098
  36.9435000  36.1990257  42.5627060  37.9694884  35.7381754  41.5493739
  37.7922961  32.7860614  44.9335340  38.0529779  33.7005947  44.8244500
  38.6140134  32.3185057  45.0831952  39.2647887  34.1998371  52.1034164
  39.9370940  33.9915734  51.4546813  38.4377673  34.0020457  51.6639396
  45.1673459  30.8260312  54.1199825  44.5201374  31.5250262  54.0264301
  45.9374474  31.2596456  54.4876073  44.1425925  42.6891742  49.9495182
  44.0037011  42.3210526  50.8221121  43.3540521  43.2039381  49.7779140
  44.7374077  47.7900838  41.2920719  44.9125833  47.3188881  42.1066342
  44.0506865  48.4166604  41.5201980  45.6931140  42.0673344  47.3384020
  45.3580973  42.0274114  48.2341670  45.1935086  41.4018060  46.8654430
  39.6675384  37.4740974  52.8636601  39.5295182  36.7421213  53.4648140
  40.5780307  37.3849874  52.5820789  48.6290332  39.4129379  37.6121080
  48.0119502  38.6876207  37.5154133  48.1606820  40.1738739  37.2688154
  42.2957685  37.1860934  52.3520281  43.0057303  36.5454126  52.3106899
  42.2526993  37.4373829  53.2746462  41.0086619  34.1726152  54.1715920
  40.4723976  33.7216890  54.8237517  40.4203327  34.3072060  53.4286385
  40.4188878  33.6314803  36.7342384  39.5418344  33.5103604  36.3704631
  40.8946631  32.8400881  36.4821273  31.9391018  38.4191963  46.8283891
  32.6262058  38.1053693  46.2404907  31.7839146  39.3233327  46.5551143
  36.7425740  33.3082159  51.2568915  36.6583929  32.7007829  50.5219325
  35.9208446  33.7991178  51.2578411  43.6052804  45.9841093  43.9804905
  42.8220326  46.5262774  44.0743129  44.3045549  46.5015073  44.3799146
  46.9149454  31.7935723  46.6239110  47.4118153  31.0405685  46.3040180
  46.1436435  31.8300039  46.0582319  54.7679211  37.4976088  48.2657402
  54.7569087  38.3800804  47.8951335  53.8996591  37.1447639  48.0711939
  47.9979234  40.5507410  44.1977533  47.0635513  40.6708873  44.0282238
  48.1755903  39.6479877  43.9337543  43.4984422  33.9353106  46.3510795
  43.1282210  33.3824146  47.0391700  43.9943515  33.3311239  45.7985795
  51.3851786  36.3924729  44.7327568  51.8512238  37.2252721  44.6587870
  51.8359286  35.9269711  45.4372826  49.3568449  28.7605316  48.7718469
  48.4431528  28.9909543  48.9400676  49.7861550  28.8443760  49.6232501
  36.9241339  43.9286956  50.3796915  37.5094776  43.1830644  50.5124819
  36.7266178  44.2390913  51.2633579  39.7779994  46.9638203  45.3959358
  39.1090370  47.4484331  44.9123398  39.6392864  47.2107424  46.3102736
  31.5158994  36.4992556  49.1001358  31.5543093  35.9656147  49.8938476
  31.0099287  35.9727762  48.4812336  38.8949756  31.3457097  52.5963901
  38.9591083  32.2071927  52.1841298  38.8316876  30.7331098  51.8636259
  38.3702029  33.4180229  56.2436935  38.9974067  33.0357306  56.8574459
  37.5129948  33.1994431  56.6092627  35.1467571  35.2256658  42.1755290
  35.4421013  34.3167337  42.1222343  34.2455607  35.2044398  41.8536292
  38.6761818  33.3012655  48.1582838  37.9548404  33.9148623  48.0190312
  39.4655074  33.8370420  48.0799484  41.4788132  30.6367081  54.4323490
  42.0022534  30.8829378  55.1949799  41.2600465  31.4687116  54.0126627
  36.8755413  32.9070756  42.2994615  36.5468119  32.0268135  42.1169721
  37.2294784  32.8518425  43.1871004  39.9897236  33.1943726  42.6670093
  40.3293309  33.7229647  41.9448701  40.4369357  33.5324132  43.4428659
  42.6840677  31.5780776  52.1173161  42.3437497  30.7788589  52.5193841
  41.9779683  31.8782487  51.5449994  43.3357149  28.6630089  50.5700484
  44.1583218  28.1890567  50.4479374  43.5795212  29.4420573  51.0699170
  41.9765383  31.6918347  40.8663385  42.6973746  32.0699600  40.3627102
  41.3530687  32.4107224  40.9698363  46.1196506  32.3963496  41.8021718
  46.3360121  33.2788134  41.5010546  45.6390573  32.0049710  41.0727360
  40.8595728  35.3549209  48.3792462  40.7140308  35.6689513  49.2716744
  40.3820931  35.9734110  47.8263361  42.7192110  32.3451757  48.4273352
  42.7053679  31.4492851  48.0905650  43.4364539  32.3522421  49.0611638
  44.5718241  32.7789098  50.4726479  44.3136019  33.7006168  50.4710810
  44.0403282  32.3819532  51.1626943  35.3341390  37.8954554  51.3180123
  34.7894858  38.6714362  51.4500398  36.2120740  38.2425358  51.1599245
  42.1229006  31.2266138  43.6960922  42.2444918  30.2982784  43.8951809
  41.8331049  31.2404824  42.7839237  44.9920197  28.9121048  46.8327642
  45.0141894  28.9760381  45.8779621  45.4088256  28.0725557  47.0268148
  55.3703821  38.6476308  44.8706864  55.8134967  37.8983633  44.4725988
  54.4930331  38.6386444  44.4880596  36.1207412  37.0224450  54.2110280
  35.3789148  37.1707086  54.7974911  35.8000156  37.2832716  53.3477030
  36.5664025  44.9089879  46.2420675  37.3922045  44.6093651  45.8619319
  36.2158077  44.1397501  46.6910464  41.5345558  44.2616347  48.3118349
  40.9125568  43.5987052  48.0120576  42.2050425  44.2877479  47.6291996
  34.7672630  42.8276205  47.2009609  33.9304539  42.3998380  47.0193610
  34.7396276  43.0208649  48.1380400  41.6070086  32.7398135  57.9050855
  41.6558241  33.6160258  57.5228624  42.1492600  32.1975528  57.3322498
  41.0959065  42.8120270  41.7876809  41.2447186  43.4955735  41.1343482
  41.9025509  42.7925360  42.3026265  43.8369374  33.4929508  54.6597213
  42.9672684  33.7863074  54.3879802  44.0728855  34.0769953  55.3804477
  54.9136686  40.1181546  47.2629312  55.7483577  40.5571350  47.4266872
  55.0495815  39.6420199  46.4437558  38.8511698  38.8385448  42.7937878
  38.6057740  37.9347778  42.9918088  39.0207613  38.8402599  41.8517356
  46.5408408  29.7109124  52.1762634  47.0590352  30.4470151  51.8509122
  46.1863541  30.0173118  53.0109393  38.1207346  34.5713806  40.2924039
  37.4276591  34.6458161  39.6364075  37.8759098  33.8074149  40.8145556
  46.7921002  26.1309407  47.6963530  47.0722756  25.4632596  48.3223957
  47.5771609  26.3238503  47.1838194  44.5954471  45.3068401  39.2588557
  44.0228438  45.9258588  38.8059028  45.1687265  45.8567763  39.7928478
  48.6844240  31.6382624  51.6294506  48.0894172  31.9187637  50.9340995
  48.3993937  32.1276525  52.4011247  50.4439747  44.9071421  37.3501086
  50.3653379  44.5731285  38.2436844  51.2649414  45.3993189  37.3492559
  53.1417939  37.7733161  50.5577405  53.1094259  36.8349161  50.7437089
  53.7518562  37.8517197  49.8243230  44.9801269  36.6429214  36.6004609
  45.9260374  36.5135422  36.6693027  44.6015514  35.9043876  37.0774037
  53.2912427  34.5644204  50.6035688  52.7751476  33.7802661  50.4165617
  54.1752376  34.2362921  50.7682208  50.9523154  28.3085220  46.5631501
  50.7547975  28.0000308  47.4474833  51.5622859  29.0346859  46.6929431
  58.9594488  38.8349168  49.6983442  59.6897877  38.5734456  50.2591145
  58.3501434  38.0977889  49.7385510  57.0409785  36.9757030  50.2957893
  56.3142949  36.8412995  49.6874385  56.6257072  37.2833859  51.1014611
  43.1644187  34.5679190  36.5359494  42.2575642  34.2712303  36.6122208
  43.4420168  34.2709008  35.6693781  34.0822127  35.8885553  46.9858541
  33.7624911  35.0350862  46.6932915  33.5355555  36.1034132  47.7416508
  37.8602034  38.6047994  50.7028047  38.0788044  39.5365102  50.7216081
  38.2727808  38.2455969  51.4882851  44.7806252  29.1116080  42.6903736
  43.9706981  28.7663165  43.0658982  45.4690669  28.8023623  43.2791347
  46.7096801  28.1894127  44.3128032  47.2627839  28.6089580  44.9718055
  46.9466887  27.2629875  44.3550988  42.7329900  34.1781200  60.0930796
  42.6326627  35.1275557  60.0242887  42.5151442  33.8499439  59.2206866
  41.9342971  31.4266125  36.6771473  42.7962135  31.7521024  36.9367291
  42.1193315  30.6397621  36.1644539  33.9510387  39.5088465  48.9551662
  33.2573858  39.0942418  48.4421617  34.6983378  39.5509001  48.3585081
  50.0875608  30.2994652  43.8206696  49.5074277  30.9579456  43.4384749
  49.8211540  29.4771996  43.4094114  48.5379174  29.6999709  46.0228017
  49.0378952  29.8116244  45.2142336  49.1814782  29.3960762  46.6628825
  35.8647129  39.4406719  46.8317677  35.8417818  39.5394406  45.8799560
  36.1747766  40.2871870  47.1534843  38.5234507  41.4982874  50.9464292
  39.4777761  41.4666816  50.8794223  38.3247031  41.0373497  51.7614517
  39.1133889  40.0683990  53.5135089  39.9326778  40.5628068  53.5369926
  39.3870697  39.1515958  53.4852657  48.8700486  32.4594742  42.8763045
  47.9826341  32.7444393  42.6583239  49.2854475  32.2988505  42.0290322
  52.2215022  32.4841263  46.5917384  52.9975412  32.9737716  46.8642001
  51.4963156  32.9099317  47.0489253  54.6587580  33.1968882  47.6491325
  55.2532071  32.9564618  46.9384633  54.7314164  32.4776013  48.2764861
  36.8784736  47.0402493  47.9634489  36.7439204  46.2802894  47.3972487
  36.4616798  47.7643393  47.4963278  48.0143699  42.2239417  36.9711065
  48.7179549  42.4289419  37.5868720  47.2906348  42.7916179  37.2360148
  48.8441509  37.9749278  43.0913335  48.7876711  38.4317829  42.2520967
  49.3969852  37.2139963  42.9136178  52.6546315  33.7639010  43.9163454
  52.3983250  33.3635646  44.7471662  52.0299183  34.4782804  43.7913594
  56.9658653  36.5035083  46.4234746  56.4058211  36.5728272  47.1966308
  56.3602157  36.3276068  45.7034242  40.0353862  47.9371810  48.1752932
  39.9186246  48.8817243  48.0731622  39.2146308  47.6345372  48.5638731
  49.5776289  39.1654059  40.3865864  49.5225092  38.9998331  39.4454308
  48.9522344  39.8730092  40.5428054  34.3668804  34.4022124  54.2127286
  35.0127667  33.8921078  54.7014511  34.1585955  35.1390805  54.7870712
  42.8872414  28.6662168  39.9651182  42.8751084  29.6104008  40.1219453
  43.7795836  28.4832314  39.6710644  42.8161978  47.3431059  48.0518939
  41.8657609  47.3432920  47.9383311  43.1194464  46.5963793  47.5354974
  46.7024534  25.2604945  44.2197119  45.9356929  24.7063432  44.3653802
  47.1135239  25.3326814  45.0811271  38.7066295  31.5489741  58.3102301
  39.5697756  31.1926546  58.5205625  38.1331705  31.2103636  58.9977705
  53.0612657  51.9007273  38.3843166  53.3138178  51.3788794  37.6226629
  52.1237216  51.7373418  38.4869850  54.7645974  48.2935425  39.2875579
  54.9320376  49.1615662  39.6546050  54.5743143  48.4562707  38.3636868
  53.3597332  43.9596281  44.2423662  52.7061745  43.6445298  43.6180276
  53.3177807  43.3372022  44.9683484  59.8248958  48.8826747  45.6792779
  59.0871715  48.3704133  46.0103021  60.0775731  48.4427128  44.8676056
  51.2582632  48.9606721  36.7342384  50.3812098  48.8395521  36.3704631
  51.7340385  48.1692799  36.4821273  56.9590261  47.7255414  41.8021718
  57.1753875  48.6080052  41.5010546  56.4784328  47.3341627  41.0727360
  55.8313951  44.2412966  46.8327642  55.8535648  44.3052299  45.8779621
  56.2482010  43.4017475  47.0268148  54.0037941  49.8971108  36.5359494
  53.0969396  49.6004220  36.6122208  54.2813922  49.6000926  35.6693781
  55.6200007  44.4407997  42.6903736  54.8100735  44.0955082  43.0658982
  56.3084424  44.1315541  43.2791347  57.5490555  43.5186044  44.3128032
  58.1021594  43.9381498  44.9718055  57.7860641  42.5921792  44.3550988
  52.7736726  46.7558043  36.6771473  53.6355890  47.0812941  36.9367291
  52.9587070  45.9689539  36.1644539  60.9269362  45.6286569  43.8206696
  60.3468031  46.2871373  43.4384749  60.6605295  44.8063914  43.4094114
  57.5418288  40.5896863  44.2197119  56.7750684  40.0355349  44.3653802
  57.9528993  40.6618731  45.0811271  59.6049380  71.8097611  47.8807338
  60.3970672  71.4688436  47.4653637  59.8446030  71.9192586  48.8009491
  67.6384507  73.9817387  40.3537582  66.9872487  74.5671467  39.9671596
  68.4328870  74.5123582  40.4132620  61.5640134  71.0706524  40.7524716
  62.3371010  70.5235511  40.6137592  61.9165533  71.9350773  40.9639178
  63.3435841  78.8488642  43.9212377  63.2659871  79.7996467  44.0000858
  62.7397485  78.5034515  44.5787303  73.7672830  72.4686730  45.8460525
  73.0823868  72.8485631  45.2957558  73.8516679  73.0782057  46.5792473
  80.2275582  69.3357393  46.9663197  79.4739291  68.7664791  46.8107202
  80.3623123  69.3020057  47.9133832  65.6174210  74.2070795  42.6417917
  65.4819885  75.0522331  43.0702765  66.1584023  74.4090073  41.8783851
  59.0703608  71.7246233  43.2145842  59.5828128  72.5189483  43.3651407
  59.7226321  71.0272524  43.1479443  60.8798492  74.8411990  45.2968595
  61.0565121  75.7629954  45.1089579  61.6755326  74.5270409  45.7262975
  62.0029808  76.3590163  51.2978937  62.5537233  76.2307227  50.5255931
  61.1641284  76.6585052  50.9473830  57.0352524  70.0534888  43.9905412
  57.8727746  70.4631896  43.7739120  57.2130792  69.1134330  43.9605606
  68.2170371  78.2805001  39.0773640  67.5432069  78.5836698  39.6858598
  68.6036193  79.0834081  38.7279097  70.1642732  75.1203175  45.3841929
  70.4565706  75.6808232  44.6654295  70.6741352  75.4131736  46.1395088
  65.1276357  75.8983526  46.4735383  65.0852536  76.1244372  45.5443915
  66.0439056  75.6646901  46.6221184  63.2442158  72.7746555  46.2697345
  64.0382756  72.2796875  46.0679920  62.5333850  72.2464418  45.9065051
  68.0637002  75.1564651  50.6209713  68.1174025  75.7255587  51.3887429
  67.1951784  75.3266536  50.2563750  65.8213434  73.3475577  49.9495182
  65.6824520  72.9794361  50.8221121  65.0328030  73.8623216  49.7779140
  66.4161586  78.4484673  41.2920719  66.5913342  77.9772717  42.1066342
  65.7294374  79.0750440  41.5201980  60.9822671  81.5974036  48.0660579
  61.2219269  82.2292560  48.7439598  60.1391868  81.2462076  48.3525938
  53.6178527  69.0775798  46.8283891  54.3049567  68.7637528  46.2404907
  53.4626655  69.9817163  46.5551143  65.4950533  77.4053159  50.4702083
  65.4220704  78.2108130  50.9821388  65.0527926  77.6045125  49.6450104
  65.2840313  76.6424929  43.9804905  64.5007834  77.1846609  44.0743129
  65.9833058  77.1598908  44.3799146  76.4466720  68.1559924  48.2657402
  76.4356596  69.0384639  47.8951335  75.5784100  67.8031475  48.0711939
  67.9549216  77.3039993  52.6260242  68.6677189  77.9387458  52.5536143
  67.4639245  77.4003859  51.8100244  67.7669590  77.6438737  45.3746533
  67.9491984  76.8260393  45.8374286  68.5902576  77.8606429  44.9371423
  68.1011755  76.5706922  42.6361582  68.6299522  76.0599377  42.0231744
  68.3639975  76.2549452  43.5007115  58.6028848  74.5870791  50.3796915
  59.1882285  73.8414479  50.5124819  58.4053687  74.8974748  51.2633579
  61.4567503  77.6222039  45.3959358  60.7877879  78.1068166  44.9123398
  61.3180373  77.8691259  46.3102736  65.5972772  79.6565782  51.9942016
  66.1491080  79.8197404  52.7591101  65.9378965  80.2470220  51.3222041
  68.7341159  77.6047758  48.9805698  68.6092299  76.8037498  48.4716644
  69.3920250  78.0993951  48.4919668  70.7976068  75.4056778  50.6085248
  69.8506403  75.2862129  50.5363575  71.1458841  74.5179276  50.6911510
  67.8022501  75.2009494  46.8089600  67.6547463  74.2726201  46.9897171
  68.6275994  75.2229585  46.3246676  71.4056623  76.0238053  47.8954473
  72.3303170  75.8180914  47.7578924  71.2371926  75.7754454  48.8043815
  71.1951939  76.5423720  43.2516565  71.3688816  75.9770143  42.4990417
  71.6880830  77.3424615  43.0696055  72.1827111  75.8590485  40.3513463
  72.8778016  76.4797177  40.5700778  72.5250262  75.0085836  40.6265841
  74.0818535  73.3090190  41.8800794  74.6069859  73.6477463  41.1550114
  73.9940887  72.3737205  41.6963928  65.7659195  79.3762173  46.2396047
  65.3264186  78.8838552  46.9328904  66.5167312  78.8335141  45.9988122
  58.2451534  75.5673714  46.2420675  59.0709554  75.2677486  45.8619319
  57.8945586  74.7981337  46.6910464  63.2133067  74.9200182  48.3118349
  62.5913077  74.2570887  48.0120576  63.8837934  74.9461314  47.6291996
  56.4460139  73.4860041  47.2009609  55.6092048  73.0582215  47.0193610
  56.4183785  73.6792484  48.1380400  62.7746574  73.4704106  41.7876809
  62.9234695  74.1539570  41.1343482  63.5813018  73.4509196  42.3026265
  76.5924195  70.7765381  47.2629312  77.4271086  71.2155185  47.4266872
  76.7283324  70.3004035  46.4437558  60.5299207  69.4969283  42.7937878
  60.2845249  68.5931613  42.9918088  60.6995122  69.4986434  41.8517356
  66.2741980  75.9652236  39.2588557  65.7015947  76.5842423  38.8059028
  66.8474774  76.5151598  39.7928478  69.4939240  76.2489386  40.3897139
  70.4269913  76.1834948  40.5930014  69.4062452  77.0845653  39.9311671
  80.6381997  69.4933003  49.6983442  81.3685386  69.2318291  50.2591145
  80.0288943  68.7561725  49.7385510  57.5434638  70.0990554  46.8317677
  57.5205327  70.1978241  45.8799560  57.8535275  70.9455705  47.1534843
  58.5572245  77.6986329  47.9634489  58.4226713  76.9386729  47.3972487
  58.1404307  78.4227228  47.4963278  78.6446162  67.1618918  46.4234746
  78.0845720  67.2312108  47.1966308  78.0389665  66.9859903  45.7034242
  61.7141371  78.5955646  48.1752932  61.5973755  79.5401078  48.0731622
  60.8933817  78.2929207  48.5638731  62.7395885  79.2483907  51.3908860
  63.6423132  79.2807518  51.7075355  62.5133255  78.3184358  51.4055196
  64.4949487  78.0014894  48.0518939  63.5445118  78.0016756  47.9383311
  64.7981973  77.2547629  47.5354974  80.2302181  83.8375432  49.1164702
  80.8680591  83.7182180  48.4128042  80.1123023  84.7856276  49.1752654
  77.0391887  83.7902861  49.0526226  76.7010398  83.6743925  48.1646761
  77.9081655  83.3894026  49.0327232  72.8978703  85.6438337  45.0423117
  72.3343568  85.5528274  44.2739405  72.7831098  84.8238241  45.5225610
  70.4443134  87.1389529  47.8807338  71.2364426  86.7980353  47.4653637
  70.6839785  87.2484504  48.8009491  78.4778261  89.3109305  40.3537582
  77.8266241  89.8963385  39.9671596  79.2722624  89.8415500  40.4132620
  72.4033888  86.3998442  40.7524716  73.1764764  85.8527429  40.6137592
  72.7559287  87.2642691  40.9639178  74.2418931  87.7274824  53.9591616
  73.9508797  88.6320455  53.8438282  74.8775915  87.7691352  54.6735685
  75.1675138  85.1051673  50.5492975  75.7638710  84.8807695  49.8349938
  75.2250109  84.3636418  51.1518423  74.7400166  82.5591108  38.3843166
  74.9925687  82.0372629  37.6226629  73.8024725  82.3957253  38.4869850
  79.7843449  81.5626886  46.1917910  80.5706538  81.1446309  45.8408327
  80.0482153  82.4672978  46.3599558  79.9553526  86.9999737  40.8906566
  79.3199359  87.0734363  41.6027471  79.6250933  87.5893335  40.2125646
  85.1851876  81.5002119  47.0950888  85.9177048  80.9301336  47.3288718
  84.4291232  81.1123720  47.5357394  74.4596455  84.4619214  40.5867541
  74.3432713  83.7864117  41.2548626  74.5698715  83.9751588  39.7699694
  76.8027996  83.9229361  44.2914231  76.4386203  83.3959982  45.0027152
  77.6595112  83.5327830  44.1180716  82.7077297  75.2123694  51.5545497
  82.3760621  76.0819105  51.3306712  82.1122910  74.8959978  52.2339527
  76.4433483  78.9519261  39.2875579  76.6107885  79.8199497  39.6546050
  76.2530652  79.1146542  38.3636868  79.2008816  87.4136240  50.9541409
  78.9009539  88.3161278  50.8457217  78.8559876  87.1468423  51.8062562
  72.6521298  83.8650036  46.9878114  71.7271794  83.7326251  47.1955806
  72.9005711  84.6444256  47.4848056  82.6005960  79.9318780  48.6338847
  81.6922837  79.8634188  48.3397608  82.5493556  80.4090725  49.4620672
  76.4222704  81.4076918  40.2722246  76.3022329  81.8533969  41.1107726
  75.7275292  81.7562236  39.7135784  70.0130109  83.5083310  47.8221903
  70.1422490  83.7617789  48.7361315  69.3327560  84.1011018  47.5026558
  74.1829596  94.1780560  43.9212377  74.1053626  95.1288385  44.0000858
  73.5791239  93.8326432  44.5787303  84.4667606  78.1335218  50.4116721
  83.8241987  78.4267751  49.7656515  83.9622535  78.0188138  51.2169917
  82.1207770  81.8798391  41.1002580  83.0325626  82.1125778  40.9250277
  81.6117417  82.4635436  40.5377659  80.4048538  86.3023019  54.7363872
  80.8131894  85.8605430  53.9918505  79.6825799  85.7275647  54.9898065
  80.7277352  86.8624210  48.4916161  80.0986215  87.0269924  47.7892229
  80.3403014  87.2765819  49.2627125  84.6066584  87.7978648  45.8460525
  83.9217622  88.1777549  45.2957558  84.6910433  88.4073974  46.5792473
  79.9079053  78.8999994  53.7678603  79.6639985  79.6542055  53.2312879
  80.1838983  79.2785342  54.6025850  81.8617516  85.4438607  52.4455869
  82.0734411  86.0870367  51.7690250  81.8147264  84.6100923  51.9777799
  79.4643745  78.0556427  49.3492441  78.6028224  78.3537681  49.6409178
  79.4906179  78.2726826  48.4173473  76.2805314  86.5998618  45.7566246
  76.7443660  86.8786321  44.9670869  76.0162112  85.6982062  45.5739337
  73.1729395  86.1470099  48.6946010  73.7430752  86.5757368  48.0563494
  73.7637507  85.8652684  49.3930195  75.2174200  82.7221770  42.5655812
  75.9198244  83.1742814  43.0329738  74.8854829  82.0805589  43.1935705
  68.9599534  80.9805323  47.8672945  68.1698588  81.2362851  47.3913056
  69.4510782  81.7953661  47.9724986  82.9763344  88.3210562  50.6178226
  83.7980787  87.9190749  50.3360908  82.9725747  88.2178796  51.5694342
  70.9114280  81.3449902  44.8256422  70.1145443  81.4568596  45.3439918
  70.6839872  81.6836554  43.9597312  76.7419947  87.8694605  52.7738936
  76.8064380  88.3315013  53.6097108  76.0330871  87.2391970  52.9021246
  67.2437237  81.2335813  50.2987936  67.4945276  82.1182823  50.5645512
  67.7796786  81.0540415  49.5263028  91.0669337  84.6649311  46.9663197
  90.3133045  84.0956709  46.8107202  91.2016878  84.6311975  47.9133832
  76.4567965  89.5362713  42.6417917  76.3213640  90.3814249  43.0702765
  76.9977777  89.7381991  41.8783851  69.9097362  87.0538151  43.2145842
  70.4221883  87.8481401  43.3651407  70.5620075  86.3564441  43.1479443
  71.7192247  90.1703907  45.2968595  71.8958875  91.0921872  45.1089579
  72.5149080  89.8562326  45.7262975  78.0836441  90.1586279  56.7718259
  77.6400295  89.3722658  56.4539163  78.7453655  90.3465430  56.1062150
  72.8423562  91.6882081  51.2978937  73.3930987  91.5599144  50.5255931
  72.0035038  91.9876970  50.9473830  80.1817679  90.4389079  54.7999660
  80.1636155  91.2597960  54.3079929  81.1037599  90.3143155  55.0249801
  76.6390733  87.9533209  55.6423169  77.1719070  87.1921497  55.4122477
  76.1104814  87.6606861  56.3847323  79.8060428  73.0593275  51.1716810
  79.4624698  73.9494916  51.0955921  80.1739391  72.8694932  50.3086395
  67.8746279  85.3826805  43.9905412  68.7121501  85.7923814  43.7739120
  68.0524547  84.4426247  43.9605606  79.7710711  83.0501886  39.6789245
  79.2557335  83.8206491  39.9177633  79.4988020  82.3767022  40.3022307
  77.3557822  77.8951587  44.7374484  76.4999418  77.5058437  44.5580122
  77.7684774  77.9743547  43.8774269  78.8856969  75.4297930  49.1366044
  78.3821764  75.3928065  48.3233849  79.1787576  76.3390673  49.1962700
  75.1299855  75.5136660  48.1432225  75.9952851  75.3179468  47.7838115
  75.1977364  75.2847011  49.0701582  84.7444985  85.8034241  41.6142419
  83.9674428  85.4645400  41.1697581  85.4236466  85.8086864  40.9397384
  79.5597014  80.9228978  41.5049027  79.2547150  81.2375127  42.3559170
  80.5127456  81.0010398  41.5476360  78.0043446  87.0819201  43.1541981
  77.4764808  86.3471961  42.8415218  77.5030949  87.8593878  42.9081949
  82.9836292  85.2768222  48.2709027  82.3259967  85.9667483  48.3589155
  83.7876691  85.6664654  48.6143013  72.7362174  77.7438868  45.5148592
  73.3105926  77.5214049  44.7821785  73.3233156  77.8127562  46.2677193
  81.7941751  83.6312594  46.3212969  82.3073633  84.2642586  46.8234678
  82.4442975  83.0313790  45.9556329  73.0631761  79.7743329  39.5344477
  72.2269073  80.1118015  39.8553752  72.9236530  79.6392308  38.5971614
  75.0384841  74.6180116  44.2423662  74.3849254  74.3029134  43.6180276
  74.9965316  73.9955857  44.9683484  76.1496046  84.8999412  36.1576954
  75.2423108  84.6688665  36.3568103  76.6467078  84.1037031  36.3450935
  79.0564125  93.6096919  39.0773640  78.3825824  93.9128615  39.6858598
  79.4429947  94.4125999  38.7279097  78.2722582  81.1062050  48.5671309
  77.3545143  81.3276997  48.4092997  78.6882725  81.1808360  47.7083016
  79.0557630  82.5053466  43.6973989  79.8029448  83.0174863  43.3881111
  79.3249219  82.1837518  44.5578383  77.3284280  85.0012006  40.6800944
  76.4195499  84.7171039  40.7773413  77.3579364  85.4211085  39.8204251
  82.5603547  88.6118596  44.4492111  82.1065874  87.7709506  44.5057302
  81.9297514  89.2479994  44.7866891  81.5036467  79.5410582  45.6792779
  80.7659223  79.0287968  46.0103021  81.7563240  79.1010964  44.8676056
  81.0036486  90.4495093  45.3841929  81.2959461  91.0100150  44.6654295
  81.5135107  90.7423654  46.1395088  81.6048094  72.3186834  46.2734548
  81.9106971  71.4584197  45.9860463  82.3300699  72.9104454  46.0733542
  67.8972450  82.7217521  44.6616146  67.6996850  82.1286881  43.9367212
  67.3419114  82.4169731  45.3792085  75.8769174  82.6140627  46.7810739
  75.9317784  81.6614463  46.7053216  75.0660376  82.7700066  47.2652037
  77.0260368  86.5420750  38.0189022  76.5879797  85.8256609  37.5594660
  77.7670808  86.7696865  37.4574114  73.8161534  81.2317687  44.5401118
  73.0029399  81.5311857  44.9466310  74.3120528  80.8373376  45.2575600
  75.9670112  91.2275444  46.4735383  75.9246290  91.4536290  45.5443915
  76.8832810  90.9938818  46.6221184  79.4135745  81.6959511  53.3716012
  79.7685133  81.9230984  54.2310478  80.0607877  82.0277888  52.7493267
  85.1433482  84.8177947  44.0765341  85.0051381  85.0079543  43.1486530
  84.7869701  85.5797330  44.5333392  73.3075608  78.8036042  50.1562353
  73.9474988  78.6624801  49.4585316  72.4753139  78.5170556  49.7800955
  85.1702862  86.8854474  49.0876612  85.6039369  86.7929763  49.9359666
  85.8834443  86.8611975  48.4496628  74.0835912  88.1038473  46.2697345
  74.8776511  87.6088793  46.0679920  73.3727605  87.5756336  45.9065051
  78.9030757  90.4856568  50.6209713  78.9567779  91.0547505  51.3887429
  78.0345538  90.6558453  50.2563750  70.3918676  82.2481554  42.3457098
  69.4616264  82.1866010  42.5627060  70.4876148  81.7257507  41.5493739
  70.3104225  78.7736367  44.9335340  70.5711042  79.6881701  44.8244500
  71.1321397  78.3060810  45.0831952  71.7829150  80.1874124  52.1034164
  72.4552204  79.9791487  51.4546813  70.9558937  79.9896210  51.6639396
  86.0318411  86.9278175  51.6209498  86.2254302  87.8323985  51.8668773
  85.9319030  86.4685594  52.4548083  81.0933520  87.0784918  57.1950378
  80.9419027  86.8495469  56.2780462  81.0838200  88.0355519  57.2081723
  77.8618857  84.6516830  52.1796645  78.7910917  84.8027990  52.0065612
  77.4409887  84.7400851  51.3245291  76.6607188  88.6767495  49.9495182
  76.5218274  88.3086279  50.8221121  75.8721785  89.1915134  49.7779140
  77.2555340  93.7776591  41.2920719  77.4307096  93.3064634  42.1066342
  76.5688128  94.4042357  41.5201980  78.2112403  88.0549097  47.3384020
  77.8762236  88.0149867  48.2341670  77.7116349  87.3893813  46.8654430
  72.1856647  83.4616727  52.8636601  72.0476445  82.7296966  53.4648140
  73.0961571  83.3725628  52.5820789  81.1471595  85.4005132  37.6121080
  80.5300766  84.6751960  37.5154133  80.6788084  86.1614492  37.2688154
  82.8025727  90.1104040  55.2726860  82.7438273  89.4263260  54.6057443
  83.2045245  90.8523030  54.8207486  71.8216426  96.9265954  48.0660579
  72.0613024  97.5584478  48.7439598  70.9785622  96.5753994  48.3525938
  72.9370141  79.6190556  36.7342384  72.0599607  79.4979357  36.3704631
  73.4127894  78.8276634  36.4821273  82.8043134  88.0743624  53.5040840
  81.9169913  87.7369546  53.6267239  83.3741685  87.3426655  53.7409605
  64.4572281  84.4067716  46.8283891  65.1443321  84.0929446  46.2404907
  64.3020410  85.3109080  46.5551143  69.2607003  79.2957912  51.2568915
  69.1765192  78.6883582  50.5219325  68.4389710  79.7866931  51.2578411
  76.3344287  92.7345076  50.4702083  76.2614459  93.5400048  50.9821388
  75.8921681  92.9337042  49.6450104  76.1234067  91.9716846  43.9804905
  75.3401589  92.5138527  44.0743129  76.8226812  92.4890826  44.3799146
  79.4330717  77.7811476  46.6239110  79.9299417  77.0281438  46.3040180
  78.6617699  77.8175793  46.0582319  87.2860475  83.4851841  48.2657402
  87.2750351  84.3676557  47.8951335  86.4177854  83.1323392  48.0711939
  78.7942971  92.6331910  52.6260242  79.5070943  93.2679375  52.5536143
  78.3033000  92.7295776  51.8100244  80.5160498  86.5383163  44.1977533
  79.5816777  86.6584626  44.0282238  80.6937166  85.6355630  43.9337543
  76.0165686  79.9228859  46.3510795  75.6463473  79.3699899  47.0391700
  76.5124778  79.3186992  45.7985795  83.9033049  82.3800482  44.7327568
  84.3693501  83.2128474  44.6587870  84.3540550  81.9145464  45.4372826
  73.8454885  90.3826354  53.4465813  74.5464344  91.0162837  53.5995207
  73.3750000  90.7241085  52.6861452  81.9709280  88.7244304  41.7313720
  82.2469124  88.6100898  42.6407594  81.1013779  88.3261788  41.6925893
  81.8749712  74.7481069  48.7718469  80.9612792  74.9785296  48.9400676
  82.3042813  74.8319513  49.6232501  81.6456170  82.9370961  51.2718363
  80.9927621  83.1846869  50.6170816  82.0236550  82.1235099  50.9380840
  78.6063344  92.9730654  45.3746533  78.7885739  92.1552310  45.8374286
  79.4296330  93.1898347  44.9371423  78.9405510  91.8998840  42.6361582
  79.4693276  91.3891294  42.0231744  79.2033729  91.5841370  43.5007115
  69.4422603  89.9162709  50.3796915  70.0276039  89.1706397  50.5124819
  69.2447441  90.2266666  51.2633579  72.2961258  92.9513956  45.3959358
  71.6271633  93.4360084  44.9123398  72.1574127  93.1983177  46.3102736
  64.0340257  82.4868309  49.1001358  64.0724357  81.9531900  49.8938476
  63.5280550  81.9603515  48.4812336  76.4366526  94.9857700  51.9942016
  76.9884834  95.1489321  52.7591101  76.7772720  95.5762138  51.3222041
  81.2877401  89.8118957  57.8490670  81.8317305  90.4248916  57.3545625
  80.7064246  90.3698536  58.3657683  67.6648835  81.2132411  42.1755290
  67.9602276  80.3043090  42.1222343  66.7636871  81.1920151  41.8536292
  79.5734914  92.9339675  48.9805698  79.4486053  92.1329415  48.4716644
  80.2314005  93.4285869  48.4919668  71.1943082  79.2888408  48.1582838
  70.4729668  79.9024376  48.0190312  71.9836338  79.8246173  48.0799484
  81.6369822  90.7348695  50.6085248  80.6900158  90.6154047  50.5363575
  81.9852595  89.8471193  50.6911510  69.3936676  78.8946509  42.2994615
  69.0649383  78.0143888  42.1169721  69.7476047  78.8394178  43.1871004
  78.6416255  90.5301412  46.8089600  78.4941218  89.6018119  46.9897171
  79.4669749  90.5521502  46.3246676  72.5078500  79.1819479  42.6670093
  72.8474572  79.7105400  41.9448701  72.9550620  79.5199885  43.4428659
  82.2450377  91.3529970  47.8954473  83.1696925  91.1472832  47.7578924
  82.0765681  91.1046372  48.8043815  74.4946647  77.6794100  40.8663385
  75.2155009  78.0575353  40.3627102  73.8711951  78.3982977  40.9698363
  78.6377770  78.3839249  41.8021718  78.8541384  79.2663887  41.5010546
  78.1571837  77.9925463  41.0727360  73.3776991  81.3424963  48.3792462
  73.2321572  81.6565266  49.2716744  72.9002195  81.9609863  47.8263361
  75.2373374  78.3327511  48.4273352  75.2234943  77.4368604  48.0905650
  75.9545802  78.3398174  49.0611638  77.0899505  78.7664851  50.4726479
  76.8317282  79.6881921  50.4710810  76.5584545  78.3695285  51.1626943
  82.0345693  91.8715638  43.2516565  82.2082571  91.3062060  42.4990417
  82.5274585  92.6716533  43.0696055  67.8522653  83.8830307  51.3180123
  67.3076121  84.6590115  51.4500398  68.7302003  84.2301111  51.1599245
  74.6410270  77.2141891  43.6960922  74.7626181  76.2858537  43.8951809
  74.3512312  77.2280577  42.7839237  77.5101460  74.8996801  46.8327642
  77.5323157  74.9636134  45.8779621  77.9269519  74.0601310  47.0268148
  87.8885085  84.6352061  44.8706864  88.3316231  83.8859386  44.4725988
  87.0111595  84.6262197  44.4880596  83.0220866  91.1882402  40.3513463
  83.7171771  91.8089095  40.5700778  83.3644016  90.3377753  40.6265841
  68.6388675  83.0100203  54.2110280  67.8970411  83.1582839  54.7974911
  68.3181419  83.2708469  53.3477030  84.9212289  88.6382108  41.8800794
  85.4463613  88.9769381  41.1550114  84.8334642  87.7029123  41.6963928
  76.5832338  92.5516181  54.0090670  76.8919464  92.3065328  54.8813370
  77.3807820  92.7562820  53.5209541  76.6052950  94.7054091  46.2396047
  76.1657940  94.2130470  46.9328904  77.3561067  94.1627059  45.9988122
  69.0845289  90.8965632  46.2420675  69.9103309  90.5969404  45.8619319
  68.7339341  90.1273254  46.6910464  74.0526822  90.2492100  48.3118349
  73.4306831  89.5862805  48.0120576  74.7231689  90.2753232  47.6291996
  67.2853894  88.8151958  47.2009609  66.4485802  88.3874133  47.0193610
  67.2577539  89.0084402  48.1380400  84.6106195  89.2715011  57.1851992
  83.8201739  89.2539150  56.6456491  84.3739550  89.8103305  57.9401028
  84.7304070  86.1207478  54.4984720  84.7802075  85.9557485  55.4400243
  84.6217993  85.2534737  54.1082601  73.6140329  88.7996023  41.7876809
  73.7628449  89.4831488  41.1343482  74.4206772  88.7801114  42.3026265
  82.0207833  82.1038406  55.8144027  82.9217695  81.9644871  55.5228025
  82.0955807  82.2692861  56.7542204  86.2322267  88.5404419  54.7426742
  85.9407075  88.9034400  55.5790203  85.6194398  87.8271428  54.5640074
  87.4317949  86.1057299  47.2629312  88.2664841  86.5447103  47.4266872
  87.5677078  85.6295952  46.4437558  84.4809455  83.6637034  53.2106800
  84.9563577  83.8564680  52.4025651  83.5575021  83.7196220  52.9650183
  71.3692962  84.8261201  42.7937878  71.1239004  83.9223531  42.9918088
  71.5388876  84.8278352  41.8517356  79.0589672  75.6984877  52.1762634
  79.5771616  76.4345904  51.8509122  78.7044804  76.0048871  53.0109393
  70.6388609  80.5589559  40.2924039  69.9457854  80.6333914  39.6364075
  70.3940361  79.7949902  40.8145556  79.3102266  72.1185160  47.6963530
  79.5904020  71.4508349  48.3223957  80.0952873  72.3114256  47.1838194
  77.1135734  91.2944154  39.2588557  76.5409701  91.9134341  38.8059028
  77.6868528  91.8443516  39.7928478  83.1811124  80.5402794  51.4435105
  84.1328547  80.6400892  51.4647329  83.0114575  79.7481063  51.9533190
  81.2025504  77.6258377  51.6294506  80.6075436  77.9063390  50.9340995
  80.9175200  78.1152278  52.4011247  80.3332994  91.5781304  40.3897139
  81.2663667  91.5126866  40.5930014  80.2456207  92.4137571  39.9311671
  82.9621011  90.8947174  37.3501086  82.8834642  90.5607038  38.2436844
  83.7830678  91.3868942  37.3492559  85.6599202  83.7608914  50.5577405
  85.6275522  82.8224914  50.7437089  86.2699826  83.8392950  49.8243230
  77.4982533  82.6304967  36.6004609  78.4441638  82.5011175  36.6693027
  77.1196778  81.8919629  37.0774037  85.8093690  80.5519957  50.6035688
  85.2932739  79.7678414  50.4165617  86.6933639  80.2238674  50.7682208
  83.4704417  74.2960973  46.5631501  83.2729239  73.9876061  47.4474833
  84.0804123  75.0222612  46.6929431  91.4775752  84.8224921  49.6983442
  92.2079140  84.5610209  50.2591145  90.8682697  84.0853642  49.7385510
  89.5591049  82.9632783  50.2957893  88.8324213  82.8288748  49.6874385
  89.1438336  83.2709612  51.1014611  75.6825450  80.5554943  36.5359494
  74.7756905  80.2588056  36.6122208  75.9601431  80.2584761  35.6693781
  66.6003390  81.8761306  46.9858541  66.2806175  81.0226615  46.6932915
  66.0536819  82.0909885  47.7416508  70.3783298  84.5923747  50.7028047
  70.5969308  85.5240855  50.7216081  70.7909072  84.2331722  51.4882851
  77.2987516  75.0991833  42.6903736  76.4888244  74.7538918  43.0658982
  77.9871933  74.7899377  43.2791347  79.2278064  74.1769880  44.3128032
  79.7809103  74.5965333  44.9718055  79.4648150  73.2505628  44.3550988
  66.4691650  85.4964218  48.9551662  65.7755122  85.0818171  48.4421617
  67.2164641  85.5384754  48.3585081  82.6056871  76.2870405  43.8206696
  82.0255540  76.9455209  43.4384749  82.3392804  75.4647749  43.4094114
  81.0560437  75.6875462  46.0228017  81.5560216  75.7991997  45.2142336
  81.6996045  75.3836515  46.6628825  68.3828393  85.4282472  46.8317677
  68.3599081  85.5270159  45.8799560  68.6929029  86.2747623  47.1534843
  71.0415771  87.4858627  50.9464292  71.9959024  87.4542569  50.8794223
  70.8428294  87.0249251  51.7614517  71.6315153  86.0559743  53.5135089
  72.4508042  86.5503821  53.5369926  71.9051961  85.1391711  53.4852657
  81.3881749  78.4470495  42.8763045  80.5007604  78.7320146  42.6583239
  81.8035738  78.2864258  42.0290322  84.7396285  78.4717016  46.5917384
  85.5156675  78.9613469  46.8642001  84.0144419  78.8975070  47.0489253
  87.1768844  79.1844635  47.6491325  87.7713335  78.9440371  46.9384633
  87.2495428  78.4651766  48.2764861  69.3966000  93.0278246  47.9634489
  69.2620467  92.2678647  47.3972487  68.9798062  93.7519146  47.4963278
  80.5324963  88.2115170  36.9711065  81.2360813  88.4165172  37.5868720
  79.8087611  88.7791932  37.2360148  81.3622773  83.9625031  43.0913335
  81.3057974  84.4193582  42.2520967  81.9151115  83.2015716  42.9136178
  85.1727579  79.7514763  43.9163454  84.9164513  79.3511399  44.7471662
  84.5480447  80.4658557  43.7913594  89.4839917  82.4910836  46.4234746
  88.9239475  82.5604025  47.1966308  88.8783420  82.3151821  45.7034242
  72.5535125  93.9247563  48.1752932  72.4367510  94.8692996  48.0731622
  71.7327572  93.6221125  48.5638731  82.4411660  88.6497699  39.0209525
  83.2757264  88.2178897  38.8387000  82.2796003  88.4779713  39.9486419
  82.0957552  85.1529812  40.3865864  82.0406356  84.9874084  39.4454308
  81.4703607  85.8605845  40.5428054  66.8850067  80.3897877  54.2127286
  67.5308931  79.8796831  54.7014511  66.6767218  81.1266558  54.7870712
  79.4103459  87.4578724  59.7119427  80.2794619  87.6319376  59.3506062
  78.9310211  88.2773141  59.5895156  75.4053678  74.6537921  39.9651182
  75.3932347  75.5979761  40.1219453  76.2977099  74.4708067  39.6710644
  73.5789640  94.5775825  51.3908860  74.4816886  94.6099435  51.7075355
  73.3527010  93.6476276  51.4055196  75.3343242  93.3306812  48.0518939
  74.3838873  93.3308673  47.9383311  75.6375728  92.5839546  47.5354974
  79.2205797  71.2480698  44.2197119  78.4538193  70.6939185  44.3653802
  79.6316502  71.3202567  45.0811271  91.0695935  99.1667350  49.1164702
  91.7074345  99.0474097  48.4128042  90.9516778 100.1148194  49.1752654
  87.8785641  99.1194778  49.0526226  87.5404153  99.0035843  48.1646761
  88.7475410  98.7185943  49.0327232  83.7372457 100.9730255  45.0423117
  83.1737322 100.8820192  44.2739405  83.6224852 100.1530159  45.5225610
  88.3605424 100.2729630  55.0112432  88.3494065  99.8782428  54.1392935
  88.5226064  99.5395703  55.6046203  81.2836889 102.4681446  47.8807338
  82.0758181 102.1272271  47.4653637  81.5233539 102.5776421  48.8009491
  89.3172016 104.6401222  40.3537582  88.6659996 105.2255303  39.9671596
  90.1116379 105.1707417  40.4132620  83.2427643 101.7290359  40.7524716
  84.0158519 101.1819347  40.6137592  83.5953042 102.5934609  40.9639178
  85.0812685 103.0566742  53.9591616  84.7902551 103.9612373  53.8438282
  85.7169670 103.0983269  54.6735685  86.0068892 100.4343590  50.5492975
  86.6032465 100.2099613  49.8349938  86.0643864  99.6928336  51.1518423
  85.5793921  97.8883026  38.3843166  85.8319441  97.3664547  37.6226629
  84.6418480  97.7249171  38.4869850  90.6237204  96.8918804  46.1917910
  91.4100293  96.4738227  45.8408327  90.8875908  97.7964896  46.3599558
  90.7947281 102.3291654  40.8906566  90.1593114 102.4026281  41.6027471
  90.4644687 102.9185253  40.2125646  96.0245631  96.8294037  47.0950888
  96.7570803  96.2593254  47.3288718  95.2684986  96.4415638  47.5357394
  85.2990209  99.7911132  40.5867541  85.1826468  99.1156035  41.2548626
  85.4092469  99.3043505  39.7699694  87.6421750  99.2521279  44.2914231
  87.2779958  98.7251900  45.0027152  88.4988866  98.8619748  44.1180716
  93.5471051  90.5415611  51.5545497  93.2154376  91.4111022  51.3306712
  92.9516664  90.2251895  52.2339527  87.2827237  94.2811178  39.2875579
  87.4501640  95.1491415  39.6546050  87.0924406  94.4438460  38.3636868
  90.0402571 102.7428157  50.9541409  89.7403294 103.6453196  50.8457217
  89.6953630 102.4760340  51.8062562  83.4915052  99.1941954  46.9878114
  82.5665549  99.0618168  47.1955806  83.7399465  99.9736173  47.4848056
  93.4399714  95.2610697  48.6338847  92.5316592  95.1926106  48.3397608
  93.3887310  95.7382642  49.4620672  87.2616458  96.7368836  40.2722246
  87.1416083  97.1825887  41.1107726  86.5669047  97.0854154  39.7135784
  80.8523863  98.8375228  47.8221903  80.9816244  99.0909707  48.7361315
  80.1721314  99.4302936  47.5026558  85.0223350 109.5072478  43.9212377
  84.9447380 110.4580303  44.0000858  84.4184994 109.1618350  44.5787303
  87.5140580  96.6800343  56.5773744  86.7373914  97.2394263  56.5676609
  88.1531143  97.1657126  57.0988614  95.3061361  93.4627136  50.4116721
  94.6635741  93.7559669  49.7656515  94.8016289  93.3480056  51.2169917
  92.9601524  97.2090309  41.1002580  93.8719381  97.4417696  40.9250277
  92.4511171  97.7927353  40.5377659  85.7686952  99.4885796  56.1391711
  86.5101637 100.0270840  55.8626535  85.0623938 100.1152085  56.2963263
  91.2442292 101.6314937  54.7363872  91.6525648 101.1897347  53.9918505
  90.5219554 101.0567564  54.9898065  87.5973362  96.5687544  52.1097429
  88.4434557  96.9926957  52.2532078  87.5372000  95.9121168  52.8035993
  91.5671107 102.1916127  48.4916161  90.9379969 102.3561842  47.7892229
  91.1796769 102.6057737  49.2627125  95.4460339 103.1270565  45.8460525
  94.7611377 103.5069467  45.2957558  95.5304188 103.7365892  46.5792473
  90.7472807  94.2291912  53.7678603  90.5033739  94.9833973  53.2312879
  91.0232738  94.6077260  54.6025850  92.7011270 100.7730524  52.4455869
  92.9128165 101.4162284  51.7690250  92.6541018  99.9392841  51.9777799
  90.3037499  93.3848345  49.3492441  89.4421978  93.6829599  49.6409178
  90.3299934  93.6018744  48.4173473  87.1199069 101.9290536  45.7566246
  87.5837414 102.2078239  44.9670869  86.8555867 101.0273980  45.5739337
  84.0123150 101.4762017  48.6946010  84.5824507 101.9049285  48.0563494
  84.6031262 101.1944602  49.3930195  86.0567955  98.0513688  42.5655812
  86.7591998  98.5034732  43.0329738  85.7248583  97.4097507  43.1935705
  84.5048316  96.6425445  56.9407021  83.8746977  97.3241725  57.1742418
  84.3984404  96.5308526  55.9960159  79.7993289  96.3097241  47.8672945
  79.0092343  96.5654769  47.3913056  80.2904536  97.1245578  47.9724986
  93.8157098 103.6502480  50.6178226  94.6374542 103.2482667  50.3360908
  93.8119501 103.5470714  51.5694342  81.7508034  96.6741820  44.8256422
  80.9539197  96.7860514  45.3439918  81.5233626  97.0128472  43.9597312
  87.5813702 103.1986523  52.7738936  87.6458134 103.6606930  53.6097108
  86.8724626 102.5683888  52.9021246  78.0830992  96.5627731  50.2987936
  78.3339030  97.4474741  50.5645512  78.6190540  96.3832333  49.5263028
 101.9063091  99.9941228  46.9663197 101.1526800  99.4248626  46.8107202
 102.0410632  99.9603893  47.9133832  87.2961719 104.8654631  42.6417917
  87.1607394 105.7106166  43.0702765  87.8371532 105.0673908  41.8783851
  83.7829059  90.9446210  59.3032272  83.3896004  90.3912409  59.9779916
  84.5995199  91.2556789  59.6938790  80.7491117 102.3830069  43.2145842
  81.2615637 103.1773319  43.3651407  81.4013830 101.6856359  43.1479443
  82.5586001 105.4995825  45.2968595  82.7352630 106.4213790  45.1089579
  83.3542835 105.1854244  45.7262975  86.6997020  92.3604089  56.8952529
  87.4406733  92.9611243  56.8156991  86.9314943  91.6181727  56.3370571
  81.8438358  97.5460457  55.1730758  81.7291873  96.6445714  55.4737857
  80.9882876  97.7924154  54.8215575  88.9230196 105.4878197  56.7718259
  88.4794050 104.7014576  56.4539163  89.5847409 105.6757348  56.1062150
  83.6817317 107.0173999  51.2978937  84.2324742 106.8891062  50.5255931
  82.8428793 107.3168888  50.9473830  91.0211434 105.7680997  54.7999660
  91.0029909 106.5889878  54.3079929  91.9431354 105.6435072  55.0249801
  87.4784488 103.2825126  55.6423169  88.0112825 102.5213415  55.4122477
  86.9498569 102.9898778  56.3847323  90.6454183  88.3885192  51.1716810
  90.3018452  89.2786834  51.0955921  91.0133145  88.1986850  50.3086395
  78.7140033 100.7118723  43.9905412  79.5515255 101.1215731  43.7739120
  78.8918301  99.7718165  43.9605606  90.6104466  98.3793804  39.6789245
  90.0951089  99.1498408  39.9177633  90.3381774  97.7058940  40.3022307
  88.1951577  93.2243504  44.7374484  87.3393173  92.8350355  44.5580122
  88.6078528  93.3035465  43.8774269  89.7250723  90.7589848  49.1366044
  89.2215519  90.7219983  48.3233849  90.0181330  91.6682590  49.1962700
  85.9693609  90.8428577  48.1432225  86.8346606  90.6471386  47.7838115
  86.0371118  90.6138929  49.0701582  95.5838740 101.1326158  41.6142419
  94.8068182 100.7937318  41.1697581  96.2630221 101.1378781  40.9397384
  90.3990769  96.2520896  41.5049027  90.0940904  96.5667045  42.3559170
  91.3521211  96.3302316  41.5476360  88.8437201 102.4111119  43.1541981
  88.3158562 101.6763879  42.8415218  88.3424703 103.1885795  42.9081949
  93.8230047 100.6060139  48.2709027  93.1653721 101.2959401  48.3589155
  94.6270446 100.9956571  48.6143013  83.5755928  93.0730785  45.5148592
  84.1499680  92.8505967  44.7821785  84.1626911  93.1419480  46.2677193
  92.6335505  98.9604512  46.3212969  93.1467387  99.5934504  46.8234678
  93.2836729  98.3605708  45.9556329  83.9025515  95.1035246  39.5344477
  83.0662828  95.4409933  39.8553752  83.7630285  94.9684226  38.5971614
  85.8778596  89.9472034  44.2423662  85.2243008  89.6321051  43.6180276
  85.8359070  89.3247775  44.9683484  86.9889801 100.2291329  36.1576954
  86.0816863  99.9980583  36.3568103  87.4860833  99.4328948  36.3450935
  89.8957880 108.9388836  39.0773640  89.2219578 109.2420533  39.6858598
  90.2823702 109.7417917  38.7279097  89.1116336  96.4353968  48.5671309
  88.1938898  96.6568915  48.4092997  89.5276480  96.5100278  47.7083016
  89.8951384  97.8345383  43.6973989  90.6423203  98.3466781  43.3881111
  90.1642974  97.5129436  44.5578383  88.1678034 100.3303924  40.6800944
  87.2589253 100.0462957  40.7773413  88.1973118 100.7503003  39.8204251
  93.3997302 103.9410514  44.4492111  92.9459629 103.1001423  44.5057302
  92.7691268 104.5771912  44.7866891  92.3430221  94.8702500  45.6792779
  91.6052978  94.3579886  46.0103021  92.5956995  94.4302881  44.8676056
  91.8430241 105.7787010  45.3841929  92.1353215 106.3392067  44.6654295
  92.3528861 106.0715571  46.1395088  92.4441849  87.6478752  46.2734548
  92.7500725  86.7876115  45.9860463  93.1694453  88.2396372  46.0733542
  78.7366205  98.0509438  44.6616146  78.5390604  97.4578799  43.9367212
  78.1812869  97.7461648  45.3792085  86.7162928  97.9432545  46.7810739
  86.7711538  96.9906381  46.7053216  85.9054130  98.0991984  47.2652037
  87.8654122 101.8712668  38.0189022  87.4273552 101.1548527  37.5594660
  88.6064563 102.0988783  37.4574114  84.6555288  96.5609604  44.5401118
  83.8423154  96.8603775  44.9466310  85.1514282  96.1665293  45.2575600
  86.8063866 106.5567361  46.4735383  86.7640045 106.7828208  45.5443915
  87.7226565 106.3230736  46.6221184  90.2529500  97.0251429  53.3716012
  90.6078888  97.2522902  54.2310478  90.9001631  97.3569806  52.7493267
  95.9827237 100.1469865  44.0765341  95.8445135 100.3371461  43.1486530
  95.6263456 100.9089248  44.5333392  84.1469363  94.1327960  50.1562353
  84.7868742  93.9916719  49.4585316  83.3146893  93.8462473  49.7800955
  96.0096616 102.2146392  49.0876612  96.4433123 102.1221681  49.9359666
  96.7228197 102.1903892  48.4496628  84.9229667 103.4330390  46.2697345
  85.7170265 102.9380711  46.0679920  84.2121359 102.9048254  45.9065051
  89.7424511 105.8148486  50.6209713  89.7961534 106.3839422  51.3887429
  88.8739293 105.9850371  50.2563750  81.2312430  97.5773472  42.3457098
  80.3010018  97.5157928  42.5627060  81.3269902  97.0549425  41.5493739
  81.1497979  94.1028285  44.9335340  81.4104797  95.0173618  44.8244500
  81.9715152  93.6352728  45.0831952  82.6222905  95.5166042  52.1034164
  83.2945958  95.3083404  51.4546813  81.7952691  95.3188128  51.6639396
  96.8712166 102.2570092  51.6209498  97.0648056 103.1615903  51.8668773
  96.7712784 101.7977512  52.4548083  88.5248477  92.1427983  54.1199825
  87.8776392  92.8417933  54.0264301  89.2949492  92.5764127  54.4876073
  91.9327275 102.4076835  57.1950378  91.7812781 102.1787387  56.2780462
  91.9231954 103.3647437  57.2081723  88.7012611  99.9808748  52.1796645
  89.6304671 100.1319908  52.0065612  88.2803641 100.0692769  51.3245291
  87.5000943 104.0059412  49.9495182  87.3612029 103.6378197  50.8221121
  86.7115539 104.5207052  49.7779140  88.0949095 109.1068509  41.2920719
  88.2700850 108.6356552  42.1066342  87.4081883 109.7334275  41.5201980
  89.0506158 103.3841015  47.3384020  88.7155991 103.3441785  48.2341670
  88.5510104 102.7185731  46.8654430  83.0250402  98.7908645  52.8636601
  82.8870200  98.0588884  53.4648140  83.9355325  98.7017545  52.5820789
  91.9865350 100.7297049  37.6121080  91.3694520 100.0043878  37.5154133
  91.5181838 101.4906410  37.2688154  85.6532703  98.5028604  52.3520281
  86.3632321  97.8621797  52.3106899  85.6102011  98.7541499  53.2746462
  93.6419481 105.4395958  55.2726860  93.5832027 104.7555178  54.6057443
  94.0439000 106.1814948  54.8207486  84.3661637  95.4893822  54.1715920
  83.8298994  95.0384561  54.8237517  83.7778345  95.6239731  53.4286385
  82.6610180 112.2557872  48.0660579  82.9006778 112.8876396  48.7439598
  81.8179377 111.9045912  48.3525938  83.7763896  94.9482474  36.7342384
  82.8993362  94.8271274  36.3704631  84.2521649  94.1568552  36.4821273
  93.6436889 103.4035542  53.5040840  92.7563667 103.0661463  53.6267239
  94.2135440 102.6718573  53.7409605  75.2966036  99.7359633  46.8283891
  75.9837076  99.4221363  46.2404907  75.1414164 100.6400998  46.5551143
  80.1000758  94.6249830  51.2568915  80.0158947  94.0175500  50.5219325
  79.2783464  95.1158848  51.2578411  87.1738042 108.0636994  50.4702083
  87.1008213 108.8691966  50.9821388  86.7315435 108.2628960  49.6450104
  86.9627822 107.3008764  43.9804905  86.1795343 107.8430444  44.0743129
  87.6620567 107.8182744  44.3799146  90.2724472  93.1103394  46.6239110
  90.7693171  92.3573356  46.3040180  89.5011453  93.1467710  46.0582319
  98.1254229  98.8143759  48.2657402  98.1144105  99.6968474  47.8951335
  97.2571609  98.4615310  48.0711939  89.6336725 107.9623828  52.6260242
  90.3464698 108.5971293  52.5536143  89.1426754 108.0587694  51.8100244
  91.3554252 101.8675081  44.1977533  90.4210531 101.9876543  44.0282238
  91.5330921 100.9647548  43.9337543  86.8559440  95.2520777  46.3510795
  86.4857228  94.6991817  47.0391700  87.3518533  94.6478910  45.7985795
  94.7426804  97.7092400  44.7327568  95.2087256  98.5420392  44.6587870
  95.1934304  97.2437382  45.4372826  84.6848639 105.7118272  53.4465813
  85.3858098 106.3454755  53.5995207  84.2143754 106.0533003  52.6861452
  92.8103035 104.0536221  41.7313720  93.0862879 103.9392816  42.6407594
  91.9407534 103.6553706  41.6925893  92.7143466  90.0772987  48.7718469
  91.8006546  90.3077214  48.9400676  93.1436568  90.1611431  49.6232501
  92.4849925  98.2662879  51.2718363  91.8321375  98.5138786  50.6170816
  92.8630305  97.4527017  50.9380840  89.4457099 108.3022572  45.3746533
  89.6279493 107.4844228  45.8374286  90.2690085 108.5190264  44.9371423
  89.7799264 107.2290757  42.6361582  90.3087031 106.7183212  42.0231744
  90.0427484 106.9133288  43.5007115  88.5337498  99.0082690  57.7584400
  87.8578135  98.9076819  58.4286775  89.3565132  98.8521904  58.2220397
  80.2816357 105.2454627  50.3796915  80.8669794 104.4998314  50.5124819
  80.0841196 105.5558583  51.2633579  83.1355012 108.2805874  45.3959358
  82.4665388 108.7652002  44.9123398  82.9967882 108.5275094  46.3102736
  74.8734012  97.8160227  49.1001358  74.9118111  97.2823817  49.8938476
  74.3674305  97.2895432  48.4812336  87.2760281 110.3149617  51.9942016
  87.8278589 110.4781239  52.7591101  87.6166474 110.9054055  51.3222041
  82.2524774  92.6624767  52.5963901  82.3166101  93.5239598  52.1841298
  82.1891894  92.0498769  51.8636259  81.7277047  94.7347900  56.2436935
  82.3549085  94.3524977  56.8574459  80.8704965  94.5162102  56.6092627
  92.1271155 105.1410875  57.8490670  92.6711059 105.7540833  57.3545625
  91.5458000 105.6990453  58.3657683  78.5042589  96.5424329  42.1755290
  78.7996030  95.6335007  42.1222343  77.6030625  96.5212068  41.8536292
  90.4128668 108.2631593  48.9805698  90.2879808 107.4621333  48.4716644
  91.0707759 108.7577786  48.4919668  82.0336836  94.6180326  48.1582838
  81.3123422  95.2316293  48.0190312  82.8230092  95.1538090  48.0799484
  92.4763577 106.0640613  50.6085248  91.5293912 105.9445964  50.5363575
  92.8246350 105.1763111  50.6911510  84.8363150  91.9534752  54.4323490
  85.3597552  92.1997049  55.1949799  84.6175483  92.7854787  54.0126627
  80.2330431  94.2238427  42.2994615  79.9043137  93.3435806  42.1169721
  80.5869802  94.1686095  43.1871004  89.4810010 105.8593329  46.8089600
  89.3334972 104.9310037  46.9897171  90.3063503 105.8813420  46.3246676
  83.3472254  94.5111396  42.6670093  83.6868327  95.0397318  41.9448701
  83.7944375  94.8491803  43.4428659  93.0844132 106.6821888  47.8954473
  94.0090679 106.4764749  47.7578924  92.9159435 106.4338289  48.8043815
  86.0415695  92.8948447  52.1173161  85.7012515  92.0956260  52.5193841
  85.3354701  93.1950158  51.5449994  86.6932167  89.9797760  50.5700484
  87.5158236  89.5058238  50.4479374  86.9370230  90.7588243  51.0699170
  85.3340401  93.0086018  40.8663385  86.0548764  93.3867271  40.3627102
  84.7105705  93.7274895  40.9698363  89.4771524  93.7131167  41.8021718
  89.6935139  94.5955805  41.5010546  88.9965591  93.3217380  41.0727360
  84.2170746  96.6716880  48.3792462  84.0715326  96.9857183  49.2716744
  83.7395949  97.2901781  47.8263361  86.0767128  93.6619428  48.4273352
  86.0628697  92.7660521  48.0905650  86.7939557  93.6690092  49.0611638
  87.9293259  94.0956768  50.4726479  87.6711037  95.0173839  50.4710810
  87.3978300  93.6987203  51.1626943  92.8739448 107.2007555  43.2516565
  93.0476325 106.6353978  42.4990417  93.3668339 108.0008450  43.0696055
  78.6916408  99.2122225  51.3180123  78.1469876  99.9882033  51.4500398
  79.5695758  99.5593029  51.1599245  85.4804024  92.5433808  43.6960922
  85.6019936  91.6150455  43.8951809  85.1906067  92.5572494  42.7839237
  88.3495215  90.2288719  46.8327642  88.3716912  90.2928052  45.8779621
  88.7663274  89.3893228  47.0268148  98.7278839  99.9643978  44.8706864
  99.1709985  99.2151304  44.4725988  97.8505349  99.9554115  44.4880596
  93.8614620 106.5174320  40.3513463  94.5565525 107.1381013  40.5700778
  94.2037771 105.6669671  40.6265841  79.4782430  98.3392121  54.2110280
  78.7364166  98.4874756  54.7974911  79.1575174  98.6000386  53.3477030
  95.7606043 103.9674025  41.8800794  96.2857368 104.3061298  41.1550114
  95.6728396 103.0321041  41.6963928  87.4226092 107.8808099  54.0090670
  87.7313219 107.6357246  54.8813370  88.2201574 108.0854738  53.5209541
  87.4446704 110.0346009  46.2396047  87.0051695 109.5422387  46.9328904
  88.1954821 109.4918976  45.9988122  79.9239043 106.2257550  46.2420675
  80.7497063 105.9261321  45.8619319  79.5733095 105.4565172  46.6910464
  84.8920576 105.5784018  48.3118349  84.2700586 104.9154723  48.0120576
  85.5625443 105.6045150  47.6291996  78.1247648 104.1443876  47.2009609
  77.2879557 103.7166050  47.0193610  78.0971294 104.3376319  48.1380400
  84.9645104  94.0565806  57.9050855  85.0133259  94.9327929  57.5228624
  85.5067618  93.5143199  57.3322498  95.4499950 104.6006929  57.1851992
  94.6595493 104.5831068  56.6456491  95.2133304 105.1395223  57.9401028
  95.5697825 101.4499395  54.4984720  95.6195830 101.2849403  55.4400243
  95.4611748 100.5826654  54.1082601  84.4534083 104.1287941  41.7876809
  84.6022204 104.8123406  41.1343482  85.2600527 104.1093031  42.3026265
  92.8601587  97.4330323  55.8144027  93.7611450  97.2936788  55.5228025
  92.9349562  97.5984778  56.7542204  87.1944392  94.8097178  54.6597213
  86.3247702  95.1030744  54.3879802  87.4303873  95.3937623  55.3804477
  97.0716021 103.8696337  54.7426742  96.7800830 104.2326318  55.5790203
  96.4588153 103.1563345  54.5640074  98.2711704 101.4349217  47.2629312
  99.1058595 101.8739021  47.4266872  98.4070833 100.9587870  46.4437558
  95.3203210  98.9928952  53.2106800  95.7957331  99.1856598  52.4025651
  94.3968775  99.0488137  52.9650183  82.2086716 100.1553119  42.7937878
  81.9632758  99.2515449  42.9918088  82.3782631 100.1570269  41.8517356
  89.8983426  91.0276795  52.1762634  90.4165370  91.7637822  51.8509122
  89.5438559  91.3340788  53.0109393  81.4782364  95.8881476  40.2924039
  80.7851609  95.9625831  39.6364075  81.2334116  95.1241820  40.8145556
  90.1496020  87.4477078  47.6963530  90.4297774  86.7800267  48.3223957
  90.9346627  87.6406173  47.1838194  87.9529489 106.6236072  39.2588557
  87.3803456 107.2426259  38.8059028  88.5262282 107.1735433  39.7928478
  94.0204879  95.8694712  51.4435105  94.9722302  95.9692809  51.4647329
  93.8508329  95.0772980  51.9533190  92.0419258  92.9550295  51.6294506
  91.4469190  93.2355308  50.9340995  91.7568955  93.4444196  52.4011247
  91.1726749 106.9073222  40.3897139  92.1057422 106.8418783  40.5930014
  91.0849961 107.7429489  39.9311671  93.8014765 106.2239092  37.3501086
  93.7228397 105.8898956  38.2436844  94.6224432 106.7160860  37.3492559
  96.4992956  99.0900831  50.5577405  96.4669277  98.1516832  50.7437089
  97.1093580  99.1684868  49.8243230  88.3376287  97.9596884  36.6004609
  89.2835392  97.8303092  36.6693027  87.9590532  97.2211546  37.0774037
  96.6487445  95.8811875  50.6035688  96.1326494  95.0970331  50.4165617
  97.5327393  95.5530591  50.7682208  94.3098172  89.6252890  46.5631501
  94.1122993  89.3167979  47.4474833  94.9197877  90.3514529  46.6929431
 102.3169506 100.1516838  49.6983442 103.0472895  99.8902126  50.2591145
 101.7076452  99.4145560  49.7385510 100.3984803  98.2924701  50.2957893
  99.6717967  98.1580666  49.6874385  99.9832090  98.6001529  51.1014611
  88.2214980 102.0114630  58.0605266  89.1417989 102.1893229  58.2545313
  88.1864563 101.0670676  57.9084965  86.5219204  95.8846861  36.5359494
  85.6150660  95.5879973  36.6122208  86.7995185  95.5876679  35.6693781
  77.4397145  97.2053224  46.9858541  77.1199929  96.3518532  46.6932915
  76.8930573  97.4201802  47.7416508  81.2177052  99.9215665  50.7028047
  81.4363062 100.8532773  50.7216081  81.6302826  99.5623640  51.4882851
  88.1381270  90.4283750  42.6903736  87.3281999  90.0830835  43.0658982
  88.8265687  90.1191294  43.2791347  90.0671818  89.5061797  44.3128032
  90.6202857  89.9257251  44.9718055  90.3041905  88.5797545  44.3550988
  86.0904918  95.4948871  60.0930796  85.9901645  96.4443228  60.0242887
  85.8726460  95.1667110  59.2206866  85.2917989  92.7433796  36.6771473
  86.1537153  93.0688694  36.9367291  85.4768333  91.9565292  36.1644539
  77.3085405 100.8256136  48.9551662  76.6148876 100.4110088  48.4421617
  78.0558396 100.8676672  48.3585081  93.4450626  91.6162322  43.8206696
  92.8649295  92.2747126  43.4384749  93.1786558  90.7939667  43.4094114
  91.8954192  91.0167380  46.0228017  92.3953970  91.1283915  45.2142336
  92.5389800  90.7128433  46.6628825  85.9536188  98.9246010  58.9095858
  85.4703269  99.7246370  59.1159747  86.0397127  98.9353955  57.9563302
  79.2222147 100.7574389  46.8317677  79.1992835 100.8562077  45.8799560
  79.5322784 101.6039540  47.1534843  81.8809525 102.8150544  50.9464292
  82.8352779 102.7834487  50.8794223  81.6822049 102.3541168  51.7614517
  82.4708907 101.3851660  53.5135089  83.2901796 101.8795739  53.5369926
  82.7445715 100.4683629  53.4852657  92.2275504  93.7762413  42.8763045
  91.3401359  94.0612063  42.6583239  92.6429493  93.6156176  42.0290322
  95.5790040  93.8008934  46.5917384  96.3550430  94.2905386  46.8642001
  94.8538174  94.2266988  47.0489253  98.0162598  94.5136553  47.6491325
  98.6107089  94.2732289  46.9384633  98.0889182  93.7943684  48.2764861
  80.2359754 108.3570164  47.9634489  80.1014222 107.5970565  47.3972487
  79.8191816 109.0811064  47.4963278  91.3718717 103.5407087  36.9711065
  92.0754567 103.7457090  37.5868720  90.6481366 104.1083849  37.2360148
  92.2016527  99.2916949  43.0913335  92.1451729  99.7485500  42.2520967
  92.7544870  98.5307633  42.9136178  96.0121333  95.0806681  43.9163454
  95.7558267  94.6803316  44.7471662  95.3874201  95.7950475  43.7913594
 100.3233671  97.8202754  46.4234746  99.7633229  97.8895943  47.1966308
  99.7177174  97.6443738  45.7034242  83.3928880 109.2539481  48.1752932
  83.2761264 110.1984913  48.0731622  82.5721326 108.9513043  48.5638731
  93.2805414 103.9789617  39.0209525  94.1151018 103.5470815  38.8387000
  93.1189757 103.8071630  39.9486419  92.9351307 100.4821730  40.3865864
  92.8800110 100.3166001  39.4454308  92.3097362 101.1897763  40.5428054
  77.7243822  95.7189794  54.2127286  78.3702685  95.2088748  54.7014511
  77.5160973  96.4558476  54.7870712  90.2497214 102.7870642  59.7119427
  91.1188373 102.9611294  59.3506062  89.7703965 103.6065059  59.5895156
  86.2447432  89.9829839  39.9651182  86.2326102  90.9271679  40.1219453
  87.1370854  89.7999984  39.6710644  84.4183394 109.9067743  51.3908860
  85.3210641 109.9391353  51.7075355  84.1920764 108.9768194  51.4055196
  86.1736996 108.6598729  48.0518939  85.2232627 108.6600591  47.9383311
  86.4769482 107.9131464  47.5354974  90.0599552  86.5772616  44.2197119
  89.2931947  86.0231102  44.3653802  90.4710257  86.6494484  45.0811271
  82.0641313  92.8657411  58.3102301  82.9272774  92.5094216  58.5205625
  81.4906723  92.5271306  58.9977705 101.9089690 114.4959268  49.1164702
 102.5468100 114.3766015  48.4128042 101.7910532 115.4440112  49.1752654
  98.7179396 114.4486696  49.0526226  98.3797907 114.3327761  48.1646761
  99.5869164 114.0477861  49.0327232  94.5766212 116.3022172  45.0423117
  94.0131077 116.2112109  44.2739405  94.4618607 115.4822077  45.5225610
  99.1999179 115.6021548  55.0112432  99.1887820 115.2074346  54.1392935
  99.3619818 114.8687620  55.6046203  92.1230643 117.7973364  47.8807338
  92.9151935 117.4564189  47.4653637  92.3627294 117.9068339  48.8009491
  94.0821397 117.0582277  40.7524716  94.8552273 116.5111264  40.6137592
  94.4346796 117.9226526  40.9639178  95.9206440 118.3858659  53.9591616
  95.6296306 119.2904290  53.8438282  96.5563424 118.4275187  54.6735685
  96.8462647 115.7635508  50.5492975  97.4426219 115.5391530  49.8349938
  96.9037618 115.0220253  51.1518423  96.4187675 113.2174943  38.3843166
  96.6713196 112.6956465  37.6226629  95.4812234 113.0541089  38.4869850
 101.4630958 112.2210722  46.1917910 102.2494047 111.8030145  45.8408327
 101.7269662 113.1256814  46.3599558 106.8639385 112.1585955  47.0950888
 107.5964557 111.5885172  47.3288718 106.1078741 111.7707555  47.5357394
  96.1383964 115.1203049  40.5867541  96.0220222 114.4447953  41.2548626
  96.2486224 114.6335423  39.7699694  98.4815505 114.5813196  44.2914231
  98.1173712 114.0543817  45.0027152  99.3382621 114.1911665  44.1180716
 104.3864806 105.8707529  51.5545497 104.0548130 106.7402940  51.3306712
 103.7910419 105.5543813  52.2339527  98.1220992 109.6103096  39.2875579
  98.2895394 110.4783332  39.6546050  97.9318161 109.7730378  38.3636868
  94.3308807 114.5233872  46.9878114  93.4059303 114.3910086  47.1955806
  94.5793220 115.3028091  47.4848056 104.2793469 110.5902615  48.6338847
 103.3710346 110.5218024  48.3397608 104.2281065 111.0674560  49.4620672
  98.1010213 112.0660754  40.2722246  97.9809838 112.5117804  41.1107726
  97.4062801 112.4146071  39.7135784  91.6917618 114.1667145  47.8221903
  91.8209999 114.4201624  48.7361315  91.0115069 114.7594853  47.5026558
  98.3534335 112.0092261  56.5773744  97.5767669 112.5686181  56.5676609
  98.9924898 112.4949044  57.0988614 106.1455115 108.7919054  50.4116721
 105.5029495 109.0851587  49.7656515 105.6410044 108.6771974  51.2169917
 103.7995279 112.5382227  41.1002580 104.7113135 112.7709613  40.9250277
 103.2904926 113.1219271  40.5377659  96.6080707 114.8177714  56.1391711
  97.3495391 115.3562758  55.8626535  95.9017692 115.4444003  56.2963263
 102.0836047 116.9606855  54.7363872 102.4919403 116.5189265  53.9918505
 101.3613308 116.3859482  54.9898065  98.4367117 111.8979461  52.1097429
  99.2828312 112.3218875  52.2532078  98.3765754 111.2413086  52.8035993
 101.5866562 109.5583830  53.7678603 101.3427494 110.3125890  53.2312879
 101.8626492 109.9369177  54.6025850 101.1431254 108.7140263  49.3492441
 100.2815733 109.0121516  49.6409178 101.1693688 108.9310662  48.4173473
  97.9592823 117.2582453  45.7566246  98.4231169 117.5370156  44.9670869
  97.6949621 116.3565898  45.5739337  94.8516904 116.8053935  48.6946010
  95.4218261 117.2341203  48.0563494  95.4425016 116.5236519  49.3930195
  96.8961709 113.3805606  42.5655812  97.5985752 113.8326649  43.0329738
  96.5642338 112.7389424  43.1935705  95.3442071 111.9717362  56.9407021
  94.7140731 112.6533643  57.1742418  95.2378159 111.8600444  55.9960159
  90.6387043 111.6389158  47.8672945  89.8486097 111.8946687  47.3913056
  91.1298290 112.4537496  47.9724986  92.5901788 112.0033738  44.8256422
  91.7932952 112.1152432  45.3439918  92.3627381 112.3420390  43.9597312
  98.4207456 118.5278441  52.7738936  98.4851889 118.9898848  53.6097108
  97.7118380 117.8975806  52.9021246  88.9224746 111.8919649  50.2987936
  89.1732785 112.7766659  50.5645512  89.4584294 111.7124250  49.5263028
  94.6222813 106.2738128  59.3032272  94.2289759 105.7204327  59.9779916
  95.4388954 106.5848707  59.6938790  91.5884871 117.7121986  43.2145842
  92.1009392 118.5065237  43.3651407  92.2407584 117.0148277  43.1479443
  93.3979756 120.8287743  45.2968595  93.5746384 121.7505707  45.1089579
  94.1936589 120.5146162  45.7262975  97.5390774 107.6896007  56.8952529
  98.2800488 108.2903160  56.8156991  97.7708697 106.9473645  56.3370571
  92.6832112 112.8752374  55.1730758  92.5685628 111.9737632  55.4737857
  91.8276630 113.1216071  54.8215575  94.5211071 122.3465916  51.2978937
  95.0718496 122.2182980  50.5255931  93.6822547 122.6460805  50.9473830
  98.3178242 118.6117044  55.6423169  98.8506579 117.8505332  55.4122477
  97.7892323 118.3190696  56.3847323 101.4847937 103.7177110  51.1716810
 101.1412207 104.6078752  51.0955921 101.8526900 103.5278768  50.3086395
  89.5533788 116.0410641  43.9905412  90.3909010 116.4507649  43.7739120
  89.7312056 115.1010083  43.9605606 101.4498220 113.7085721  39.6789245
 100.9344843 114.4790326  39.9177633 101.1775529 113.0350857  40.3022307
  99.0345331 108.5535422  44.7374484  98.1786927 108.1642272  44.5580122
  99.4472283 108.6327383  43.8774269 100.5644478 106.0881765  49.1366044
 100.0609273 106.0511900  48.3233849 100.8575085 106.9974508  49.1962700
  96.8087364 106.1720495  48.1432225  97.6740360 105.9763304  47.7838115
  96.8764873 105.9430847  49.0701582 101.2384523 111.5812813  41.5049027
 100.9334659 111.8958962  42.3559170 102.1914965 111.6594233  41.5476360
  99.6830955 117.7403037  43.1541981  99.1552317 117.0055796  42.8415218
  99.1818458 118.5177713  42.9081949  94.4149683 108.4022703  45.5148592
  94.9893435 108.1797884  44.7821785  95.0020665 108.4711397  46.2677193
 103.4729260 114.2896430  46.3212969 103.9861142 114.9226422  46.8234678
 104.1230484 113.6897625  45.9556329  94.7419270 110.4327164  39.5344477
  93.9056582 110.7701850  39.8553752  94.6024039 110.2976144  38.5971614
  96.7172350 105.2763952  44.2423662  96.0636763 104.9612969  43.6180276
  96.6752825 104.6539692  44.9683484  97.8283555 115.5583247  36.1576954
  96.9210617 115.3272500  36.3568103  98.3254587 114.7620866  36.3450935
  99.9510091 111.7645885  48.5671309  99.0332652 111.9860832  48.4092997
 100.3670234 111.8392196  47.7083016 100.7345139 113.1637301  43.6973989
 101.4816957 113.6758698  43.3881111 101.0036728 112.8421354  44.5578383
  99.0071789 115.6595842  40.6800944  98.0983008 115.3754875  40.7773413
  99.0366873 116.0794920  39.8204251 103.1823976 110.1994417  45.6792779
 102.4446732 109.6871804  46.0103021 103.4350749 109.7594799  44.8676056
 103.2835603 102.9770669  46.2734548 103.5894480 102.1168033  45.9860463
 104.0088208 103.5688289  46.0733542  89.5759959 113.3801356  44.6616146
  89.3784359 112.7870717  43.9367212  89.0206623 113.0753566  45.3792085
  97.5556683 113.2724462  46.7810739  97.6105293 112.3198299  46.7053216
  96.7447885 113.4283901  47.2652037  98.7047877 117.2004585  38.0189022
  98.2667306 116.4840444  37.5594660  99.4458317 117.4280700  37.4574114
  95.4949043 111.8901522  44.5401118  94.6816908 112.1895693  44.9466310
  95.9908037 111.4957211  45.2575600 101.0923254 112.3543347  53.3716012
 101.4472642 112.5814820  54.2310478 101.7395386 112.6861723  52.7493267
  94.9863117 109.4619878  50.1562353  95.6262497 109.3208637  49.4585316
  94.1540648 109.1754391  49.7800955  95.7623421 118.7622308  46.2697345
  96.5564020 118.2672628  46.0679920  95.0515114 118.2340171  45.9065051
  92.0706185 112.9065390  42.3457098  91.1403773 112.8449845  42.5627060
  92.1663657 112.3841343  41.5493739  91.9891734 109.4320203  44.9335340
  92.2498551 110.3465536  44.8244500  92.8108906 108.9644645  45.0831952
  93.4616659 110.8457960  52.1034164  94.1339713 110.6375322  51.4546813
  92.6346446 110.6480046  51.6639396  99.3642231 107.4719901  54.1199825
  98.7170146 108.1709850  54.0264301 100.1343247 107.9056045  54.4876073
  99.5406366 115.3100666  52.1796645 100.4698426 115.4611825  52.0065612
  99.1197396 115.3984686  51.3245291  98.3394697 119.3351330  49.9495182
  98.2005783 118.9670114  50.8221121  97.5509294 119.8498969  49.7779140
  99.8899912 118.7132933  47.3384020  99.5549745 118.6733703  48.2341670
  99.3903858 118.0477649  46.8654430  93.8644156 114.1200563  52.8636601
  93.7263954 113.3880802  53.4648140  94.7749080 114.0309463  52.5820789
 102.8259104 116.0588967  37.6121080 102.2088275 115.3335795  37.5154133
 102.3575593 116.8198327  37.2688154  96.4926457 113.8320522  52.3520281
  97.2026076 113.1913714  52.3106899  96.4495765 114.0833417  53.2746462
  95.2055391 110.8185740  54.1715920  94.6692748 110.3676478  54.8237517
  94.6172100 110.9531649  53.4286385  94.6157650 110.2774391  36.7342384
  93.7387116 110.1563192  36.3704631  95.0915403 109.4860470  36.4821273
  86.1359790 115.0651551  46.8283891  86.8230830 114.7513281  46.2404907
  85.9807919 115.9692916  46.5551143  90.9394512 109.9541748  51.2568915
  90.8552701 109.3467417  50.5219325  90.1177219 110.4450766  51.2578411
 101.1118226 108.4395311  46.6239110 101.6086926 107.6865274  46.3040180
 100.3405208 108.4759628  46.0582319 102.1948007 117.1966998  44.1977533
 101.2604286 117.3168461  44.0282238 102.3724675 116.2939465  43.9337543
  97.6953195 110.5812694  46.3510795  97.3250982 110.0283735  47.0391700
  98.1912287 109.9770828  45.7985795 105.5820558 113.0384318  44.7327568
 106.0481010 113.8712309  44.6587870 106.0328059 112.5729299  45.4372826
  95.5242393 121.0410189  53.4465813  96.2251853 121.6746672  53.5995207
  95.0537508 121.3824921  52.6861452 103.5537221 105.4064905  48.7718469
 102.6400301 105.6369132  48.9400676 103.9830322 105.4903349  49.6232501
 103.3243679 113.5954797  51.2718363 102.6715130 113.8430704  50.6170816
 103.7024059 112.7818935  50.9380840  99.3731252 114.3374608  57.7584400
  98.6971890 114.2368737  58.4286775 100.1958886 114.1813821  58.2220397
  91.1210112 120.5746544  50.3796915  91.7063548 119.8290232  50.5124819
  90.9234950 120.8850501  51.2633579  85.7127766 113.1452144  49.1001358
  85.7511866 112.6115735  49.8938476  85.2068059 112.6187350  48.4812336
  93.0918529 107.9916685  52.5963901  93.1559855 108.8531516  52.1841298
  93.0285649 107.3790687  51.8636259  92.5670801 110.0639818  56.2436935
  93.1942840 109.6816895  56.8574459  91.7098720 109.8454019  56.6092627
  89.3436344 111.8716247  42.1755290  89.6389785 110.9626925  42.1222343
  88.4424380 111.8503986  41.8536292  92.8730591 109.9472243  48.1582838
  92.1517177 110.5608211  48.0190312  93.6623847 110.4830008  48.0799484
  95.6756904 107.2826670  54.4323490  96.1991306 107.5288966  55.1949799
  95.4569238 108.1146705  54.0126627  91.0724185 109.5530344  42.2994615
  90.7436892 108.6727723  42.1169721  91.4263556 109.4978013  43.1871004
  94.1866009 109.8403314  42.6670093  94.5262081 110.3689235  41.9448701
  94.6338129 110.1783720  43.4428659  96.8809449 108.2240365  52.1173161
  96.5406270 107.4248178  52.5193841  96.1748456 108.5242076  51.5449994
  97.5325921 105.3089677  50.5700484  98.3551991 104.8350155  50.4479374
  97.7763985 106.0880161  51.0699170  96.1734156 108.3377936  40.8663385
  96.8942518 108.7159188  40.3627102  95.5499460 109.0566812  40.9698363
 100.3165279 109.0423085  41.8021718 100.5328893 109.9247723  41.5010546
  99.8359346 108.6509298  41.0727360  95.0564500 112.0008798  48.3792462
  94.9109081 112.3149101  49.2716744  94.5789704 112.6193698  47.8263361
  96.9160883 108.9911346  48.4273352  96.9022452 108.0952439  48.0905650
  97.6333311 108.9982010  49.0611638  98.7687014 109.4248686  50.4726479
  98.5104791 110.3465757  50.4710810  98.2372054 109.0279121  51.1626943
  89.5310162 114.5414142  51.3180123  88.9863630 115.3173950  51.4500398
  90.4089512 114.8884947  51.1599245  96.3197779 107.8725726  43.6960922
  96.4413690 106.9442372  43.8951809  96.0299821 107.8864412  42.7839237
  99.1888969 105.5580637  46.8327642  99.2110666 105.6219970  45.8779621
  99.6057028 104.7185145  47.0268148  90.3176184 113.6684039  54.2110280
  89.5757920 113.8166674  54.7974911  89.9968928 113.9292304  53.3477030
  90.7632798 121.5549467  46.2420675  91.5890818 121.2553239  45.8619319
  90.4126850 120.7857090  46.6910464  95.7314331 120.9075935  48.3118349
  95.1094340 120.2446641  48.0120576  96.4019198 120.9337067  47.6291996
  88.9641403 119.4735794  47.2009609  88.1273311 119.0457968  47.0193610
  88.9365048 119.6668237  48.1380400  95.8038858 109.3857724  57.9050855
  95.8527014 110.2619846  57.5228624  96.3461373 108.8435117  57.3322498
  95.2927838 119.4579859  41.7876809  95.4415958 120.1415323  41.1343482
  96.0994281 119.4384949  42.3026265 103.6995341 112.7622241  55.8144027
 104.6005204 112.6228706  55.5228025 103.7743316 112.9276696  56.7542204
  98.0338147 110.1389096  54.6597213  97.1641456 110.4322662  54.3879802
  98.2697627 110.7229541  55.3804477  93.0480471 115.4845036  42.7937878
  92.8026513 114.5807366  42.9918088  93.2176385 115.4862187  41.8517356
 100.7377181 106.3568713  52.1762634 101.2559125 107.0929740  51.8509122
 100.3832313 106.6632706  53.0109393  92.3176118 111.2173394  40.2924039
  91.6245363 111.2917749  39.6364075  92.0727870 110.4533738  40.8145556
 100.9889775 102.7768995  47.6963530 101.2691529 102.1092184  48.3223957
 101.7740382 102.9698091  47.1838194 104.8598633 111.1986629  51.4435105
 105.8116056 111.2984727  51.4647329 104.6902084 110.4064898  51.9533190
 102.8813013 108.2842213  51.6294506 102.2862945 108.5647225  50.9340995
 102.5962709 108.7736114  52.4011247  99.1770042 113.2888802  36.6004609
 100.1229147 113.1595010  36.6693027  98.7984287 112.5503464  37.0774037
 107.4881199 111.2103792  50.6035688 106.9720248 110.4262249  50.4165617
 108.3721148 110.8822509  50.7682208 105.1491926 104.9544808  46.5631501
 104.9516747 104.6459896  47.4474833 105.7591632 105.6806447  46.6929431
  99.0608734 117.3406548  58.0605266  99.9811744 117.5185147  58.2545313
  99.0258317 116.3962594  57.9084965  97.3612959 111.2138778  36.5359494
  96.4544414 110.9171891  36.6122208  97.6388940 110.9168596  35.6693781
  88.2790899 112.5345142  46.9858541  87.9593684 111.6810450  46.6932915
  87.7324328 112.7493720  47.7416508  92.0570807 115.2507583  50.7028047
  92.2756817 116.1824691  50.7216081  92.4696581 114.8915557  51.4882851
  98.9775025 105.7575668  42.6903736  98.1675753 105.4122753  43.0658982
  99.6659442 105.4483212  43.2791347 100.9065573 104.8353715  44.3128032
 101.4596612 105.2549168  44.9718055 101.1435659 103.9089463  44.3550988
  96.9298672 110.8240789  60.0930796  96.8295399 111.7735146  60.0242887
  96.7120214 110.4959027  59.2206866  96.1311744 108.0725714  36.6771473
  96.9930908 108.3980612  36.9367291  96.3162088 107.2857210  36.1644539
  88.1479159 116.1548053  48.9551662  87.4542631 115.7402006  48.4421617
  88.8952150 116.1968590  48.3585081 104.2844380 106.9454240  43.8206696
 103.7043049 107.6039044  43.4384749 104.0180313 106.1231585  43.4094114
 102.7347946 106.3459298  46.0228017 103.2347725 106.4575832  45.2142336
 103.3783554 106.0420351  46.6628825  96.7929942 114.2537927  58.9095858
  96.3097024 115.0538288  59.1159747  96.8790881 114.2645872  57.9563302
  90.0615902 116.0866307  46.8317677  90.0386590 116.1853994  45.8799560
  90.3716538 116.9331458  47.1534843  92.7203280 118.1442462  50.9464292
  93.6746533 118.1126404  50.8794223  92.5215803 117.6833086  51.7614517
  93.3102662 116.7143578  53.5135089  94.1295551 117.2087657  53.5369926
  93.5839470 115.7975546  53.4852657 103.0669258 109.1054330  42.8763045
 102.1795113 109.3903981  42.6583239 103.4823247 108.9448094  42.0290322
 106.4183794 109.1300851  46.5917384 107.1944184 109.6197304  46.8642001
 105.6931928 109.5558906  47.0489253 108.8556353 109.8428471  47.6491325
 109.4500844 109.6024207  46.9384633 108.9282937 109.1235601  48.2764861
  91.0753509 123.6862082  47.9634489  90.9407976 122.9262482  47.3972487
  90.6585571 124.4102981  47.4963278 103.0410282 114.6208866  43.0913335
 102.9845483 115.0777418  42.2520967 103.5938624 113.8599551  42.9136178
 106.8515088 110.4098598  43.9163454 106.5952022 110.0095234  44.7471662
 106.2267956 111.1242392  43.7913594 103.7745061 115.8113648  40.3865864
 103.7193865 115.6457919  39.4454308 103.1491116 116.5189681  40.5428054
  88.5637576 111.0481712  54.2127286  89.2096440 110.5380666  54.7014511
  88.3554727 111.7850394  54.7870712  97.0841187 105.3121757  39.9651182
  97.0719856 106.2563597  40.1219453  97.9764608 105.1291902  39.6710644
 100.8993306 101.9064533  44.2197119 100.1325702 101.3523020  44.3653802
 101.3104011 101.9786402  45.0811271  92.9035067 108.1949329  58.3102301
  93.7666529 107.8386134  58.5205625  92.3300478 107.8563224  58.9977705
  36.8727164  -0.4730116  35.8410008  37.5105574  -0.5923368  35.1373348
  36.7548007   0.4750728  35.8997960  33.6816870  -0.5202688  35.7771533
  33.3435382  -0.6361623  34.8892068  34.5506638  -0.9211522  35.7572539
  34.1636653   0.6332164  41.7357738  34.1525294   0.2384962  40.8638242
  34.3257293  -0.1001763  42.3291510  27.0868118   2.8283980  34.6052644
  27.8789410   2.4874805  34.1898944  27.3264768   2.9378955  35.5254798
  30.8843914   3.4169276  40.6836922  30.5933780   4.3214907  40.5683589
  31.5200899   3.4585804  41.3980992  31.8100121   0.7946124  37.2738282
  32.4063693   0.5702147  36.5595245  31.8675093   0.0530870  37.8763730
  41.8276860  -2.8103429  33.8196195  42.5602031  -3.3804212  34.0534024
  41.0716215  -3.1981828  34.2602700  35.8433799   3.1030691  37.6786716
  35.5434522   4.0055730  37.5702523  35.4984859   2.8362875  38.5307869
  39.2430943  -4.3786768  35.3584153  38.3347821  -4.4471360  35.0642914
  39.1918539  -3.9014823  36.1865979  30.8254579   9.8675012  30.6457684
  30.7478609  10.8182837  30.7246164  30.2216223   9.5220884  31.3032610
  33.3171809  -2.9597123  43.3019051  32.5405143  -2.4003203  43.2921915
  33.9562372  -2.4740340  43.8233921  41.1092590  -6.1770330  37.1362027
  40.4666970  -5.8837797  36.4901822  40.6047518  -6.2917410  37.9415224
  31.5718181  -0.1511669  42.8637018  32.3132866   0.3873375  42.5871841
  30.8655167   0.4754619  43.0208569  37.0473521   1.9917471  41.4609179
  37.4556877   1.5499882  40.7163811  36.3250782   1.4170099  41.7143372
  33.4004591  -3.0709922  38.8342736  34.2465786  -2.6470509  38.9777385
  33.3403229  -3.7276298  39.5281299  37.3702336   2.5518662  35.2161468
  36.7411198   2.7164376  34.5137536  36.9827998   2.9660271  35.9872432
  41.2491567   3.4873100  32.5705832  40.5642606   3.8672001  32.0202865
  41.3335417   4.0968426  33.3037780  36.5504036  -5.4105554  40.4923910
  36.3064968  -4.6563493  39.9558185  36.8263967  -5.0320206  41.3271157
  38.5042499   1.1333059  39.1701175  38.7159394   1.7764818  38.4935556
  38.4572247   0.2995375  38.7023105  29.8154378   1.8364551  35.4191316
  30.3855736   2.2651820  34.7808801  30.4062490   1.5547136  36.1175502
  39.6188327   4.0105014  37.3423533  40.4405771   3.6085201  37.0606214
  39.6150730   3.9073248  38.2939648  33.3844930   3.5589057  39.4984243
  33.4489363   4.0209465  40.3342415  32.6755854   2.9286422  39.6266553
  47.7094320   0.3543762  33.6908504  46.9558028  -0.2148839  33.5352509
  47.8441861   0.3206427  34.6379139  28.3617230   5.8598359  32.0213902
  28.5383859   6.7816324  31.8334886  29.1574064   5.5456778  32.4508282
  34.7261424   5.8480731  43.4963566  34.2825279   5.0617110  43.1784470
  35.3878638   6.0359882  42.8307456  29.4848546   7.3776533  38.0224244
  30.0355971   7.2493596  37.2501238  28.6460022   7.6771422  37.6719137
  36.8242663   6.1283531  41.5244967  36.8061138   6.9492412  41.0325236
  37.7462583   6.0037606  41.7495108  33.2815717   3.6427661  42.3668475
  33.8144053   2.8815949  42.1367783  32.7529798   3.3501313  43.1092630
  39.6261275   0.9662674  34.9954333  38.9684950   1.6561935  35.0834462
  40.4301675   1.3559106  35.3388320  38.4366734  -0.6792954  33.0458275
  38.9498616  -0.0462962  33.5479985  39.0867958  -1.2791758  32.6801635
  34.9147565  -3.2043498  35.2916616  33.9970126  -2.9828551  35.1338304
  35.3307709  -3.1297188  34.4328323  39.2028530   4.3013048  31.1737418
  38.7490858   3.4603958  31.2302608  38.5722497   4.9374446  31.5112198
  37.6461470   6.1389544  32.1087236  37.9384444   6.6994602  31.3899602
  38.1560090   6.4318105  32.8640395  32.6095095   6.9169896  33.1980689
  32.5671274   7.1430742  32.2689221  33.5257794   6.6833270  33.3466490
  36.0560729  -2.6146037  40.0961318  36.4110116  -2.3874564  40.9555784
  36.7032860  -2.2827660  39.4738574  41.7858466   0.5072399  30.8010647
  41.6476364   0.6973995  29.8731837  41.4294684   1.2691782  31.2578699
  41.8127845   2.5748926  35.8121919  42.2464352   2.4824215  36.6604973
  42.5259426   2.5506426  35.1741935  35.5455740   6.1751020  37.3455020
  35.5992762   6.7441956  38.1132735  34.6770521   6.3452905  36.9809057
  42.6743395   2.6172627  38.3454804  42.8679285   3.5218437  38.5914079
  42.5744013   2.1580046  39.1793389  37.7358503   2.7679369  43.9195685
  37.5844010   2.5389921  43.0025769  37.7263183   3.7249971  43.9327030
  34.5043840   0.3411282  38.9041951  35.4335900   0.4922442  38.7310919
  34.0834870   0.4295303  38.0490598  33.3032172   4.3661947  36.6740489
  33.1643257   3.9980731  37.5466427  32.5146768   4.8809586  36.5024447
  33.8980324   9.4671043  28.0166026  34.0732079   8.9959086  28.8311648
  33.2113112  10.0936809  28.2447286  34.8537387   3.7443549  34.0629327
  34.5187219   3.7044319  34.9586977  34.3541332   3.0788265  33.5899737
  28.8281631  -0.8488821  39.5881908  28.6901429  -1.5808582  40.1893447
  29.7386554  -0.9379921  39.3066096  31.4563931  -1.1368861  39.0765588
  32.1663550  -1.7775669  39.0352206  31.4133240  -0.8855967  39.9991768
  39.4450710   5.7998492  41.9972167  39.3863256   5.1157712  41.3302750
  39.8470228   6.5417482  41.5452793  28.4641409  12.6160406  34.7905886
  28.7038007  13.2478930  35.4684904  27.6210605  12.2648446  35.0771245
  39.4468117   3.7638076  40.2286147  38.5594896   3.4263998  40.3512545
  40.0166668   3.0321107  40.4654912  32.9769271   8.4239528  37.1947390
  32.9039442   9.2294500  37.7066694  32.5346664   8.6231494  36.3695411
  32.7659050   7.6611298  30.7050211  31.9826572   8.2032978  30.7988436
  33.4651796   8.1785278  31.1044452  43.9285458  -0.8253707  34.9902708
  43.9175334   0.0571009  34.6196641  43.0602837  -1.1782156  34.7957245
  35.4367954   8.3226362  39.3505548  36.1495926   8.9573827  39.2781450
  34.9457983   8.4190228  38.5345550  30.4879868   6.0720806  40.1711119
  31.1889327   6.7057289  40.3240513  30.0174983   6.4135537  39.4106758
  38.2881154  -1.3734587  37.9963670  37.6352604  -1.1258679  37.3416122
  38.6661534  -2.1870449  37.6626147  35.2488328   8.6625106  32.0991840
  35.4310722   7.8446762  32.5619592  36.0721314   8.8792799  31.6616730
  35.5830493   7.5893292  29.3606888  36.1118260   7.0785746  28.7477050
  35.8458713   7.2735822  30.2252421  34.3368727  -0.6314776  44.4829707
  33.6609364  -0.7320646  45.1532082  35.1596361  -0.7875562  44.9465704
  26.0847586   5.6057161  37.1042222  26.6701023   4.8600849  37.2370126
  25.8872424   5.9161118  37.9878886  28.9386241   8.6408408  32.1204664
  28.2696616   9.1254536  31.6368704  28.7999111   8.8877629  33.0348043
  33.0791510  10.6752152  38.7187323  33.6309818  10.8383773  39.4836408
  33.4197703  11.2656590  38.0467347  37.9302384   5.5013409  44.5735977
  38.4742288   6.1143367  44.0790932  37.3489229   6.0592988  45.0902990
  36.2159897   8.6234127  35.7051005  36.0911036   7.8223867  35.1961950
  36.8738988   9.1180321  35.2164975  38.2794805   6.4243147  37.3330555
  37.3325141   6.3048499  37.2608882  38.6277578   5.5365645  37.4156816
  35.2841239   6.2195864  33.5334907  35.1366201   5.2912571  33.7142477
  36.1094732   6.2415954  33.0491982  38.8875360   7.0424422  34.6199780
  39.8121908   6.8367284  34.4824231  38.7190664   6.7940823  35.5289121
  38.6770677   7.5610090  29.9761871  38.8507554   6.9956512  29.2235724
  39.1699568   8.3610985  29.7941361  44.5310068   0.3246513  31.5952171
  44.9741214  -0.4246162  31.1971294  43.6536578   0.3156649  31.2125903
  39.6645849   6.8776854  27.0758770  40.3596754   7.4983547  27.2946084
  40.0068999   6.0272205  27.3511147  41.5637272   4.3276560  28.6046100
  42.0888596   4.6663832  27.8795420  41.4759625   3.3923575  28.4209235
  33.2257321   8.2410633  40.7335977  33.5344447   7.9959780  41.6058677
  34.0232803   8.4457272  40.2454847  33.2477933  10.3948543  32.9641354
  32.8082923   9.9024922  33.6574210  33.9986050   9.8521511  32.7233429
  25.7270272   6.5860084  32.9665982  26.5528292   6.2863856  32.5864625
  25.3764324   5.8167706  33.4155770  30.6951805   5.9386552  35.0363655
  30.0731814   5.2757257  34.7365883  31.3656672   5.9647684  34.3537303
  41.2531178   4.9609463  43.9097298  40.4626722   4.9433602  43.3701798
  41.0164533   5.4997757  44.6646335  41.3729053   1.8101930  41.2230027
  41.4227058   1.6451937  42.1645550  41.2642977   0.9429189  40.8327908
  38.6632816  -2.2067142  42.5389334  39.5642679  -2.3460677  42.2473331
  38.7380790  -2.0412687  43.4787511  42.8747250   4.2298871  41.4672048
  42.5832059   4.5928852  42.3035509  42.2619382   3.5165879  41.2885380
  44.0742933   1.7951751  33.9874619  44.9089824   2.2341555  34.1512179
  44.2102061   1.3190404  33.1682864  41.1234438  -0.6468514  39.9352106
  41.5988560  -0.4540868  39.1270958  40.2000004  -0.5909328  39.6895490
  39.8236107  -3.7702754  38.1680412  40.7753530  -3.6704656  38.1892636
  39.6539558  -4.5624486  38.6778496  37.8450487  -6.6847171  38.3539813
  37.2500419  -6.4042158  37.6586302  37.5600184  -6.1953270  39.1256554
  42.3024185  -0.5496634  37.2822712  42.2700505  -1.4880634  37.4682395
  42.9124809  -0.4712598  36.5488537  42.4518674  -3.7585591  37.3280995
  41.9357722  -4.5427134  37.1410924  43.3358622  -4.0866874  37.4927514
  48.1200735   0.5119372  36.4228748  48.8504124   0.2504661  36.9836452
  47.5107681  -0.2251906  36.4630816  46.2016032  -1.3472765  37.0203200
  45.4749196  -1.4816800  36.4119691  45.7863319  -1.0395936  37.8259918
  34.0246209   2.3717165  44.7850573  34.9449218   2.5495764  44.9790619
  33.9895792   1.4273210  44.6330272  27.0208281   0.2818199  37.4273354
  27.2394291   1.2135307  37.4461388  27.4334055  -0.0773826  38.2128158
  31.7567417  -0.7151456  45.6341164  31.2734498   0.0848904  45.8405053
  31.8428356  -0.7043511  44.6808608  27.6840754   3.1753079  37.6709598
  28.6384008   3.1437021  37.6039530  27.4853278   2.7143702  38.4859824
  28.2740136   1.7454195  40.2380396  29.0933025   2.2398273  40.2615233
  28.5476944   0.8286163  40.2097963  43.8193827  -5.1260913  34.3736631
  44.4138318  -5.3665177  33.6629939  43.8920411  -5.8453782  35.0010168
  26.0390983   8.7172698  34.6879796  25.9045451   7.9573099  34.1217794
  25.6223045   9.4413598  34.2208585  46.1264900  -1.8194712  33.1480052
  45.5664458  -1.7501523  33.9211614  45.5208403  -1.9953727  32.4279549
  29.1960109   9.6142015  34.8998239  29.0792493  10.5587448  34.7976929
  28.3752555   9.3115577  35.2884038  36.0528443   3.1473176  46.4364733
  36.9219602   3.3213828  46.0751368  35.5735194   3.9667593  46.3140463
  30.2214623  10.2670277  38.1154167  31.1241870  10.2993887  38.4320662
  29.9951993   9.3370728  38.1300503  31.9768225   9.0201264  34.7764246
  31.0263856   9.0203125  34.6628618  32.2800711   8.2733998  34.2600280
  47.7120918  14.8561802  35.8410008  48.3499328  14.7368549  35.1373348
  47.5941761  15.8042646  35.8997960  44.5210625  14.8089230  35.7771533
  44.1829136  14.6930295  34.8892068  45.3900393  14.4080395  35.7572539
  40.3797440  16.6624707  31.7668424  39.8162305  16.5714643  30.9984712
  40.2649835  15.8424611  32.2470916  45.0030408  15.9624082  41.7357738
  44.9919048  15.5676880  40.8638242  45.1651047  15.2290154  42.3291510
  37.9261872  18.1575898  34.6052644  38.7183164  17.8166723  34.1898944
  38.1658522  18.2670873  35.5254798  45.9596999  20.3295674  27.0782889
  45.3084979  20.9149755  26.6916902  46.7541362  20.8601869  27.1377926
  39.8852626  17.4184811  27.4770023  40.6583502  16.8713798  27.3382899
  40.2378025  18.2829061  27.6884484  41.7237669  18.7461194  40.6836922
  41.4327535  19.6506824  40.5683589  42.3594653  18.7877721  41.3980992
  42.6493876  16.1238042  37.2738282  43.2457448  15.8994065  36.5595245
  42.7068847  15.3822788  37.8763730  42.2218904  13.5777477  25.1088473
  42.4744425  13.0558999  24.3471936  41.2843463  13.4143623  25.2115157
  47.2662187  12.5813256  32.9163216  48.0525276  12.1632679  32.5653633
  47.5300891  13.4859348  33.0844865  47.4372264  18.0186106  27.6151873
  46.8018097  18.0920733  28.3272778  47.1069671  18.6079705  26.9370952
  52.6670614  12.5188489  33.8196195  53.3995786  11.9487706  34.0534024
  51.9109970  12.1310089  34.2602700  41.9415193  15.4805583  27.3112848
  41.8251451  14.8050487  27.9793932  42.0517453  14.9937957  26.4945001
  44.2846734  14.9415731  31.0159537  43.9204941  14.4146352  31.7272459
  45.1413850  14.5514200  30.8426023  50.1896034   6.2310063  38.2790803
  49.8579359   7.1005474  38.0552018  49.5941648   5.9146347  38.9584834
  43.9252221   9.9705630  26.0120886  44.0926623  10.8385867  26.3791357
  43.7349390  10.1332912  25.0882175  46.6827554  18.4322609  37.6786716
  46.3828277  19.3347648  37.5702523  46.3378613  18.1654792  38.5307869
  40.1340035  14.8836406  33.7123420  39.2090532  14.7512620  33.9201112
  40.3824449  15.6630625  34.2093363  50.0824698  10.9505149  35.3584153
  49.1741575  10.8820558  35.0642914  50.0312293  11.4277094  36.1865979
  43.9041442  12.4263288  26.9967552  43.7841067  12.8720339  27.8353033
  43.2094030  12.7748605  26.4381091  37.4948846  14.5269680  34.5467210
  37.6241228  14.7804158  35.4606621  36.8146298  15.1197388  34.2271865
  41.6648334  25.1966929  30.6457684  41.5872363  26.1474755  30.7246164
  41.0609977  24.8512802  31.3032610  44.1565563  12.3694795  43.3019051
  43.3798898  12.9288715  43.2921915  44.7956126  12.8551578  43.8233921
  51.9486344   9.1521588  37.1362027  51.3060724   9.4454121  36.4901822
  51.4441273   9.0374508  37.9415224  49.6026508  12.8984761  27.8247887
  50.5144364  13.1312148  27.6495584  49.0936155  13.4821805  27.2622965
  42.4111936  15.1780248  42.8637018  43.1526620  15.7165292  42.5871841
  41.7048921  15.8046537  43.0208569  47.8867275  17.3209389  41.4609179
  48.2950631  16.8791799  40.7163811  47.1644537  16.7462016  41.7143372
  44.2398345  12.2581996  38.8342736  45.0859541  12.6821409  38.9777385
  44.1796983  11.6015620  39.5281299  48.2096090  17.8810579  35.2161468
  47.5804952  18.0456293  34.5137536  47.8221752  18.2952189  35.9872432
  52.0885322  18.8165017  32.5705832  51.4036360  19.1963919  32.0202865
  52.1729171  19.4260344  33.3037780  47.3897791   9.9186364  40.4923910
  47.1458723  10.6728424  39.9558185  47.6657721  10.2971711  41.3271157
  49.3436254  16.4624976  39.1701175  49.5553149  17.1056736  38.4935556
  49.2966002  15.6287293  38.7023105  46.9462482   9.0742797  36.0737747
  46.0846962   9.3724050  36.3654485  46.9724917   9.2913196  35.1418780
  43.7624052  17.6184987  32.4811553  44.2262397  17.8972690  31.6916176
  43.4980850  16.7168432  32.2984644  40.6548133  17.1656469  35.4191316
  41.2249490  17.5943737  34.7808801  41.2456245  16.8839054  36.1175502
  42.6992938  13.7408140  29.2901118  43.4016981  14.1929183  29.7575045
  42.3673566  13.0991959  29.9181011  41.1473299  12.3319896  43.6652328
  40.5171960  13.0136177  43.8987724  41.0409387  12.2202978  42.7205466
  36.4418272  11.9991692  34.5918252  35.6517326  12.2549221  34.1158362
  36.9329519  12.8140030  34.6970292  50.4582081  19.3396932  37.3423533
  51.2799525  18.9377119  37.0606214  50.4544484  19.2365166  38.2939648
  38.3933017  12.3636272  31.5501729  37.5964181  12.4754966  32.0685224
  38.1658610  12.7022924  30.6842619  44.2238685  18.8880975  39.4984243
  44.2883117  19.3501382  40.3342415  43.5149609  18.2578340  39.6266553
  34.7255975  12.2522183  37.0233243  34.9764013  13.1369193  37.2890819
  35.2615523  12.0726784  36.2508334  58.5488075  15.6835680  33.6908504
  57.7951783  15.1143078  33.5352509  58.6835616  15.6498345  34.6379139
  43.9386703  20.5549082  29.3663223  43.8032377  21.4000618  29.7948071
  44.4796515  20.7568360  28.6029157  40.4254042   6.6340662  46.0277579
  40.0320988   6.0806861  46.7025223  41.2420183   6.9451241  46.4184096
  37.3916100  18.0724520  29.9391149  37.9040621  18.8667771  30.0896713
  38.0438813  17.3750811  29.8724750  39.2010985  21.1890277  32.0213902
  39.3777613  22.1108241  31.8334886  39.9967818  20.8748696  32.4508282
  43.3422003   8.0498541  43.6197835  44.0831717   8.6505695  43.5402298
  43.5739926   7.3076179  43.0615878  38.4863341  13.2354909  41.8976065
  38.3716856  12.3340166  42.1983164  37.6307859  13.4818605  41.5460881
  45.5655179  21.1772649  43.4963566  45.1219033  20.3909028  43.1784470
  46.2272393  21.3651799  42.8307456  40.3242300  22.7068451  38.0224244
  40.8749725  22.5785514  37.2501238  39.4853776  23.0063340  37.6719137
  47.6636417  21.4575449  41.5244967  47.6454892  22.2784330  41.0325236
  48.5856337  21.3329524  41.7495108  44.1209471  18.9719578  42.3668475
  44.6537808  18.2107867  42.1367783  43.5923552  18.6793230  43.1092630
  47.2879166   4.0779644  37.8962117  46.9443436   4.9681286  37.8201228
  47.6558129   3.8881302  37.0331702  35.3565017  16.4013175  30.7150719
  36.1940239  16.8110183  30.4984427  35.5343284  15.4612617  30.6850913
  47.2529449  14.0688255  26.4034552  46.7376072  14.8392860  26.6422939
  46.9806757  13.3953392  27.0267613  44.8376560   8.9137956  31.4619790
  43.9818156   8.5244807  31.2825429  45.2503512   8.9929917  30.6019576
  46.3675707   6.4484299  35.8611350  45.8640502   6.4114435  35.0479155
  46.6606313   7.3577042  35.9208007  42.6118592   6.5323029  34.8677532
  43.4771589   6.3365838  34.5083421  42.6796101   6.3033381  35.7946889
  52.2263723  16.8220610  28.3387726  51.4493166  16.4831770  27.8942888
  52.9055204  16.8273233  27.6642691  47.0415752  11.9415348  28.2294333
  46.7365888  12.2561497  29.0804476  47.9946194  12.0196767  28.2721666
  45.4862184  18.1005571  29.8787287  44.9583545  17.3658330  29.5660525
  44.9849687  18.8780247  29.6327256  50.4655030  16.2954591  34.9954333
  49.8078704  16.9853853  35.0834462  51.2695429  16.6851023  35.3388320
  40.2180912   8.7625237  32.2393899  40.7924663   8.5400419  31.5067092
  40.8051894   8.8313932  32.9922500  49.2760489  14.6498964  33.0458275
  49.7892370  15.2828956  33.5479985  49.9261713  14.0500160  32.6801635
  40.5450499  10.7929698  26.2589784  39.7087811  11.1304385  26.5799059
  40.4055268  10.6578678  25.3216921  42.5203579   5.6366486  30.9668968
  41.8667992   5.3215503  30.3425583  42.4784053   5.0142226  31.6928791
  43.6314784  15.9185781  22.8822260  42.7241846  15.6875035  23.0813409
  44.1285816  15.1223400  23.0696242  46.5382863  24.6283288  25.8018946
  45.8644562  24.9314985  26.4103904  46.9248685  25.4312369  25.4524403
  45.7541320  12.1248420  35.2916616  44.8363881  12.3463367  35.1338304
  46.1701463  12.1994730  34.4328323  46.5376367  13.5239835  30.4219296
  47.2848186  14.0361232  30.1126418  46.8067957  13.2023888  31.2823690
  44.8103018  16.0198376  27.4046250  43.9014237  15.7357409  27.5018720
  44.8398101  16.4397455  26.5449557  50.0422285  19.6304965  31.1737418
  49.5884612  18.7895875  31.2302608  49.4116252  20.2666364  31.5112198
  48.9855204  10.5596952  32.4038085  48.2477961  10.0474338  32.7348328
  49.2381978  10.1197333  31.5921362  48.4855224  21.4681462  32.1087236
  48.7778199  22.0286519  31.3899602  48.9953845  21.7610023  32.8640395
  49.0866832   3.3373204  32.9979855  49.3925709   2.4770567  32.7105770
  49.8119437   3.9290824  32.7978849  35.3791188  13.7403890  31.3861453
  35.1815588  13.1473251  30.6612519  34.8237852  13.4356100  32.1037391
  43.3587912  13.6326997  33.5056046  43.4136521  12.6800833  33.4298522
  42.5479114  13.7886436  33.9897344  44.5079105  17.5607120  24.7434329
  44.0698535  16.8442979  24.2839966  45.2489546  17.7883234  24.1819420
  41.2980271  12.2504056  31.2646425  40.4848137  12.5498227  31.6711617
  41.7939266  11.8559745  31.9820907  43.4488849  22.2461813  33.1980689
  43.4065028  22.4722660  32.2689221  44.3651548  22.0125188  33.3466490
  46.8954483  12.7145881  40.0961318  47.2503871  12.9417354  40.9555784
  47.5426614  13.0464258  39.4738574  52.6252220  15.8364317  30.8010647
  52.4870119  16.0265913  29.8731837  52.2688439  16.5983700  31.2578699
  40.7894346   9.8222412  36.8807659  41.4293726   9.6811171  36.1830623
  39.9571877   9.5356925  36.5046261  52.6521600  17.9040844  35.8121919
  53.0858106  17.8116133  36.6604973  53.3653180  17.8798344  35.1741935
  41.5654650  19.1224842  32.9942652  42.3595249  18.6275162  32.7925227
  40.8546343  18.5942705  32.6310358  46.3849495  21.5042938  37.3455020
  46.4386517  22.0733874  38.1132735  45.5164276  21.6744823  36.9809057
  37.8737414  13.2667924  29.0702405  36.9435002  13.2052379  29.2872367
  37.9694886  12.7443877  28.2739046  37.7922963   9.7922737  31.6580646
  38.0529780  10.7068070  31.5489807  38.6140135   9.3247179  31.8077259
  39.2647888  11.2060494  38.8279471  39.9370941  10.9977856  38.1792120
  38.4377675  11.0082580  38.3884703  53.5137149  17.9464544  38.3454804
  53.7073039  18.8510355  38.5914079  53.4137767  17.4871963  39.1793389
  45.1673460   7.8322435  40.8445132  44.5201375   8.5312385  40.7509608
  45.9374475   8.2658579  41.2121380  48.5752258  18.0971287  43.9195685
  48.4237764  17.8681839  43.0025769  48.5656937  19.0541889  43.9327030
  45.3437594  15.6703200  38.9041951  46.2729654  15.8214359  38.7310919
  44.9228624  15.7587221  38.0490598  44.1425926  19.6953864  36.6740489
  44.0037012  19.3272649  37.5466427  43.3540522  20.2101504  36.5024447
  44.7374078  24.7962961  28.0166026  44.9125834  24.3251004  28.8311648
  44.0506866  25.4228727  28.2447286  45.6931141  19.0735467  34.0629327
  45.3580974  19.0336237  34.9586977  45.1935087  18.4080183  33.5899737
  39.6675385  14.4803097  39.5881908  39.5295183  13.7483336  40.1893447
  40.5780309  14.3911997  39.3066096  48.6290333  16.4191501  24.3366386
  48.0119504  15.6938329  24.2399439  48.1606821  17.1800862  23.9933461
  42.2957686  14.1923056  39.0765588  43.0057304  13.5516249  39.0352206
  42.2526994  14.4435951  39.9991768  50.2844465  21.1290410  41.9972167
  50.2257011  20.4449630  41.3302750  50.6863983  21.8709400  41.5452793
  41.0086620  11.1788274  40.8961227  40.4723977  10.7279013  41.5482823
  40.4203328  11.3134183  40.1531691  39.3035163  27.9452323  34.7905886
  39.5431762  28.5770848  35.4684904  38.4604360  27.5940364  35.0771245
  50.2861872  19.0929994  40.2286147  49.3988651  18.7555915  40.3512545
  50.8560423  18.3613025  40.4654912  31.9391019  15.4254085  33.5529198
  32.6262059  15.1115815  32.9650213  31.7839148  16.3295450  33.2796449
  36.7425741  10.3144282  37.9814222  36.6583930   9.7069951  37.2464632
  35.9208448  10.8053300  37.9823718  43.8163025  23.7531446  37.1947390
  43.7433197  24.5586417  37.7066694  43.3740418  23.9523412  36.3695411
  43.6052805  22.9903216  30.7050211  42.8220327  23.5324896  30.7988436
  44.3045550  23.5077196  31.1044452  46.9149455   8.7997845  33.3484417
  47.4118155   8.0467808  33.0285487  46.1436436   8.8362162  32.7827626
  54.7679212  14.5038211  34.9902708  54.7569089  15.3862926  34.6196641
  53.8996592  14.1509762  34.7957245  46.2761709  23.6518280  39.3505548
  46.9889681  24.2865745  39.2781450  45.7851737  23.7482146  38.5345550
  47.9979236  17.5569533  30.9222840  47.0635514  17.6770995  30.7527544
  48.1755904  16.6541999  30.6582850  43.4984424  10.9415228  33.0756101
  43.1282211  10.3886269  33.7637007  43.9943516  10.3373362  32.5231101
  51.3851787  13.3986852  31.4572874  51.8512239  14.2314844  31.3833177
  51.8359288  12.9331833  32.1618133  41.3273622  21.4012723  40.1711119
  42.0283082  22.0349206  40.3240513  40.8568737  21.7427455  39.4106758
  49.4528018  19.7430673  28.4559026  49.7287862  19.6287268  29.3652900
  48.5832517  19.3448158  28.4171199  49.3568450   5.7667439  35.4963776
  48.4431530   5.9971666  35.6645982  49.7861551   5.8505883  36.3477808
  49.1274908  13.9557331  37.9963670  48.4746359  14.2033238  37.3416122
  49.5055288  13.1421469  37.6626147  46.0882082  23.9917024  32.0991840
  46.2704477  23.1738680  32.5619592  46.9115068  24.2084716  31.6616730
  46.4224248  22.9185209  29.3606888  46.9512014  22.4077664  28.7477050
  46.6852467  22.6027739  30.2252421  45.1762481  14.6977142  44.4829707
  44.5003118  14.5971271  45.1532082  45.9990115  14.5416356  44.9465704
  36.9241340  20.9349078  37.1042222  37.5094777  20.1892766  37.2370126
  36.7266179  21.2453035  37.9878886  39.7779996  23.9700326  32.1204664
  39.1090371  24.4546453  31.6368704  39.6392865  24.2169546  33.0348043
  31.5158995  13.5054679  35.8246665  31.5543095  12.9718269  36.6183783
  31.0099288  12.9789884  35.2057642  43.9185264  26.0044069  38.7187323
  44.4703572  26.1675691  39.4836408  44.2591458  26.5948507  38.0467347
  38.8949757   8.3519219  39.3209207  38.9591084   9.2134050  38.9086605
  38.8316878   7.7393221  38.5881566  38.3702030  10.4242352  42.9682242
  38.9974069  10.0419429  43.5819766  37.5129949  10.2056554  43.3337934
  48.7696138  20.8305327  44.5735977  49.3136042  21.4435285  44.0790932
  48.1882983  21.3884905  45.0902990  35.1467573  12.2318781  28.9000596
  35.4421014  11.3229459  28.8467650  34.2455608  12.2106520  28.5781599
  47.0553651  23.9526045  35.7051005  46.9304791  23.1515785  35.1961950
  47.7132743  24.4472238  35.2164975  38.6761820  10.3074777  34.8828145
  37.9548405  10.9210745  34.7435618  39.4655075  10.8432542  34.8044791
  49.1188560  21.7535065  37.3330555  48.1718895  21.6340416  37.2608882
  49.4671333  20.8657563  37.4156816  41.4788133   7.6429204  41.1568797
  42.0022535   7.8891500  41.9195106  41.2600466   8.4749239  40.7371934
  36.8755414   9.9132878  29.0239922  36.5468120   9.0330257  28.8415027
  37.2294785   9.8580547  29.9116311  46.1234993  21.5487781  33.5334907
  45.9759956  20.6204489  33.7142477  46.9488487  21.5707872  33.0491982
  39.9897237  10.2005848  29.3915399  40.3293310  10.7291770  28.6694008
  40.4369358  10.5386254  30.1673966  49.7269115  22.3716340  34.6199780
  50.6515662  22.1659201  34.4824231  49.5584418  22.1232741  35.5289121
  42.6840678   8.5842899  38.8418467  42.3437499   7.7850712  39.2439147
  41.9779685   8.8844610  38.2695300  43.3357150   5.6692211  37.2945790
  44.1583219   5.1952690  37.1724681  43.5795214   6.4482695  37.7944477
  41.9765385   8.6980470  27.5908692  42.6973747   9.0761723  27.0872409
  41.3530689   9.4169347  27.6943670  46.1196507   9.4025619  28.5267024
  46.3360122  10.2850257  28.2255852  45.6390575   9.0111832  27.7972666
  40.8595729  12.3611332  35.1037769  40.7140310  12.6751635  35.9962050
  40.3820932  12.9796232  34.5508668  42.7192112   9.3513880  35.1518658
  42.7053680   8.4554973  34.8150956  43.4364540   9.3584544  35.7856945
  44.5718242   9.7851220  37.1971786  44.3136020  10.7068291  37.1956116
  44.0403283   9.3881655  37.8872250  49.5164431  22.8902007  29.9761871
  49.6901309  22.3248430  29.2235724  50.0093322  23.6902902  29.7941361
  35.3341391  14.9016676  38.0425430  34.7894859  15.6776484  38.1745704
  36.2120741  15.2487481  37.8844552  42.1229008   8.2328260  30.4206229
  42.2444919   7.3044907  30.6197116  41.8331050   8.2466946  29.5084544
  44.9920198   5.9183171  33.5572948  45.0141895   5.9822504  32.6024928
  45.4088257   5.0787679  33.7513455  55.3703822  15.6538430  31.5952171
  55.8134968  14.9045756  31.1971294  54.4930333  15.6448567  31.2125903
  50.5039604  22.2068772  27.0758770  51.1990508  22.8275464  27.2946084
  50.8462754  21.3564123  27.3511147  36.1207413  14.0286573  40.9355587
  35.3789149  14.1769208  41.5220217  35.8000157  14.2894838  40.0722336
  52.4031027  19.6568477  28.6046100  52.9282351  19.9955750  27.8795420
  52.3153379  18.7215493  28.4209235  44.0651075  23.5702551  40.7335977
  44.3738202  23.3251698  41.6058677  44.8626558  23.7749189  40.2454847
  44.0871688  25.7240461  32.9641354  43.6476678  25.2316839  33.6574210
  44.8379804  25.1813428  32.7233429  36.5664027  21.9152001  32.9665982
  37.3922046  21.6155773  32.5864625  36.2158079  21.1459624  33.4155770
  41.5345560  21.2678470  35.0363655  40.9125569  20.6049175  34.7365883
  42.2050427  21.2939602  34.3537303  34.7672632  19.8338328  33.9254915
  33.9304540  19.4060502  33.7438916  34.7396277  20.0270771  34.8625706
  41.6070087   9.7460258  44.6296161  41.6558243  10.6222381  44.2473931
  42.1492601   9.2037651  44.0567804  52.0924933  20.2901381  43.9097298
  51.3020477  20.2725520  43.3701798  51.8558287  20.8289675  44.6646335
  52.2122808  17.1393847  41.2230027  52.2620813  16.9743855  42.1645550
  52.1036731  16.2721106  40.8327908  41.0959067  19.8182393  28.5122116
  41.2447187  20.5017857  27.8588788  41.9025510  19.7987483  29.0271571
  49.5026570  13.1224775  42.5389334  50.4036433  12.9831240  42.2473331
  49.5774545  13.2879230  43.4787511  43.8369376  10.4991630  41.3842520
  42.9672685  10.7925196  41.1125108  44.0728856  11.0832075  42.1049784
  53.7141005  19.5590789  41.4672048  53.4225813  19.9220769  42.3035509
  53.1013136  18.8457797  41.2885380  54.9136687  17.1243669  33.9874619
  55.7483578  17.5633473  34.1512179  55.0495816  16.6482322  33.1682864
  51.9628193  14.6823403  39.9352106  52.4382315  14.8751050  39.1270958
  51.0393758  14.7382589  39.6895490  38.8511700  15.8447571  29.5183185
  38.6057742  14.9409901  29.7163395  39.0207614  15.8464721  28.5762663
  46.5408409   6.7171247  38.9007940  47.0590353   7.4532274  38.5754429
  46.1863542   7.0235240  39.7354699  38.1207347  11.5775928  27.0169346
  37.4276592  11.6520283  26.3609382  37.8759099  10.8136272  27.5390863
  46.7921004   3.1371530  34.4208837  47.0722757   2.4694719  35.0469263
  47.5771611   3.3300625  33.9083501  44.5954472  22.3130523  25.9833863
  44.0228439  22.9320711  25.5304335  45.1687266  22.8629885  26.5173785
  50.6629862  11.5589164  38.1680412  51.6147285  11.6587261  38.1892636
  50.4933312  10.7667432  38.6778496  48.6844241   8.6444747  38.3539813
  48.0894174   8.9249760  37.6586302  48.3993938   9.1338648  39.1256554
  47.8151732  22.5967674  27.1142445  48.7482405  22.5313235  27.3175321
  47.7274945  23.4323940  26.6556978  50.4439749  21.9133544  24.0746393
  50.3653380  21.5793408  24.9682151  51.2649415  22.4055312  24.0737865
  53.1417940  14.7795283  37.2822712  53.1094260  13.8411284  37.4682395
  53.7518563  14.8579320  36.5488537  44.9801271  13.6491336  23.3249916
  45.9260375  13.5197544  23.3938334  44.6015516  12.9105998  23.8019344
  53.2912428  11.5706327  37.3280995  52.7751477  10.7864783  37.1410924
  54.1752377  11.2425043  37.4927514  50.9523155   5.3147342  33.2876807
  50.7547976   5.0062430  34.1720139  51.5622861   6.0408981  33.4174737
  58.9594490  15.8411290  36.4228748  59.6897878  15.5796578  36.9836452
  58.3501435  15.1040012  36.4630816  57.0409787  13.9819153  37.0203200
  56.3142950  13.8475118  36.4119691  56.6257074  14.2895981  37.8259918
  44.8639963  17.7009082  44.7850573  45.7842973  17.8787681  44.9790619
  44.8289546  16.7565128  44.6330272  34.0822128  12.8947676  33.7103847
  33.7624913  12.0412984  33.4178221  33.5355556  13.1096254  34.4661815
  37.8602036  15.6110117  37.4273354  38.0788045  16.5427225  37.4461388
  38.2727810  15.2518091  38.2128158  44.7806254   6.1178202  29.4149042
  43.9706982   5.7725287  29.7904288  45.4690670   5.8085746  30.0036654
  46.7096802   5.1956249  31.0373339  47.2627840   5.6151703  31.6963362
  46.9466888   4.2691997  31.0796295  42.7329901  11.1843323  46.8176103
  42.6326628  12.1337680  46.7488194  42.5151443  10.8561562  45.9452173
  33.9510388  16.5150588  35.6796969  33.2573860  16.1004540  35.1666923
  34.6983379  16.5571124  35.0830388  50.0875609   7.3056774  30.5452003
  49.5074278   7.9641578  30.1630055  49.8211542   6.4834119  30.1339421
  48.5379175   6.7061832  32.7473323  49.0378954   6.8178367  31.9387642
  49.1814783   6.4022885  33.3874132  42.5961171  14.6140462  45.6341164
  42.1128253  15.4140822  45.8405053  42.6822110  14.6248406  44.6808608
  35.8647131  16.4468841  33.5562984  35.8417819  16.5456529  32.6044867
  36.1747767  17.2933992  33.8780150  38.5234509  18.5044996  37.6709598
  39.4777762  18.4728939  37.6039530  38.3247032  18.0435620  38.4859824
  39.1133891  17.0746112  40.2380396  39.9326780  17.5690191  40.2615233
  39.3870698  16.1578081  40.2097963  48.8700487   9.4656865  29.6008351
  47.9826342   9.7506515  29.3828546  49.2854476   9.3050628  28.7535628
  52.2215023   9.4903386  33.3162691  52.9975413   9.9799838  33.5887307
  51.4963157   9.9161440  33.7734560  54.6587582  10.2031005  34.3736631
  55.2532072   9.9626741  33.6629939  54.7314165   9.4838135  35.0010168
  36.8784737  24.0464616  34.6879796  36.7439205  23.2865017  34.1217794
  36.4616800  24.7705516  34.2208585  48.0143700  19.2301539  23.6956371
  48.7179550  19.4351542  24.3114027  47.2906349  19.7978301  23.9605455
  48.8441511  14.9811401  29.8158642  48.7876712  15.4379952  28.9766274
  49.3969853  14.2202085  29.6381484  52.6546317  10.7701132  30.6408761
  52.3983251  10.3697768  31.4716969  52.0299185  11.4844926  30.5158900
  56.9658654  13.5097206  33.1480052  56.4058212  13.5790395  33.9211614
  56.3602158  13.3338190  32.4279549  40.0353863  24.9433933  34.8998239
  39.9186247  25.8879365  34.7976929  39.2146309  24.6407494  35.2884038
  49.9230398  19.6684069  25.7454831  50.7576002  19.2365267  25.5632306
  49.7614741  19.4966082  26.6731726  49.5776290  16.1716182  27.1111171
  49.5225094  16.0060453  26.1699615  48.9522345  16.8792215  27.2673360
  34.3668805  11.4084246  40.9372593  35.0127669  10.8983200  41.4259818
  34.1585956  12.1452928  41.5116018  46.8922197  18.4765094  46.4364733
  47.7613357  18.6505746  46.0751368  46.4128949  19.2959511  46.3140463
  42.8872415   5.6724291  26.6896489  42.8751085   6.6166131  26.8464760
  43.7795837   5.4894436  26.3955950  41.0608377  25.5962195  38.1154167
  41.9635624  25.6285805  38.4320662  40.8345747  24.6662646  38.1300503
  42.8161979  24.3493181  34.7764246  41.8657610  24.3495043  34.6628618
  43.1194466  23.6025916  34.2600280  46.7024535   2.2667068  30.9442426
  45.9356931   1.7125554  31.0899108  47.1135240   2.3388936  31.8056578
  38.7066296   8.5551863  45.0347607  39.5697757   8.1988668  45.2450932
  38.1331707   8.2165758  45.7223011  58.5514673  30.1853720  35.8410008
  59.1893083  30.0660467  35.1373348  58.4335516  31.1334564  35.8997960
  55.3604379  30.1381148  35.7771533  55.0222891  30.0222212  34.8892068
  56.2294147  29.7372313  35.7572539  51.2191195  31.9916624  31.7668424
  50.6556060  31.9006561  30.9984712  51.1043590  31.1716529  32.2470916
  55.8424162  31.2915999  41.7357738  55.8312803  30.8968798  40.8638242
  56.0044802  30.5582072  42.3291510  48.7655627  33.4867816  34.6052644
  49.5576919  33.1458640  34.1898944  49.0052277  33.5962791  35.5254798
  56.7990754  35.6587592  27.0782889  56.1478733  36.2441672  26.6916902
  57.5935116  36.1893787  27.1377926  50.7246381  32.7476729  27.4770023
  51.4977257  32.2005716  27.3382899  51.0771780  33.6120978  27.6884484
  52.5631423  34.0753111  40.6836922  52.2721289  34.9798742  40.5683589
  53.1988408  34.1169639  41.3980992  53.4887630  31.4529960  37.2738282
  54.0851202  31.2285982  36.5595245  53.5462602  30.7114705  37.8763730
  53.0612659  28.9069395  25.1088473  53.3138179  28.3850916  24.3471936
  52.1237218  28.7435541  25.2115157  58.1055941  27.9105174  32.9163216
  58.8919031  27.4924597  32.5653633  58.3694646  28.8151266  33.0844865
  58.2766019  33.3478024  27.6151873  57.6411852  33.4212650  28.3272778
  57.9463425  33.9371623  26.9370952  63.5064368  27.8480407  33.8196195
  64.2389540  27.2779624  34.0534024  62.7503724  27.4602007  34.2602700
  52.7808947  30.8097501  27.3112848  52.6645205  30.1342404  27.9793932
  52.8911207  30.3229875  26.4945001  55.1240488  30.2707648  31.0159537
  54.7598695  29.7438269  31.7272459  55.9807604  29.8806117  30.8426023
  61.0289789  21.5601981  38.2790803  60.6973114  22.4297392  38.0552018
  60.4335402  21.2438265  38.9584834  54.7645975  25.2997548  26.0120886
  54.9320378  26.1677784  26.3791357  54.5743144  25.4624830  25.0882175
  57.5221308  33.7614527  37.6786716  57.2222031  34.6639566  37.5702523
  57.1772368  33.4946710  38.5307869  50.9733790  30.2128324  33.7123420
  50.0484286  30.0804538  33.9201112  51.2218203  30.9922543  34.2093363
  60.9218452  26.2797067  35.3584153  60.0135329  26.2112475  35.0642914
  60.8706048  26.7569012  36.1865979  54.7435196  27.7555205  26.9967552
  54.6234821  28.2012256  27.8353033  54.0487784  28.1040523  26.4381091
  48.3342601  29.8561597  34.5467210  48.4634982  30.1096076  35.4606621
  47.6540052  30.4489305  34.2271865  52.5042088  40.5258847  30.6457684
  52.4266118  41.4766672  30.7246164  51.9003732  40.1804720  31.3032610
  54.9959318  27.6986713  43.3019051  54.2192652  28.2580633  43.2921915
  55.6349881  28.1843496  43.8233921  62.7880099  24.4813505  37.1362027
  62.1454479  24.7746039  36.4901822  62.2835027  24.3666426  37.9415224
  60.4420262  28.2276679  27.8247887  61.3538118  28.4604065  27.6495584
  59.9329909  28.8113723  27.2622965  53.2505690  30.5072166  42.8637018
  53.9920375  31.0457210  42.5871841  52.5442676  31.1338455  43.0208569
  58.7261030  32.6501306  41.4609179  59.1344386  32.2083717  40.7163811
  58.0038291  32.0753934  41.7143372  55.0792100  27.5873913  38.8342736
  55.9253295  28.0113327  38.9777385  55.0190738  26.9307538  39.5281299
  59.0489845  33.2102497  35.2161468  58.4198707  33.3748211  34.5137536
  58.6615507  33.6244107  35.9872432  62.9279076  34.1456935  32.5705832
  62.2430115  34.5255836  32.0202865  63.0122926  34.7552262  33.3037780
  58.2291545  25.2478282  40.4923910  57.9852477  26.0020342  39.9558185
  58.5051476  25.6263629  41.3271157  60.1830008  31.7916894  39.1701175
  60.3946903  32.4348654  38.4935556  60.1359756  30.9579210  38.7023105
  57.7856237  24.4034715  36.0737747  56.9240716  24.7015968  36.3654485
  57.8118672  24.6205113  35.1418780  54.6017806  32.9476905  32.4811553
  55.0656152  33.2264608  31.6916176  54.3374605  32.0460350  32.2984644
  51.4941887  32.4948387  35.4191316  52.0643245  32.9235655  34.7808801
  52.0849999  32.2130971  36.1175502  53.5386692  29.0700058  29.2901118
  54.2410736  29.5221101  29.7575045  53.2067321  28.4283876  29.9181011
  51.9867054  27.6611814  43.6652328  51.3565715  28.3428095  43.8987724
  51.8803142  27.5494896  42.7205466  47.2812026  27.3283610  34.5918252
  46.4911080  27.5841139  34.1158362  47.7723274  28.1431948  34.6970292
  61.2975836  34.6688849  37.3423533  62.1193280  34.2669037  37.0606214
  61.2938239  34.5657084  38.2939648  49.2326772  27.6928189  31.5501729
  48.4357935  27.8046884  32.0685224  49.0052364  28.0314842  30.6842619
  55.0632439  34.2172893  39.4984243  55.1276872  34.6793300  40.3342415
  54.3543363  33.5870258  39.6266553  45.5649729  27.5814101  37.0233243
  45.8157768  28.4661111  37.2890819  46.1009278  27.4018702  36.2508334
  69.3881829  31.0127598  33.6908504  68.6345537  30.4434996  33.5352509
  69.5229370  30.9790262  34.6379139  54.7780457  35.8841000  29.3663223
  54.6426132  36.7292536  29.7948071  55.3190270  36.0860278  28.6029157
  51.2647797  21.9632580  46.0277579  50.8714742  21.4098779  46.7025223
  52.0813937  22.2743158  46.4184096  48.2309854  33.4016438  29.9391149
  48.7434375  34.1959688  30.0896713  48.8832567  32.7042729  29.8724750
  50.0404739  36.5182194  32.0213902  50.2171368  37.4400159  31.8334886
  50.8361573  36.2040614  32.4508282  54.1815758  23.3790459  43.6197835
  54.9225471  23.9797612  43.5402298  54.4133681  22.6368097  43.0615878
  49.3257096  28.5646826  41.8976065  49.2110611  27.6632084  42.1983164
  48.4701613  28.8110523  41.5460881  56.4048933  36.5064567  43.4963566
  55.9612788  35.7200945  43.1784470  57.0666147  36.6943717  42.8307456
  51.1636055  38.0360368  38.0224244  51.7143480  37.9077432  37.2501238
  50.3247531  38.3355257  37.6719137  58.5030172  36.7867367  41.5244967
  58.4848647  37.6076248  41.0325236  59.4250092  36.6621442  41.7495108
  54.9603226  34.3011496  42.3668475  55.4931562  33.5399784  42.1367783
  54.4317307  34.0085148  43.1092630  58.1272921  19.4071562  37.8962117
  57.7837190  20.2973204  37.8201228  58.4951883  19.2173220  37.0331702
  46.1958771  31.7305092  30.7150719  47.0333993  32.1402101  30.4984427
  46.3737039  30.7904535  30.6850913  58.0923203  29.3980173  26.4034552
  57.5769827  30.1684778  26.6422939  57.8200512  28.7245309  27.0267613
  55.6770314  24.2429874  31.4619790  54.8211911  23.8536724  31.2825429
  56.0897266  24.3221835  30.6019576  57.2069461  21.7776217  35.8611350
  56.7034257  21.7406352  35.0479155  57.5000068  22.6868960  35.9208007
  53.4512347  21.8614947  34.8677532  54.3165344  21.6657756  34.5083421
  53.5189856  21.6325299  35.7946889  63.0657477  32.1512528  28.3387726
  62.2886920  31.8123687  27.8942888  63.7448958  32.1565151  27.6642691
  57.8809507  27.2707265  28.2294333  57.5759642  27.5853414  29.0804476
  58.8339949  27.3488685  28.2721666  56.3255938  33.4297489  29.8787287
  55.7977300  32.6950248  29.5660525  55.8243441  34.2072165  29.6327256
  61.3048784  31.6246509  34.9954333  60.6472459  32.3145770  35.0834462
  62.1089184  32.0142941  35.3388320  51.0574666  24.0917155  32.2393899
  51.6318418  23.8692336  31.5067092  51.6445648  24.1605849  32.9922500
  60.1154243  29.9790882  33.0458275  60.6286125  30.6120874  33.5479985
  60.7655467  29.3792077  32.6801635  51.3844253  26.1221616  26.2589784
  50.5481565  26.4596302  26.5799059  51.2449023  25.9870596  25.3216921
  53.3597334  20.9658404  30.9668968  52.7061746  20.6507421  30.3425583
  53.3177808  20.3434144  31.6928791  54.4708539  31.2477699  22.8822260
  53.5635600  31.0166952  23.0813409  54.9679571  30.4515318  23.0696242
  57.3776617  39.9575206  25.8018946  56.7038316  40.2606903  26.4103904
  57.7642439  40.7604286  25.4524403  56.5935074  27.4540337  35.2916616
  55.6757635  27.6755284  35.1338304  57.0095218  27.5286648  34.4328323
  57.3770122  28.8531753  30.4219296  58.1241941  29.3653150  30.1126418
  57.6461711  28.5315806  31.2823690  55.6496772  31.3490294  27.4046250
  54.7407991  31.0649326  27.5018720  55.6791856  31.7689372  26.5449557
  60.8816039  34.9596883  31.1737418  60.4278367  34.1187793  31.2302608
  60.2510006  35.5958282  31.5112198  59.8248959  25.8888869  32.4038085
  59.0871716  25.3766255  32.7348328  60.0775733  25.4489251  31.5921362
  59.3248979  36.7973380  32.1087236  59.6171953  37.3578437  31.3899602
  59.8347599  37.0901941  32.8640395  59.9260586  18.6665121  32.9979855
  60.2319463  17.8062485  32.7105770  60.6513191  19.2582741  32.7978849
  46.2184942  29.0695808  31.3861453  46.0209342  28.4765168  30.6612519
  45.6631606  28.7648018  32.1037391  54.1981666  28.9618914  33.5056046
  54.2530276  28.0092751  33.4298522  53.3872868  29.1178353  33.9897344
  55.3472860  32.8899037  24.7434329  54.9092290  32.1734896  24.2839966
  56.0883301  33.1175152  24.1819420  52.1374026  27.5795974  31.2646425
  51.3241891  27.8790145  31.6711617  52.6333020  27.1851663  31.9820907
  54.2882604  37.5753731  33.1980689  54.2458783  37.8014577  32.2689221
  55.2045303  37.3417106  33.3466490  57.7348238  28.0437798  40.0961318
  58.0897625  28.2709272  40.9555784  58.3820369  28.3756175  39.4738574
  63.4645975  31.1656234  30.8010647  63.3263873  31.3557830  29.8731837
  63.1082193  31.9275617  31.2578699  51.6288101  25.1514330  36.8807659
  52.2687480  25.0103089  36.1830623  50.7965631  24.8648843  36.5046261
  63.4915354  33.2332761  35.8121919  63.9251861  33.1408050  36.6604973
  64.2046935  33.2090262  35.1741935  52.4048405  34.4516760  32.9942652
  53.1989003  33.9567080  32.7925227  51.6940097  33.9234623  32.6310358
  57.2243249  36.8334855  37.3455020  57.2780271  37.4025792  38.1132735
  56.3558030  37.0036741  36.9809057  48.7131168  28.5959842  29.0702405
  47.7828756  28.5344297  29.2872367  48.8088640  28.0735794  28.2739046
  48.6316717  25.1214655  31.6580646  48.8923534  26.0359988  31.5489807
  49.4533889  24.6539097  31.8077259  50.1041642  26.5352412  38.8279471
  50.7764696  26.3269774  38.1792120  49.2771429  26.3374498  38.3884703
  64.3530904  33.2756462  38.3454804  64.5466794  34.1802273  38.5914079
  64.2531522  32.8163881  39.1793389  56.0067214  23.1614353  40.8445132
  55.3595130  23.8604302  40.7509608  56.7768230  23.5950497  41.2121380
  59.4146012  33.4263205  43.9195685  59.2631519  33.1973756  43.0025769
  59.4050692  34.3833806  43.9327030  56.1831349  30.9995118  38.9041951
  57.1123409  31.1506277  38.7310919  55.7622379  31.0879138  38.0490598
  54.9819681  35.0245782  36.6740489  54.8430766  34.6564566  37.5466427
  54.1934277  35.5393421  36.5024447  55.5767833  40.1254878  28.0166026
  55.7519588  39.6542922  28.8311648  54.8900621  40.7520645  28.2447286
  56.5324896  34.4027385  34.0629327  56.1974728  34.3628155  34.9586977
  56.0328841  33.7372101  33.5899737  50.5069140  29.8095015  39.5881908
  50.3688938  29.0775253  40.1893447  51.4174063  29.7203915  39.3066096
  59.4684087  31.7483419  24.3366386  58.8513258  31.0230247  24.2399439
  59.0000576  32.5092779  23.9933461  53.1351440  29.5214974  39.0765588
  53.8451059  28.8808166  39.0352206  53.0920749  29.7727869  39.9991768
  61.1238219  36.4582327  41.9972167  61.0650765  35.7741547  41.3302750
  61.5257737  37.2001317  41.5452793  51.8480374  26.5080192  40.8961227
  51.3117731  26.0570930  41.5482823  51.2597083  26.6426101  40.1531691
  50.1428918  43.2744241  34.7905886  50.3825516  43.9062765  35.4684904
  49.2998114  42.9232281  35.0771245  51.2582633  25.9668843  23.4587691
  50.3812100  25.8457644  23.0949937  51.7340386  25.1754922  23.2066579
  61.1255626  34.4221911  40.2286147  60.2382405  34.0847833  40.3512545
  61.6954177  33.6904942  40.4654912  42.7784773  30.7546003  33.5529198
  43.4655813  30.4407733  32.9650213  42.6232902  31.6587368  33.2796449
  47.5819496  25.6436200  37.9814222  47.4977684  25.0361869  37.2464632
  46.7602202  26.1345218  37.9823718  54.6556780  39.0823364  37.1947390
  54.5826951  39.8878335  37.7066694  54.2134173  39.2815329  36.3695411
  54.4446559  38.3195134  30.7050211  53.6614081  38.8616814  30.7988436
  55.1439305  38.8369113  31.1044452  57.7543209  24.1289763  33.3484417
  58.2511909  23.3759725  33.0285487  56.9830191  24.1654080  32.7827626
  65.6072967  29.8330129  34.9902708  65.5962843  30.7154844  34.6196641
  64.7390346  29.4801679  34.7957245  57.1155463  38.9810198  39.3505548
  57.8283435  39.6157662  39.2781450  56.6245492  39.0774064  38.5345550
  58.8372990  32.8861450  30.9222840  57.9029269  33.0062913  30.7527544
  59.0149659  31.9833917  30.6582850  54.3378178  26.2707146  33.0756101
  53.9675966  25.7178186  33.7637007  54.8337271  25.6665280  32.5231101
  62.2245542  28.7278770  31.4572874  62.6905994  29.5606761  31.3833177
  62.6753042  28.2623751  32.1618133  52.1667377  36.7304641  40.1711119
  52.8676836  37.3641124  40.3240513  51.6962492  37.0719373  39.4106758
  60.2921773  35.0722591  28.4559026  60.5681617  34.9579185  29.3652900
  59.4226271  34.6740076  28.4171199  60.1962204  21.0959357  35.4963776
  59.2825284  21.3263583  35.6645982  60.6255306  21.1797801  36.3477808
  59.9668663  29.2849249  37.9963670  59.3140113  29.5325156  37.3416122
  60.3449043  28.4713387  37.6626147  56.9275837  39.3208942  32.0991840
  57.1098231  38.5030598  32.5619592  57.7508823  39.5376634  31.6616730
  57.2618002  38.2477127  29.3606888  57.7905769  37.7369581  28.7477050
  57.5246222  37.9319657  30.2252421  56.0156236  30.0269060  44.4829707
  55.3396873  29.9263189  45.1532082  56.8383870  29.8708273  44.9465704
  47.7635095  36.2640996  37.1042222  48.3488532  35.5184684  37.2370126
  47.5659933  36.5744953  37.9878886  50.6173750  39.2992244  32.1204664
  49.9484125  39.7838371  31.6368704  50.4786620  39.5461464  33.0348043
  42.3552750  28.8346596  35.8246665  42.3936849  28.3010187  36.6183783
  41.8493042  28.3081802  35.2057642  54.7579019  41.3335987  38.7187323
  55.3097327  41.4967609  39.4836408  55.0985212  41.9240425  38.0467347
  49.7343512  23.6811137  39.3209207  49.7984838  24.5425968  38.9086605
  49.6710632  23.0685139  38.5881566  49.2095784  25.7534269  42.9682242
  49.8367823  25.3711347  43.5819766  48.3523703  25.5348471  43.3337934
  59.6089893  36.1597245  44.5735977  60.1529797  36.7727203  44.0790932
  59.0276738  36.7176823  45.0902990  45.9861327  27.5610699  28.9000596
  46.2814768  26.6521377  28.8467650  45.0849363  27.5398438  28.5781599
  57.8947406  39.2817963  35.7051005  57.7698545  38.4807702  35.1961950
  58.5526497  39.7764156  35.2164975  49.5155574  25.6366695  34.8828145
  48.7942160  26.2502663  34.7435618  50.3048830  26.1724460  34.8044791
  59.9582314  37.0826983  37.3330555  59.0112650  36.9632334  37.2608882
  60.3065087  36.1949481  37.4156816  52.3181888  22.9721122  41.1568797
  52.8416290  23.2183418  41.9195106  52.0994221  23.8041156  40.7371934
  47.7149169  25.2424796  29.0239922  47.3861875  24.3622175  28.8415027
  48.0688539  25.1872465  29.9116311  56.9628748  36.8779699  33.5334907
  56.8153710  35.9496406  33.7142477  57.7882241  36.8999790  33.0491982
  50.8290992  25.5297766  29.3915399  51.1687064  26.0583687  28.6694008
  51.2763112  25.8678172  30.1673966  60.5662869  37.7008258  34.6199780
  61.4909417  37.4951119  34.4824231  60.3978173  37.4524659  35.5289121
  53.5234433  23.9134817  38.8418467  53.1831253  23.1142630  39.2439147
  52.8173439  24.2136528  38.2695300  54.1750905  20.9984129  37.2945790
  54.9976974  20.5244607  37.1724681  54.4188968  21.7774613  37.7944477
  52.8159139  24.0272388  27.5908692  53.5367502  24.4053640  27.0872409
  52.1924443  24.7461264  27.6943670  56.9590262  24.7317537  28.5267024
  57.1753876  25.6142174  28.2255852  56.4784329  24.3403750  27.7972666
  51.6989483  27.6903250  35.1037769  51.5534064  28.0043553  35.9962050
  51.2214687  28.3088150  34.5508668  53.5585866  24.6805798  35.1518658
  53.5447435  23.7846891  34.8150956  54.2758294  24.6876461  35.7856945
  55.4111997  25.1143138  37.1971786  55.1529775  26.0360209  37.1956116
  54.8797037  24.7173572  37.8872250  60.3558186  38.2193925  29.9761871
  60.5295063  37.6540348  29.2235724  60.8487077  39.0194820  29.7941361
  46.1735145  30.2308594  38.0425430  45.6288614  31.0068402  38.1745704
  47.0514495  30.5779399  37.8844552  52.9622762  23.5620178  30.4206229
  53.0838673  22.6336824  30.6197116  52.6724805  23.5758864  29.5084544
  55.8313953  21.2475088  33.5572948  55.8535649  21.3114422  32.6024928
  56.2482012  20.4079597  33.7513455  66.2097577  30.9830348  31.5952171
  66.6528723  30.2337673  31.1971294  65.3324087  30.9740484  31.2125903
  61.3433358  37.5360689  27.0758770  62.0384263  38.1567382  27.2946084
  61.6856508  36.6856041  27.3511147  46.9601167  29.3578490  40.9355587
  46.2182903  29.5061126  41.5220217  46.6393912  29.6186756  40.0722336
  63.2424781  34.9860395  28.6046100  63.7676105  35.3247668  27.8795420
  63.1547134  34.0507410  28.4209235  54.9044830  38.8994469  40.7335977
  55.2131956  38.6543615  41.6058677  55.7020312  39.1041107  40.2454847
  54.9265442  41.0532378  32.9641354  54.4870432  40.5608757  33.6574210
  55.6773559  40.5105346  32.7233429  47.4057781  37.2443919  32.9665982
  48.2315801  36.9447691  32.5864625  47.0551833  36.4751542  33.4155770
  52.3739314  36.5970387  35.0363655  51.7519323  35.9341092  34.7365883
  53.0444181  36.6231519  34.3537303  45.6066386  35.1630246  33.9254915
  44.7698294  34.7352420  33.7438916  45.5790031  35.3562689  34.8625706
  52.4463842  25.0752175  44.6296161  52.4951997  25.9514298  44.2473931
  52.9886356  24.5329568  44.0567804  62.9318687  35.6193299  43.9097298
  62.1414231  35.6017437  43.3701798  62.6952042  36.1581592  44.6646335
  63.0516562  32.4685765  41.2230027  63.1014567  32.3035772  42.1645550
  62.9430486  31.6013024  40.8327908  51.9352821  35.1474311  28.5122116
  52.0840941  35.8309775  27.8588788  52.7419265  35.1279401  29.0271571
  60.3420325  28.4516693  42.5389334  61.2430188  28.3123158  42.2473331
  60.4168299  28.6171148  43.4787511  54.6763130  25.8283548  41.3842520
  53.8066440  26.1217114  41.1125108  54.9122610  26.4123993  42.1049784
  64.5534759  34.8882707  41.4672048  64.2619568  35.2512687  42.3035509
  63.9406891  34.1749715  41.2885380  65.7530442  32.4535586  33.9874619
  66.5877333  32.8925390  34.1512179  65.8889570  31.9774240  33.1682864
  62.8021947  30.0115321  39.9352106  63.2776069  30.2042967  39.1270958
  61.8787513  30.0674507  39.6895490  49.6905454  31.1739488  29.5183185
  49.4451496  30.2701818  29.7163395  49.8601369  31.1756639  28.5762663
  57.3802164  22.0463165  38.9007940  57.8984108  22.7824192  38.5754429
  57.0257297  22.3527158  39.7354699  48.9601102  26.9067846  27.0169346
  48.2670347  26.9812201  26.3609382  48.7152854  26.1428190  27.5390863
  57.6314758  18.4663447  34.4208837  57.9116512  17.7986636  35.0469263
  58.4165365  18.6592543  33.9083501  55.4348227  37.6422441  25.9833863
  54.8622194  38.2612628  25.5304335  56.0081020  38.1921803  26.5173785
  61.5023616  26.8881081  38.1680412  62.4541039  26.9879179  38.1892636
  61.3327067  26.0959350  38.6778496  59.5237996  23.9736664  38.3539813
  58.9287928  24.2541677  37.6586302  59.2387693  24.4630565  39.1256554
  58.6545486  37.9259591  27.1142445  59.5876160  37.8605153  27.3175321
  58.5668699  38.7615858  26.6556978  61.2833503  37.2425462  24.0746393
  61.2047135  36.9085325  24.9682151  62.1043170  37.7347230  24.0737865
  63.9811694  30.1087201  37.2822712  63.9488014  29.1703202  37.4682395
  64.5912318  30.1871238  36.5488537  55.8195025  28.9783254  23.3249916
  56.7654130  28.8489462  23.3938334  55.4409270  28.2397916  23.8019344
  64.1306183  26.8998244  37.3280995  63.6145231  26.1156701  37.1410924
  65.0146131  26.5716961  37.4927514  61.7916910  20.6439260  33.2876807
  61.5941731  20.3354348  34.1720139  62.4016615  21.3700899  33.4174737
  69.7988244  31.1703208  36.4228748  70.5291633  30.9088496  36.9836452
  69.1895190  30.4331930  36.4630816  67.8803541  29.3111070  37.0203200
  67.1536705  29.1767035  36.4119691  67.4650828  29.6187899  37.8259918
  55.7033718  33.0301000  44.7850573  56.6236727  33.2079599  44.9790619
  55.6683301  32.0857045  44.6330272  54.0037942  26.9033230  23.2604801
  53.0969398  26.6066343  23.3367514  54.2813923  26.6063048  22.3939087
  44.9215883  28.2239594  33.7103847  44.6018667  27.3704902  33.4178221
  44.3749311  28.4388172  34.4661815  48.6995790  30.9402035  37.4273354
  48.9181800  31.8719143  37.4461388  49.1121564  30.5810009  38.2128158
  55.6200008  21.4470120  29.4149042  54.8100736  21.1017205  29.7904288
  56.3084425  21.1377664  30.0036654  57.5490556  20.5248167  31.0373339
  58.1021595  20.9443620  31.6963362  57.7860643  19.5983915  31.0796295
  53.5723656  26.5135240  46.8176103  53.4720382  27.4629597  46.7488194
  53.3545198  26.1853479  45.9452173  52.7736727  23.7620166  23.4016780
  53.6355891  24.0875064  23.6612597  52.9587071  22.9751661  22.8889846
  44.7904143  31.8442505  35.6796969  44.0967614  31.4296458  35.1666923
  45.5377134  31.8863042  35.0830388  60.9269363  22.6348692  30.5452003
  60.3468032  23.2933496  30.1630055  60.6605296  21.8126037  30.1339421
  59.3772930  22.0353750  32.7473323  59.8772708  22.1470284  31.9387642
  60.0208538  21.7314803  33.3874132  53.4354926  29.9432379  45.6341164
  52.9522007  30.7432739  45.8405053  53.5215865  29.9540324  44.6808608
  46.7040885  31.7760759  33.5562984  46.6811573  31.8748446  32.6044867
  47.0141522  32.6225910  33.8780150  49.3628263  33.8336914  37.6709598
  50.3171517  33.8020856  37.6039530  49.1640787  33.3727538  38.4859824
  49.9527645  32.4038030  40.2380396  50.7720534  32.8982109  40.2615233
  50.2264453  31.4869998  40.2097963  59.7094241  24.7948782  29.6008351
  58.8220096  25.0798433  29.3828546  60.1248230  24.6342546  28.7535628
  63.0608778  24.8195303  33.3162691  63.8369168  25.3091756  33.5887307
  62.3356912  25.2453358  33.7734560  65.4981336  25.5322923  34.3736631
  66.0925827  25.2918659  33.6629939  65.5707920  24.8130053  35.0010168
  47.7178492  39.3756534  34.6879796  47.5832960  38.6156934  34.1217794
  47.3010554  40.0997433  34.2208585  58.8537455  34.5593457  23.6956371
  59.5573305  34.7643460  24.3114027  58.1300104  35.1270219  23.9605455
  59.6835265  30.3103318  29.8158642  59.6270467  30.7671870  28.9766274
  60.2363608  29.5494003  29.6381484  63.4940071  26.0993050  30.6408761
  63.2377005  25.6989686  31.4716969  62.8692939  26.8136844  30.5158900
  67.8052409  28.8389123  33.1480052  67.2451967  28.9082313  33.9211614
  67.1995912  28.6630108  32.4279549  50.8747618  40.2725851  34.8998239
  50.7580002  41.2171283  34.7976929  50.0540064  39.9699412  35.2884038
  60.7624152  34.9975986  25.7454831  61.5969756  34.5657185  25.5632306
  60.6008495  34.8258000  26.6731726  60.4170044  31.5008100  27.1111171
  60.3618848  31.3352371  26.1699615  59.7916100  32.2084132  27.2673360
  45.2062559  26.7376164  40.9372593  45.8521423  26.2275118  41.4259818
  44.9979711  27.4744846  41.5116018  57.7315952  33.8057011  46.4364733
  58.6007111  33.9797664  46.0751368  57.2522703  34.6251428  46.3140463
  53.7266170  21.0016209  26.6896489  53.7144840  21.9458048  26.8464760
  54.6189592  20.8186354  26.3955950  51.9002132  40.9254112  38.1154167
  52.8029379  40.9577723  38.4320662  51.6739502  39.9954563  38.1300503
  53.6555734  39.6785099  34.7764246  52.7051365  39.6786961  34.6628618
  53.9588220  38.9317834  34.2600280  57.5418289  17.5958985  30.9442426
  56.7750685  17.0417472  31.0899108  57.9528994  17.6680854  31.8056578
  49.5460050  23.8843781  45.0347607  50.4091512  23.5280586  45.2450932
  48.9725461  23.5457676  45.7223011  62.1041551  37.2924498  46.0277579
  61.7108497  36.7390696  46.7025223  62.9207692  37.6035076  46.4184096
  60.1650850  43.8938744  41.8976065  60.0504365  42.9924001  42.1983164
  59.3095368  44.1402441  41.5460881  57.0352526  47.0597010  30.7150719
  57.8727748  47.4694019  30.4984427  57.2130793  46.1196452  30.6850913
  64.2906101  37.1906865  34.8677532  65.1559098  36.9949673  34.5083421
  64.3583610  36.9617216  35.7946889  61.8968420  39.4209072  32.2393899
  62.4712172  39.1984254  31.5067092  62.4839403  39.4897767  32.9922500
  64.1991088  36.2950321  30.9668968  63.5455501  35.9799339  30.3425583
  64.1571562  35.6726062  31.6928791  65.3102293  46.5769616  22.8822260
  64.4029355  46.3458870  23.0813409  65.8073325  45.7807236  23.0696242
  70.7654341  33.9957039  32.9979855  71.0713218  33.1354402  32.7105770
  71.4906946  34.5874659  32.7978849  57.0578697  44.3987725  31.3861453
  56.8603097  43.8057086  30.6612519  56.5025361  44.0939936  32.1037391
  59.5524923  43.9251759  29.0702405  58.6222511  43.8636215  29.2872367
  59.6482395  43.4027712  28.2739046  59.4710472  40.4506572  31.6580646
  59.7317289  41.3651905  31.5489807  60.2927644  39.9831015  31.8077259
  62.0976388  41.2960761  23.4587691  61.2205854  41.1749562  23.0949937
  62.5734141  40.5046839  23.2066579  53.6178528  46.0837921  33.5529198
  54.3049568  45.7699651  32.9650213  53.4626657  46.9879285  33.2796449
  53.1946504  44.1638514  35.8246665  53.2330604  43.6302105  36.6183783
  52.6886797  43.6373720  35.2057642  60.5737266  39.0103055  39.3209207
  60.6378593  39.8717885  38.9086605  60.5104387  38.3977056  38.5881566
  60.0489539  41.0826187  42.9682242  60.6761578  40.7003264  43.5819766
  59.1917458  40.8640389  43.3337934  56.8255082  42.8902616  28.9000596
  57.1208523  41.9813295  28.8467650  55.9243117  42.8690356  28.5781599
  63.1575642  38.3013039  41.1568797  63.6810044  38.5475336  41.9195106
  62.9387975  39.1333074  40.7371934  58.5542923  40.5716714  29.0239922
  58.2255629  39.6914093  28.8415027  58.9082294  40.5164383  29.9116311
  66.6707707  36.5767006  33.5572948  66.6929404  36.6406339  32.6024928
  67.0875766  35.7371515  33.7513455  57.7994922  44.6870408  40.9355587
  57.0576658  44.8353043  41.5220217  57.4787666  44.9478674  40.0722336
  59.7994856  42.2359764  27.0169346  59.1064101  42.3104119  26.3609382
  59.5546608  41.4720107  27.5390863  68.4708513  33.7955365  34.4208837
  68.7510266  33.1278554  35.0469263  69.2559120  33.9884461  33.9083501
  66.6588780  44.3075172  23.3249916  67.6047884  44.1781380  23.3938334
  66.2803025  43.5689833  23.8019344  55.7609637  43.5531511  33.7103847
  55.4412421  42.6996820  33.4178221  55.2143065  43.7680090  34.4661815
  68.3884311  35.8540085  31.0373339  68.9415349  36.2735538  31.6963362
  68.6254397  34.9275833  31.0796295  63.6130481  39.0912083  23.4016780
  64.4749645  39.4166982  23.6612597  63.7980826  38.3043579  22.8889846
  55.6297897  47.1734423  35.6796969  54.9361369  46.7588376  35.1666923
  56.3770888  47.2154959  35.0830388  57.5434640  47.1052677  33.5562984
  57.5205328  47.2040364  32.6044867  57.8535276  47.9517827  33.8780150
  56.0456314  42.0668082  40.9372593  56.6915178  41.5567036  41.4259818
  55.8373465  42.8036763  41.5116018  64.5659924  36.3308126  26.6896489
  64.5538594  37.2749966  26.8464760  65.4583346  36.1478272  26.3955950
  68.3812044  32.9250903  30.9442426  67.6144440  32.3709390  31.0899108
  68.7922749  32.9972772  31.8056578  60.3853805  39.2135699  45.0347607
  61.2485266  38.8572504  45.2450932  59.8119216  38.8749593  45.7223011
  78.4778263  66.3171427  27.0782889  77.8266242  66.9025508  26.6916902
  79.2722625  66.8477622  27.1377926  79.9553528  64.0061859  27.6151873
  79.3199361  64.0796486  28.3272778  79.6250934  64.5955458  26.9370952
  85.1851877  58.5064242  33.8196195  85.9177049  57.9363459  34.0534024
  84.4291233  58.1185843  34.2602700  74.1829597  71.1842683  30.6457684
  74.1053627  72.1350508  30.7246164  73.5791241  70.8388555  31.3032610
  82.1207771  58.8860514  27.8247887  83.0325627  59.1187901  27.6495584
  81.6117418  59.4697558  27.2622965  91.0669338  61.6711433  33.6908504
  90.3133046  61.1018831  33.5352509  91.2016879  61.6374098  34.6379139
  76.4567966  66.5424835  29.3663223  76.3213641  67.3876371  29.7948071
  76.9977779  66.7444113  28.6029157  79.7710712  60.0564008  26.4034552
  79.2557336  60.8268613  26.6422939  79.4988021  59.3829145  27.0267613
  84.7444986  62.8096363  28.3387726  83.9674429  62.4707523  27.8942888
  85.4236467  62.8148986  27.6642691  76.1496048  61.9061534  22.8822260
  75.2423109  61.6750788  23.0813409  76.6467080  61.1099153  23.0696242
  79.0564126  70.6159041  25.8018946  78.3825825  70.9190738  26.4103904
  79.4429948  71.4188122  25.4524403  77.0260369  63.5482873  24.7434329
  76.5879799  62.8318732  24.2839966  77.7670810  63.7758987  24.1819420
  75.9670113  68.2337566  33.1980689  75.9246292  68.4598413  32.2689221
  76.8832812  68.0000941  33.3466490  85.1433484  61.8240070  30.8010647
  85.0051382  62.0141666  29.8731837  84.7869702  62.5859453  31.2578699
  77.2555342  70.7838714  28.0166026  77.4307097  70.3126757  28.8311648
  76.5688130  71.4104480  28.2447286  81.1471596  62.4067254  24.3366386
  80.5300767  61.6814082  24.2399439  80.6788085  63.1676615  23.9933461
  76.1234068  68.9778969  30.7050211  75.3401590  69.5200649  30.7988436
  76.8226814  69.4952949  31.1044452  87.2860476  60.4913964  34.9902708
  87.2750352  61.3738679  34.6196641  86.4177855  60.1385515  34.7957245
  83.9033050  59.3862605  31.4572874  84.3693503  60.2190597  31.3833177
  84.3540551  58.9207587  32.1618133  81.9709282  65.7306426  28.4559026
  82.2469126  65.6163021  29.3652900  81.1013780  65.3323911  28.4171199
  76.4366528  71.9919822  38.7187323  76.9884836  72.1551444  39.4836408
  76.7772721  72.5824260  38.0467347  81.2877402  66.8181080  44.5735977
  81.8317306  67.4311038  44.0790932  80.7064247  67.3760658  45.0902990
  87.8885086  61.6414183  31.5952171  88.3316232  60.8921509  31.1971294
  87.0111596  61.6324320  31.2125903  83.0220867  68.1944525  27.0758770
  83.7171772  68.8151218  27.2946084  83.3644017  67.3439876  27.3511147
  84.9212290  65.6444230  28.6046100  85.4463614  65.9831503  27.8795420
  84.8334643  64.7091246  28.4209235  76.6052951  71.7116214  32.9641354
  76.1657941  71.2192592  33.6574210  77.3561068  71.1689181  32.7233429
  84.6106196  66.2777134  43.9097298  83.8201740  66.2601273  43.3701798
  84.3739551  66.8165428  44.6646335  86.2322268  65.5466542  41.4672048
  85.9407077  65.9096522  42.3035509  85.6194399  64.8333550  41.2885380
  87.4317951  63.1119422  33.9874619  88.2664842  63.5509226  34.1512179
  87.5677079  62.6358075  33.1682864  77.1135736  68.3006276  25.9833863
  76.5409703  68.9196464  25.5304335  77.6868529  68.8505638  26.5173785
  80.3332995  68.5843427  27.1142445  81.2663669  68.5188988  27.3175321
  80.2456208  69.4199693  26.6556978  82.9621012  67.9009297  24.0746393
  82.8834644  67.5669161  24.9682151  83.7830679  68.3931065  24.0737865
  77.4982534  59.6367089  23.3249916  78.4441639  59.5073297  23.3938334
  77.1196779  58.8981751  23.8019344  91.4775753  61.8287043  36.4228748
  92.2079142  61.5672331  36.9836452  90.8682699  61.0915765  36.4630816
  89.5591050  59.9694906  37.0203200  88.8324214  59.8350871  36.4119691
  89.1438337  60.2771734  37.8259918  87.1768845  56.1906758  34.3736631
  87.7713336  55.9502494  33.6629939  87.2495429  55.4713888  35.0010168
  80.5324964  65.2177292  23.6956371  81.2360814  65.4227295  24.3114027
  79.8087613  65.7854054  23.9605455  81.3622774  60.9687154  29.8158642
  81.3057976  61.4255705  28.9766274  81.9151117  60.2077838  29.6381484
  85.1727580  56.7576886  30.6408761  84.9164514  56.3573521  31.4716969
  84.5480448  57.4720679  30.5158900  89.4839918  59.4972959  33.1480052
  88.9239476  59.5666148  33.9211614  88.8783421  59.3213943  32.4279549
  82.4411661  65.6559822  25.7454831  83.2757265  65.2241020  25.5632306
  82.2796004  65.4841835  26.6731726  82.0957553  62.1591935  27.1111171
  82.0406357  61.9936206  26.1699615  81.4703609  62.8667968  27.2673360
  79.4103461  64.4640847  46.4364733  80.2794620  64.6381499  46.0751368
  78.9310212  65.2835264  46.3140463  91.0695936  76.1729473  35.8410008
  91.7074346  76.0536220  35.1373348  90.9516779  77.1210317  35.8997960
  87.8785643  76.1256901  35.7771533  87.5404154  76.0097966  34.8892068
  88.7475411  75.7248066  35.7572539  83.7372458  77.9792377  31.7668424
  83.1737323  77.8882314  30.9984712  83.6224853  77.1592282  32.2470916
  88.3605426  77.2791753  41.7357738  88.3494066  76.8844551  40.8638242
  88.5226065  76.5457825  42.3291510  81.2836890  79.4743569  34.6052644
  82.0758182  79.1334393  34.1898944  81.5233540  79.5838544  35.5254798
  89.3172017  81.6463345  27.0782889  88.6659997  82.2317425  26.6916902
  90.1116380  82.1769540  27.1377926  83.2427644  78.7352482  27.4770023
  84.0158520  78.1881469  27.3382899  83.5953043  79.5996731  27.6884484
  85.0812687  80.0628864  40.6836922  84.7902553  80.9674495  40.5683589
  85.7169671  80.1045392  41.3980992  86.0068894  77.4405713  37.2738282
  86.6032466  77.2161735  36.5595245  86.0643865  76.6990458  37.8763730
  85.5793922  74.8945148  25.1088473  85.8319443  74.3726669  24.3471936
  84.6418481  74.7311294  25.2115157  90.6237205  73.8980927  32.9163216
  91.4100294  73.4800350  32.5653633  90.8875909  74.8027019  33.0844865
  90.7947282  79.3353777  27.6151873  90.1593115  79.4088403  28.3272778
  90.4644689  79.9247376  26.9370952  96.0245632  73.8356160  33.8196195
  96.7570804  73.2655377  34.0534024  95.2684988  73.4477760  34.2602700
  85.2990211  76.7973254  27.3112848  85.1826469  76.1218158  27.9793932
  85.4092471  76.3105628  26.4945001  87.6421752  76.2583401  31.0159537
  87.2779959  75.7314022  31.7272459  88.4988868  75.8681870  30.8426023
  93.5471052  67.5477734  38.2790803  93.2154377  68.4173145  38.0552018
  92.9516666  67.2314018  38.9584834  87.2827239  71.2873301  26.0120886
  87.4501641  72.1553537  26.3791357  87.0924408  71.4500583  25.0882175
  90.0402572  79.7490280  37.6786716  89.7403295  80.6515319  37.5702523
  89.6953631  79.4822463  38.5307869  83.4915053  76.2004077  33.7123420
  82.5665550  76.0680291  33.9201112  83.7399467  76.9798296  34.2093363
  93.4399716  72.2672820  35.3584153  92.5316593  72.1988228  35.0642914
  93.3887311  72.7444765  36.1865979  87.2616460  73.7430958  26.9967552
  87.1416085  74.1888009  27.8353033  86.5669048  74.0916276  26.4381091
  80.8523864  75.8437350  34.5467210  80.9816246  76.0971829  35.4606621
  80.1721316  76.4365058  34.2271865  85.0223352  86.5134600  30.6457684
  84.9447381  87.4642425  30.7246164  84.4184995  86.1680473  31.3032610
  87.5140581  73.6862466  43.3019051  86.7373915  74.2456386  43.2921915
  88.1531144  74.1719249  43.8233921  95.3061362  70.4689258  37.1362027
  94.6635742  70.7621792  36.4901822  94.8016291  70.3542179  37.9415224
  92.9601526  74.2152432  27.8247887  93.8719382  74.4479818  27.6495584
  92.4511173  74.7989476  27.2622965  85.7686954  76.4947919  42.8637018
  86.5101638  77.0332963  42.5871841  85.0623939  77.1214208  43.0208569
  91.2442293  78.6377059  41.4609179  91.6525649  78.1959470  40.7163811
  90.5219555  78.0629687  41.7143372  87.5973363  73.5749666  38.8342736
  88.4434559  73.9989080  38.9777385  87.5372001  72.9183291  39.5281299
  91.5671108  79.1978250  35.2161468  90.9379970  79.3623964  34.5137536
  91.1796770  79.6119860  35.9872432  95.4460340  80.1332688  32.5705832
  94.7611378  80.5131589  32.0202865  95.5304189  80.7428015  33.3037780
  90.7472809  71.2354035  40.4923910  90.5033741  71.9896095  39.9558185
  91.0232739  71.6139382  41.3271157  92.7011271  77.7792647  39.1701175
  92.9128167  78.4224407  38.4935556  92.6541020  76.9454964  38.7023105
  90.3037500  70.3910468  36.0737747  89.4421979  70.6891721  36.3654485
  90.3299935  70.6080866  35.1418780  87.1199070  78.9352658  32.4811553
  87.5837415  79.2140361  31.6916176  86.8555868  78.0336103  32.2984644
  84.0123151  78.4824140  35.4191316  84.5824508  78.9111408  34.7808801
  84.6031263  78.2006724  36.1175502  86.0567956  75.0575811  29.2901118
  86.7591999  75.5096854  29.7575045  85.7248584  74.4159629  29.9181011
  84.5048317  73.6487567  43.6652328  83.8746978  74.3303848  43.8987724
  84.3984405  73.5370649  42.7205466  79.7993290  73.3159363  34.5918252
  79.0092344  73.5716892  34.1158362  80.2904537  74.1307701  34.6970292
  93.8157099  80.6564602  37.3423533  94.6374543  80.2544790  37.0606214
  93.8119502  80.5532837  38.2939648  81.7508035  73.6803942  31.5501729
  80.9539199  73.7922637  32.0685224  81.5233627  74.0190595  30.6842619
  87.5813703  80.2048646  39.4984243  87.6458135  80.6669053  40.3342415
  86.8724627  79.5746011  39.6266553  78.0830993  73.5689854  37.0233243
  78.3339031  74.4536864  37.2890819  78.6190541  73.3894455  36.2508334
 101.9063092  77.0003351  33.6908504 101.1526801  76.4310749  33.5352509
 102.0410634  76.9666015  34.6379139  87.2961721  81.8716753  29.3663223
  87.1607395  82.7168289  29.7948071  87.8371533  82.0736031  28.6029157
  83.7829060  67.9508333  46.0277579  83.3896006  67.3974532  46.7025223
  84.5995201  68.2618911  46.4184096  80.7491118  79.3892191  29.9391149
  81.2615638  80.1835441  30.0896713  81.4013831  78.6918482  29.8724750
  82.5586003  82.5057947  32.0213902  82.7352631  83.4275912  31.8334886
  83.3542836  82.1916367  32.4508282  86.6997021  69.3666212  43.6197835
  87.4406735  69.9673365  43.5402298  86.9314944  68.6243850  43.0615878
  81.8438359  74.5522579  41.8976065  81.7291874  73.6507837  42.1983164
  80.9882877  74.7986276  41.5460881  88.9230197  82.4940320  43.4963566
  88.4794051  81.7076698  43.1784470  89.5847411  82.6819470  42.8307456
  83.6817318  84.0236121  38.0224244  84.2324743  83.8953185  37.2501238
  82.8428794  84.3231010  37.6719137  91.0211435  82.7743120  41.5244967
  91.0029910  83.5952001  41.0325236  91.9431355  82.6497195  41.7495108
  87.4784489  80.2887249  42.3668475  88.0112826  79.5275537  42.1367783
  86.9498570  79.9960901  43.1092630  90.6454184  65.3947315  37.8962117
  90.3018454  66.2848957  37.8201228  91.0133147  65.2048973  37.0331702
  78.7140035  77.7180845  30.7150719  79.5515257  78.1277854  30.4984427
  78.8918302  76.7780288  30.6850913  90.6104467  75.3855926  26.4034552
  90.0951090  76.1560531  26.6422939  90.3381775  74.7121062  27.0267613
  88.1951578  70.2305627  31.4619790  87.3393174  69.8412477  31.2825429
  88.6078530  70.3097588  30.6019576  89.7250724  67.7651970  35.8611350
  89.2215520  67.7282105  35.0479155  90.0181331  68.6744713  35.9208007
  85.9693610  67.8490700  34.8677532  86.8346607  67.6533509  34.5083421
  86.0371119  67.6201052  35.7946889  95.5838741  78.1388281  28.3387726
  94.8068184  77.7999440  27.8942888  96.2630222  78.1440904  27.6642691
  90.3990770  73.2583018  28.2294333  90.0940906  73.5729167  29.0804476
  91.3521212  73.3364438  28.2721666  88.8437202  79.4173242  29.8787287
  88.3158563  78.6826001  29.5660525  88.3424705  80.1947918  29.6327256
  93.8230048  77.6122262  34.9954333  93.1653722  78.3021523  35.0834462
  94.6270447  78.0018694  35.3388320  83.5755929  70.0792908  32.2393899
  84.1499681  69.8568089  31.5067092  84.1626912  70.1481602  32.9922500
  92.6335507  75.9666635  33.0458275  93.1467388  76.5996627  33.5479985
  93.2836731  75.3667830  32.6801635  83.9025517  72.1097369  26.2589784
  83.0662829  72.4472055  26.5799059  83.7630286  71.9746349  25.3216921
  85.8778597  66.9534157  30.9668968  85.2243010  66.6383174  30.3425583
  85.8359071  66.3309897  31.6928791  86.9889802  77.2353452  22.8822260
  86.0816864  77.0042705  23.0813409  87.4860834  76.4391071  23.0696242
  89.8957881  85.9450959  25.8018946  89.2219580  86.2482656  26.4103904
  90.2823703  86.7480039  25.4524403  89.1116338  73.4416090  35.2916616
  88.1938899  73.6631037  35.1338304  89.5276481  73.5162401  34.4328323
  89.8951385  74.8407506  30.4219296  90.6423204  75.3528903  30.1126418
  90.1642975  74.5191559  31.2823690  88.1678035  77.3366047  27.4046250
  87.2589255  77.0525079  27.5018720  88.1973119  77.7565125  26.5449557
  93.3997303  80.9472636  31.1737418  92.9459630  80.1063546  31.2302608
  92.7691270  81.5834035  31.5112198  92.3430222  71.8764622  32.4038085
  91.6052979  71.3642008  32.7348328  92.5956996  71.4365004  31.5921362
  91.8430242  82.7849133  32.1087236  92.1353216  83.3454190  31.3899602
  92.3528863  83.0777694  32.8640395  92.4441850  64.6540874  32.9979855
  92.7500727  63.7938238  32.7105770  93.1694455  65.2458494  32.7978849
  78.7366206  75.0571561  31.3861453  78.5390606  74.4640922  30.6612519
  78.1812870  74.7523771  32.1037391  86.7162930  74.9494667  33.5056046
  86.7711539  73.9968504  33.4298522  85.9054132  75.1054106  33.9897344
  87.8654123  78.8774790  24.7434329  87.4273553  78.1610649  24.2839966
  88.6064564  79.1050905  24.1819420  84.6555289  73.5671727  31.2646425
  83.8423155  73.8665898  31.6711617  85.1514284  73.1727416  31.9820907
  86.8063867  83.5629484  33.1980689  86.7640046  83.7890330  32.2689221
  87.7226566  83.3292859  33.3466490  90.2529501  74.0313552  40.0961318
  90.6078889  74.2585025  40.9555784  90.9001632  74.3631928  39.4738574
  95.9827238  77.1531987  30.8010647  95.8445137  77.3433583  29.8731837
  95.6263457  77.9151370  31.2578699  84.1469364  71.1390083  36.8807659
  84.7868744  70.9978842  36.1830623  83.3146895  70.8524596  36.5046261
  96.0096618  79.2208514  35.8121919  96.4433124  79.1283803  36.6604973
  96.7228198  79.1966015  35.1741935  84.9229668  80.4392513  32.9942652
  85.7170267  79.9442833  32.7925227  84.2121360  79.9110376  32.6310358
  89.7424513  82.8210609  37.3455020  89.7961535  83.3901545  38.1132735
  88.8739294  82.9912494  36.9809057  81.2312432  74.5835595  29.0702405
  80.3010020  74.5220050  29.2872367  81.3269904  74.0611547  28.2739046
  82.6222906  72.5228165  38.8279471  83.2945959  72.3145527  38.1792120
  81.7952692  72.3250251  38.3884703  96.8712167  79.2632215  38.3454804
  97.0648057  80.1678026  38.5914079  96.7712785  78.8039634  39.1793389
  88.5248478  69.1490106  40.8445132  87.8776393  69.8480055  40.7509608
  89.2949493  69.5826250  41.2121380  91.9327276  79.4138958  43.9195685
  91.7812782  79.1849509  43.0025769  91.9231955  80.3709559  43.9327030
  88.7012612  76.9870871  38.9041951  89.6304672  77.1382030  38.7310919
  88.2803642  77.0754891  38.0490598  87.5000944  81.0121535  36.6740489
  87.3612030  80.6440319  37.5466427  86.7115540  81.5269174  36.5024447
  88.0949096  86.1130631  28.0166026  88.2700852  85.6418675  28.8311648
  87.4081884  86.7396398  28.2447286  89.0506159  80.3903138  34.0629327
  88.7155992  80.3503908  34.9586977  88.5510105  79.7247854  33.5899737
  83.0250403  75.7970768  39.5881908  82.8870201  75.0651007  40.1893447
  83.9355327  75.7079668  39.3066096  91.9865351  77.7359172  24.3366386
  91.3694522  77.0106000  24.2399439  91.5181839  78.4968532  23.9933461
  85.6532704  75.5090727  39.0765588  86.3632322  74.8683919  39.0352206
  85.6102012  75.7603622  39.9991768  93.6419483  82.4458080  41.9972167
  93.5832029  81.7617300  41.3302750  94.0439001  83.1877070  41.5452793
  84.3661638  72.4955945  40.8961227  83.8298995  72.0446683  41.5482823
  83.7778346  72.6301854  40.1531691  82.6610181  89.2619994  34.7905886
  82.9006780  89.8938518  35.4684904  81.8179378  88.9108034  35.0771245
  83.7763897  71.9544596  23.4587691  82.8993363  71.8333397  23.0949937
  84.2521650  71.1630675  23.2066579  93.6436890  80.4097664  40.2286147
  92.7563669  80.0723586  40.3512545  94.2135441  79.6780696  40.4654912
  87.1738043  85.0699117  37.1947390  87.1008215  85.8754088  37.7066694
  86.7315436  85.2691082  36.3695411  86.9627823  84.3070887  30.7050211
  86.1795345  84.8492567  30.7988436  87.6620568  84.8244866  31.1044452
  90.2724473  70.1165516  33.3484417  90.7693172  69.3635478  33.0285487
  89.5011454  70.1529833  32.7827626  98.1254230  75.8205882  34.9902708
  98.1144107  76.7030597  34.6196641  97.2571610  75.4677432  34.7957245
  89.6336727  84.9685951  39.3505548  90.3464699  85.6033415  39.2781450
  89.1426755  85.0649817  38.5345550  91.3554254  78.8737203  30.9222840
  90.4210532  78.9938666  30.7527544  91.5330922  77.9709670  30.6582850
  86.8559442  72.2582899  33.0756101  86.4857229  71.7053939  33.7637007
  87.3518534  71.6541033  32.5231101  94.7426805  74.7154523  31.4572874
  95.2087257  75.5482514  31.3833177  95.1934305  74.2499504  32.1618133
  84.6848640  82.7180394  40.1711119  85.3858100  83.3516877  40.3240513
  84.2143755  83.0595126  39.4106758  92.8103036  81.0598344  28.4559026
  93.0862880  80.9454938  29.3652900  91.9407535  80.6615829  28.4171199
  92.7143468  67.0835110  35.4963776  91.8006548  67.3139336  35.6645982
  93.1436569  67.1673554  36.3477808  92.4849926  75.2725002  37.9963670
  91.8321376  75.5200909  37.3416122  92.8630306  74.4589140  37.6626147
  89.4457100  85.3084695  32.0991840  89.6279495  84.4906351  32.5619592
  90.2690086  85.5252387  31.6616730  89.7799266  84.2352880  29.3606888
  90.3087032  83.7245334  28.7477050  90.0427485  83.9195410  30.2252421
  88.5337499  76.0144813  44.4829707  87.8578136  75.9138942  45.1532082
  89.3565133  75.8584026  44.9465704  80.2816358  82.2516749  37.1042222
  80.8669795  81.5060437  37.2370126  80.0841197  82.5620706  37.9878886
  83.1355014  85.2867997  32.1204664  82.4665389  85.7714124  31.6368704
  82.9967883  85.5337217  33.0348043  87.2760282  87.3211740  38.7187323
  87.8278590  87.4843362  39.4836408  87.6166476  87.9116178  38.0467347
  81.7277048  71.7410022  42.9682242  82.3549087  71.3587100  43.5819766
  80.8704967  71.5224224  43.3337934  92.1271156  82.1472998  44.5735977
  92.6711060  82.7602956  44.0790932  91.5458001  82.7052576  45.0902990
  78.5042591  73.5486452  28.9000596  78.7996032  72.6397130  28.8467650
  77.6030626  73.5274191  28.5781599  90.4128669  85.2693716  35.7051005
  90.2879809  84.4683455  35.1961950  91.0707761  85.7639909  35.2164975
  82.0336838  71.6242448  34.8828145  81.3123423  72.2378416  34.7435618
  82.8230093  72.1600213  34.8044791  92.4763578  83.0702736  37.3330555
  91.5293913  82.9508087  37.2608882  92.8246351  82.1825234  37.4156816
  84.8363151  68.9596875  41.1568797  85.3597553  69.2059171  41.9195106
  84.6175484  69.7916909  40.7371934  80.2330432  71.2300549  29.0239922
  79.9043138  70.3497928  28.8415027  80.5869803  71.1748218  29.9116311
  89.4810011  82.8655452  33.5334907  89.3334974  81.9372159  33.7142477
  90.3063505  82.8875543  33.0491982  83.3472255  71.5173519  29.3915399
  83.6868328  72.0459440  28.6694008  83.7944376  71.8553925  30.1673966
  93.0844133  83.6884011  34.6199780  94.0090680  83.4826872  34.4824231
  92.9159436  83.4400412  35.5289121  86.0415696  69.9010570  38.8418467
  85.7012517  69.1018383  39.2439147  85.3354702  70.2012281  38.2695300
  86.6932168  66.9859882  37.2945790  87.5158237  66.5120360  37.1724681
  86.9370232  67.7650366  37.7944477  85.3340403  70.0148141  27.5908692
  86.0548765  70.3929393  27.0872409  84.7105707  70.7337017  27.6943670
  89.4771525  70.7193290  28.5267024  89.6935140  71.6017927  28.2255852
  88.9965593  70.3279503  27.7972666  84.2170747  73.6779003  35.1037769
  84.0715328  73.9919306  35.9962050  83.7395950  74.2963903  34.5508668
  86.0767130  70.6681551  35.1518658  86.0628698  69.7722644  34.8150956
  86.7939558  70.6752215  35.7856945  87.9293260  71.1018891  37.1971786
  87.6711038  72.0235962  37.1956116  87.3978301  70.7049326  37.8872250
  92.8739449  84.2069678  29.9761871  93.0476327  83.6416101  29.2235724
  93.3668340  85.0070573  29.7941361  78.6916409  76.2184347  38.0425430
  78.1469877  76.9944155  38.1745704  79.5695759  76.5655152  37.8844552
  85.4804026  69.5495931  30.4206229  85.6019937  68.6212577  30.6197116
  85.1906068  69.5634617  29.5084544  88.3495216  67.2350841  33.5572948
  88.3716913  67.2990175  32.6024928  88.7663275  66.3955350  33.7513455
  98.7278840  76.9706101  31.5952171  99.1709986  76.2213426  31.1971294
  97.8505351  76.9616237  31.2125903  93.8614622  83.5236443  27.0758770
  94.5565526  84.1443135  27.2946084  94.2037772  82.6731794  27.3511147
  79.4782431  75.3454243  40.9355587  78.7364167  75.4936879  41.5220217
  79.1575175  75.6062509  40.0722336  95.7606045  80.9736148  28.6046100
  96.2857369  81.3123421  27.8795420  95.6728397  80.0383163  28.4209235
  87.4226093  84.8870222  40.7335977  87.7313220  84.6419368  41.6058677
  88.2201575  85.0916860  40.2454847  87.4446705  87.0408131  32.9641354
  87.0051696  86.5484510  33.6574210  88.1954822  86.4981099  32.7233429
  79.9239044  83.2319672  32.9665982  80.7497064  82.9323444  32.5864625
  79.5733096  82.4627295  33.4155770  84.8920578  82.5846140  35.0363655
  84.2700587  81.9216845  34.7365883  85.5625445  82.6107272  34.3537303
  78.1247650  81.1505999  33.9254915  77.2879558  80.7228173  33.7438916
  78.0971295  81.3438442  34.8625706  84.9645105  71.0627928  44.6296161
  85.0133261  71.9390051  44.2473931  85.5067619  70.5205321  44.0567804
  95.4499951  81.6069052  43.9097298  94.6595495  81.5893191  43.3701798
  95.2133305  82.1457345  44.6646335  95.5697826  78.4561518  41.2230027
  95.6195831  78.2911525  42.1645550  95.4611749  77.5888777  40.8327908
  84.4534085  81.1350064  28.5122116  84.6022205  81.8185528  27.8588788
  85.2600528  81.1155154  29.0271571  92.8601588  74.4392446  42.5389334
  93.7611451  74.2998911  42.2473331  92.9349563  74.6046901  43.4787511
  87.1944394  71.8159301  41.3842520  86.3247703  72.1092867  41.1125108
  87.4303874  72.3999746  42.1049784  97.0716023  80.8758460  41.4672048
  96.7800831  81.2388440  42.3035509  96.4588154  80.1625468  41.2885380
  98.2711705  78.4411339  33.9874619  99.1058596  78.8801143  34.1512179
  98.4070834  77.9649993  33.1682864  95.3203211  75.9991074  39.9352106
  95.7957333  76.1918720  39.1270958  94.3968776  76.0550260  39.6895490
  82.2086718  77.1615241  29.5183185  81.9632759  76.2577571  29.7163395
  82.3782632  77.1632392  28.5762663  89.8983427  68.0338918  38.9007940
  90.4165371  68.7699945  38.5754429  89.5438560  68.3402911  39.7354699
  81.4782365  72.8943599  27.0169346  80.7851610  72.9687954  26.3609382
  81.2334117  72.1303943  27.5390863  90.1496022  64.4539200  34.4208837
  90.4297775  63.7862389  35.0469263  90.9346629  64.6468296  33.9083501
  87.9529490  83.6298194  25.9833863  87.3803457  84.2488381  25.5304335
  88.5262284  84.1797556  26.5173785  94.0204880  72.8756834  38.1680412
  94.9722303  72.9754932  38.1892636  93.8508330  72.0835103  38.6778496
  92.0419259  69.9612417  38.3539813  91.4469192  70.2417430  37.6586302
  91.7568956  70.4506318  39.1256554  91.1726750  83.9135344  27.1142445
  92.1057423  83.8480906  27.3175321  91.0849963  84.7491611  26.6556978
  93.8014767  83.2301215  24.0746393  93.7228398  82.8961078  24.9682151
  94.6224433  83.7222983  24.0737865  96.4992958  76.0962954  37.2822712
  96.4669278  75.1578955  37.4682395  97.1093581  76.1746991  36.5488537
  88.3376289  74.9659007  23.3249916  89.2835393  74.8365215  23.3938334
  87.9590534  74.2273669  23.8019344  96.6487446  72.8873997  37.3280995
  96.1326495  72.1032454  37.1410924  97.5327395  72.5592714  37.4927514
  94.3098173  66.6315013  33.2876807  94.1122994  66.3230101  34.1720139
  94.9197879  67.3576652  33.4174737 102.3169508  77.1578961  36.4228748
 103.0472896  76.8964249  36.9836452 101.7076453  76.4207683  36.4630816
 100.3984805  75.2986823  37.0203200  99.6717968  75.1642788  36.4119691
  99.9832092  75.6063652  37.8259918  88.2214981  79.0176753  44.7850573
  89.1417991  79.1955352  44.9790619  88.1864564  78.0732798  44.6330272
  86.5219206  72.8908983  23.2604801  85.6150661  72.5942096  23.3367514
  86.7995187  72.5938801  22.3939087  81.2177054  76.9277788  37.4273354
  81.4363063  77.8594896  37.4461388  81.6302827  76.5685762  38.2128158
  88.1381271  67.4345873  29.4149042  87.3282000  67.0892958  29.7904288
  88.8265688  67.1253417  30.0036654  90.0671820  66.5123920  31.0373339
  90.6202858  66.9319373  31.6963362  90.3041906  65.5859668  31.0796295
  86.0904919  72.5010993  46.8176103  85.9901646  73.4505350  46.7488194
  85.8726461  72.1729232  45.9452173  85.2917990  69.7495919  23.4016780
  86.1537154  70.0750817  23.6612597  85.4768335  68.9627414  22.8889846
  93.4450627  68.6224445  30.5452003  92.8649296  69.2809249  30.1630055
  93.1786560  67.8001790  30.1339421  91.8954193  68.0229503  32.7473323
  92.3953972  68.1346037  31.9387642  92.5389801  67.7190556  33.3874132
  85.9536189  75.9308132  45.6341164  85.4703271  76.7308492  45.8405053
  86.0397128  75.9416077  44.6808608  79.2222149  77.7636512  33.5562984
  79.1992837  77.8624199  32.6044867  79.5322785  78.6101663  33.8780150
  81.8809527  79.8212667  37.6709598  82.8352780  79.7896609  37.6039530
  81.6822050  79.3603291  38.4859824  82.4708909  78.3913783  40.2380396
  83.2901798  78.8857862  40.2615233  82.7445716  77.4745751  40.2097963
  92.2275505  70.7824535  29.6008351  91.3401360  71.0674186  29.3828546
  92.6429494  70.6218299  28.7535628  95.5790041  70.8071056  33.3162691
  96.3550431  71.2967509  33.5887307  94.8538175  71.2329111  33.7734560
  98.0162600  71.5198676  34.3736631  98.6107090  71.2794412  33.6629939
  98.0889183  70.8005806  35.0010168  80.2359755  85.3632287  34.6879796
  80.1014223  84.6032687  34.1217794  79.8191818  86.0873186  34.2208585
  91.3718718  80.5469210  23.6956371  92.0754568  80.7519213  24.3114027
  90.6481367  81.1145972  23.9605455  92.2016529  76.2979071  29.8158642
  92.1451730  76.7547623  28.9766274  92.7544871  75.5369756  29.6381484
  96.0121335  72.0868803  30.6408761  95.7558269  71.6865439  31.4716969
  95.3874203  72.8012597  30.5158900 100.3233672  74.8264876  33.1480052
  99.7633230  74.8958066  33.9211614  99.7177176  74.6505861  32.4279549
  83.3928881  86.2601604  34.8998239  83.2761265  87.2047036  34.7976929
  82.5721327  85.9575165  35.2884038  93.2805416  80.9851739  25.7454831
  94.1151020  80.5532938  25.5632306  93.1189759  80.8133753  26.6731726
  92.9351308  77.4883853  27.1111171  92.8800112  77.3228124  26.1699615
  92.3097363  78.1959885  27.2673360  77.7243823  72.7251917  40.9372593
  78.3702686  72.2150871  41.4259818  77.5160974  73.4620599  41.5116018
  90.2497215  79.7932764  46.4364733  91.1188375  79.9673417  46.0751368
  89.7703967  80.6127181  46.3140463  86.2447433  66.9891962  26.6896489
  86.2326103  67.9333801  26.8464760  87.1370855  66.8062107  26.3955950
  84.4183395  86.9129865  38.1154167  85.3210642  86.9453476  38.4320662
  84.1920765  85.9830316  38.1300503  86.1736997  85.6660852  34.7764246
  85.2232628  85.6662714  34.6628618  86.4769483  84.9193587  34.2600280
  90.0599553  63.5834738  30.9442426  89.2931949  63.0293225  31.0899108
  90.4710258  63.6556607  31.8056578  82.0641314  69.8719534  45.0347607
  82.9272775  69.5156339  45.2450932  81.4906725  69.5333429  45.7223011
 101.9089691  91.5021390  35.8410008 102.5468101  91.3828138  35.1373348
 101.7910534  92.4502234  35.8997960  98.7179397  91.4548818  35.7771533
  98.3797909  91.3389883  34.8892068  99.5869165  91.0539984  35.7572539
  94.5766213  93.3084295  31.7668424  94.0131078  93.2174232  30.9984712
  94.4618608  92.4884199  32.2470916  99.1999180  92.6083670  41.7357738
  99.1887821  92.2136468  40.8638242  99.3619820  91.8749743  42.3291510
  92.1230645  94.8035486  34.6052644  92.9151937  94.4626311  34.1898944
  92.3627295  94.9130462  35.5254798 100.1565772  96.9755263  27.0782889
  99.5053751  97.5609343  26.6916902 100.9510134  97.5061458  27.1377926
  94.0821399  94.0644400  27.4770023  94.8552275  93.5173387  27.3382899
  94.4346798  94.9288649  27.6884484  95.9206441  95.3920782  40.6836922
  95.6296307  96.2966413  40.5683589  96.5563426  95.4337310  41.3980992
  96.8462648  92.7697631  37.2738282  97.4426220  92.5453653  36.5595245
  96.9037620  92.0282376  37.8763730  96.4187676  90.2237066  25.1088473
  96.6713197  89.7018587  24.3471936  95.4812236  90.0603211  25.2115157
 101.4630959  89.2272844  32.9163216 102.2494049  88.8092267  32.5653633
 101.7269664  90.1318936  33.0844865 101.6341037  94.6645695  27.6151873
 100.9986870  94.7380321  28.3272778 101.3038443  95.2539293  26.9370952
 106.8639386  89.1648077  33.8196195 107.5964558  88.5947294  34.0534024
 106.1078742  88.7769678  34.2602700  96.1383965  92.1265172  27.3112848
  96.0220223  91.4510075  27.9793932  96.2486225  91.6397546  26.4945001
  98.4815506  91.5875319  31.0159537  98.1173713  91.0605940  31.7272459
  99.3382622  91.1973788  30.8426023 104.3864807  82.8769652  38.2790803
 104.0548132  83.7465062  38.0552018 103.7910420  82.5605936  38.9584834
  98.1220993  86.6165219  26.0120886  98.2895395  87.4845455  26.3791357
  97.9318162  86.7792500  25.0882175 100.8796326  95.0782198  37.6786716
 100.5797049  95.9807236  37.5702523 100.5347386  94.8114381  38.5307869
  94.3308808  91.5295994  33.7123420  93.4059304  91.3972208  33.9201112
  94.5793221  92.3090214  34.2093363 104.2793470  87.5964738  35.3584153
 103.3710347  87.5280146  35.0642914 104.2281066  88.0736683  36.1865979
  98.1010214  89.0722876  26.9967552  97.9809839  89.5179927  27.8353033
  97.4062802  89.4208194  26.4381091  91.6917619  91.1729268  34.5467210
  91.8210000  91.4263747  35.4606621  91.0115070  91.7656976  34.2271865
  95.8617106 101.8426518  30.6457684  95.7841136 102.7934343  30.7246164
  95.2578750 101.4972390  31.3032610  98.3534336  89.0154383  43.3019051
  97.5767670  89.5748303  43.2921915  98.9924899  89.5011166  43.8233921
 106.1455117  85.7981176  37.1362027 105.5029497  86.0913709  36.4901822
 105.6410045  85.6834096  37.9415224 103.7995280  89.5444349  27.8247887
 104.7113136  89.7771736  27.6495584 103.2904927  90.1281394  27.2622965
  96.6080708  91.8239837  42.8637018  97.3495393  92.3624881  42.5871841
  95.9017694  92.4506125  43.0208569 102.0836048  93.9668977  41.4609179
 102.4919404  93.5251388  40.7163811 101.3613309  93.3921605  41.7143372
  98.4367118  88.9041584  38.8342736  99.2828313  89.3280997  38.9777385
  98.3765756  88.2475208  39.5281299 102.4064862  94.5270168  35.2161468
 101.7773725  94.6915882  34.5137536 102.0190525  94.9411777  35.9872432
 106.2854094  95.4624606  32.5705832 105.6005133  95.8423507  32.0202865
 106.3697944  96.0719932  33.3037780 101.5866563  86.5645952  40.4923910
 101.3427495  87.3188013  39.9558185 101.8626494  86.9431300  41.3271157
 103.5405026  93.1084565  39.1701175 103.7521921  93.7516325  38.4935556
 103.4934774  92.2746881  38.7023105 101.1431255  85.7202385  36.0737747
 100.2815734  86.0183639  36.3654485 101.1693690  85.9372784  35.1418780
  97.9592824  94.2644576  32.4811553  98.4231170  94.5432279  31.6916176
  97.6949622  93.3628020  32.2984644  94.8516905  93.8116057  35.4191316
  95.4218262  94.2403326  34.7808801  95.4425017  93.5298642  36.1175502
  96.8961710  90.3867728  29.2901118  97.5985754  90.8388772  29.7575045
  96.5642339  89.7451547  29.9181011  95.3442072  88.9779485  43.6652328
  94.7140733  89.6595766  43.8987724  95.2378160  88.8662566  42.7205466
  90.6387044  88.6451281  34.5918252  89.8486098  88.9008809  34.1158362
  91.1298292  89.4599619  34.6970292 104.6550854  95.9856520  37.3423533
 105.4768298  95.5836707  37.0606214 104.6513257  95.8824754  38.2939648
  92.5901790  89.0095860  31.5501729  91.7932953  89.1214554  32.0685224
  92.3627382  89.3482512  30.6842619  98.4207457  95.5340563  39.4984243
  98.4851890  95.9960971  40.3342415  97.7118381  94.9037928  39.6266553
  88.9224747  88.8981771  37.0233243  89.1732786  89.7828781  37.2890819
  89.4584296  88.7186373  36.2508334 112.7456847  92.3295269  33.6908504
 111.9920555  91.7602667  33.5352509 112.8804388  92.2957933  34.6379139
  98.1355475  97.2008671  29.3663223  98.0001150  98.0460207  29.7948071
  98.6765288  97.4027948  28.6029157  94.6222815  83.2800251  46.0277579
  94.2289760  82.7266449  46.7025223  95.4388955  83.5910829  46.4184096
  91.5884872  94.7184109  29.9391149  92.1009393  95.5127359  30.0896713
  92.2407585  94.0210399  29.8724750  93.3979757  97.8349865  32.0213902
  93.5746385  98.7567830  31.8334886  94.1936591  97.5208284  32.4508282
  97.5390776  84.6958130  43.6197835  98.2800489  85.2965283  43.5402298
  97.7708698  83.9535768  43.0615878  92.6832114  89.8814497  41.8976065
  92.5685629  88.9799754  42.1983164  91.8276631  90.1278194  41.5460881
  99.7623951  97.8232237  43.4963566  99.3187806  97.0368616  43.1784470
 100.4241165  98.0111388  42.8307456  94.5211073  99.3528039  38.0224244
  95.0718498  99.2245102  37.2501238  93.6822548  99.6522928  37.6719137
 101.8605189  98.1035037  41.5244967 101.8423665  98.9243918  41.0325236
 102.7825110  97.9789112  41.7495108  98.3178244  95.6179167  42.3668475
  98.8506580  94.8567455  42.1367783  97.7892325  95.3252819  43.1092630
 101.4847939  80.7239233  37.8962117 101.1412208  81.6140874  37.8201228
 101.8526901  80.5340890  37.0331702  89.5533789  93.0472763  30.7150719
  90.3909011  93.4569772  30.4984427  89.7312057  92.1072205  30.6850913
 101.4498221  90.7147844  26.4034552 100.9344845  91.4852448  26.6422939
 101.1775530  90.0412980  27.0267613  99.0345332  85.5597545  31.4619790
  98.1786929  85.1704395  31.2825429  99.4472284  85.6389505  30.6019576
 100.5644479  83.0943888  35.8611350 100.0609275  83.0574023  35.0479155
 100.8575086  84.0036631  35.9208007  96.8087365  83.1782618  34.8677532
  97.6740362  82.9825426  34.5083421  96.8764874  82.9492969  35.7946889
 106.4232495  93.4680198  28.3387726 105.6461938  93.1291358  27.8942888
 107.1023976  93.4732822  27.6642691 101.2384524  88.5874936  28.2294333
 100.9334660  88.9021085  29.0804476 102.1914967  88.6656356  28.2721666
  99.6830956  94.7465159  29.8787287  99.1552318  94.0117919  29.5660525
  99.1818459  95.5239836  29.6327256 104.6623802  92.9414180  34.9954333
 104.0047477  93.6313441  35.0834462 105.4664202  93.3310612  35.3388320
  94.4149684  85.4084826  32.2393899  94.9893436  85.1860007  31.5067092
  95.0020666  85.4773520  32.9922500 103.4729261  91.2958552  33.0458275
 103.9861143  91.9288544  33.5479985 104.1230485  90.6959748  32.6801635
  94.7419271  87.4389287  26.2589784  93.9056583  87.7763973  26.5799059
  94.6024041  87.3038266  25.3216921  96.7172352  82.2826074  30.9668968
  96.0636764  81.9675092  30.3425583  96.6752826  81.6601815  31.6928791
  97.8283557  92.5645369  22.8822260  96.9210618  92.3334623  23.0813409
  98.3254589  91.7682989  23.0696242  99.9510092  88.7708008  35.2916616
  99.0332653  88.9922955  35.1338304 100.3670236  88.8454318  34.4328323
 100.7345140  90.1699424  30.4219296 101.4816959  90.6820821  30.1126418
 101.0036729  89.8483476  31.2823690  99.0071790  92.6657964  27.4046250
  98.0983009  92.3816997  27.5018720  99.0366874  93.0857043  26.5449557
 104.2391057  96.2764554  31.1737418 103.7853384  95.4355464  31.2302608
 103.6085024  96.9125952  31.5112198 103.1823977  87.2056540  32.4038085
 102.4446734  86.6933926  32.7348328 103.4350750  86.7656921  31.5921362
 102.6823997  98.1141051  32.1087236 102.9746971  98.6746108  31.3899602
 103.1922617  98.4069612  32.8640395 103.2835604  79.9832792  32.9979855
 103.5894481  79.1230155  32.7105770 104.0088209  80.5750412  32.7978849
  89.5759960  90.3863478  31.3861453  89.3784360  89.7932839  30.6612519
  89.0206624  90.0815689  32.1037391  97.5556684  90.2786585  33.5056046
  97.6105294  89.3260421  33.4298522  96.7447886  90.4346024  33.9897344
  98.7047878  94.2066708  24.7434329  98.2667308  93.4902567  24.2839966
  99.4458319  94.4342823  24.1819420  95.4949044  88.8963645  31.2646425
  94.6816909  89.1957815  31.6711617  95.9908038  88.5019333  31.9820907
  97.6457622  98.8921402  33.1980689  97.6033801  99.1182248  32.2689221
  98.5620321  98.6584776  33.3466490 101.0923256  89.3605469  40.0961318
 101.4472643  89.5876942  40.9555784 101.7395387  89.6923846  39.4738574
 106.8220993  92.4823905  30.8010647 106.6838891  92.6725501  29.8731837
 106.4657211  93.2443288  31.2578699  94.9863119  86.4682000  36.8807659
  95.6262498  86.3270759  36.1830623  94.1540649  86.1816514  36.5046261
 106.8490372  94.5500432  35.8121919 107.2826879  94.4575721  36.6604973
 107.5621953  94.5257933  35.1741935  95.7623423  95.7684431  32.9942652
  96.5564021  95.2734751  32.7925227  95.0515115  95.2402294  32.6310358
 100.5818267  98.1502526  37.3455020 100.6355289  98.7193462  38.1132735
  99.7133048  98.3204411  36.9809057  92.0706186  89.9127512  29.0702405
  91.1403774  89.8511968  29.2872367  92.1663658  89.3903465  28.2739046
  91.9891735  86.4382325  31.6580646  92.2498552  87.3527658  31.5489807
  92.8108907  85.9706768  31.8077259  93.4616660  87.8520082  38.8279471
  94.1339714  87.6437445  38.1792120  92.6346447  87.6542168  38.3884703
 107.7105922  94.5924133  38.3454804 107.9041812  95.4969943  38.5914079
 107.6106540  94.1331552  39.1793389  99.3642232  84.4782023  40.8445132
  98.7170147  85.1771973  40.7509608 100.1343248  84.9118167  41.2121380
 102.7721030  94.7430875  43.9195685 102.6206537  94.5141427  43.0025769
 102.7625710  95.7001477  43.9327030  99.5406367  92.3162788  38.9041951
 100.4698427  92.4673948  38.7310919  99.1197397  92.4046809  38.0490598
  98.3394699  96.3413453  36.6740489  98.2005784  95.9732237  37.5466427
  97.5509295  96.8561092  36.5024447  98.9342851 101.4422549  28.0166026
  99.1094606 100.9710592  28.8311648  98.2475639 102.0688315  28.2447286
  99.8899914  95.7195055  34.0629327  99.5549746  95.6795825  34.9586977
  99.3903859  95.0539771  33.5899737  93.8644158  91.1262685  39.5881908
  93.7263956  90.3942924  40.1893447  94.7749081  91.0371585  39.3066096
 102.8259105  93.0651090  24.3366386 102.2088276  92.3397918  24.2399439
 102.3575594  93.8260450  23.9933461  96.4926458  90.8382645  39.0765588
  97.2026077  90.1975837  39.0352206  96.4495767  91.0895540  39.9991768
 104.4813237  97.7749998  41.9972167 104.4225783  97.0909218  41.3302750
 104.8832755  98.5168988  41.5452793  95.2055392  87.8247863  40.8961227
  94.6692749  87.3738601  41.5482823  94.6172101  87.9593771  40.1531691
  93.5003936 104.5911912  34.7905886  93.7400534 105.2230436  35.4684904
  92.6573132 104.2399952  35.0771245  94.6157651  87.2836514  23.4587691
  93.7387118  87.1625315  23.0949937  95.0915404  86.4922592  23.2066579
 104.4830644  95.7389582  40.2286147 103.5957423  95.4015504  40.3512545
 105.0529195  95.0072613  40.4654912  86.1359791  92.0713674  33.5529198
  86.8230831  91.7575404  32.9650213  85.9807920  92.9755038  33.2796449
  90.9394514  86.9603870  37.9814222  90.8552702  86.3529540  37.2464632
  90.1177220  87.4512889  37.9823718  98.0131798 100.3991034  37.1947390
  97.9401969 101.2046006  37.7066694  97.5709191 100.5983000  36.3695411
  97.8021577  99.6362804  30.7050211  97.0189099 100.1784485  30.7988436
  98.5014322 100.1536784  31.1044452 101.1118227  85.4457434  33.3484417
 101.6086927  84.6927396  33.0285487 100.3405209  85.4821750  32.7827626
 108.9647985  91.1497799  34.9902708 108.9537861  92.0322515  34.6196641
 108.0965364  90.7969350  34.7957245 100.4730481 100.2977868  39.3505548
 101.1858453 100.9325333  39.2781450  99.9820510 100.3941734  38.5345550
 102.1948008  94.2029121  30.9222840 101.2604287  94.3230583  30.7527544
 102.3724677  93.3001588  30.6582850  97.6953196  87.5874817  33.0756101
  97.3250984  87.0345857  33.7637007  98.1912289  86.9832950  32.5231101
 105.5820559  90.0446440  31.4572874 106.0481012  90.8774432  31.3833177
 106.0328060  89.5791422  32.1618133  95.5242395  98.0472312  40.1711119
  96.2251854  98.6808795  40.3240513  95.0537510  98.3887043  39.4106758
 103.6496791  96.3890262  28.4559026 103.9256634  96.2746856  29.3652900
 102.7801289  95.9907746  28.4171199 103.5537222  82.4127027  35.4963776
 102.6400302  82.6431254  35.6645982 103.9830324  82.4965471  36.3477808
 103.3243681  90.6016919  37.9963670 102.6715131  90.8492827  37.3416122
 103.7024061  89.7881057  37.6626147 100.2850855 100.6376612  32.0991840
 100.4673249  99.8198268  32.5619592 101.1083841 100.8544305  31.6616730
 100.6193020  99.5644798  29.3606888 101.1480787  99.0537252  28.7477050
 100.8821240  99.2487328  30.2252421  99.3731254  91.3436730  44.4829707
  98.6971891  91.2430860  45.1532082 100.1958888  91.1875944  44.9465704
  91.1210113  97.5808667  37.1042222  91.7063550  96.8352355  37.2370126
  90.9234951  97.8912624  37.9878886  93.9748768 100.6159914  32.1204664
  93.3059143 101.1006042  31.6368704  93.8361638 100.8629135  33.0348043
  85.7127768  90.1514267  35.8246665  85.7511867  89.6177858  36.6183783
  85.2068060  89.6249473  35.2057642  98.1154037 102.6503658  38.7187323
  98.6672345 102.8135279  39.4836408  98.4560230 103.2408096  38.0467347
  93.0918530  84.9978808  39.3209207  93.1559856  85.8593638  38.9086605
  93.0285650  84.3852809  38.5881566  92.5670802  87.0701940  42.9682242
  93.1942841  86.6879017  43.5819766  91.7098721  86.8516142  43.3337934
 102.9664911  97.4764915  44.5735977 103.5104815  98.0894874  44.0790932
 102.3851756  98.0344494  45.0902990  89.3436345  88.8778369  28.9000596
  89.6389786  87.9689048  28.8467650  88.4424381  88.8566109  28.5781599
 101.2522424 100.5985633  35.7051005 101.1273563  99.7975373  35.1961950
 101.9101515 101.0931827  35.2164975  92.8730592  86.9534366  34.8828145
  92.1517178  87.5670334  34.7435618  93.6623848  87.4892131  34.8044791
 103.3157332  98.3994653  37.3330555 102.3687668  98.2800005  37.2608882
 103.6640105  97.5117151  37.4156816  95.6756906  84.2888792  41.1568797
  96.1991307  84.5351089  41.9195106  95.4569239  85.1208827  40.7371934
  91.0724187  86.5592467  29.0239922  90.7436893  85.6789846  28.8415027
  91.4263557  86.5040136  29.9116311 100.3203766  98.1947370  33.5334907
 100.1728728  97.2664077  33.7142477 101.1457259  98.2167460  33.0491982
  94.1866010  86.8465437  29.3915399  94.5262082  87.3751358  28.6694008
  94.6338130  87.1845843  30.1673966 103.9237887  99.0175928  34.6199780
 104.8484435  98.8118790  34.4824231 103.7553191  98.7692329  35.5289121
  96.8809451  85.2302487  38.8418467  96.5406271  84.4310300  39.2439147
  96.1748457  85.5304198  38.2695300  97.5325923  82.3151800  37.2945790
  98.3551992  81.8412278  37.1724681  97.7763986  83.0942284  37.7944477
  96.1734157  85.3440058  27.5908692  96.8942520  85.7221311  27.0872409
  95.5499461  86.0628935  27.6943670 100.3165280  86.0485207  28.5267024
 100.5328894  86.9309845  28.2255852  99.8359347  85.6571421  27.7972666
  95.0564501  89.0070920  35.1037769  94.9109082  89.3211224  35.9962050
  94.5789705  89.6255821  34.5508668  96.9160884  85.9973468  35.1518658
  96.9022453  85.1014562  34.8150956  97.6333312  86.0044132  35.7856945
  98.7687015  86.4310809  37.1971786  98.5104793  87.3527879  37.1956116
  98.2372055  86.0341243  37.8872250 103.7133204  99.5361596  29.9761871
 103.8870081  98.9708018  29.2235724 104.2062095 100.3362491  29.7941361
  89.5310163  91.5476265  38.0425430  88.9863632  92.3236073  38.1745704
  90.4089513  91.8947069  37.8844552  96.3197780  84.8787849  30.4206229
  96.4413691  83.9504495  30.6197116  96.0299822  84.8926535  29.5084544
  99.1888970  82.5642759  33.5572948  99.2110667  82.6282092  32.6024928
  99.6057029  81.7247268  33.7513455 109.5672595  92.2998019  31.5952171
 110.0103741  91.5505344  31.1971294 108.6899105  92.2908155  31.2125903
 104.7008376  98.8528360  27.0758770 105.3959281  99.4735053  27.2946084
 105.0431526  98.0023711  27.3511147  90.3176185  90.6746161  40.9355587
  89.5757921  90.8228796  41.5220217  89.9968930  90.9354427  40.0722336
 106.5999799  96.3028066  28.6046100 107.1251123  96.6415338  27.8795420
 106.5122152  95.3675081  28.4209235  98.2619848 100.2162139  40.7335977
  98.5706974  99.9711286  41.6058677  99.0595330 100.4208778  40.2454847
  98.2840460 102.3700049  32.9641354  97.8445450 101.8776428  33.6574210
  99.0348577 101.8273017  32.7233429  90.7632799  98.5611590  32.9665982
  91.5890819  98.2615362  32.5864625  90.4126851  97.7919212  33.4155770
  95.7314332  97.9138058  35.0363655  95.1094341  97.2508763  34.7365883
  96.4019199  97.9399190  34.3537303  88.9641404  96.4797916  33.9254915
  88.1273312  96.0520091  33.7438916  88.9365049  96.6730360  34.8625706
  95.8038860  86.3919846  44.6296161  95.8527015  87.2681969  44.2473931
  96.3461374  85.8497239  44.0567804 106.2893705  96.9360969  43.9097298
 105.4989249  96.9185108  43.3701798 106.0527060  97.4749263  44.6646335
 106.4091580  93.7853436  41.2230027 106.4589585  93.6203443  42.1645550
 106.3005504  92.9180695  40.8327908  95.2927839  96.4641981  28.5122116
  95.4415959  97.1477446  27.8588788  96.0994283  96.4447071  29.0271571
 103.6995343  89.7684364  42.5389334 104.6005206  89.6290829  42.2473331
 103.7743317  89.9338819  43.4787511  98.0338148  87.1451219  41.3842520
  97.1641457  87.4384785  41.1125108  98.2697628  87.7291664  42.1049784
 107.9109777  96.2050377  41.4672048 107.6194585  96.5680358  42.3035509
 107.2981908  95.4917386  41.2885380 109.1105459  93.7703257  33.9874619
 109.9452351  94.2093061  34.1512179 109.2464588  93.2941910  33.1682864
 106.1596965  91.3282992  39.9352106 106.6351087  91.5210638  39.1270958
 105.2362531  91.3842178  39.6895490  93.0480472  92.4907159  29.5183185
  92.8026514  91.5869489  29.7163395  93.2176387  92.4924309  28.5762663
 100.7377182  83.3630835  38.9007940 101.2559126  84.0991862  38.5754429
 100.3832315  83.6694829  39.7354699  92.3176120  88.2235517  27.0169346
  91.6245365  88.2979872  26.3609382  92.0727871  87.4595860  27.5390863
 100.9889776  79.7831118  34.4208837 101.2691530  79.1154307  35.0469263
 101.7740383  79.9760214  33.9083501  98.7923245  98.9590112  25.9833863
  98.2197212  99.5780299  25.5304335  99.3656038  99.5089474  26.5173785
 104.8598634  88.2048752  38.1680412 105.8116057  88.3046850  38.1892636
 104.6902085  87.4127021  38.6778496 102.8813014  85.2904335  38.3539813
 102.2862946  85.5709348  37.6586302 102.5962711  85.7798236  39.1256554
 102.0120504  99.2427262  27.1142445 102.9451178  99.1772824  27.3175321
 101.9243717 100.0783529  26.6556978 107.3386712  91.4254872  37.2822712
 107.3063032  90.4870872  37.4682395 107.9487336  91.5038908  36.5488537
  99.1770043  90.2950925  23.3249916 100.1229148  90.1657133  23.3938334
  98.7984288  89.5565587  23.8019344 107.4881201  88.2165915  37.3280995
 106.9720249  87.4324372  37.1410924 108.3721149  87.8884632  37.4927514
 105.1491928  81.9606931  33.2876807 104.9516749  81.6522019  34.1720139
 105.7591633  82.6868570  33.4174737 113.1563262  92.4870878  36.4228748
 113.8866651  92.2256167  36.9836452 112.5470208  91.7499600  36.4630816
 111.2378559  90.6278741  37.0203200 110.5111723  90.4934706  36.4119691
 110.8225846  90.9355570  37.8259918  99.0608736  94.3468671  44.7850573
  99.9811745  94.5247270  44.9790619  99.0258319  93.4024716  44.6330272
  97.3612960  88.2200901  23.2604801  96.4544416  87.9234014  23.3367514
  97.6388941  87.9230719  22.3939087  88.2790901  89.5407264  33.7103847
  87.9593685  88.6872573  33.4178221  87.7324329  89.7555843  34.4661815
  92.0570808  92.2569705  37.4273354  92.2756818  93.1886813  37.4461388
  92.4696582  91.8977680  38.2128158  98.9775026  82.7637791  29.4149042
  98.1675754  82.4184876  29.7904288  99.6659443  82.4545334  30.0036654
 100.9065574  81.8415838  31.0373339 101.4596613  82.2611291  31.6963362
 101.1435661  80.9151586  31.0796295  96.9298673  87.8302911  46.8176103
  96.8295400  88.7797268  46.7488194  96.7120216  87.5021150  45.9452173
  96.1311745  85.0787836  23.4016780  96.9930909  85.4042735  23.6612597
  96.3162089  84.2919332  22.8889846  88.1479161  93.1610176  35.6796969
  87.4542632  92.7464129  35.1666923  88.8952152  93.2030712  35.0830388
 104.2844381  83.9516363  30.5452003 103.7043050  84.6101167  30.1630055
 104.0180314  83.1293707  30.1339421 102.7347948  83.3521420  32.7473323
 103.2347726  83.4637955  31.9387642 103.3783556  83.0482473  33.3874132
  96.7929944  91.2600050  45.6341164  96.3097025  92.0600410  45.8405053
  96.8790883  91.2707995  44.6808608  90.0615903  93.0928430  33.5562984
  90.0386591  93.1916117  32.6044867  90.3716540  93.9393580  33.8780150
  92.7203281  95.1504585  37.6709598  93.6746535  95.1188527  37.6039530
  92.5215805  94.6895208  38.4859824  93.3102663  93.7205701  40.2380396
  94.1295552  94.2149779  40.2615233  93.5839471  92.8037669  40.2097963
 103.0669259  86.1116453  29.6008351 102.1795114  86.3966104  29.3828546
 103.4823248  85.9510216  28.7535628 106.4183795  86.1362974  33.3162691
 107.1944186  86.6259426  33.5887307 105.6931930  86.5621028  33.7734560
 108.8556354  86.8490593  34.3736631 109.4500845  86.6086329  33.6629939
 108.9282938  86.1297724  35.0010168  91.0753510 100.6924204  34.6879796
  90.9407978  99.9324605  34.1217794  90.6585572 101.4165104  34.2208585
 103.0410283  91.6270989  29.8158642 102.9845484  92.0839540  28.9766274
 103.5938626  90.8661674  29.6381484 106.8515089  87.4160721  30.6408761
 106.5952023  87.0157357  31.4716969 106.2267957  88.1304515  30.5158900
 111.1627427  90.1556794  33.1480052 110.6026985  90.2249983  33.9211614
 110.5570930  89.9797779  32.4279549  94.2322636 101.5893521  34.8998239
  94.1155020 102.5338954  34.7976929  93.4115082 101.2867083  35.2884038
 104.1199170  96.3143657  25.7454831 104.9544774  95.8824855  25.5632306
 103.9583513  96.1425671  26.6731726 103.7745062  92.8175770  27.1111171
 103.7193866  92.6520042  26.1699615 103.1491118  93.5251803  27.2673360
  88.5637577  88.0543835  40.9372593  89.2096441  87.5442789  41.4259818
  88.3554729  88.7912516  41.5116018 101.0890970  95.1224682  46.4364733
 101.9582129  95.2965334  46.0751368 100.6097721  95.9419099  46.3140463
  97.0841188  82.3183879  26.6896489  97.0719858  83.2625719  26.8464760
  97.9764610  82.1354025  26.3955950  95.2577150 102.2421783  38.1154167
  96.1604397 102.2745393  38.4320662  95.0314520 101.3122234  38.1300503
  97.0130752 100.9952770  34.7764246  96.0626383 100.9954631  34.6628618
  97.3163238 100.2485504  34.2600280 100.8993307  78.9126656  30.9442426
 100.1325703  78.3585143  31.0899108 101.3104012  78.9848525  31.8056578
  92.9035068  85.2011452  45.0347607  93.7666530  84.8448257  45.2450932
  92.3300479  84.8625347  45.7223011 112.7483445 106.8313308  35.8410008
 113.3861855 106.7120055  35.1373348 112.6304288 107.7794152  35.8997960
 109.5573152 106.7840736  35.7771533 109.2191663 106.6681801  34.8892068
 110.4262920 106.3831901  35.7572539 110.0392935 107.9375588  41.7357738
 110.0281575 107.5428386  40.8638242 110.2013574 107.2041660  42.3291510
 102.9624399 110.1327404  34.6052644 103.7545691 109.7918229  34.1898944
 103.2021049 110.2422379  35.5254798 106.7600196 110.7212700  40.6836922
 106.4690062 111.6258331  40.5683589 107.3957180 110.7629227  41.3980992
 107.6856403 108.0989548  37.2738282 108.2819975 107.8745571  36.5595245
 107.7431374 107.3574294  37.8763730 115.2258561  98.2061569  38.2790803
 114.8941886  99.0756980  38.0552018 114.6304175  97.8897853  38.9584834
 105.1702562 106.8587912  33.7123420 104.2453059 106.7264126  33.9201112
 105.4186975 107.6382131  34.2093363 115.1187225 102.9256655  35.3584153
 114.2104102 102.8572064  35.0642914 115.0674820 103.4028600  36.1865979
 102.5311373 106.5021186  34.5467210 102.6603754 106.7555665  35.4606621
 101.8508825 107.0948894  34.2271865 109.1928090 104.3446301  43.3019051
 108.4161424 104.9040221  43.2921915 109.8318653 104.8303084  43.8233921
 116.9848871 101.1273094  37.1362027 116.3423251 101.4205627  36.4901822
 116.4803800 101.0126014  37.9415224 107.4474463 107.1531754  42.8637018
 108.1889147 107.6916798  42.5871841 106.7411448 107.7798043  43.0208569
 112.9229802 109.2960895  41.4609179 113.3313158 108.8543305  40.7163811
 112.2007064 108.7213522  41.7143372 109.2760872 104.2333502  38.8342736
 110.1222068 104.6572915  38.9777385 109.2159510 103.5767126  39.5281299
 112.4260318 101.8937870  40.4923910 112.1821250 102.6479930  39.9558185
 112.7020248 102.2723218  41.3271157 111.9825009 101.0494303  36.0737747
 111.1209488 101.3475557  36.3654485 112.0087444 101.2664702  35.1418780
 105.6910660 109.1407975  35.4191316 106.2612017 109.5695243  34.7808801
 106.2818772 108.8590560  36.1175502 106.1835826 104.3071403  43.6652328
 105.5534487 104.9887683  43.8987724 106.0771914 104.1954484  42.7205466
 101.4780799 103.9743199  34.5918252 100.6879853 104.2300727  34.1158362
 101.9692046 104.7891536  34.6970292 103.4295544 104.3387778  31.5501729
 102.6326708 104.4506472  32.0685224 103.2021136 104.6774430  30.6842619
 109.2601212 110.8632481  39.4984243 109.3245644 111.3252888  40.3342415
 108.5512136 110.2329846  39.6266553  99.7618502 104.2273689  37.0233243
 100.0126540 105.1120699  37.2890819 100.2978050 104.0478291  36.2508334
 105.4616569  98.6092168  46.0277579 105.0683515  98.0558367  46.7025223
 106.2782709  98.9202747  46.4184096 108.3784530 100.0250047  43.6197835
 109.1194244 100.6257201  43.5402298 108.6102453  99.2827685  43.0615878
 103.5225868 105.2106415  41.8976065 103.4079383 104.3091672  42.1983164
 102.6670386 105.4570111  41.5460881 105.3604827 114.6819957  38.0224244
 105.9112252 114.5537020  37.2501238 104.5216303 114.9814846  37.6719137
 109.1571998 110.9471084  42.3668475 109.6900335 110.1859373  42.1367783
 108.6286079 110.6544736  43.1092630 112.3241693  96.0531150  37.8962117
 111.9805962  96.9432792  37.8201228 112.6920656  95.8632808  37.0331702
 109.8739087 100.8889462  31.4619790 109.0180683 100.4996313  31.2825429
 110.2866039 100.9681423  30.6019576 111.4038233  98.4235806  35.8611350
 110.9003029  98.3865941  35.0479155 111.6968840  99.3328548  35.9208007
 107.6481119  98.5074535  34.8677532 108.5134116  98.3117344  34.5083421
 107.7158628  98.2784887  35.7946889 105.2543438 100.7376743  32.2393899
 105.8287190 100.5151925  31.5067092 105.8414421 100.8065438  32.9922500
 107.5566106  97.6117992  30.9668968 106.9030518  97.2967009  30.3425583
 107.5146580  96.9893733  31.6928791 110.7903847 104.0999926  35.2916616
 109.8726408 104.3214873  35.1338304 111.2063990 104.1746236  34.4328323
 114.1229359  95.3124710  32.9979855 114.4288236  94.4522073  32.7105770
 114.8481964  95.9042330  32.7978849 100.4153715 105.7155396  31.3861453
 100.2178115 105.1224757  30.6612519  99.8600379 105.4107606  32.1037391
 108.3950438 105.6078503  33.5056046 108.4499048 104.6552339  33.4298522
 107.5841641 105.7637942  33.9897344 106.3342798 104.2255562  31.2646425
 105.5210664 104.5249733  31.6711617 106.8301793 103.8311251  31.9820907
 111.9317010 104.6897387  40.0961318 112.2866398 104.9168860  40.9555784
 112.5789141 105.0215764  39.4738574 105.8256873 101.7973918  36.8807659
 106.4656252 101.6562677  36.1830623 104.9934404 101.5108431  36.5046261
 102.8285490 101.7674243  31.6580646 103.0892307 102.6819576  31.5489807
 103.6502662 101.2998685  31.8077259 104.3010415 103.1812000  38.8279471
 104.9733468 102.9729362  38.1792120 103.4740201 102.9834086  38.3884703
 110.2035987  99.8073941  40.8445132 109.5563902 100.5063891  40.7509608
 110.9737002 100.2410085  41.2121380 110.3800121 107.6454706  38.9041951
 111.3092181 107.7965866  38.7310919 109.9591151 107.7338727  38.0490598
 109.1788453 111.6705370  36.6740489 109.0399539 111.3024155  37.5466427
 108.3903049 112.1853010  36.5024447 104.7037912 106.4554603  39.5881908
 104.5657710 105.7234842  40.1893447 105.6142836 106.3663503  39.3066096
 107.3320213 106.1674562  39.0765588 108.0419831 105.5267755  39.0352206
 107.2889521 106.4187457  39.9991768 106.0449147 103.1539780  40.8961227
 105.5086504 102.7030519  41.5482823 105.4565855 103.2885689  40.1531691
  96.9753546 107.4005591  33.5529198  97.6624586 107.0867321  32.9650213
  96.8201675 108.3046956  33.2796449 101.7788268 102.2895788  37.9814222
 101.6946457 101.6821458  37.2464632 100.9570974 102.7804806  37.9823718
 111.9511982 100.7749351  33.3484417 112.4480681 100.0219314  33.0285487
 111.1798963 100.8113668  32.7827626 108.5346951 102.9166734  33.0756101
 108.1644738 102.3637775  33.7637007 109.0306043 102.3124868  32.5231101
 106.3636149 113.3764229  40.1711119 107.0645609 114.0100712  40.3240513
 105.8931264 113.7178961  39.4106758 114.3930977  97.7418945  35.4963776
 113.4794057  97.9723172  35.6645982 114.8224078  97.8257389  36.3477808
 114.1637435 105.9308837  37.9963670 113.5108885 106.1784744  37.3416122
 114.5417815 105.1172975  37.6626147 110.2125008 106.6728648  44.4829707
 109.5365645 106.5722777  45.1532082 111.0352642 106.5167862  44.9465704
 101.9603867 112.9100585  37.1042222 102.5457304 112.1644272  37.2370126
 101.7628706 113.2204541  37.9878886  96.5521522 105.4806185  35.8246665
  96.5905622 104.9469775  36.6183783  96.0461815 104.9541390  35.2057642
 103.9312284 100.3270725  39.3209207 103.9953611 101.1885556  38.9086605
 103.8679405  99.7144727  38.5881566 103.4064557 102.3993858  42.9682242
 104.0336596 102.0170935  43.5819766 102.5492476 102.1808060  43.3337934
 100.1830100 104.2070287  28.9000596 100.4783541 103.2980965  28.8467650
  99.2818135 104.1858026  28.5781599 103.7124347 102.2826283  34.8828145
 102.9910932 102.8962251  34.7435618 104.5017602 102.8184048  34.8044791
 106.5150660  99.6180710  41.1568797 107.0385062  99.8643007  41.9195106
 106.2962993 100.4500745  40.7371934 101.9117941 101.8884385  29.0239922
 101.5830647 101.0081763  28.8415027 102.2657312 101.8332053  29.9116311
 107.7203205 100.5594405  38.8418467 107.3800026  99.7602218  39.2439147
 107.0142211 100.8596116  38.2695300 108.3719677  97.6443717  37.2945790
 109.1945746  97.1704196  37.1724681 108.6157741  98.4234201  37.7944477
 105.8958256 104.3362838  35.1037769 105.7502836 104.6503141  35.9962050
 105.4183459 104.9547738  34.5508668 107.7554639 101.3265386  35.1518658
 107.7416207 100.4306479  34.8150956 108.4727067 101.3336050  35.7856945
 109.6080769 101.7602726  37.1971786 109.3498547 102.6819797  37.1956116
 109.0765810 101.3633161  37.8872250 100.3703918 106.8768183  38.0425430
  99.8257386 107.6527990  38.1745704 101.2483268 107.2238987  37.8844552
 107.1591535 100.2079766  30.4206229 107.2807446  99.2796413  30.6197116
 106.8693577 100.2218452  29.5084544 110.0282725  97.8934677  33.5572948
 110.0504422  97.9574010  32.6024928 110.4450784  97.0539185  33.7513455
 101.1569940 106.0038079  40.9355587 100.4151676 106.1520714  41.5220217
 100.8362684 106.2646344  40.0722336  99.8035159 111.8089834  33.9254915
  98.9667067 111.3812008  33.7438916  99.7758804 112.0022277  34.8625706
 106.6432614 101.7211764  44.6296161 106.6920770 102.5973887  44.2473931
 107.1855128 101.1789157  44.0567804 114.5389097 105.0976281  42.5389334
 115.4398960 104.9582746  42.2473331 114.6137072 105.2630736  43.4787511
 108.8731903 102.4743136  41.3842520 108.0035212 102.7676702  41.1125108
 109.1091383 103.0583581  42.1049784 111.5770936  98.6922753  38.9007940
 112.0952880  99.4283780  38.5754429 111.2226069  98.9986746  39.7354699
 111.8283531  95.1123036  34.4208837 112.1085284  94.4446225  35.0469263
 112.6134137  95.3052131  33.9083501 115.6992389 103.5340670  38.1680412
 116.6509812 103.6338767  38.1892636 115.5295839 102.7418938  38.6778496
 113.7206768 100.6196253  38.3539813 113.1256700 100.9001266  37.6586302
 113.4356465 101.1090154  39.1256554 118.3274955 103.5457833  37.3280995
 117.8114004 102.7616289  37.1410924 119.2114904 103.2176549  37.4927514
 115.9885682  97.2898848  33.2876807 115.7910503  96.9813937  34.1720139
 116.5985388  98.0160487  33.4174737 109.9002490 109.6760588  44.7850573
 110.8205500 109.8539187  44.9790619 109.8652073 108.7316634  44.6330272
  99.1184655 104.8699182  33.7103847  98.7987439 104.0164490  33.4178221
  98.5718083 105.0847760  34.4661815 102.8964563 107.5861623  37.4273354
 103.1150572 108.5178731  37.4461388 103.3090336 107.2269597  38.2128158
 109.8168780  98.0929708  29.4149042 109.0069509  97.7476793  29.7904288
 110.5053197  97.7837252  30.0036654 111.7459329  97.1707755  31.0373339
 112.2990367  97.5903209  31.6963362 111.9829415  96.2443503  31.0796295
 107.7692428 103.1594829  46.8176103 107.6689155 104.1089186  46.7488194
 107.5513970 102.8313068  45.9452173  98.9872915 108.4902094  35.6796969
  98.2936387 108.0756046  35.1666923  99.7345906 108.5322630  35.0830388
 113.5741702  98.6813338  32.7473323 114.0741481  98.7929873  31.9387642
 114.2177310  98.3774391  33.3874132 107.6323698 106.5891968  45.6341164
 107.1490780 107.3892328  45.8405053 107.7184637 106.5999913  44.6808608
 100.9009658 108.4220347  33.5562984 100.8780346 108.5208035  32.6044867
 101.2110294 109.2685498  33.8780150 103.5597036 110.4796502  37.6709598
 104.5140289 110.4480445  37.6039530 103.3609559 110.0187126  38.4859824
 104.1496418 109.0497618  40.2380396 104.9689307 109.5441697  40.2615233
 104.4233225 108.1329587  40.2097963  99.4031332 103.3835752  40.9372593
 100.0490195 102.8734706  41.4259818  99.1948483 104.1204434  41.5116018
 111.7387062  94.2418574  30.9442426 110.9719458  93.6877060  31.0899108
 112.1497767  94.3140442  31.8056578 103.7428823 100.5303369  45.0347607
 104.6060284 100.1740174  45.2450932 103.1694234 100.1917264  45.7223011
  50.2844466  -1.8647468  28.7217473  50.2257012  -2.5488248  28.0548056
  50.6863984  -1.1228478  28.2698099  48.7696140  -2.1632551  31.2981284
  49.3136044  -1.5502592  30.8036238  48.1882985  -1.6052972  31.8148297
  52.0924934  -2.7036496  30.6342605  51.3020478  -2.7212358  30.0947104
  51.8558289  -2.1648203  31.3891642  53.7141006  -3.4347089  28.1917355
  53.4225814  -3.0717108  29.0280816  53.1013137  -4.1480080  28.0130687
  46.8922198  -4.5172784  33.1610040  47.7613358  -4.3432131  32.7996675
  46.4128950  -3.6978367  33.0385769  58.5514674   7.1915842  22.5655315
  59.1893084   7.0722590  21.8618655  58.4335517   8.1396686  22.6243267
  55.3604380   7.1443270  22.5016839  55.0222892   7.0284335  21.6137374
  56.2294149   6.7434435  22.4817846  55.8424163   8.2978122  28.4603045
  55.8312804   7.9030920  27.5883549  56.0044803   7.5644195  29.0536816
  48.7655628  10.4929938  21.3297951  49.5576920  10.1520763  20.9144250
  49.0052278  10.6024913  22.2500104  52.5631425  11.0815234  27.4082229
  52.2721291  11.9860865  27.2928895  53.1988409  11.1231762  28.1226299
  53.4887631   8.4592082  23.9983589  54.0851204   8.2348105  23.2840552
  53.5462603   7.7176828  24.6009036  63.5064370   4.8542529  20.5441501
  64.2389542   4.2841746  20.7779331  62.7503725   4.4664130  20.9848007
  61.0289790  -1.4335897  25.0036110  60.6973115  -0.5640486  24.7797325
  60.4335403  -1.7499613  25.6830140  57.5221310  10.7676649  24.4032023
  57.2222033  11.6701688  24.2947830  57.1772369  10.5008833  25.2553176
  60.9218453   3.2859190  22.0829460  60.0135331   3.2174598  21.7888221
  60.8706049   3.7631135  22.9111285  52.5042089  17.5320970  17.3702990
  52.4266119  18.4828795  17.4491471  51.9003733  17.1866842  18.0277917
  54.9959319   4.7048835  30.0264357  54.2192653   5.2642755  30.0167222
  55.6349882   5.1905618  30.5479227  62.7880100   1.4875628  23.8607334
  62.1454480   1.7808161  23.2147128  62.2835028   1.3728548  24.6660531
  53.2505691   7.5134289  29.5882324  53.9920376   8.0519333  29.3117148
  52.5442677   8.1400577  29.7453876  58.7261031   9.6563429  28.1854486
  59.1344387   9.2145840  27.4409118  58.0038293   9.0816057  28.4388679
  55.0792101   4.5936036  25.5588043  55.9253296   5.0175449  25.7022692
  55.0190739   3.9369660  26.2526606  59.0489846  10.2164620  21.9406775
  58.4198708  10.3810334  21.2382842  58.6615508  10.6306229  22.7117739
  62.9279078  11.1519057  19.2951138  62.2430116  11.5317959  18.7448172
  63.0122927  11.7614384  20.0283086  58.2291547   2.2540404  27.2169216
  57.9852478   3.0082465  26.6803492  58.5051477   2.6325752  28.0516463
  60.1830009   8.7979017  25.8946482  60.3946905   9.4410776  25.2180863
  60.1359758   7.9641333  25.4268412  51.4941889   9.5010509  22.1436623
  52.0643246   9.9297778  21.5054107  52.0850001   9.2193094  22.8420809
  51.9867055   4.6673937  30.3897634  51.3565716   5.3490218  30.6233031
  51.8803143   4.5557018  29.4450773  61.2975837  11.6750972  24.0668839
  62.1193281  11.2731159  23.7851521  61.2938240  11.5719206  25.0184955
  55.0632441  11.2235015  26.2229550  55.1276873  11.6855422  27.0587722
  54.3543365  10.5932380  26.3511860  69.3881830   8.0189720  20.4153811
  68.6345539   7.4497118  20.2597815  69.5229371   7.9852385  21.3624445
  51.2647798  -1.0305297  32.7522885  50.8714744  -1.5839099  33.4270530
  52.0813938  -0.7194719  33.1429403  50.0404740  13.5244317  18.7459208
  50.2171369  14.4462282  18.5580192  50.8361574  13.2102736  19.1753588
  54.1815759   0.3852582  30.3443142  54.9225472   0.9859735  30.2647604
  54.4133682  -0.3569781  29.7861184  49.3257097   5.5708949  28.6221372
  49.2110612   4.6694206  28.9228470  48.4701615   5.8172646  28.2706188
  56.4048935  13.5126689  30.2208872  55.9612789  12.7263068  29.9029777
  57.0666148  13.7005840  29.5552763  51.1636056  15.0422491  24.7469551
  51.7143481  14.9139554  23.9746545  50.3247532  15.3417380  24.3964443
  58.5030173  13.7929489  28.2490273  58.4848648  14.6138370  27.7570543
  59.4250093  13.6683564  28.4740415  54.9603227  11.3073619  29.0913782
  55.4931564  10.5461907  28.8613090  54.4317308  11.0147270  29.8337936
  61.3048786   8.6308632  21.7199640  60.6472460   9.3207893  21.8079769
  62.1089185   9.0205064  22.0633626  60.1154244   6.9853004  19.7703582
  60.6286126   7.6182996  20.2725292  60.7655468   6.3854200  19.4046942
  56.5935075   4.4602460  22.0161922  55.6757637   4.6817407  21.8583610
  57.0095219   4.5348770  21.1573630  60.8816041  11.9659006  17.8982725
  60.4278368  11.1249916  17.9547915  60.2510007  12.6020404  18.2357505
  59.3248980  13.8035502  18.8332543  59.6171954  14.3640560  18.1144908
  59.8347600  14.0964063  19.5885702  54.2882605  14.5815854  19.9225996
  54.2458784  14.8076700  18.9934528  55.2045304  14.3479228  20.0711797
  57.7348239   5.0499921  26.8206625  58.0897627   5.2771394  27.6801091
  58.3820370   5.3818298  26.1983880  63.4645976   8.1718357  17.5255954
  63.3263874   8.3619953  16.5977143  63.1082195   8.9337740  17.9824005
  63.4915355  10.2394884  22.5367226  63.9251862  10.1470173  23.3850280
  64.2046936  10.2152384  21.8987242  57.2243250  13.8396978  24.0700326
  57.2780273  14.4087914  24.8378042  56.3558032  14.0098863  23.7054363
  50.1041644   3.5414534  25.5524777  50.7764697   3.3331896  24.9037426
  49.2771430   3.3436620  25.1130010  64.3530905  10.2818585  25.0700111
  64.5466795  11.1864395  25.3159386  64.2531523   9.8226004  25.9038696
  56.0067216   0.1676475  27.5690438  55.3595131   0.8666425  27.4754915
  56.7768231   0.6012619  27.9366687  59.4146014  10.4325327  30.6440992
  59.2631520  10.2035879  29.7271075  59.4050693  11.3895929  30.6572337
  56.1831350   8.0057240  25.6287258  57.1123410   8.1568400  25.4556225
  55.7622380   8.0941261  24.7735905  54.9819682  12.0307905  23.3985796
  54.8430768  11.6626689  24.2711734  54.1934278  12.5455544  23.2269753
  55.5767834  17.1317001  14.7411332  55.7519590  16.6605044  15.5556955
  54.8900622  17.7582767  14.9692593  56.5324897  11.4089507  20.7874633
  56.1974730  11.3690277  21.6832283  56.0328843  10.7434223  20.3145044
  50.5069141   6.8157137  26.3127215  50.3688939   6.0837376  26.9138754
  51.4174064   6.7266037  26.0311402  53.1351442   6.5277097  25.8010894
  53.8451060   5.8870289  25.7597513  53.0920750   6.7789991  26.7237075
  61.1238220  13.4644450  28.7217473  61.0650766  12.7803670  28.0548056
  61.5257739  14.2063440  28.2698099  51.8480376   3.5142314  27.6206534
  51.3117733   3.0633053  28.2728130  51.2597084   3.6488223  26.8776998
  50.1428919  20.2806364  21.5151192  50.3825517  20.9124888  22.1930211
  49.2998116  19.9294404  21.8016552  61.1255628  11.4284034  26.9531453
  60.2382406  11.0909956  27.0757852  61.6954179  10.6967065  27.1900219
  54.6556781  16.0885486  23.9192696  54.5826952  16.8940458  24.4312001
  54.2134174  16.2877452  23.0940718  54.4446561  15.3257256  17.4295518
  53.6614083  15.8678936  17.5233742  55.1439306  15.8431236  17.8289759
  65.6072968   6.8392251  21.7148015  65.5962844   7.7216967  21.3441948
  64.7390348   6.4863802  21.5202552  57.1155465  15.9872320  26.0750855
  57.8283437  16.6219785  26.0026756  56.6245493  16.0836186  25.2590857
  52.1667378  13.7366764  26.8956426  52.8676838  14.3703247  27.0485820
  51.6962493  14.0781495  26.1352065  59.9668664   6.2911371  24.7208976
  59.3140114   6.5387279  24.0661429  60.3449044   5.4775509  24.3871453
  56.9275838  16.3271064  18.8237146  57.1098232  15.5092720  19.2864899
  57.7508824  16.5438757  18.3862036  57.2618003  15.2539249  16.0852195
  57.7905770  14.7431704  15.4722357  57.5246223  14.9381780  16.9497728
  56.0156237   7.0331182  31.2075013  55.3396874   6.9325312  31.8777388
  56.8383871   6.8770396  31.6711010  47.7635096  13.2703119  23.8287529
  48.3488533  12.5246807  23.9615433  47.5659935  13.5807075  24.7124192
  50.6173751  16.3054366  18.8449971  49.9484127  16.7900494  18.3614011
  50.4786621  16.5523587  19.7593349  54.7579020  18.3398110  25.4432629
  55.3097328  18.5029731  26.2081714  55.0985213  18.9302547  24.7712654
  49.2095786   2.7596392  29.6927548  49.8367824   2.3773469  30.3065073
  48.3523705   2.5410594  30.0583241  59.6089894  13.1659367  31.2981284
  60.1529798  13.7789325  30.8036238  59.0276739  13.7238946  31.8148297
  57.8947407  16.2880085  22.4296311  57.7698547  15.4869825  21.9207257
  58.5526498  16.7826279  21.9410281  59.9582316  14.0889105  24.0575862
  59.0112651  13.9694456  23.9854188  60.3065089  13.2011603  24.1402123
  52.3181889  -0.0216756  27.8814103  52.8416291   0.2245541  28.6440413
  52.0994222   0.8103279  27.4617241  56.9628749  13.8841821  20.2580214
  56.8153711  12.9558529  20.4387784  57.7882242  13.9061912  19.7737289
  60.5662871  14.7070380  21.3445086  61.4909418  14.5013242  21.2069538
  60.3978174  14.4586781  22.2534428  53.5234434   0.9196939  25.5663774
  53.1831254   0.1204752  25.9684454  52.8173440   1.2198650  24.9940607
  55.4111998   2.1205261  23.9217093  55.1529776   3.0422331  23.9201423
  54.8797039   1.7235695  24.6117557  60.3558187  15.2256048  16.7007178
  60.5295064  14.6602470  15.9481030  60.8487078  16.0256943  16.5186668
  46.1735147   7.2370717  24.7670737  45.6288615   8.0130525  24.8991011
  47.0514497   7.5841521  24.6089858  66.2097578   7.9892471  18.3197478
  66.6528724   7.2399796  17.9216601  65.3324088   7.9802607  17.9371210
  61.3433359  14.5422812  13.8004076  62.0384264  15.1629505  14.0191391
  61.6856510  13.6918163  14.0756454  46.9601169   6.3640613  27.6600894
  46.2182905   6.5123248  28.2465524  46.6393913   6.6248879  26.7967643
  63.2424783  11.9922518  15.3291407  63.7676107  12.3309790  14.6040727
  63.1547135  11.0569533  15.1454542  54.9044831  15.9056591  27.4581284
  55.2131958  15.6605738  28.3303983  55.7020313  16.1103230  26.9700154
  54.9265443  18.0594501  19.6886660  54.4870434  17.5670880  20.3819517
  55.6773560  17.5167469  19.4478735  47.4057782  14.2506042  19.6911288
  48.2315802  13.9509814  19.3109932  47.0551834  13.4813664  20.1401077
  52.3739315  13.6032510  21.7608962  51.7519325  12.9403215  21.4611190
  53.0444182  13.6293642  21.0782610  52.4463843   2.0814298  31.3541468
  52.4951998   2.9576421  30.9719237  52.9886357   1.5391691  30.7813111
  62.9318689  12.6255421  30.6342605  62.1414232  12.6079560  30.0947104
  62.6952043  13.1643715  31.3891642  63.0516564   9.4747888  27.9475333
  63.1014569   9.3097895  28.8890856  62.9430487   8.6075147  27.5573214
  60.3420326   5.4578816  29.2634640  61.2430189   5.3185280  28.9718638
  60.4168301   5.6233270  30.2032818  54.6763131   2.8345670  28.1087827
  53.8066441   3.1279236  27.8370415  54.9122612   3.4186115  28.8295090
  64.5534760  11.8944829  28.1917355  64.2619569  12.2574810  29.0280816
  63.9406892  11.1811837  28.0130687  65.7530443   9.4597709  20.7119925
  66.5877334   9.8987513  20.8757486  65.8889572   8.9836362  19.8928171
  62.8021949   7.0177444  26.6597413  63.2776070   7.2105090  25.8516264
  61.8787514   7.0736630  26.4140797  57.3802165  -0.9474713  25.6253247
  57.8984109  -0.2113686  25.2999735  57.0257298  -0.6410719  26.4600006
  61.5023618   3.8943204  24.8925719  62.4541041   3.9941302  24.9137943
  61.3327068   3.1021472  25.4023803  59.5237997   0.9798787  25.0785120
  58.9287929   1.2603800  24.3831608  59.2387694   1.4692688  25.8501861
  63.9811696   7.1149324  24.0068018  63.9488016   6.1765324  24.1927702
  64.5912319   7.1933360  23.2733843  64.1306184   3.9060367  24.0526301
  63.6145233   3.1218824  23.8656230  65.0146133   3.5779084  24.2172821
  69.7988245   8.1765330  23.1474055  70.5291634   7.9150619  23.7081758
  69.1895191   7.4394052  23.1876123  67.8803542   6.3173193  23.7448506
  67.1536706   6.1829158  23.1364998  67.4650829   6.6250022  24.5505224
  55.7033719  10.0363123  31.5095879  56.6236728  10.2141722  31.7035926
  55.6683302   9.0919168  31.3575579  48.6995791   7.9464157  24.1518660
  48.9181801   8.8781265  24.1706694  49.1121565   7.5872132  24.9373464
  53.5723657   3.5197363  33.5421409  53.4720384   4.4691720  33.4733500
  53.3545199   3.1915602  32.6697479  53.4354927   6.9494502  32.3586471
  52.9522009   7.7494862  32.5650360  53.5215866   6.9602447  31.4053915
  49.3628264  10.8399037  24.3954905  50.3171518  10.8082979  24.3284836
  49.1640788  10.3789660  25.2105131  49.9527646   9.4100153  26.9625702
  50.7720535   9.9044231  26.9860540  50.2264454   8.4932121  26.9343270
  65.4981337   2.5385045  21.0981938  66.0925828   2.2980781  20.3875246
  65.5707921   1.8192176  21.7255474  47.7178493  16.3818656  21.4125103
  47.5832961  15.6219057  20.8463101  47.3010555  17.1059556  20.9453892
  67.8052410   5.8451246  19.8725359  67.2451968   5.9144435  20.6456921
  67.1995914   5.6692231  19.1524855  50.8747619  17.2787973  21.6243545
  50.7580003  18.2233406  21.5222236  50.0540065  16.9761535  22.0129345
  45.2062561   3.7438287  27.6617900  45.8521424   3.2337240  28.1505125
  44.9979712   4.4806968  28.2361325  57.7315953  10.8119134  33.1610040
  58.6007113  10.9859786  32.7996675  57.2522704  11.6313551  33.0385769
  51.9002133  17.9316235  24.8399474  52.8029380  17.9639845  25.1565969
  51.6739503  17.0016686  24.8545810  53.6555735  16.6847222  21.5009552
  52.7051366  16.6849083  21.3873925  53.9588221  15.9379956  20.9845587
  49.5460052   0.8905904  31.7592914  50.4091513   0.5342708  31.9696238
  48.9725462   0.5519798  32.4468318  69.3908429  22.5207760  22.5655315
  70.0286839  22.4014507  21.8618655  69.2729272  23.4688604  22.6243267
  66.1998135  22.4735188  22.5016839  65.8616646  22.3576253  21.6137374
  67.0687903  22.0726353  22.4817846  62.0584951  24.3270664  18.4913730
  61.4949816  24.2360601  17.7230018  61.9437346  23.5070569  18.9716223
  66.6817918  23.6270040  28.4603045  66.6706559  23.2322838  27.5883549
  66.8438557  22.8936112  29.0536816  59.6049383  25.8221856  21.3297951
  60.3970674  25.4812681  20.9144250  59.8446033  25.9316831  22.2500104
  67.6384509  27.9941632  13.8028195  66.9872489  28.5795713  13.4162209
  68.4328872  28.5247827  13.8623233  61.5640136  25.0830769  14.2015330
  62.3371012  24.5359756  14.0628205  61.9165535  25.9475019  14.4129791
  63.4025179  26.4107152  27.4082229  63.1115045  27.3152782  27.2928895
  64.0382163  26.4523679  28.1226299  64.3281386  23.7884000  23.9983589
  64.9244958  23.5640022  23.2840552  64.3856357  23.0468746  24.6009036
  63.9006414  21.2423435  11.8333780  64.1531935  20.7204957  11.0717243
  62.9630973  21.0789581  11.9360463  68.9449697  20.2459214  19.6408523
  69.7312786  19.8278637  19.2898940  69.2088401  21.1505306  19.8090171
  69.1159774  25.6832064  14.3397180  68.4805607  25.7566691  15.0518084
  68.7857181  26.2725663  13.6616259  74.3458124  20.1834447  20.5441501
  75.0783296  19.6133664  20.7779331  73.5897480  19.7956047  20.9848007
  63.6202703  23.1451541  14.0358155  63.5038961  22.4696445  14.7039239
  63.7304963  22.6583915  13.2190308  65.9634244  22.6061688  17.7404844
  65.5992451  22.0792309  18.4517765  66.8201360  22.2160158  17.5671329
  71.8683545  13.8956021  25.0036110  71.5366869  14.7651432  24.7797325
  71.2729158  13.5792305  25.6830140  65.6039731  17.6351588  12.7366192
  65.7714133  18.5031825  13.1036663  65.4136900  17.7978870  11.8127482
  68.3615064  26.0968567  24.4032023  68.0615787  26.9993606  24.2947830
  68.0166124  25.8300750  25.2553176  61.8127546  22.5482364  20.4368727
  60.8878042  22.4158578  20.6446419  62.0611959  23.3276583  20.9338669
  71.7612208  18.6151107  22.0829460  70.8529085  18.5466516  21.7888221
  71.7099804  19.0923052  22.9111285  65.5828952  20.0909246  13.7212859
  65.4628577  20.5366296  14.5598339  64.8881540  20.4394563  13.1626397
  59.1736357  22.1915637  21.2712516  59.3028738  22.4450116  22.1851928
  58.4933808  22.7843345  20.9517171  63.3435844  32.8612887  17.3702990
  63.2659874  33.8120713  17.4491471  62.7397487  32.5158760  18.0277917
  65.8353074  20.0340753  30.0264357  65.0586408  20.5934673  30.0167222
  66.4743637  20.5197536  30.5479227  73.6273854  16.8167546  23.8607334
  72.9848235  17.1100079  23.2147128  73.1228783  16.7020466  24.6660531
  71.2814018  20.5630719  14.5493193  72.1931874  20.7958106  14.3740891
  70.7723665  21.1467763  13.9868272  64.0899446  22.8426206  29.5882324
  64.8314130  23.3811250  29.3117148  63.3836431  23.4692495  29.7453876
  69.5654786  24.9855347  28.1854486  69.9738142  24.5437757  27.4409118
  68.8432047  24.4107974  28.4388679  65.9185856  19.9227953  25.5588043
  66.7647051  20.3467367  25.7022692  65.8584493  19.2661578  26.2526606
  69.8883600  25.5456537  21.9406775  69.2592463  25.7102251  21.2382842
  69.5009262  25.9598147  22.7117739  73.7672832  26.4810975  19.2951138
  73.0823870  26.8609877  18.7448172  73.8516681  27.0906302  20.0283086
  69.0685301  17.5832322  27.2169216  68.8246233  18.3374382  26.6803492
  69.3445232  17.9617669  28.0516463  71.0223764  24.1270934  25.8946482
  71.2340659  24.7702694  25.2180863  70.9753512  23.2933251  25.4268412
  68.6249993  16.7388755  22.7983054  67.7634472  17.0370008  23.0899792
  68.6512427  16.9559154  21.8664087  65.4411562  25.2830945  19.2056860
  65.9049908  25.5618648  18.4161482  65.1768360  24.3814390  19.0229950
  62.3335643  24.8302427  22.1436623  62.9037000  25.2589695  21.5054107
  62.9243755  24.5485012  22.8420809  64.3780448  21.4054098  16.0146425
  65.0804492  21.8575141  16.4820351  64.0461077  20.7637917  16.6426318
  62.8260810  19.9965854  30.3897634  62.1959470  20.6782135  30.6233031
  62.7196898  19.8848936  29.4450773  58.1205782  19.6637650  21.3163558
  57.3304836  19.9195179  20.8403669  58.6117030  20.4785988  21.4215599
  72.1369592  27.0042890  24.0668839  72.9587035  26.6023077  23.7851521
  72.1331995  26.9011124  25.0184955  60.0720528  20.0282230  18.2747035
  59.2751691  20.1400924  18.7930531  59.8446120  20.3668882  17.4087926
  65.9026195  26.5526933  26.2229550  65.9670628  27.0147340  27.0587722
  65.1937119  25.9224298  26.3511860  56.4043485  19.9168141  23.7478549
  56.6551524  20.8015151  24.0136125  56.9403034  19.7372742  22.9753641
  80.2275585  23.3481638  20.4153811  79.4739293  22.7789036  20.2597815
  80.3623126  23.3144303  21.3624445  65.6174213  28.2195040  16.0908530
  65.4819888  29.0646576  16.5193378  66.1584025  28.4214318  15.3274464
  62.1041552  14.2986620  32.7522885  61.7108498  13.7452819  33.4270530
  62.9207693  14.6097199  33.1429403  59.0703610  25.7370478  16.6636455
  59.5828131  26.5313729  16.8142020  59.7226323  25.0396769  16.5970057
  60.8798495  28.8536235  18.7459208  61.0565123  29.7754199  18.5580192
  61.6755328  28.5394654  19.1753588  65.0209513  15.7144499  30.3443142
  65.7619227  16.3151652  30.2647604  65.2527436  14.9722137  29.7861184
  60.1650851  20.9000867  28.6221372  60.0504367  19.9986124  28.9228470
  59.3095369  21.1464563  28.2706188  67.2442689  28.8418607  30.2208872
  66.8006543  28.0554985  29.9029777  67.9059903  29.0297757  29.5552763
  62.0029810  30.3714408  24.7469551  62.5537235  30.2431472  23.9746545
  61.1641286  30.6709298  24.3964443  69.3423927  29.1221407  28.2490273
  69.3242403  29.9430288  27.7570543  70.2643847  28.9975482  28.4740415
  65.7996981  26.6365536  29.0913782  66.3325318  25.8753824  28.8613090
  65.2711063  26.3439188  29.8337936  68.9666676  11.7425602  24.6207424
  68.6230946  12.6327244  24.5446534  69.3345639  11.5527260  23.7577009
  57.0352527  24.0659133  17.4396026  57.8727749  24.4756141  17.2229733
  57.2130795  23.1258575  17.4096220  68.9316959  21.7334213  13.1279859
  68.4163583  22.5038818  13.3668246  68.6594268  21.0599350  13.7512920
  66.5164070  16.5783914  18.1865097  65.6605666  16.1890765  18.0070736
  66.9291022  16.6575875  17.3264883  68.0463217  14.1130257  22.5856657
  67.5428012  14.0760393  21.7724462  68.3393824  15.0223000  22.6453313
  64.2906103  14.1968987  21.5922839  65.1559099  14.0011796  21.2328728
  64.3583612  13.9679339  22.5192195  73.9051233  24.4866568  15.0633032
  73.1280676  24.1477728  14.6188194  74.5842714  24.4919191  14.3887997
  68.7203262  19.6061305  14.9539640  68.4153398  19.9207455  15.8049783
  69.6733704  19.6842725  14.9966973  67.1649694  25.7651529  16.6032594
  66.6371056  25.0304288  16.2905831  66.6637197  26.5426205  16.3572562
  72.1442540  23.9600549  21.7199640  71.4866215  24.6499811  21.8079769
  72.9482939  24.3496981  22.0633626  61.8968422  16.4271195  18.9639205
  62.4712174  16.2046377  18.2312398  62.4839404  16.4959890  19.7167807
  70.9547999  22.3144922  19.7703582  71.4679881  22.9474914  20.2725292
  71.6049223  21.7146117  19.4046942  62.2238009  18.4575656  12.9835091
  61.3875321  18.7950343  13.3044365  62.0842778  18.3224636  12.0462228
  64.1991089  13.3012444  17.6914275  63.5455502  12.9861461  17.0670890
  64.1571564  12.6788184  18.4174098  65.3102294  23.5831739   9.6067567
  64.4029356  23.3520993   9.8058716  65.8073326  22.7869358   9.7941548
  68.2170373  32.2929246  12.5264253  67.5432072  32.5960943  13.1349211
  68.6036195  33.0958327  12.1769710  67.4328830  19.7894378  22.0161922
  66.5151391  20.0109325  21.8583610  67.8488973  19.8640688  21.1573630
  68.2163878  21.1885793  17.1464603  68.9635697  21.7007190  16.8371725
  68.4855467  20.8669846  18.0068996  66.4890528  23.6844334  14.1291557
  65.5801747  23.4003367  14.2264027  66.5185612  24.1043412  13.2694864
  71.7209795  27.2950923  17.8982725  71.2672122  26.4541833  17.9547915
  71.0903762  27.9312322  18.2357505  70.6642715  18.2242909  19.1283392
  69.9265472  17.7120296  19.4593635  70.9169488  17.7843291  18.3166669
  70.1642734  29.1327420  18.8332543  70.4565709  29.6932477  18.1144908
  70.6741355  29.4255981  19.5885702  70.7654342  11.0019161  19.7225161
  71.0713219  10.1416525  19.4351076  71.4906947  11.5936782  19.5224155
  57.0578698  21.4049848  18.1106759  56.8603098  20.8119209  17.3857826
  56.5025362  21.1002058  18.8282698  65.0375422  21.2972955  20.2301352
  65.0924032  20.3446791  20.1543829  64.2266624  21.4532394  20.7142651
  66.1866616  25.2253078  11.4679636  65.7486045  24.5088937  11.0085273
  66.9277056  25.4529192  10.9064727  62.9767782  19.9150014  17.9891731
  62.1635647  20.2144185  18.3956923  63.4726776  19.5205703  18.7066213
  65.1276360  29.9107771  19.9225996  65.0852538  30.1368618  18.9934528
  66.0439058  29.6771146  20.0711797  68.5741993  20.3791839  26.8206625
  68.9291381  20.6063312  27.6801091  69.2214125  20.7110216  26.1983880
  74.3039730  23.5010275  17.5255954  74.1657629  23.6911871  16.5977143
  73.9475949  24.2629657  17.9824005  62.4681856  17.4868370  23.6052966
  63.1081236  17.3457129  22.9075929  61.6359387  17.2002883  23.2291568
  74.3309110  25.5686802  22.5367226  74.7645617  25.4762091  23.3850280
  75.0440691  25.5444302  21.8987242  63.2442160  26.7870800  19.7187959
  64.0382759  26.2921120  19.5170534  62.5333853  26.2588663  19.3555664
  68.0637005  29.1688896  24.0700326  68.1174027  29.7379832  24.8378042
  67.1951786  29.3390781  23.7054363  59.5524924  20.9313882  15.7947711
  58.6222512  20.8698337  16.0117673  59.6482396  20.4089835  14.9984353
  59.4710473  17.4568695  18.3825953  59.7317290  18.3714028  18.2735113
  60.2927645  16.9893137  18.5322566  60.9435398  18.8706452  25.5524777
  61.6158452  18.6623814  24.9037426  60.1165185  18.6728538  25.1130010
  75.1924660  25.6110502  25.0700111  75.3860550  26.5156313  25.3159386
  75.0925278  25.1517921  25.9038696  66.8460970  15.4968393  27.5690438
  66.1988885  16.1958343  27.4754915  67.6161986  15.9304537  27.9366687
  70.2539768  25.7617245  30.6440992  70.1025275  25.5327797  29.7271075
  70.2444448  26.7187846  30.6572337  67.0225105  23.3349158  25.6287258
  67.9517165  23.4860317  25.4556225  66.6016135  23.4233179  24.7735905
  65.8213436  27.3599822  23.3985796  65.6824522  26.9918607  24.2711734
  65.0328033  27.8747462  23.2269753  66.4161588  32.4608919  14.7411332
  66.5913344  31.9896962  15.5556955  65.7294376  33.0874685  14.9692593
  67.3718652  26.7381425  20.7874633  67.0368484  26.6982195  21.6832283
  66.8722597  26.0726141  20.3145044  61.3462895  22.1449055  26.3127215
  61.2082693  21.4129294  26.9138754  62.2567819  22.0557955  26.0311402
  70.3077843  24.0837459  11.0611693  69.6907014  23.3584287  10.9644746
  69.8394332  24.8446820  10.7178767  63.9745196  21.8569014  25.8010894
  64.6844815  21.2162206  25.7597513  63.9314504  22.1081909  26.7237075
  71.9631975  28.7936368  28.7217473  71.9044521  28.1095588  28.0548056
  72.3651493  29.5355358  28.2698099  62.6874130  18.8434232  27.6206534
  62.1511487  18.3924971  28.2728130  62.0990839  18.9780141  26.8776998
  60.9822674  35.6098281  21.5151192  61.2219272  36.2416806  22.1930211
  60.1391870  35.2586321  21.8016552  71.9649382  26.7575952  26.9531453
  71.0776161  26.4201873  27.0757852  72.5347933  26.0258983  27.1900219
  53.6178529  23.0900043  20.2774505  54.3049569  22.7761773  19.6895520
  53.4626658  23.9941408  20.0041756  58.4213251  17.9790240  24.7059528
  58.3371440  17.3715909  23.9709938  57.5995958  18.4699258  24.7069025
  65.4950535  31.4177404  23.9192696  65.4220707  32.2232375  24.4312001
  65.0527929  31.6169370  23.0940718  65.2840315  30.6549174  17.4295518
  64.5007837  31.1970854  17.5233742  65.9833060  31.1723154  17.8289759
  68.5936965  16.4643803  20.0729723  69.0905665  15.7113766  19.7530794
  67.8223947  16.5008120  19.5072933  76.4466723  22.1684169  21.7148015
  76.4356599  23.0508884  21.3441948  75.5784102  21.8155720  21.5202552
  67.9549219  31.3164238  26.0750855  68.6677191  31.9511703  26.0026756
  67.4639248  31.4128104  25.2590857  69.6766746  25.2215491  17.6468147
  68.7423025  25.3416953  17.4772851  69.8543414  24.3187957  17.3828157
  65.1771934  18.6061186  19.8001408  64.8069721  18.0532227  20.4882313
  65.6731026  18.0019320  19.2476408  73.0639297  21.0632810  18.1818181
  73.5299749  21.8960801  18.1078483  73.5146798  20.5977791  18.8863439
  63.0061133  29.0658681  26.8956426  63.7070592  29.6995164  27.0485820
  62.5356248  29.4073413  26.1352065  71.1315528  27.4076631  15.1804333
  71.4075372  27.2933226  16.0898207  70.2620027  27.0094116  15.1416506
  71.0355960  13.4313397  22.2209082  70.1219040  13.6617624  22.3891289
  71.4649061  13.5151841  23.0723115  70.8062419  21.6203289  24.7208976
  70.1533869  21.8679196  24.0661429  71.1842798  20.8067427  24.3871453
  67.7669592  31.6562982  18.8237146  67.9491987  30.8384638  19.2864899
  68.5902578  31.8730674  18.3862036  68.1011758  30.5831167  16.0852195
  68.6299524  30.0723622  15.4722357  68.3639977  30.2673697  16.9497728
  66.8549992  22.3623100  31.2075013  66.1790629  22.2617229  31.8777388
  67.6777625  22.2062314  31.6711010  58.6028851  28.5995036  23.8287529
  59.1882287  27.8538724  23.9615433  58.4053689  28.9098993  24.7124192
  61.4567506  31.6346284  18.8449971  60.7877881  32.1192411  18.3614011
  61.3180376  31.8815504  19.7593349  53.1946505  21.1700637  22.5491972
  53.2330605  20.6364227  23.3429090  52.6886798  20.6435842  21.9302949
  65.5972774  33.6690027  25.4432629  66.1491082  33.8321649  26.2081714
  65.9378968  34.2594465  24.7712654  60.5737268  16.0165177  26.0454514
  60.6378594  16.8780008  25.6331912  60.5104388  15.4039179  25.3126872
  60.0489540  18.0888310  29.6927548  60.6761579  17.7065387  30.3065073
  59.1917459  17.8702512  30.0583241  70.4483649  28.4951285  31.2981284
  70.9923553  29.1081243  30.8036238  69.8670494  29.0530863  31.8148297
  56.8255083  19.8964739  15.6245903  57.1208524  18.9875417  15.5712957
  55.9243119  19.8752478  15.3026905  68.7341162  31.6172003  22.4296311
  68.6092301  30.8161743  21.9207257  69.3920253  32.1118196  21.9410281
  60.3549330  17.9720735  21.6073452  59.6335916  18.5856703  21.4680925
  61.1442586  18.5078500  21.5290098  70.7976070  29.4181023  24.0575862
  69.8506406  29.2986374  23.9854188  71.1458843  28.5303521  24.1402123
  63.1575643  15.3075162  27.8814103  63.6810045  15.5537458  28.6440413
  62.9387977  16.1395197  27.4617241  58.5542925  17.5778836  15.7485228
  58.2255631  16.6976215  15.5660334  58.9082295  17.5226505  16.6361617
  67.8022503  29.2133739  20.2580214  67.6547466  28.2850447  20.4387784
  68.6275997  29.2353830  19.7737289  61.6684748  17.8651806  16.1160706
  62.0080820  18.3937727  15.3939314  62.1156868  18.2032212  16.8919272
  71.4056625  30.0362298  21.3445086  72.3303173  29.8305159  21.2069538
  71.2371929  29.7878699  22.2534428  64.3628188  16.2488857  25.5663774
  64.0225009  15.4496670  25.9684454  63.6567195  16.5490568  24.9940607
  65.0144660  13.3338169  24.0191097  65.8370730  12.8598648  23.8969987
  65.2582724  14.1128653  24.5189783  63.6552895  16.3626428  14.3153999
  64.3761257  16.7407681  13.8117716  63.0318199  17.0815305  14.4188977
  67.7984018  17.0671577  15.2512331  68.0147632  17.9496215  14.9501159
  67.3178085  16.6757790  14.5217973  62.5383239  20.0257290  21.8283076
  62.3927820  20.3397593  22.7207357  62.0608443  20.6442190  21.2753974
  64.3979622  17.0159838  21.8763965  64.3841191  16.1200931  21.5396263
  65.1152050  17.0230502  22.5102251  66.2505753  17.4497178  23.9217093
  65.9923530  18.3714249  23.9201423  65.7190793  17.0527613  24.6117557
  71.1951941  30.5547965  16.7007178  71.3688819  29.9894388  15.9481030
  71.6880833  31.3548860  16.5186668  57.0128901  22.5662634  24.7670737
  56.4682369  23.3422442  24.8991011  57.8908251  22.9133439  24.6089858
  63.8016518  15.8974218  17.1451535  63.9232429  14.9690864  17.3442423
  63.5118560  15.9112904  16.2329851  66.6707708  13.5829129  20.2818255
  66.6929405  13.6468462  19.3270235  67.0875767  12.7433637  20.4758761
  77.0491333  23.3184388  18.3197478  77.4922479  22.5691713  17.9216601
  76.1717843  23.3094525  17.9371210  72.1827114  29.8714730  13.8004076
  72.8778019  30.4921422  14.0191391  72.5250264  29.0210081  14.0756454
  57.7994923  21.6932531  27.6600894  57.0576659  21.8415166  28.2465524
  57.4787667  21.9540796  26.7967643  74.0818537  27.3214435  15.3291407
  74.6069861  27.6601708  14.6040727  73.9940890  26.3861451  15.1454542
  65.7438586  31.2348509  27.4581284  66.0525712  30.9897656  28.3303983
  66.5414068  31.4395147  26.9700154  65.7659198  33.3886419  19.6886660
  65.3264188  32.8962797  20.3819517  66.5167315  32.8459386  19.4478735
  58.2451537  29.5797959  19.6911288  59.0709557  29.2801731  19.3109932
  57.8945589  28.8105582  20.1401077  63.2133070  28.9324428  21.7608962
  62.5913079  28.2695133  21.4611190  63.8837937  28.9585560  21.0782610
  56.4460142  27.4984286  20.6500222  55.6092050  27.0706460  20.4684223
  56.4183787  27.6916729  21.5871013  63.2857597  17.4106216  31.3541468
  63.3345753  18.2868338  30.9719237  63.8280112  16.8683609  30.7813111
  73.7712443  27.9547339  30.6342605  72.9807987  27.9371478  30.0947104
  73.5345798  28.4935633  31.3891642  73.8910318  24.8039805  27.9475333
  73.9408323  24.6389813  28.8890856  73.7824241  23.9367064  27.5573214
  62.7746577  27.4828351  15.2367422  62.9234697  28.1663815  14.5834095
  63.5813020  27.4633441  15.7516878  71.1814081  20.7870733  29.2634640
  72.0823943  20.6477198  28.9718638  71.2562055  20.9525188  30.2032818
  65.5156886  18.1637588  28.1087827  64.6460195  18.4571154  27.8370415
  65.7516366  18.7478033  28.8295090  75.3928515  27.2236747  28.1917355
  75.1013323  27.5866727  29.0280816  74.7800646  26.5103755  28.0130687
  76.5924197  24.7889627  20.7119925  77.4271089  25.2279431  20.8757486
  76.7283326  24.3128280  19.8928171  73.6415703  22.3469361  26.6597413
  74.1169825  22.5397008  25.8516264  72.7181269  22.4028547  26.4140797
  60.5299210  23.5093529  16.2428491  60.2845252  22.6055859  16.4408701
  60.6995124  23.5110679  15.3007969  68.2195920  14.3817205  25.6253247
  68.7377864  15.1178232  25.2999735  67.8651052  14.6881198  26.4600006
  59.7994857  19.2421886  13.7414653  59.1064102  19.3166241  13.0854689
  59.5546609  18.4782230  14.2636170  68.4708514  10.8017488  21.1454144
  68.7510268  10.1340677  21.7714570  69.2559121  10.9946583  20.6328807
  66.2741982  29.9776481  12.7079170  65.7015949  30.5966669  12.2549642
  66.8474776  30.5275843  13.2419092  72.3417372  19.2235122  24.8925719
  73.2934795  19.3233219  24.9137943  72.1720823  18.4313390  25.4023803
  70.3631752  16.3090705  25.0785120  69.7681684  16.5895717  24.3831608
  70.0781448  16.7984606  25.8501861  69.4939242  30.2613632  13.8387752
  70.4269915  30.1959193  14.0420628  69.4062455  31.0969898  13.3802285
  72.1227259  29.5779502  10.7991700  72.0440890  29.2439366  11.6927458
  72.9436926  30.0701270  10.7983172  74.8205450  22.4441241  24.0068018
  74.7881770  21.5057242  24.1927702  75.4306074  22.5225278  23.2733843
  66.6588781  21.3137294  10.0495222  67.6047886  21.1843502  10.1183640
  66.2803026  20.5751956  10.5264650  74.9699938  19.2352285  24.0526301
  74.4538987  18.4510741  23.8656230  75.8539887  18.9071001  24.2172821
  72.6310665  12.9793300  20.0122114  72.4335487  12.6708388  20.8965446
  73.2410371  13.7054939  20.1420044  80.6382000  23.5057248  23.1474055
  81.3685388  23.2442536  23.7081758  80.0288945  22.7685970  23.1876123
  78.7197297  21.6465111  23.7448506  77.9930461  21.5121076  23.1364998
  78.3044584  21.9541939  24.5505224  66.5427473  25.3655040  31.5095879
  67.4630483  25.5433639  31.7035926  66.5077056  24.4211086  31.3575579
  55.7609638  20.5593634  20.4349154  55.4412423  19.7058942  20.1423528
  55.2143067  20.7742212  21.1907121  59.5389546  23.2756075  24.1518660
  59.7575556  24.2073183  24.1706694  59.9515320  22.9164049  24.9373464
  66.4593764  13.7824160  16.1394349  65.6494492  13.4371245  16.5149595
  67.1478181  13.4731704  16.7281960  68.3884312  12.8602207  17.7618645
  68.9415351  13.2797661  18.4208669  68.6254398  11.9337955  17.8041601
  64.4117411  18.8489281  33.5421409  64.3114138  19.7983638  33.4733500
  64.1938953  18.5207520  32.6697479  55.6297898  24.1796545  22.4042276
  54.9361370  23.7650498  21.8912230  56.3770889  24.2217082  21.8075694
  71.7663119  14.9702732  17.2697310  71.1861788  15.6287536  16.8875362
  71.4999052  14.1480077  16.8584727  70.2166685  14.3707790  19.4718630
  70.7166464  14.4824324  18.6632949  70.8602293  14.0668843  20.1119439
  64.2748681  22.2786420  32.3586471  63.7915763  23.0786780  32.5650360
  64.3609620  22.2894364  31.4053915  57.5434641  24.1114799  20.2808290
  57.5205329  24.2102487  19.3290174  57.8535277  24.9579950  20.6025457
  60.2022019  26.1690954  24.3954905  61.1565272  26.1374897  24.3284836
  60.0034542  25.7081578  25.2105131  60.7921401  24.7392070  26.9625702
  61.6114290  25.2336149  26.9860540  61.0658209  23.8224038  26.9343270
  70.5487997  17.1302823  16.3253658  69.6613852  17.4152473  16.1073853
  70.9641986  16.9696586  15.4780935  73.9002533  17.1549344  20.0407997
  74.6762923  17.6445796  20.3132614  73.1750667  17.5807398  20.4979867
  76.3375092  17.8676963  21.0981938  76.9319583  17.6272699  20.3875246
  76.4101676  17.1484093  21.7255474  58.5572248  31.7110574  21.4125103
  58.4226716  30.9510975  20.8463101  58.1404310  32.4351474  20.9453892
  69.6931211  26.8947497  10.4201678  70.3967061  27.0997500  11.0359334
  68.9693859  27.4624259  10.6850762  70.5229021  22.6457359  16.5403948
  70.4664222  23.1025910  15.7011581  71.0757363  21.8848043  16.3626791
  74.3333827  18.4347090  17.3654068  74.0770761  18.0343726  18.1962275
  73.7086695  19.1490884  17.2404207  78.6446165  21.1743164  19.8725359
  78.0845723  21.2436353  20.6456921  78.0389668  20.9984148  19.1524855
  61.7141373  32.6079891  21.6243545  61.5973758  33.5525323  21.5222236
  60.8933820  32.3053452  22.0129345  71.6017908  27.3330027  12.4700138
  72.4363512  26.9011225  12.2877613  71.4402251  27.1612040  13.3977033
  71.2563800  23.8362140  13.8356477  71.2012604  23.6706411  12.8944921
  70.6309855  24.5438173  13.9918667  56.0456315  19.0730204  27.6617900
  56.6915179  18.5629158  28.1505125  55.8373466  19.8098886  28.2361325
  68.5709707  26.1411052  33.1610040  69.4400867  26.3151704  32.7996675
  68.0916459  26.9605469  33.0385769  64.5659926  13.3370249  13.4141796
  64.5538595  14.2812089  13.5710067  65.4583348  13.1540394  13.1201257
  62.7395888  33.2608153  24.8399474  63.6423134  33.2931763  25.1565969
  62.5133258  32.3308604  24.8545810  64.4949490  32.0139139  21.5009552
  63.5445121  32.0141001  21.3873925  64.7981976  31.2671874  20.9845587
  68.3812045   9.9313025  17.6687733  67.6144441   9.3771512  17.8144415
  68.7922750  10.0034894  18.5301884  60.3853806  16.2197821  31.7592914
  61.2485268  15.8634626  31.9696238  59.8119217  15.8811716  32.4468318
  80.2302183  37.8499678  22.5655315  80.8680593  37.7306425  21.8618655
  80.1123026  38.7980522  22.6243267  77.0391889  37.8027106  22.5016839
  76.7010401  37.6868170  21.6137374  77.9081658  37.4018271  22.4817846
  72.8978705  39.6562582  18.4913730  72.3343570  39.5652519  17.7230018
  72.7831100  38.8362487  18.9716223  70.4443137  41.1513774  21.3297951
  71.2364429  40.8104598  20.9144250  70.6839787  41.2608749  22.2500104
  78.4778264  43.3233550  13.8028195  77.8266244  43.9087630  13.4162209
  79.2722627  43.8539745  13.8623233  72.4033891  40.4122687  14.2015330
  73.1764767  39.8651674  14.0628205  72.7559290  41.2766936  14.4129791
  75.1675140  39.1175918  23.9983589  75.7638713  38.8931940  23.2840552
  75.2250112  38.3760663  24.6009036  74.7400169  36.5715353  11.8333780
  74.9925689  36.0496874  11.0717243  73.8024728  36.4081499  11.9360463
  79.7843452  35.5751131  19.6408523  80.5706541  35.1570555  19.2898940
  80.0482156  36.4797224  19.8090171  79.9553529  41.0123982  14.3397180
  79.3199362  41.0858608  15.0518084  79.6250935  41.6017581  13.6616259
  85.1851879  35.5126365  20.5441501  85.9177051  34.9425581  20.7779331
  84.4291234  35.1247965  20.9848007  74.4596458  38.4743459  14.0358155
  74.3432716  37.7988362  14.7039239  74.5698717  37.9875833  13.2190308
  76.8027998  37.9353606  17.7404844  76.4386206  37.4084227  18.4517765
  77.6595114  37.5452075  17.5671329  82.7077299  29.2247939  25.0036110
  82.3760624  30.0943350  24.7797325  82.1122912  28.9084223  25.6830140
  76.4433485  32.9643506  12.7366192  76.6107888  33.8323742  13.1036663
  76.2530654  33.1270788  11.8127482  79.2008819  41.4260485  24.4032023
  78.9009542  42.3285524  24.2947830  78.8559878  41.1592668  25.2553176
  72.6521300  37.8774282  20.4368727  71.7271797  37.7450496  20.6446419
  72.9005713  38.6568501  20.9338669  82.6005962  33.9443025  22.0829460
  81.6922840  33.8758433  21.7888221  82.5493558  34.4214970  22.9111285
  76.4222706  35.4201163  13.7212859  76.3022331  35.8658214  14.5598339
  75.7275295  35.7686481  13.1626397  70.0130111  37.5207555  21.2712516
  70.1422492  37.7742034  22.1851928  69.3327562  38.1135263  20.9517171
  74.1829598  48.1904805  17.3702990  74.1053628  49.1412630  17.4491471
  73.5791242  47.8450678  18.0277917  84.4667609  32.1459463  23.8607334
  83.8241989  32.4391997  23.2147128  83.9622537  32.0312384  24.6660531
  82.1207772  35.8922637  14.5493193  83.0325629  36.1250023  14.3740891
  81.6117420  36.4759681  13.9868272  74.9293200  38.1718124  29.5882324
  75.6707885  38.7103168  29.3117148  74.2230186  38.7984413  29.7453876
  76.7579610  35.2519871  25.5588043  77.6040805  35.6759285  25.7022692
  76.6978248  34.5953495  26.2526606  80.7277355  40.8748455  21.9406775
  80.0986217  41.0394169  21.2382842  80.3403017  41.2890065  22.7117739
  84.6066587  41.8102893  19.2951138  83.9217625  42.1901794  18.7448172
  84.6910436  42.4198219  20.0283086  79.9079055  32.9124239  27.2169216
  79.6639987  33.6666300  26.6803492  80.1838986  33.2909587  28.0516463
  81.8617518  39.4562852  25.8946482  82.0734414  40.0994612  25.2180863
  81.8147267  38.6225168  25.4268412  79.4643747  32.0680673  22.7983054
  78.6028226  32.3661926  23.0899792  79.4906182  32.2851071  21.8664087
  76.2805317  40.6122863  19.2056860  76.7443662  40.8910566  18.4161482
  76.0162115  39.7106308  19.0229950  73.1729398  40.1594345  22.1436623
  73.7430755  40.5881613  21.5054107  73.7637510  39.8776929  22.8420809
  75.2174203  36.7346015  16.0146425  75.9198246  37.1867059  16.4820351
  74.8854831  36.0929834  16.6426318  73.6654564  35.3257772  30.3897634
  73.0353225  36.0074053  30.6233031  73.5590652  35.2140854  29.4450773
  68.9599537  34.9929568  21.3163558  68.1698591  35.2487097  20.8403669
  69.4510784  35.8077906  21.4215599  82.9763346  42.3334807  24.0668839
  83.7980790  41.9314995  23.7851521  82.9725749  42.2303041  25.0184955
  70.9114282  35.3574147  18.2747035  70.1145445  35.4692842  18.7930531
  70.6839874  35.6960800  17.4087926  67.2437240  35.2460059  23.7478549
  67.4945278  36.1307068  24.0136125  67.7796788  35.0664660  22.9753641
  91.0669339  38.6773556  20.4153811  90.3133048  38.1080954  20.2597815
  91.2016880  38.6436220  21.3624445  76.4567967  43.5486958  16.0908530
  76.3213642  44.3938494  16.5193378  76.9977780  43.7506236  15.3274464
  72.9435307  29.6278538  32.7522885  72.5502253  29.0744736  33.4270530
  73.7601447  29.9389116  33.1429403  69.9097365  41.0662396  16.6636455
  70.4221885  41.8605646  16.8142020  70.5620078  40.3688687  16.5970057
  71.7192249  44.1828152  18.7459208  71.8958878  45.1046117  18.5580192
  72.5149083  43.8686572  19.1753588  71.0044606  36.2292784  28.6221372
  70.8898121  35.3278042  28.9228470  70.1489124  36.4756481  28.2706188
  79.8060431  27.0717520  24.6207424  79.4624700  27.9619162  24.5446534
  80.1739393  26.8819178  23.7577009  67.8746281  39.3951050  17.4396026
  68.7121503  39.8048059  17.2229733  68.0524549  38.4550493  17.4096220
  79.7710714  37.0626131  13.1279859  79.2557337  37.8330736  13.3668246
  79.4988022  36.3891267  13.7512920  77.3557825  31.9075832  18.1865097
  76.4999421  31.5182682  18.0070736  77.7684776  31.9867793  17.3264883
  78.8856971  29.4422175  22.5856657  78.3821767  29.4052310  21.7724462
  79.1787578  30.3514918  22.6453313  75.1299857  29.5260905  21.5922839
  75.9952854  29.3303714  21.2328728  75.1977366  29.2971257  22.5192195
  84.7444988  39.8158486  15.0633032  83.9674431  39.4769645  14.6188194
  85.4236469  39.8211109  14.3887997  79.5597017  34.9353223  14.9539640
  79.2547152  35.2499372  15.8049783  80.5127459  35.0134643  14.9966973
  78.0043449  41.0943446  16.6032594  77.4764810  40.3596206  16.2905831
  77.5030951  41.8718123  16.3572562  82.9836295  39.2892467  21.7199640
  82.3259969  39.9791728  21.8079769  83.7876694  39.6788899  22.0633626
  72.7362176  31.7563113  18.9639205  73.3105928  31.5338294  18.2312398
  73.3233159  31.8251807  19.7167807  81.7941753  37.6436840  19.7703582
  82.3073635  38.2766831  20.2725292  82.4442977  37.0438035  19.4046942
  73.0631763  33.7867574  12.9835091  72.2269076  34.1242260  13.3044365
  72.9236533  33.6516554  12.0462228  75.0384844  28.6304362  17.6914275
  74.3849256  28.3153379  17.0670890  74.9965318  28.0080102  18.4174098
  76.1496049  38.9123657   9.6067567  75.2423111  38.6812910   9.8058716
  76.6467081  38.1161276   9.7941548  79.0564128  47.6221164  12.5264253
  78.3825826  47.9252861  13.1349211  79.4429950  48.4250244  12.1769710
  78.2722584  35.1186295  22.0161922  77.3545146  35.3401242  21.8583610
  78.6882728  35.1932606  21.1573630  79.0557632  36.5177711  17.1464603
  79.8029451  37.0299108  16.8371725  79.3249222  36.1961764  18.0068996
  77.3284282  39.0136252  14.1291557  76.4195501  38.7295284  14.2264027
  77.3579366  39.4335330  13.2694864  82.5603550  42.6242841  17.8982725
  82.1065877  41.7833751  17.9547915  81.9297516  43.2604239  18.2357505
  81.5036469  33.5534827  19.1283392  80.7659226  33.0412213  19.4593635
  81.7563243  33.1135209  18.3166669  81.0036489  44.4619338  18.8332543
  81.2959463  45.0224395  18.1144908  81.5135109  44.7547899  19.5885702
  81.6048097  26.3311079  19.7225161  81.9106973  25.4708443  19.4351076
  82.3300701  26.9228699  19.5224155  67.8972453  36.7341766  18.1106759
  67.6996852  36.1411126  17.3857826  67.3419117  36.4293976  18.8282698
  75.8769176  36.6264872  20.2301352  75.9317786  35.6738709  20.1543829
  75.0660378  36.7824311  20.7142651  77.0260370  40.5544995  11.4679636
  76.5879800  39.8380854  11.0085273  77.7670811  40.7821110  10.9064727
  73.8161536  35.2441932  17.9891731  73.0029402  35.5436103  18.3956923
  74.3120530  34.8497621  18.7066213  75.9670114  45.2399689  19.9225996
  75.9246293  45.4660535  18.9934528  76.8832813  45.0063063  20.0711797
  79.4135748  35.7083756  26.8206625  79.7685136  35.9355230  27.6801091
  80.0607879  36.0402133  26.1983880  85.1433485  38.8302192  17.5255954
  85.0051383  39.0203788  16.5977143  84.7869704  39.5921575  17.9824005
  73.3075611  32.8160287  23.6052966  73.9474990  32.6749047  22.9075929
  72.4753142  32.5294801  23.2291568  85.1702864  40.8978719  22.5367226
  85.6039371  40.8054008  23.3850280  85.8834445  40.8736220  21.8987242
  74.0835915  42.1162718  19.7187959  74.8776513  41.6213038  19.5170534
  73.3727607  41.5880581  19.3555664  70.3918678  36.2605800  15.7947711
  69.4616266  36.1990255  16.0117673  70.4876150  35.7381752  14.9984353
  70.3104227  32.7860612  18.3825953  70.5711045  33.7005946  18.2735113
  71.1321400  32.3185055  18.5322566  71.7829153  34.1998370  25.5524777
  72.4552206  33.9915732  24.9037426  70.9558939  34.0020456  25.1130010
  86.0318414  40.9402420  25.0700111  86.2254304  41.8448230  25.3159386
  85.9319032  40.4809839  25.9038696  77.8618859  38.6641075  25.6287258
  78.7910919  38.8152235  25.4556225  77.4409889  38.7525096  24.7735905
  76.6607191  42.6891740  23.3985796  76.5218277  42.3210524  24.2711734
  75.8721787  43.2039379  23.2269753  77.2555343  47.7900836  14.7411332
  77.4307099  47.3188880  15.5556955  76.5688131  48.4166603  14.9692593
  78.2112406  42.0673343  20.7874633  77.8762239  42.0274113  21.6832283
  77.7116352  41.4018058  20.3145044  72.1856650  37.4740973  26.3127215
  72.0476448  36.7421211  26.9138754  73.0961573  37.3849873  26.0311402
  81.1471598  39.4129377  11.0611693  80.5300768  38.6876205  10.9644746
  80.6788086  40.1738737  10.7178767  74.8138951  37.1860932  25.8010894
  75.5238569  36.5454124  25.7597513  74.7708259  37.4373827  26.7237075
  82.8025729  44.1228285  28.7217473  82.7438275  43.4387505  28.0548056
  83.2045248  44.8647275  28.2698099  73.5267885  34.1726150  27.6206534
  72.9905242  33.7216888  28.2728130  72.9384593  34.3072059  26.8776998
  72.9370144  33.6314801  10.1832997  72.0599610  33.5103602   9.8195244
  73.4127897  32.8400880   9.9311886  82.8043137  42.0867869  26.9531453
  81.9169915  41.7493791  27.0757852  83.3741688  41.3550900  27.1900219
  64.4572284  38.4191961  20.2774505  65.1443324  38.1053691  19.6895520
  64.3020412  39.3233326  20.0041756  69.2607006  33.3082158  24.7059528
  69.1765195  32.7007827  23.9709938  68.4389712  33.7991176  24.7069025
  76.1234070  45.9841092  17.4295518  75.3401591  46.5262772  17.5233742
  76.8226815  46.5015071  17.8289759  79.4330720  31.7935721  20.0729723
  79.9299419  31.0405683  19.7530794  78.6617701  31.8300038  19.5072933
  87.2860477  37.4976087  21.7148015  87.2750353  38.3800802  21.3441948
  86.4177857  37.1447637  21.5202552  80.5160500  40.5507408  17.6468147
  79.5816779  40.6708871  17.4772851  80.6937169  39.6479875  17.3828157
  76.0165688  33.9353104  19.8001408  75.6463476  33.3824144  20.4882313
  76.5124781  33.3311238  19.2476408  83.9033052  36.3924728  18.1818181
  84.3693504  37.2252719  18.1078483  84.3540552  35.9269709  18.8863439
  81.9709283  42.7368549  15.1804333  82.2469127  42.6225143  16.0898207
  81.1013782  42.3386034  15.1416506  81.8749715  28.7605315  22.2209082
  80.9612794  28.9909541  22.3891289  82.3042816  28.8443759  23.0723115
  81.6456173  36.9495207  24.7208976  80.9927623  37.1971114  24.0661429
  82.0236553  36.1359345  24.3871453  78.6063347  46.9854900  18.8237146
  78.7885741  46.1676556  19.2864899  79.4296333  47.2022592  18.3862036
  78.9405512  45.9123085  16.0852195  79.4693279  45.4015539  15.4722357
  79.2033732  45.5965615  16.9497728  69.4422605  43.9286954  23.8287529
  70.0276042  43.1830642  23.9615433  69.2447444  44.2390911  24.7124192
  72.2961260  46.9638201  18.8449971  71.6271636  47.4484329  18.3614011
  72.1574130  47.2107422  19.7593349  64.0340260  36.4992554  22.5491972
  64.0724359  35.9656145  23.3429090  63.5280553  35.9727760  21.9302949
  71.4131022  31.3457095  26.0454514  71.4772349  32.2071926  25.6331912
  71.3498142  30.7331096  25.3126872  70.8883295  33.4180227  29.6927548
  71.5155333  33.0357305  30.3065073  70.0311214  33.1994429  30.0583241
  67.6648837  35.2256656  15.6245903  67.9602278  34.3167335  15.5712957
  66.7636873  35.2044396  15.3026905  79.5734916  46.9463921  22.4296311
  79.4486056  46.1453660  21.9207257  80.2314007  47.4410114  21.9410281
  71.1943084  33.3012653  21.6073452  70.4729670  33.9148621  21.4680925
  71.9836340  33.8370418  21.5290098  81.6369825  44.7472941  24.0575862
  80.6900160  44.6278292  23.9854188  81.9852598  43.8595439  24.1402123
  73.9969398  30.6367080  27.8814103  74.5203800  30.8829376  28.6440413
  73.7781731  31.4687114  27.4617241  69.3936679  32.9070754  15.7485228
  69.0649385  32.0268133  15.5660334  69.7476050  32.8518423  16.6361617
  78.6416258  44.5425657  20.2580214  78.4941220  43.6142364  20.4387784
  79.4669751  44.5645748  19.7737289  72.5078502  33.1943724  16.1160706
  72.8474575  33.7229645  15.3939314  72.9550623  33.5324130  16.8919272
  82.2450380  45.3654216  21.3445086  83.1696927  45.1597077  21.2069538
  82.0765683  45.1170617  22.2534428  75.2021943  31.5780775  25.5663774
  74.8618763  30.7788588  25.9684454  74.4960949  31.8782485  24.9940607
  75.8538415  28.6630087  24.0191097  76.6764484  28.1890565  23.8969987
  76.0976478  29.4420571  24.5189783  74.4946649  31.6918346  14.3153999
  75.2155012  32.0699598  13.8117716  73.8711953  32.4107222  14.4188977
  78.6377772  32.3963494  15.2512331  78.8541387  33.2788132  14.9501159
  78.1571839  32.0049708  14.5217973  73.3776994  35.3549208  21.8283076
  73.2321574  35.6689511  22.7207357  72.9002197  35.9734108  21.2753974
  75.2373376  32.3451756  21.8763965  75.2234945  31.4492849  21.5396263
  75.9545805  32.3522419  22.5102251  77.0899507  32.7789096  23.9217093
  76.8317285  33.7006167  23.9201423  76.5584548  32.3819530  24.6117557
  82.0345696  45.8839883  16.7007178  82.2082573  45.3186306  15.9481030
  82.5274587  46.6840778  16.5186668  67.8522656  37.8954552  24.7670737
  67.3076124  38.6714360  24.8991011  68.7302006  38.2425357  24.6089858
  74.6410272  31.2266136  17.1451535  74.7626184  30.2982782  17.3442423
  74.3512315  31.2404822  16.2329851  77.5101463  28.9121046  20.2818255
  77.5323160  28.9760379  19.3270235  77.9269522  28.0725555  20.4758761
  87.8885087  38.6476306  18.3197478  88.3316233  37.8983631  17.9216601
  87.0111597  38.6386442  17.9371210  83.0220868  45.2006647  13.8004076
  83.7171773  45.8213340  14.0191391  83.3644019  44.3501999  14.0756454
  68.6388678  37.0224448  27.6600894  67.8970414  37.1707084  28.2465524
  68.3181422  37.2832714  26.7967643  84.9212292  42.6506353  15.3291407
  85.4463616  42.9893626  14.6040727  84.8334644  41.7153368  15.1454542
  76.6052952  48.7178336  19.6886660  76.1657943  48.2254715  20.3819517
  77.3561069  48.1751304  19.4478735  69.0845291  44.9089877  19.6911288
  69.9103311  44.6093649  19.3109932  68.7339343  44.1397500  20.1401077
  74.0526824  44.2616345  21.7608962  73.4306834  43.5987050  21.4611190
  74.7231691  44.2877477  21.0782610  67.2853896  42.8276204  20.6500222
  66.4485805  42.3998378  20.4684223  67.2577542  43.0208647  21.5871013
  84.7304073  40.1331723  27.9475333  84.7802078  39.9681730  28.8890856
  84.6217996  39.2658982  27.5573214  73.6140331  42.8120269  15.2367422
  73.7628452  43.4955733  14.5834095  74.4206775  42.7925359  15.7516878
  87.4317952  40.1181544  20.7119925  88.2664843  40.5571348  20.8757486
  87.5677081  39.6420197  19.8928171  84.4809458  37.6761279  26.6597413
  84.9563579  37.8688925  25.8516264  83.5575023  37.7320465  26.4140797
  71.3692964  38.8385446  16.2428491  71.1239006  37.9347776  16.4408701
  71.5388879  38.8402597  15.3007969  79.0589674  29.7109123  25.6253247
  79.5771618  30.4470150  25.2999735  78.7044807  30.0173116  26.4600006
  70.6388612  34.5713804  13.7414653  69.9457857  34.6458159  13.0854689
  70.3940364  33.8074148  14.2636170  79.3102268  26.1309405  21.1454144
  79.5904022  25.4632594  21.7714570  80.0952875  26.3238501  20.6328807
  77.1135737  45.3068399  12.7079170  76.5409704  45.9258586  12.2549642
  77.6868531  45.8567761  13.2419092  83.1811127  34.5527039  24.8925719
  84.1328550  34.6525137  24.9137943  83.0114577  33.7605308  25.4023803
  81.2025506  31.6382622  25.0785120  80.6075438  31.9187635  24.3831608
  80.9175203  32.1276523  25.8501861  80.3332997  45.5905549  13.8387752
  81.2663670  45.5251111  14.0420628  80.2456209  46.4261816  13.3802285
  82.9621013  44.9071420  10.7991700  82.8834645  44.5731283  11.6927458
  83.7830680  45.3993187  10.7983172  85.6599204  37.7733159  24.0068018
  85.6275525  36.8349160  24.1927702  86.2699828  37.8517196  23.2733843
  77.4982535  36.6429212  10.0495222  78.4441640  36.5135420  10.1183640
  77.1196780  35.9043874  10.5264650  85.8093693  34.5644202  24.0526301
  85.2932742  33.7802659  23.8656230  86.6933642  34.2362919  24.2172821
  83.4704420  28.3085218  20.0122114  83.2729241  28.0000306  20.8965446
  84.0804125  29.0346857  20.1420044  91.4775754  38.8349166  23.1474055
  92.2079143  38.5734454  23.7081758  90.8682700  38.0977888  23.1876123
  89.5591051  36.9757028  23.7448506  88.8324215  36.8412993  23.1364998
  89.1438338  37.2833857  24.5505224  75.6825453  34.5679188   9.9850108
  74.7756908  34.2712301  10.0612821  75.9601434  34.2709006   9.1184394
  66.6003393  35.8885552  20.4349154  66.2806177  35.0350860  20.1423528
  66.0536821  36.1034130  21.1907121  70.3783300  38.6047993  24.1518660
  70.5969310  39.5365100  24.1706694  70.7909074  38.2455967  24.9373464
  77.2987518  29.1116078  16.1394349  76.4888247  28.7663163  16.5149595
  77.9871935  28.8023622  16.7281960  79.2278067  28.1894125  17.7618645
  79.7809105  28.6089578  18.4208669  79.4648153  27.2629873  17.8041601
  74.4524237  31.4266123  10.1262087  75.3143401  31.7521022  10.3857904
  74.6374581  30.6397619   9.6135153  66.4691653  39.5088463  22.4042276
  65.7755124  39.0942416  21.8912230  67.2164644  39.5509000  21.8075694
  82.6056874  30.2994650  17.2697310  82.0255543  30.9579454  16.8875362
  82.3392806  29.4771995  16.8584727  81.0560440  29.6999708  19.4718630
  81.5560218  29.8116242  18.6632949  81.6996048  29.3960760  20.1119439
  68.3828395  39.4406717  20.2808290  68.3599084  39.5394404  19.3290174
  68.6929032  40.2871868  20.6025457  81.3881752  32.4594740  16.3253658
  80.5007607  32.7444391  16.1073853  81.8035741  32.2988504  15.4780935
  84.7396288  32.4841261  20.0407997  85.5156678  32.9737714  20.3132614
  84.0144422  32.9099315  20.4979867  87.1768846  33.1968881  21.0981938
  87.7713337  32.9564616  20.3875246  87.2495430  32.4776011  21.7255474
  69.3966002  47.0402491  21.4125103  69.2620470  46.2802892  20.8463101
  68.9798064  47.7643391  20.9453892  80.5324965  42.2239415  10.4201678
  81.2360815  42.4289417  11.0359334  79.8087614  42.7916177  10.6850762
  81.3622775  37.9749276  16.5403948  81.3057977  38.4317828  15.7011581
  81.9151118  37.2139961  16.3626791  85.1727581  33.7639008  17.3654068
  84.9164516  33.3635644  18.1962275  84.5480449  34.4782802  17.2404207
  89.4839919  36.5035081  19.8725359  88.9239477  36.5728271  20.6456921
  88.8783423  36.3276066  19.1524855  82.4411662  42.6621944  12.4700138
  83.2757266  42.2303143  12.2877613  82.2796005  42.4903958  13.3977033
  82.0957555  39.1654057  13.8356477  82.0406358  38.9998329  12.8944921
  81.4703610  39.8730090  13.9918667  66.8850070  34.4022122  27.6617900
  67.5308933  33.8921076  28.1505125  66.6767221  35.1390804  28.2361325
  75.4053680  28.6662166  13.4141796  75.3932350  29.6104006  13.5710067
  76.2977102  28.4832312  13.1201257  75.3343244  47.3431057  21.5009552
  74.3838875  47.3432919  21.3873925  75.6375730  46.5963791  20.9845587
  79.2205800  25.2604943  17.6687733  78.4538195  24.7063430  17.8144415
  79.6316505  25.3326812  18.5301884  71.2247561  31.5489739  31.7592914
  72.0879022  31.1926544  31.9696238  70.6512971  31.2103634  32.4468318
  91.0695938  53.1791595  22.5655315  91.7074348  53.0598343  21.8618655
  90.9516780  54.1272439  22.6243267  87.8785644  53.1319023  22.5016839
  87.5404155  53.0160088  21.6137374  88.7475412  52.7310188  22.4817846
  83.7372460  54.9854500  18.4913730  83.1737325  54.8944437  17.7230018
  83.6224855  54.1654404  18.9716223  88.3605427  54.2853875  28.4603045
  88.3494068  53.8906673  27.5883549  88.5226066  53.5519948  29.0536816
  81.2836891  56.4805691  21.3297951  82.0758183  56.1396516  20.9144250
  81.5233542  56.5900666  22.2500104  89.3172018  58.6525468  13.8028195
  88.6659998  59.2379548  13.4162209  90.1116381  59.1831662  13.8623233
  83.2427645  55.7414605  14.2015330  84.0158521  55.1943592  14.0628205
  83.5953044  56.6058854  14.4129791  85.0812688  57.0690987  27.4082229
  84.7902554  57.9736618  27.2928895  85.7169672  57.1107515  28.1226299
  86.0068895  54.4467835  23.9983589  86.6032467  54.2223858  23.2840552
  86.0643866  53.7052581  24.6009036  85.5793923  51.9007271  11.8333780
  85.8319444  51.3788792  11.0717243  84.6418482  51.7373416  11.9360463
  90.6237206  50.9043049  19.6408523  91.4100295  50.4862472  19.2898940
  90.8875910  51.8089141  19.8090171  90.7947283  56.3415899  14.3397180
  90.1593116  56.4150526  15.0518084  90.4644690  56.9309498  13.6616259
  96.0245633  50.8418282  20.5441501  96.7570805  50.2717499  20.7779331
  95.2684989  50.4539883  20.9848007  85.2990212  53.8035377  14.0358155
  85.1826470  53.1280280  14.7039239  85.4092472  53.3167751  13.2190308
  87.6421753  53.2645524  17.7404844  87.2779960  52.7376145  18.4517765
  88.4988869  52.8743993  17.5671329  93.5471054  44.5539856  25.0036110
  93.2154378  45.4235267  24.7797325  92.9516667  44.2376140  25.6830140
  87.2827240  48.2935424  12.7366192  87.4501642  49.1615660  13.1036663
  87.0924409  48.4562705  11.8127482  90.0402573  56.7552402  24.4032023
  89.7403296  57.6577441  24.2947830  89.6953633  56.4884586  25.2553176
  83.4915055  53.2066199  20.4368727  82.5665551  53.0742413  20.6446419
  83.7399468  53.9860419  20.9338669  93.4399717  49.2734943  22.0829460
  92.5316594  49.2050351  21.7888221  93.3887313  49.7506888  22.9111285
  87.2616461  50.7493081  13.7212859  87.1416086  51.1950132  14.5598339
  86.5669049  51.0978399  13.1626397  80.8523866  52.8499473  21.2712516
  80.9816247  53.1033952  22.1851928  80.1721317  53.4427181  20.9517171
  85.0223353  63.5196723  17.3702990  84.9447383  64.4704548  17.4491471
  84.4184996  63.1742595  18.0277917  87.5140583  50.6924588  30.0264357
  86.7373917  51.2518508  30.0167222  88.1531146  51.1781371  30.5479227
  95.3061363  47.4751381  23.8607334  94.6635744  47.7683914  23.2147128
  94.8016292  47.3604301  24.6660531  92.9601527  51.2214554  14.5493193
  93.8719383  51.4541941  14.3740891  92.4511174  51.8051598  13.9868272
  85.7686955  53.5010042  29.5882324  86.5101639  54.0395086  29.3117148
  85.0623940  54.1276330  29.7453876  91.2442295  55.6439182  28.1854486
  91.6525651  55.2021593  27.4409118  90.5219556  55.0691810  28.4388679
  87.5973365  50.5811789  25.5588043  88.4434560  51.0051202  25.7022692
  87.5372002  49.9245413  26.2526606  91.5671109  56.2040373  21.9406775
  90.9379972  56.3686087  21.2382842  91.1796771  56.6181982  22.7117739
  95.4460341  57.1394811  19.2951138  94.7611379  57.5193712  18.7448172
  95.5304190  57.7490137  20.0283086  90.7472810  48.2416157  27.2169216
  90.5033742  48.9958218  26.6803492  91.0232740  48.6201505  28.0516463
  92.7011273  54.7854770  25.8946482  92.9128168  55.4286529  25.2180863
  92.6541021  53.9517086  25.4268412  90.3037502  47.3972590  22.7983054
  89.4421981  47.6953844  23.0899792  90.3299936  47.6142989  21.8664087
  87.1199071  55.9414781  19.2056860  87.5837417  56.2202484  18.4161482
  86.8555869  55.0398225  19.0229950  84.0123152  55.4886262  22.1436623
  84.5824509  55.9173531  21.5054107  84.6031264  55.2068847  22.8420809
  86.0567957  52.0637933  16.0146425  86.7592001  52.5158977  16.4820351
  85.7248586  51.4221752  16.6426318  84.5048319  50.6549690  30.3897634
  83.8746979  51.3365971  30.6233031  84.3984407  50.5432771  29.4450773
  79.7993291  50.3221486  21.3163558  79.0092345  50.5779014  20.8403669
  80.2904539  51.1369824  21.4215599  93.8157101  57.6626725  24.0668839
  94.6374544  57.2606912  23.7851521  93.8119504  57.5594959  25.0184955
  81.7508037  50.6866065  18.2747035  80.9539200  50.7984759  18.7930531
  81.5233629  51.0252717  17.4087926  87.5813704  57.2110768  26.2229550
  87.6458137  57.6731175  27.0587722  86.8724628  56.5808133  26.3511860
 101.9063094  54.0065473  20.4153811 101.1526802  53.4372872  20.2597815
 102.0410635  53.9728138  21.3624445  87.2961722  58.8778876  16.0908530
  87.1607397  59.7230411  16.5193378  87.8371534  59.0798153  15.3274464
  83.7829061  44.9570456  32.7522885  83.3896007  44.4036654  33.4270530
  84.5995202  45.2681034  33.1429403  80.7491119  56.3954314  16.6636455
  81.2615640  57.1897564  16.8142020  81.4013832  55.6980604  16.5970057
  82.5586004  59.5120070  18.7459208  82.7352632  60.4338035  18.5580192
  83.3542837  59.1978489  19.1753588  88.9230198  59.5002442  30.2208872
  88.4794052  58.7138821  29.9029777  89.5847412  59.6881593  29.5552763
  83.6817319  61.0298244  24.7469551  84.2324744  60.9015307  23.9746545
  82.8428795  61.3293133  24.3964443  91.0211436  59.7805242  28.2490273
  91.0029912  60.6014123  27.7570543  91.9431356  59.6559317  28.4740415
  87.4784490  57.2949372  29.0913782  88.0112827  56.5337660  28.8613090
  86.9498572  57.0023023  29.8337936  90.6454185  42.4009438  24.6207424
  90.3018455  43.2911079  24.5446534  91.0133148  42.2111095  23.7577009
  78.7140036  54.7242968  17.4396026  79.5515258  55.1339976  17.2229733
  78.8918304  53.7842410  17.4096220  90.6104468  52.3918049  13.1279859
  90.0951092  53.1622653  13.3668246  90.3381777  51.7183185  13.7512920
  88.1951579  47.2367750  18.1865097  87.3393175  46.8474600  18.0070736
  88.6078531  47.3159710  17.3264883  89.7250726  44.7714093  22.5856657
  89.2215521  44.7344228  21.7724462  90.0181333  45.6806836  22.6453313
  85.9693612  44.8552823  21.5922839  86.8346608  44.6595631  21.2328728
  86.0371121  44.6263174  22.5192195  95.5838742  55.1450403  15.0633032
  94.8068185  54.8061563  14.6188194  96.2630223  55.1503027  14.3887997
  90.3990771  50.2645141  14.9539640  90.0940907  50.5791290  15.8049783
  91.3521213  50.3426561  14.9966973  88.8437203  56.4235364  16.6032594
  88.3158565  55.6888124  16.2905831  88.3424706  57.2010040  16.3572562
  93.8230049  54.6184385  21.7199640  93.1653724  55.3083646  21.8079769
  94.6270448  55.0080817  22.0633626  83.5755931  47.0855030  18.9639205
  84.1499683  46.8630212  18.2312398  84.1626913  47.1543725  19.7167807
  92.6335508  52.9728757  19.7703582  93.1467390  53.6058749  20.2725292
  93.2836732  52.3729953  19.4046942  83.9025518  49.1159491  12.9835091
  83.0662830  49.4534178  13.3044365  83.7630287  48.9808471  12.0462228
  85.8778598  43.9596279  17.6914275  85.2243011  43.6445297  17.0670890
  85.8359073  43.3372020  18.4174098  86.9889803  54.2415574   9.6067567
  86.0816865  54.0104828   9.8058716  87.4860835  53.4453194   9.7941548
  89.8957882  62.9513082  12.5264253  89.2219581  63.2544778  13.1349211
  90.2823704  63.7542162  12.1769710  89.1116339  50.4478213  22.0161922
  88.1938900  50.6693160  21.8583610  89.5276482  50.5224523  21.1573630
  89.8951387  51.8469629  17.1464603  90.6423205  52.3591026  16.8371725
  90.1642976  51.5253681  18.0068996  88.1678037  54.3428169  14.1291557
  87.2589256  54.0587202  14.2264027  88.1973121  54.7627248  13.2694864
  93.3997304  57.9534759  17.8982725  92.9459631  57.1125669  17.9547915
  92.7691271  58.5896157  18.2357505  92.3430224  48.8826745  19.1283392
  91.6052980  48.3704131  19.4593635  92.5956997  48.4427126  18.3166669
  91.8430243  59.7911255  18.8332543  92.1353218  60.3516313  18.1144908
  92.3528864  60.0839816  19.5885702  92.4441851  41.6602997  19.7225161
  92.7500728  40.8000360  19.4351076  93.1694456  42.2520617  19.5224155
  78.7366207  52.0633683  18.1106759  78.5390607  51.4703044  17.3857826
  78.1812871  51.7585894  18.8282698  86.7162931  51.9556790  20.2301352
  86.7711541  51.0030626  20.1543829  85.9054133  52.1116229  20.7142651
  87.8654125  55.8836913  11.4679636  87.4273554  55.1672772  11.0085273
  88.6064565  56.1113028  10.9064727  84.6555291  50.5733850  17.9891731
  83.8423156  50.8728020  18.3956923  85.1514285  50.1789538  18.7066213
  86.8063869  60.5691607  19.9225996  86.7640047  60.7952453  18.9934528
  87.7226567  60.3354981  20.0711797  90.2529502  51.0375674  26.8206625
  90.6078890  51.2647147  27.6801091  90.9001634  51.3694051  26.1983880
  95.9827239  54.1594110  17.5255954  95.8445138  54.3495706  16.5977143
  95.6263458  54.9213493  17.9824005  84.1469365  48.1452205  23.6052966
  84.7868745  48.0040964  22.9075929  83.3146896  47.8586719  23.2291568
  96.0096619  56.2270637  22.5367226  96.4433126  56.1345926  23.3850280
  96.7228200  56.2028137  21.8987242  84.9229669  57.4454636  19.7187959
  85.7170268  56.9504956  19.5170534  84.2121362  56.9172499  19.3555664
  89.7424514  59.8272731  24.0700326  89.7961536  60.3963667  24.8378042
  88.8739295  59.9974616  23.7054363  81.2312433  51.5897717  15.7947711
  80.3010021  51.5282173  16.0117673  81.3269905  51.0673670  14.9984353
  81.1497982  48.1152530  18.3825953  81.4104799  49.0297863  18.2735113
  81.9715154  47.6476973  18.5322566  82.6222907  49.5290287  25.5524777
  83.2945961  49.3207649  24.9037426  81.7952694  49.3312373  25.1130010
  96.8712168  56.2694338  25.0700111  97.0648059  57.1740148  25.3159386
  96.7712787  55.8101757  25.9038696  88.5248479  46.1552228  27.5690438
  87.8776394  46.8542178  27.4754915  89.2949495  46.5888372  27.9366687
  91.9327277  56.4201080  30.6440992  91.7812784  56.1911632  29.7271075
  91.9231957  57.3771682  30.6572337  88.7012614  53.9932993  25.6287258
  89.6304674  54.1444153  25.4556225  88.2803644  54.0817014  24.7735905
  87.5000945  58.0183658  23.3985796  87.3612031  57.6502442  24.2711734
  86.7115542  58.5331297  23.2269753  88.0949097  63.1192754  14.7411332
  88.2700853  62.6480797  15.5556955  87.4081885  63.7458520  14.9692593
  89.0506160  57.3965260  20.7874633  88.7155993  57.3566030  21.6832283
  88.5510106  56.7309976  20.3145044  83.0250404  52.8032890  26.3127215
  82.8870202  52.0713129  26.9138754  83.9355328  52.7141790  26.0311402
  91.9865352  54.7421295  11.0611693  91.3694523  54.0168123  10.9644746
  91.5181841  55.5030655  10.7178767  85.6532705  52.5152850  25.8010894
  86.3632324  51.8746042  25.7597513  85.6102013  52.7665744  26.7237075
  93.6419484  59.4520203  28.7217473  93.5832030  58.7679423  28.0548056
  94.0439002  60.1939193  28.2698099  84.3661639  49.5018067  27.6206534
  83.8298996  49.0508806  28.2728130  83.7778348  49.6363976  26.8776998
  82.6610183  66.2682117  21.5151192  82.9006781  66.9000641  22.1930211
  81.8179379  65.9170157  21.8016552  83.7763898  48.9606719  10.1832997
  82.8993364  48.8395520   9.8195244  84.2521651  48.1692797   9.9311886
  93.6436891  57.4159787  26.9531453  92.7563670  57.0785709  27.0757852
  94.2135442  56.6842818  27.1900219  75.2966038  53.7483879  20.2774505
  75.9837078  53.4345609  19.6895520  75.1414167  54.6525243  20.0041756
  87.1738044  62.0761239  23.9192696  87.1008216  62.8816211  24.4312001
  86.7315438  62.2753205  23.0940718  86.9627824  61.3133009  17.4295518
  86.1795346  61.8554689  17.5233742  87.6620569  61.8306989  17.8289759
  90.2724474  47.1227639  20.0729723  90.7693174  46.3697601  19.7530794
  89.5011456  47.1591955  19.5072933  98.1254232  52.8268004  21.7148015
  98.1144108  53.7092720  21.3441948  97.2571611  52.4739555  21.5202552
  89.6336728  61.9748073  26.0750855  90.3464700  62.6095538  26.0026756
  89.1426757  62.0711939  25.2590857  91.3554255  55.8799326  17.6468147
  90.4210534  56.0000788  17.4772851  91.5330923  54.9771793  17.3828157
  86.8559443  49.2645022  19.8001408  86.4857230  48.7116062  20.4882313
  87.3518535  48.6603155  19.2476408  94.7426806  51.7216645  18.1818181
  95.2087258  52.5544637  18.1078483  95.1934307  51.2561627  18.8863439
  84.6848642  59.7242517  26.8956426  85.3858101  60.3579000  27.0485820
  84.2143757  60.0657248  26.1352065  92.8103037  58.0660467  15.1804333
  93.0862881  57.9517061  16.0898207  91.9407536  57.6677951  15.1416506
  92.7143469  44.0897232  22.2209082  91.8006549  44.3201459  22.3891289
  93.1436570  44.1735676  23.0723115  92.4849927  52.2787124  24.7208976
  91.8321378  52.5263032  24.0661429  92.8630307  51.4651262  24.3871453
  89.4457101  62.3146817  18.8237146  89.6279496  61.4968473  19.2864899
  90.2690087  62.5314510  18.3862036  89.7799267  61.2415002  16.0852195
  90.3087033  60.7307457  15.4722357  90.0427486  60.9257533  16.9497728
  88.5337501  53.0206935  31.2075013  87.8578138  52.9201065  31.8777388
  89.3565134  52.8646149  31.6711010  80.2816360  59.2578872  23.8287529
  80.8669796  58.5122560  23.9615433  80.0841198  59.5682828  24.7124192
  83.1355015  62.2930119  18.8449971  82.4665390  62.7776247  18.3614011
  82.9967884  62.5399340  19.7593349  74.8734014  51.8284472  22.5491972
  74.9118114  51.2948063  23.3429090  74.3674307  51.3019677  21.9302949
  87.2760283  64.3273863  25.4432629  87.8278591  64.4905484  26.2081714
  87.6166477  64.9178301  24.7712654  82.2524777  46.6749012  26.0454514
  82.3166103  47.5363843  25.6331912  82.1891897  46.0623014  25.3126872
  92.1271158  59.1535120  31.2981284  92.6711062  59.7665078  30.8036238
  91.5458003  59.7114699  31.8148297  78.5042592  50.5548574  15.6245903
  78.7996033  49.6459253  15.5712957  77.6030628  50.5336314  15.3026905
  90.4128671  62.2755838  22.4296311  90.2879810  61.4745578  21.9207257
  91.0707762  62.7702032  21.9410281  82.0336839  48.6304571  21.6073452
  81.3123425  49.2440538  21.4680925  82.8230095  49.1662336  21.5290098
  92.4763579  60.0764858  24.0575862  91.5293915  59.9570209  23.9854188
  92.8246352  59.1887356  24.1402123  84.8363152  45.9658997  27.8814103
  85.3597554  46.2121294  28.6440413  84.6175486  46.7979032  27.4617241
  80.2330433  48.2362672  15.7485228  79.9043140  47.3560051  15.5660334
  80.5869804  48.1810340  16.6361617  89.4810012  59.8717575  20.2580214
  89.3334975  58.9434282  20.4387784  90.3063506  59.8937665  19.7737289
  83.3472257  48.5235642  16.1160706  83.6868329  49.0521563  15.3939314
  83.7944377  48.8616048  16.8919272  93.0844134  60.6946133  21.3445086
  94.0090682  60.4888995  21.2069538  92.9159438  60.4462534  22.2534428
  86.0415697  46.9072692  25.5663774  85.7012518  46.1080505  25.9684454
  85.3354704  47.2074403  24.9940607  86.6932169  43.9922005  24.0191097
  87.5158239  43.5182483  23.8969987  86.9370233  44.7712489  24.5189783
  85.3340404  47.0210263  14.3153999  86.0548766  47.3991516  13.8117716
  84.7105708  47.7399140  14.4188977  89.4771527  47.7255412  15.2512331
  89.6935141  48.6080050  14.9501159  88.9965594  47.3341626  14.5217973
  84.2170748  50.6841125  21.8283076  84.0715329  50.9981428  22.7207357
  83.7395952  51.3026026  21.2753974  86.0767131  47.6743673  21.8763965
  86.0628700  46.7784767  21.5396263  86.7939559  47.6814337  22.5102251
  87.9293262  48.1081014  23.9217093  87.6711039  49.0298084  23.9201423
  87.3978302  47.7111448  24.6117557  92.8739450  61.2131801  16.7007178
  93.0476328  60.6478223  15.9481030  93.3668342  62.0132696  16.5186668
  85.4804027  46.5558054  17.1451535  85.6019938  45.6274700  17.3442423
  85.1906069  46.5696740  16.2329851  88.3495217  44.2412964  20.2818255
  88.3716914  44.3052297  19.3270235  88.7663276  43.4017473  20.4758761
  98.7278842  53.9768224  18.3197478  99.1709988  53.2275549  17.9216601
  97.8505352  53.9678360  17.9371210  93.8614623  60.5298565  13.8004076
  94.5565528  61.1505258  14.0191391  94.2037773  59.6793916  14.0756454
  95.7606046  57.9798271  15.3291407  96.2857370  58.3185543  14.6040727
  95.6728399  57.0445286  15.1454542  87.4226095  61.8932344  27.4581284
  87.7313221  61.6481491  28.3303983  88.2201577  62.0978983  26.9700154
  87.4446707  64.0470254  19.6886660  87.0051697  63.5546633  20.3819517
  88.1954824  63.5043222  19.4478735  79.9239046  60.2381795  19.6911288
  80.7497066  59.9385567  19.3109932  79.5733098  59.4689417  20.1401077
  84.8920579  59.5908263  21.7608962  84.2700588  58.9278968  21.4611190
  85.5625446  59.6169395  21.0782610  78.1247651  58.1568121  20.6500222
  77.2879559  57.7290296  20.4684223  78.0971296  58.3500565  21.5871013
  84.9645106  48.0690051  31.3541468  85.0133262  48.9452174  30.9719237
  85.5067621  47.5267444  30.7813111  95.4499952  58.6131174  30.6342605
  94.6595496  58.5955313  30.0947104  95.2133307  59.1519468  31.3891642
  95.5697827  55.4623641  27.9475333  95.6195832  55.2973648  28.8890856
  95.4611750  54.5950900  27.5573214  84.4534086  58.1412186  15.2367422
  84.6022206  58.8247651  14.5834095  85.2600529  58.1217276  15.7516878
  92.8601590  51.4454569  29.2634640  93.7611452  51.3061034  28.9718638
  92.9349564  51.6109024  30.2032818  87.1944395  48.8221423  28.1087827
  86.3247704  49.1154989  27.8370415  87.4303875  49.4061868  28.8295090
  97.0716024  57.8820582  28.1917355  96.7800832  58.2450563  29.0280816
  96.4588155  57.1687590  28.0130687  98.2711706  55.4473462  20.7119925
  99.1058598  55.8863266  20.8757486  98.4070835  54.9712115  19.8928171
  95.3203212  53.0053197  26.6597413  95.7957334  53.1980843  25.8516264
  94.3968778  53.0612383  26.4140797  82.2086719  54.1677364  16.2428491
  81.9632761  53.2639694  16.4408701  82.3782633  54.1694514  15.3007969
  89.8983429  45.0401040  25.6253247  90.4165373  45.7762067  25.2999735
  89.5438561  45.3465034  26.4600006  81.4782366  49.9005722  13.7414653
  80.7851611  49.9750077  13.0854689  81.2334118  49.1366065  14.2636170
  90.1496023  41.4601323  21.1454144  90.4297777  40.7924512  21.7714570
  90.9346630  41.6530418  20.6328807  87.9529491  60.6360317  12.7079170
  87.3803458  61.2550504  12.2549642  88.5262285  61.1859678  13.2419092
  94.0204881  49.8818957  24.8925719  94.9722304  49.9817055  24.9137943
  93.8508332  49.0897225  25.4023803  92.0419261  46.9674540  25.0785120
  91.4469193  47.2479553  24.3831608  91.7568957  47.4568441  25.8501861
  91.1726751  60.9197467  13.8387752  92.1057424  60.8543029  14.0420628
  91.0849964  61.7553734  13.3802285  93.8014768  60.2363337  10.7991700
  93.7228399  59.9023201  11.6927458  94.6224435  60.7285105  10.7983172
  96.4992959  53.1025077  24.0068018  96.4669279  52.1641077  24.1927702
  97.1093583  53.1809113  23.2733843  88.3376290  51.9721130  10.0495222
  89.2835395  51.8427338  10.1183640  87.9590535  51.2335791  10.5264650
  96.6487447  49.8936120  24.0526301  96.1326496  49.1094577  23.8656230
  97.5327396  49.5654837  24.2172821  94.3098174  43.6377136  20.0122114
  94.1122996  43.3292224  20.8965446  94.9197880  44.3638774  20.1420044
 102.3169509  54.1641083  23.1474055 103.0472897  53.9026372  23.7081758
 101.7076454  53.4269805  23.1876123 100.3984806  52.3048946  23.7448506
  99.6717970  52.1704911  23.1364998  99.9832093  52.6125775  24.5505224
  88.2214982  56.0238876  31.5095879  89.1417992  56.2017475  31.7035926
  88.1864565  55.0794921  31.3575579  86.5219207  49.8971106   9.9850108
  85.6150662  49.6004219  10.0612821  86.7995188  49.6000924   9.1184394
  77.4397147  51.2177469  20.4349154  77.1199932  50.3642778  20.1423528
  76.8930576  51.4326047  21.1907121  88.1381273  44.4407996  16.1394349
  87.3282001  44.0955081  16.5149595  88.8265690  44.1315539  16.7281960
  90.0671821  43.5186042  17.7618645  90.6202860  43.9381496  18.4208669
  90.3041907  42.5921791  17.8041601  86.0904920  49.5073116  33.5421409
  85.9901647  50.4567473  33.4733500  85.8726462  49.1791355  32.6697479
  85.2917992  46.7558041  10.1262087  86.1537156  47.0812939  10.3857904
  85.4768336  45.9689537   9.6135153  77.3085407  54.8380381  22.4042276
  76.6148879  54.4234334  21.8912230  78.0558398  54.8800917  21.8075694
  93.4450628  45.6286568  17.2697310  92.8649297  46.2871372  16.8875362
  93.1786561  44.8063912  16.8584727  91.8954194  45.0291625  19.4718630
  92.3953973  45.1408160  18.6632949  92.5389802  44.7252678  20.1119439
  79.2222150  54.7698635  20.2808290  79.1992838  54.8686322  19.3290174
  79.5322786  55.6163785  20.6025457  81.8809528  56.8274790  24.3954905
  82.8352781  56.7958732  24.3284836  81.6822051  56.3665413  25.2105131
  92.2275506  47.7886658  16.3253658  91.3401361  48.0736309  16.1073853
  92.6429495  47.6280421  15.4780935  95.5790042  47.8133179  20.0407997
  96.3550432  48.3029631  20.3132614  94.8538176  48.2391233  20.4979867
  98.0162601  48.5260798  21.0981938  98.6107092  48.2856534  20.3875246
  98.0889185  47.8067929  21.7255474  80.2359757  62.3694409  21.4125103
  80.1014225  61.6094810  20.8463101  79.8191819  63.0935309  20.9453892
  91.3718720  57.5531333  10.4201678  92.0754570  57.7581335  11.0359334
  90.6481368  58.1208095  10.6850762  92.2016530  53.3041194  16.5403948
  92.1451731  53.7609745  15.7011581  92.7544872  52.5431879  16.3626791
  96.0121336  49.0930926  17.3654068  95.7558270  48.6927561  18.1962275
  95.3874204  49.8074720  17.2404207 100.3233674  51.8326999  19.8725359
  99.7633232  51.9020188  20.6456921  99.7177177  51.6567984  19.1524855
  83.3928882  63.2663726  21.6243545  83.2761267  64.2109159  21.5222236
  82.5721329  62.9637288  22.0129345  93.2805417  57.9913862  12.4700138
  94.1151021  57.5595060  12.2877613  93.1189760  57.8195876  13.3977033
  92.9351309  54.4945975  13.8356477  92.8800113  54.3290247  12.8944921
  92.3097364  55.2022008  13.9918667  90.2497216  56.7994887  33.1610040
  91.1188376  56.9735539  32.7996675  89.7703968  57.6189304  33.0385769
  86.2447435  43.9954084  13.4141796  86.2326104  44.9395924  13.5710067
  87.1370856  43.8124230  13.1201257  84.4183397  63.9191988  24.8399474
  85.3210643  63.9515598  25.1565969  84.1920767  62.9892439  24.8545810
  86.1736999  62.6722975  21.5009552  85.2232630  62.6724836  21.3873925
  86.4769485  61.9255709  20.9845587  90.0599554  40.5896861  17.6687733
  89.2931950  40.0355348  17.8144415  90.4710259  40.6618730  18.5301884
 101.9089692  68.5083513  22.5655315 102.5468102  68.3890260  21.8618655
 101.7910535  69.4564357  22.6243267  98.7179398  68.4610941  22.5016839
  98.3797910  68.3452006  21.6137374  99.5869167  68.0602106  22.4817846
  94.5766214  70.3146417  18.4913730  94.0131079  70.2236354  17.7230018
  94.4618609  69.4946322  18.9716223  99.1999181  69.6145793  28.4603045
  99.1887822  69.2198591  27.5883549  99.3619821  68.8811865  29.0536816
  92.1230646  71.8097609  21.3297951  92.9151938  71.4688434  20.9144250
  92.3627296  71.9192584  22.2500104 100.1565773  73.9817385  13.8028195
  99.5053753  74.5671466  13.4162209 100.9510136  74.5123580  13.8623233
  94.0821400  71.0706522  14.2015330  94.8552276  70.5235509  14.0628205
  94.4346799  71.9350772  14.4129791  95.9206442  72.3982905  27.4082229
  95.6296308  73.3028535  27.2928895  96.5563427  72.4399432  28.1226299
  96.8462649  69.7759753  23.9983589  97.4426222  69.5515776  23.2840552
  96.9037621  69.0344499  24.6009036  96.4187678  67.2299188  11.8333780
  96.6713198  66.7080710  11.0717243  95.4812237  67.0665334  11.9360463
 101.4630961  66.2334967  19.6408523 102.2494050  65.8154390  19.2898940
 101.7269665  67.1381059  19.8090171 101.6341038  71.6707817  14.3397180
 100.9986871  71.7442444  15.0518084 101.3038444  72.2601416  13.6616259
 106.8639388  66.1710200  20.5441501 107.5964560  65.6009417  20.7779331
 106.1078743  65.7831800  20.9848007  96.1383966  69.1327294  14.0358155
  96.0220225  68.4572198  14.7039239  96.2486226  68.6459668  13.2190308
  98.4815507  68.5937442  17.7404844  98.1173715  68.0668062  18.4517765
  99.3382623  68.2035911  17.5671329 104.3864808  59.8831774  25.0036110
 104.0548133  60.7527185  24.7797325 103.7910421  59.5668058  25.6830140
  98.1220994  63.6227341  12.7366192  98.2895397  64.4907578  13.1036663
  97.9318163  63.7854623  11.8127482 100.8796328  72.0844320  24.4032023
 100.5797051  72.9869359  24.2947830 100.5347387  71.8176503  25.2553176
  94.3308809  68.5358117  20.4368727  93.4059306  68.4034331  20.6446419
  94.5793222  69.3152336  20.9338669 104.2793471  64.6026860  22.0829460
 103.3710349  64.5342269  21.7888221 104.2281067  65.0798805  22.9111285
  98.1010215  66.0784999  13.7212859  97.9809840  66.5242049  14.5598339
  97.4062804  66.4270316  13.1626397  91.6917620  68.1791391  21.2712516
  91.8210001  68.4325869  22.1851928  91.0115071  68.7719099  20.9517171
  95.8617107  78.8488640  17.3702990  95.7841137  79.7996466  17.4491471
  95.2578751  78.5034513  18.0277917  98.3534337  66.0216506  30.0264357
  97.5767671  66.5810426  30.0167222  98.9924900  66.5073289  30.5479227
 106.1455118  62.8043299  23.8607334 105.5029498  63.0975832  23.2147128
 105.6410046  62.6896219  24.6660531 103.7995281  66.5506472  14.5493193
 104.7113138  66.7833859  14.3740891 103.2904928  67.1343516  13.9868272
  96.6080709  68.8301959  29.5882324  97.3495394  69.3687003  29.3117148
  95.9017695  69.4568248  29.7453876 102.0836049  70.9731100  28.1854486
 102.4919405  70.5313510  27.4409118 101.3613311  70.3983727  28.4388679
  98.4367119  65.9103706  25.5588043  99.2828314  66.3343120  25.7022692
  98.3765757  65.2537331  26.2526606 102.4064864  71.5332290  21.9406775
 101.7773726  71.6978004  21.2382842 102.0190526  71.9473900  22.7117739
 106.2854096  72.4686728  19.2951138 105.6005134  72.8485630  18.7448172
 106.3697945  73.0782055  20.0283086 101.5866564  63.5708075  27.2169216
 101.3427496  64.3250135  26.6803492 101.8626495  63.9493422  28.0516463
 103.5405027  70.1146687  25.8946482 103.7521922  70.7578447  25.2180863
 103.4934775  69.2809004  25.4268412 101.1431256  62.7264508  22.7983054
 100.2815735  63.0245761  23.0899792 101.1693691  62.9434907  21.8664087
  97.9592826  71.2706698  19.2056860  98.4231171  71.5494401  18.4161482
  97.6949624  70.3690143  19.0229950  94.8516907  70.8178180  22.1436623
  95.4218264  71.2465448  21.5054107  95.4425019  70.5360765  22.8420809
  96.8961712  67.3929851  16.0146425  97.5985755  67.8450894  16.4820351
  96.5642340  66.7513670  16.6426318  95.3442073  65.9841607  30.3897634
  94.7140734  66.6657888  30.6233031  95.2378161  65.8724689  29.4450773
  90.6387046  65.6513403  21.3163558  89.8486100  65.9070932  20.8403669
  91.1298293  66.4661741  21.4215599 104.6550855  72.9918643  24.0668839
 105.4768299  72.5898830  23.7851521 104.6513258  72.8886877  25.0184955
  92.5901791  66.0157983  18.2747035  91.7932954  66.1276677  18.7930531
  92.3627383  66.3544635  17.4087926  98.4207459  72.5402686  26.2229550
  98.4851891  73.0023093  27.0587722  97.7118383  71.9100051  26.3511860
  88.9224749  65.9043894  23.7478549  89.1732787  66.7890904  24.0136125
  89.4584297  65.7248495  22.9753641 112.7456848  69.3357391  20.4153811
 111.9920557  68.7664789  20.2597815 112.8804389  69.3020056  21.3624445
  98.1355476  74.2070793  16.0908530  98.0001151  75.0522329  16.5193378
  98.6765289  74.4090071  15.3274464  94.6222816  60.2862373  32.7522885
  94.2289761  59.7328572  33.4270530  95.4388956  60.5972952  33.1429403
  91.5884874  71.7246231  16.6636455  92.1009394  72.5189482  16.8142020
  92.2407587  71.0272522  16.5970057  93.3979758  74.8411988  18.7459208
  93.5746387  75.7629952  18.5580192  94.1936592  74.5270407  19.1753588
  97.5390777  61.7020252  30.3443142  98.2800490  62.3027405  30.2647604
  97.7708700  60.9597890  29.7861184  92.6832115  66.8876620  28.6221372
  92.5685630  65.9861877  28.9228470  91.8276633  67.1340316  28.2706188
  99.7623953  74.8294360  30.2208872  99.3187807  74.0430738  29.9029777
 100.4241166  75.0173510  29.5552763  94.5211074  76.3590162  24.7469551
  95.0718499  76.2307225  23.9746545  93.6822550  76.6585051  24.3964443
 101.8605191  75.1097160  28.2490273 101.8423666  75.9306041  27.7570543
 102.7825111  74.9851235  28.4740415  98.3178245  72.6241289  29.0913782
  98.8506582  71.8629578  28.8613090  97.7892326  72.3314941  29.8337936
 101.4847940  57.7301355  24.6207424 101.1412209  58.6202997  24.5446534
 101.8526902  57.5403013  23.7577009  89.5533790  70.0534886  17.4396026
  90.3909012  70.4631894  17.2229733  89.7312058  69.1134328  17.4096220
 101.4498223  67.7209966  13.1279859 100.9344846  68.4914571  13.3668246
 101.1775531  67.0475103  13.7512920  99.0345334  62.5659667  18.1865097
  98.1786930  62.1766518  18.0070736  99.4472285  62.6451628  17.3264883
 100.5644480  60.1006010  22.5856657 100.0609276  60.0636146  21.7724462
 100.8575087  61.0098753  22.6453313  96.8087366  60.1844740  21.5922839
  97.6740363  59.9887549  21.2328728  96.8764875  59.9555092  22.5192195
 106.4232497  70.4742321  15.0633032 105.6461939  70.1353481  14.6188194
 107.1023978  70.4794944  14.3887997 101.2384526  65.5937059  14.9539640
 100.9334661  65.9083208  15.8049783 102.1914968  65.6718478  14.9966973
  99.6830958  71.7527282  16.6032594  99.1552319  71.0180041  16.2905831
  99.1818460  72.5301958  16.3572562 104.6623804  69.9476302  21.7199640
 104.0047478  70.6375564  21.8079769 105.4664203  70.3372734  22.0633626
  94.4149685  62.4146948  18.9639205  94.9893437  62.1922130  18.2312398
  95.0020668  62.4835643  19.7167807 103.4729262  68.3020675  19.7703582
 103.9861144  68.9350667  20.2725292 104.1230486  67.7021871  19.4046942
  94.7419272  64.4451409  12.9835091  93.9056585  64.7826096  13.3044365
  94.6024042  64.3100389  12.0462228  96.7172353  59.2888197  17.6914275
  96.0636765  58.9737214  17.0670890  96.6752827  58.6663937  18.4174098
  97.8283558  69.5707492   9.6067567  96.9210620  69.3396746   9.8058716
  98.3254590  68.7745111   9.7941548  99.9510093  65.7770131  22.0161922
  99.0332655  65.9985078  21.8583610 100.3670237  65.8516441  21.1573630
 100.7345141  67.1761546  17.1464603 101.4816960  67.6882943  16.8371725
 101.0036731  66.8545599  18.0068996  99.0071791  69.6720087  14.1291557
  98.0983010  69.3879120  14.2264027  99.0366875  70.0919166  13.2694864
 104.2391059  73.2826676  17.8982725 103.7853386  72.4417586  17.9547915
 103.6085025  73.9188075  18.2357505 103.1823978  64.2118662  19.1283392
 102.4446735  63.6996049  19.4593635 103.4350752  63.7719044  18.3166669
 102.6823998  75.1203173  18.8332543 102.9746972  75.6808230  18.1144908
 103.1922618  75.4131734  19.5885702 103.2835606  56.9894914  19.7225161
 103.5894482  56.1292278  19.4351076 104.0088210  57.5812535  19.5224155
  89.5759962  67.3925601  18.1106759  89.3784361  66.7994962  17.3857826
  89.0206626  67.0877811  18.8282698  97.5556685  67.2848708  20.2301352
  97.6105295  66.3322544  20.1543829  96.7447887  67.4408147  20.7142651
  98.7047879  71.2128831  11.4679636  98.2667309  70.4964690  11.0085273
  99.4458320  71.4404945  10.9064727  95.4949045  65.9025767  17.9891731
  94.6816911  66.2019938  18.3956923  95.9908039  65.5081456  18.7066213
  97.6457623  75.8983524  19.9225996  97.6033802  76.1244371  18.9934528
  98.5620322  75.6646899  20.0711797 101.0923257  66.3667592  26.8206625
 101.4472645  66.5939065  27.6801091 101.7395388  66.6985969  26.1983880
 106.8220994  69.4886028  17.5255954 106.6838892  69.6787624  16.5977143
 106.4657213  70.2505410  17.9824005  94.9863120  63.4744123  23.6052966
  95.6262499  63.3332882  22.9075929  94.1540650  63.1878636  23.2291568
 106.8490373  71.5562555  22.5367226 107.2826880  71.4637844  23.3850280
 107.5621954  71.5320055  21.8987242  95.7623424  72.7746553  19.7187959
  96.5564022  72.2796873  19.5170534  95.0515116  72.2464416  19.3555664
 100.5818268  75.1564649  24.0700326 100.6355291  75.7255585  24.8378042
  99.7133050  75.3266534  23.7054363  92.0706187  66.9189635  15.7947711
  91.1403775  66.8574090  16.0117673  92.1663659  66.3965588  14.9984353
  91.9891736  63.4444448  18.3825953  92.2498554  64.3589781  18.2735113
  92.8108909  62.9768890  18.5322566  93.4616662  64.8582205  25.5524777
  94.1339715  64.6499567  24.9037426  92.6346448  64.6604291  25.1130010
 107.7105923  71.5986255  25.0700111 107.9041813  72.5032066  25.3159386
 107.6106541  71.1393674  25.9038696  99.3642234  61.4844146  27.5690438
  98.7170149  62.1834096  27.4754915 100.1343249  61.9180290  27.9366687
 102.7721032  71.7492998  30.6440992 102.6206538  71.5203550  29.7271075
 102.7625711  72.7063599  30.6572337  99.5406368  69.3224911  25.6287258
 100.4698428  69.4736070  25.4556225  99.1197398  69.4108932  24.7735905
  98.3394700  73.3475575  23.3985796  98.2005786  72.9794360  24.2711734
  97.5509296  73.8623215  23.2269753  98.9342852  78.4484672  14.7411332
  99.1094607  77.9772715  15.5556955  98.2475640  79.0750438  14.9692593
  99.8899915  72.7257178  20.7874633  99.5549748  72.6857948  21.6832283
  99.3903861  72.0601894  20.3145044  93.8644159  68.1324808  26.3127215
  93.7263957  67.4005047  26.9138754  94.7749082  68.0433708  26.0311402
 102.8259107  70.0713212  11.0611693 102.2088277  69.3460040  10.9644746
 102.3575595  70.8322573  10.7178767  96.4926460  67.8444767  25.8010894
  97.2026078  67.2037959  25.7597513  96.4495768  68.0957662  26.7237075
 104.4813238  74.7812121  28.7217473 104.4225784  74.0971341  28.0548056
 104.8832757  75.5231111  28.2698099  95.2055394  64.8309985  27.6206534
  94.6692751  64.3800724  28.2728130  94.6172102  64.9655894  26.8776998
  93.5003937  81.5974034  21.5151192  93.7400535  82.2292559  22.1930211
  92.6573134  81.2462074  21.8016552  94.6157653  64.2898637  10.1832997
  93.7387119  64.1687437   9.8195244  95.0915406  63.4984715   9.9311886
 104.4830646  72.7451705  26.9531453 103.5957424  72.4077626  27.0757852
 105.0529197  72.0134736  27.1900219  86.1359793  69.0775796  20.2774505
  86.8230833  68.7637526  19.6895520  85.9807921  69.9817161  20.0041756
  90.9394515  63.9665993  24.7059528  90.8552704  63.3591662  23.9709938
  90.1177221  64.4575011  24.7069025  98.0131799  77.4053157  23.9192696
  97.9401970  78.2108128  24.4312001  97.5709192  77.6045123  23.0940718
  97.8021579  76.6424927  17.4295518  97.0189100  77.1846607  17.5233742
  98.5014324  77.1598907  17.8289759 101.1118229  62.4519556  20.0729723
 101.6086928  61.6989519  19.7530794 100.3405210  62.4883873  19.5072933
 108.9647986  68.1559922  21.7148015 108.9537862  69.0384637  21.3441948
 108.0965366  67.8031473  21.5202552 100.4730482  77.3039991  26.0750855
 101.1858455  77.9387456  26.0026756  99.9820511  77.4003857  25.2590857
 102.1948009  71.2091244  17.6468147 101.2604288  71.3292706  17.4772851
 102.3724678  70.3063710  17.3828157  97.6953197  64.5936939  19.8001408
  97.3250985  64.0407980  20.4882313  98.1912290  63.9895073  19.2476408
 105.5820561  67.0508563  18.1818181 106.0481013  67.8836554  18.1078483
 106.0328061  66.5853544  18.8863439  95.5242396  75.0534434  26.8956426
  96.2251856  75.6870917  27.0485820  95.0537511  75.3949166  26.1352065
 103.6496792  73.3952384  15.1804333 103.9256636  73.2808979  16.0898207
 102.7801291  72.9969869  15.1416506 103.5537223  59.4189150  22.2209082
 102.6400303  59.6493377  22.3891289 103.9830325  59.5027594  23.0723115
 103.3243682  67.6079042  24.7208976 102.6715132  67.8554949  24.0661429
 103.7024062  66.7943180  24.3871453 100.2850856  77.6438735  18.8237146
 100.4673250  76.8260391  19.2864899 101.1083842  77.8606427  18.3862036
 100.6193021  76.5706920  16.0852195 101.1480788  76.0599375  15.4722357
 100.8821241  76.2549450  16.9497728  99.3731255  68.3498853  31.2075013
  98.6971892  68.2492982  31.8777388 100.1958889  68.1938067  31.6711010
  91.1210114  74.5870789  23.8287529  91.7063551  73.8414477  23.9615433
  90.9234953  74.8974746  24.7124192  93.9748769  77.6222037  18.8449971
  93.3059145  78.1068164  18.3614011  93.8361639  77.8691257  19.7593349
  85.7127769  67.1576390  22.5491972  85.7511868  66.6239980  23.3429090
  85.2068062  66.6311595  21.9302949  98.1154038  79.6565780  25.4432629
  98.6672346  79.8197402  26.2081714  98.4560231  80.2470218  24.7712654
  93.0918531  62.0040930  26.0454514  93.1559858  62.8655761  25.6331912
  93.0285651  61.3914932  25.3126872  92.5670804  64.0764063  29.6927548
  93.1942842  63.6941140  30.3065073  91.7098722  63.8578265  30.0583241
 102.9664912  74.4827038  31.2981284 103.5104816  75.0956996  30.8036238
 102.3851757  75.0406616  31.8148297  89.3436346  65.8840492  15.6245903
  89.6389787  64.9751170  15.5712957  88.4424382  65.8628231  15.3026905
 101.2522425  77.6047756  22.4296311 101.1273565  76.8037496  21.9207257
 101.9101516  78.0993949  21.9410281  92.8730593  63.9596488  21.6073452
  92.1517179  64.5732456  21.4680925  93.6623849  64.4954253  21.5290098
 103.3157334  75.4056776  24.0575862 102.3687669  75.2862127  23.9854188
 103.6640107  74.5179274  24.1402123  95.6756907  61.2950915  27.8814103
  96.1991309  61.5413211  28.6440413  95.4569240  62.1270950  27.4617241
  91.0724188  63.5654589  15.7485228  90.7436894  62.6851968  15.5660334
  91.4263559  63.5102258  16.6361617 100.3203767  75.2009492  20.2580214
 100.1728729  74.2726200  20.4387784 101.1457260  75.2229583  19.7737289
  94.1866011  63.8527559  16.1160706  94.5262084  64.3813481  15.3939314
  94.6338132  64.1907965  16.8919272 103.9237889  76.0238051  21.3445086
 104.8484436  75.8180912  21.2069538 103.7553192  75.7754452  22.2534428
  96.8809452  62.2364610  25.5663774  96.5406272  61.4372423  25.9684454
  96.1748458  62.5366321  24.9940607  97.5325924  59.3213922  24.0191097
  98.3551993  58.8474401  23.8969987  97.7763987  60.1004406  24.5189783
  96.1734158  62.3502181  14.3153999  96.8942521  62.7283434  13.8117716
  95.5499462  63.0691058  14.4188977 100.3165281  63.0547330  15.2512331
 100.5328896  63.9371968  14.9501159  99.8359348  62.6633543  14.5217973
  95.0564503  66.0133043  21.8283076  94.9109083  66.3273346  22.7207357
  94.5789706  66.6317943  21.2753974  96.9160885  63.0035591  21.8763965
  96.9022454  62.1076684  21.5396263  97.6333314  63.0106255  22.5102251
  98.7687016  63.4372931  23.9217093  98.5104794  64.3590002  23.9201423
  98.2372057  63.0403366  24.6117557 103.7133205  76.5423718  16.7007178
 103.8870082  75.9770141  15.9481030 104.2062096  77.3424613  16.5186668
  89.5310165  68.5538387  24.7670737  88.9863633  69.3298195  24.8991011
  90.4089515  68.9009192  24.6089858  96.3197781  61.8849971  17.1451535
  96.4413693  60.9566618  17.3442423  96.0299824  61.8988657  16.2329851
  99.1888972  59.5704882  20.2818255  99.2110669  59.6344215  19.3270235
  99.6057031  58.7309390  20.4758761 109.5672596  69.3060141  18.3197478
 110.0103742  68.5567467  17.9216601 108.6899106  69.2970278  17.9371210
 104.7008377  75.8590483  13.8004076 105.3959282  76.4797175  14.0191391
 105.0431528  75.0085834  14.0756454  90.3176187  67.6808284  27.6600894
  89.5757923  67.8290919  28.2465524  89.9968931  67.9416549  26.7967643
 106.5999801  73.3090188  15.3291407 107.1251125  73.6477461  14.6040727
 106.5122153  72.3737204  15.1454542  98.2619849  77.2224262  27.4581284
  98.5706976  76.9773409  28.3303983  99.0595331  77.4270900  26.9700154
  98.2840461  79.3762172  19.6886660  97.8445452  78.8838550  20.3819517
  99.0348578  78.8335139  19.4478735  90.7632800  75.5673712  19.6911288
  91.5890820  75.2677484  19.3109932  90.4126852  74.7981335  20.1401077
  95.7314333  74.9200181  21.7608962  95.1094343  74.2570886  21.4611190
  96.4019200  74.9461313  21.0782610  88.9641405  73.4860039  20.6500222
  88.1273314  73.0582213  20.4684223  88.9365051  73.6792482  21.5871013
  95.8038861  63.3981969  31.3541468  95.8527016  64.2744091  30.9719237
  96.3461375  62.8559362  30.7813111 106.2893707  73.9423092  30.6342605
 105.4989250  73.9247231  30.0947104 106.0527061  74.4811386  31.3891642
 106.4091582  70.7915558  27.9475333 106.4589587  70.6265566  28.8890856
 106.3005505  69.9242817  27.5573214  95.2927840  73.4704104  15.2367422
  95.4415961  74.1539568  14.5834095  96.0994284  73.4509194  15.7516878
 103.6995344  66.7746486  29.2634640 104.6005207  66.6352951  28.9718638
 103.7743319  66.9400941  30.2032818  98.0338149  64.1513341  28.1087827
  97.1641459  64.4446907  27.8370415  98.2697630  64.7353786  28.8295090
 107.9109778  73.2112500  28.1917355 107.6194587  73.5742480  29.0280816
 107.2981910  72.4979508  28.0130687 109.1105461  70.7765380  20.7119925
 109.9452352  71.2155184  20.8757486 109.2464590  70.3004033  19.8928171
 106.1596967  68.3345114  26.6597413 106.6351088  68.5272761  25.8516264
 105.2362532  68.3904300  26.4140797  93.0480473  69.4969282  16.2428491
  92.8026515  68.5931612  16.4408701  93.2176388  69.4986432  15.3007969
 100.7377183  60.3692958  25.6253247 101.2559127  61.1053985  25.2999735
 100.3832316  60.6756951  26.4600006  92.3176121  65.2297639  13.7414653
  91.6245366  65.3041994  13.0854689  92.0727873  64.4657983  14.2636170
 100.9889777  56.7893241  21.1454144 101.2691531  56.1216430  21.7714570
 101.7740384  56.9822336  20.6328807  98.7923246  75.9652234  12.7079170
  98.2197213  76.5842422  12.2549642  99.3656040  76.5151596  13.2419092
 104.8598636  65.2110875  24.8925719 105.8116059  65.3108972  24.9137943
 104.6902086  64.4189143  25.4023803 102.8813015  62.2966458  25.0785120
 102.2862947  62.5771470  24.3831608 102.5962712  62.7860359  25.8501861
 102.0120506  76.2489385  13.8387752 102.9451179  76.1834946  14.0420628
 101.9243718  77.0845651  13.3802285 107.3386713  68.4316994  24.0068018
 107.3063034  67.4932995  24.1927702 107.9487337  68.5101031  23.2733843
  99.1770044  67.3013047  10.0495222 100.1229149  67.1719255  10.1183640
  98.7984289  66.5627709  10.5264650 107.4881202  65.2228038  24.0526301
 106.9720251  64.4386494  23.8656230 108.3721150  64.8946754  24.2172821
 105.1491929  58.9669053  20.0122114 104.9516750  58.6584141  20.8965446
 105.7591634  59.6930692  20.1420044 113.1563263  69.4933001  23.1474055
 113.8866652  69.2318289  23.7081758 112.5470209  68.7561723  23.1876123
 111.2378560  67.6340864  23.7448506 110.5111724  67.4996829  23.1364998
 110.8225847  67.9417692  24.5505224  99.0608737  71.3530793  31.5095879
  99.9811746  71.5309392  31.7035926  99.0258320  70.4086839  31.3575579
  97.3612961  65.2263024   9.9850108  96.4544417  64.9296136  10.0612821
  97.6388942  64.9292842   9.1184394  88.2790902  66.5469387  20.4349154
  87.9593686  65.6934695  20.1423528  87.7324330  66.7617965  21.1907121
  92.0570809  69.2631828  24.1518660  92.2756819  70.1948936  24.1706694
  92.4696583  68.9039802  24.9373464  98.9775027  59.7699913  16.1394349
  98.1675756  59.4246998  16.5149595  99.6659444  59.4607457  16.7281960
 100.9065575  58.8477960  17.7618645 101.4596614  59.2673414  18.4208669
 101.1435662  57.9213708  17.8041601  96.9298675  64.8365034  33.5421409
  96.8295402  65.7859391  33.4733500  96.7120217  64.5083273  32.6697479
  96.1311746  62.0849959  10.1262087  96.9930910  62.4104857  10.3857904
  96.3162090  61.2981455   9.6135153  88.1479162  70.1672298  22.4042276
  87.4542633  69.7526251  21.8912230  88.8952153  70.2092835  21.8075694
 104.2844383  60.9578485  17.2697310 103.7043052  61.6163289  16.8875362
 104.0180315  60.1355830  16.8584727 102.7347949  60.3583543  19.4718630
 103.2347727  60.4700078  18.6632949 103.3783557  60.0544596  20.1119439
  96.7929945  68.2662173  32.3586471  96.3097026  69.0662533  32.5650360
  96.8790884  68.2770117  31.4053915  90.0615904  70.0990552  20.2808290
  90.0386593  70.1978240  19.3290174  90.3716541  70.9455703  20.6025457
  92.7203282  72.1566707  24.3954905  93.6746536  72.1250650  24.3284836
  92.5215806  71.6957331  25.2105131  93.3102664  70.7267823  26.9625702
  94.1295553  71.2211902  26.9860540  93.5839472  69.8099791  26.9343270
 103.0669261  63.1178576  16.3253658 102.1795116  63.4028226  16.1073853
 103.4823250  62.9572339  15.4780935 106.4183797  63.1425097  20.0407997
 107.1944187  63.6321549  20.3132614 105.6931931  63.5683151  20.4979867
 108.8556355  63.8552716  21.0981938 109.4500846  63.6148452  20.3875246
 108.9282939  63.1359846  21.7255474  91.0753511  77.6986327  21.4125103
  90.9407979  76.9386728  20.8463101  90.6585573  78.4227227  20.9453892
 103.0410284  68.6333112  16.5403948 102.9845486  69.0901663  15.7011581
 103.5938627  67.8723796  16.3626791 106.8515090  64.4222843  17.3654068
 106.5952024  64.0219479  18.1962275 106.2267958  65.1366637  17.2404207
 111.1627428  67.1618917  19.8725359 110.6026986  67.2312106  20.6456921
 110.5570931  66.9859901  19.1524855  94.2322637  78.5955644  21.6243545
  94.1155021  79.5401076  21.5222236  93.4115083  78.2929205  22.0129345
 104.1199171  73.3205780  12.4700138 104.9544775  72.8886978  12.2877613
 103.9583514  73.1487793  13.3977033 103.7745064  69.8237893  13.8356477
 103.7193867  69.6582164  12.8944921 103.1491119  70.5313926  13.9918667
  88.5637579  65.0605957  27.6617900  89.2096442  64.5504911  28.1505125
  88.3554730  65.7974639  28.2361325 101.0890971  72.1286805  33.1610040
 101.9582130  72.3027457  32.7996675 100.6097722  72.9481222  33.0385769
  97.0841189  59.3246002  13.4141796  97.0719859  60.2687842  13.5710067
  97.9764611  59.1416147  13.1201257  95.2577151  79.2483906  24.8399474
  96.1604398  79.2807516  25.1565969  95.0314521  78.3184357  24.8545810
  97.0130753  78.0014892  21.5009552  96.0626384  78.0016754  21.3873925
  97.3163239  77.2547627  20.9845587 100.8993309  55.9188778  17.6687733
 100.1325704  55.3647265  17.8144415 101.3104014  55.9910647  18.5301884
  92.9035070  62.2073574  31.7592914  93.7666531  61.8510379  31.9696238
  92.3300480  61.8687469  32.4468318 112.7483447  83.8375431  22.5655315
 113.3861857  83.7182178  21.8618655 112.6304289  84.7856275  22.6243267
 109.5573153  83.7902859  22.5016839 109.2191664  83.6743923  21.6137374
 110.4262921  83.3894024  22.4817846 110.0392936  84.9437710  28.4603045
 110.0281577  84.5490509  27.5883549 110.2013575  84.2103783  29.0536816
 102.9624400  87.1389527  21.3297951 103.7545692  86.7980351  20.9144250
 103.2021051  87.2484502  22.2500104 106.7600197  87.7274822  27.4082229
 106.4690063  88.6320453  27.2928895 107.3957181  87.7691350  28.1226299
 107.6856404  85.1051671  23.9983589 108.2819976  84.8807693  23.2840552
 107.7431375  84.3636416  24.6009036 115.2258563  75.2123692  25.0036110
 114.8941887  76.0819103  24.7797325 114.6304176  74.8959976  25.6830140
 111.7190082  87.4136238  24.4032023 111.4190805  88.3161277  24.2947830
 111.3741142  87.1468421  25.2553176 105.1702564  83.8650035  20.4368727
 104.2453060  83.7326249  20.6446419 105.4186977  84.6444254  20.9338669
 115.1187226  79.9318778  22.0829460 114.2104103  79.8634186  21.7888221
 115.0674822  80.4090723  22.9111285 102.5311375  83.5083308  21.2712516
 102.6603756  83.7617787  22.1851928 101.8508826  84.1011016  20.9517171
 109.1928092  81.3508424  30.0264357 108.4161426  81.9102344  30.0167222
 109.8318655  81.8365207  30.5479227 116.9848872  78.1335216  23.8607334
 116.3423252  78.4267750  23.2147128 116.4803801  78.0188137  24.6660531
 107.4474464  84.1593877  29.5882324 108.1889148  84.6978921  29.3117148
 106.7411449  84.7860166  29.7453876 112.9229804  86.3023017  28.1854486
 113.3313160  85.8605428  27.4409118 112.2007065  85.7275645  28.4388679
 109.2760874  81.2395624  25.5588043 110.1222069  81.6635038  25.7022692
 109.2159511  80.5829248  26.2526606 112.4260319  78.8999993  27.2169216
 112.1821251  79.6542053  26.6803492 112.7020249  79.2785340  28.0516463
 114.3798782  85.4438605  25.8946482 114.5915677  86.0870365  25.2180863
 114.3328530  84.6100921  25.4268412 111.9825011  78.0556426  22.7983054
 111.1209490  78.3537679  23.0899792 112.0087445  78.2726824  21.8664087
 105.6910661  86.1470098  22.1436623 106.2612018  86.5757366  21.5054107
 106.2818773  85.8652682  22.8420809 106.1835828  81.3133525  30.3897634
 105.5534488  81.9949806  30.6233031 106.0771916  81.2016607  29.4450773
 101.4780800  80.9805321  21.3163558 100.6879854  81.2362850  20.8403669
 101.9692047  81.7953659  21.4215599 103.4295545  81.3449900  18.2747035
 102.6326709  81.4568595  18.7930531 103.2021138  81.6836553  17.4087926
 109.2601213  87.8694604  26.2229550 109.3245646  88.3315011  27.0587722
 108.5512137  87.2391969  26.3511860  99.7618503  81.2335812  23.7478549
 100.0126542  82.1182822  24.0136125 100.2978051  81.0540413  22.9753641
 105.4616570  75.6154291  32.7522885 105.0683516  75.0620490  33.4270530
 106.2782711  75.9264869  33.1429403 108.3784531  77.0312170  30.3443142
 109.1194245  77.6319323  30.2647604 108.6102454  76.2889808  29.7861184
 103.5225869  82.2168537  28.6221372 103.4079385  81.3153795  28.9228470
 102.6670387  82.4632234  28.2706188 110.6017707  90.1586278  30.2208872
 110.1581561  89.3722656  29.9029777 111.2634921  90.3465428  29.5552763
 105.3604828  91.6882079  24.7469551 105.9112253  91.5599143  23.9746545
 104.5216304  91.9876968  24.3964443 112.6998945  90.4389078  28.2490273
 112.6817421  91.2597959  27.7570543 113.6218865  90.3143153  28.4740415
 109.1571999  87.9533207  29.0913782 109.6900336  87.1921495  28.8613090
 108.6286080  87.6606859  29.8337936 112.3241694  73.0593273  24.6207424
 111.9805964  73.9494915  24.5446534 112.6920657  72.8694931  23.7577009
 109.8739088  77.8951585  18.1865097 109.0180684  77.5058435  18.0070736
 110.2866040  77.9743546  17.3264883 111.4038235  75.4297928  22.5856657
 110.9003030  75.3928063  21.7724462 111.6968842  76.3390671  22.6453313
 107.6481121  75.5136658  21.5922839 108.5134117  75.3179467  21.2328728
 107.7158630  75.2847010  22.5192195 105.2543440  77.7438866  18.9639205
 105.8287192  77.5214047  18.2312398 105.8414422  77.8127560  19.7167807
 107.5566107  74.6180115  17.6914275 106.9030520  74.3029132  17.0670890
 107.5146582  73.9955855  18.4174098 110.7903848  81.1062048  22.0161922
 109.8726409  81.3276995  21.8583610 111.2063991  81.1808359  21.1573630
 114.1229360  72.3186832  19.7225161 114.4288237  71.4584196  19.4351076
 114.8481965  72.9104452  19.5224155 100.4153716  82.7217519  18.1106759
 100.2178116  82.1286879  17.3857826  99.8600380  82.4169729  18.8282698
 108.3950440  82.6140625  20.2301352 108.4499050  81.6614462  20.1543829
 107.5841642  82.7700064  20.7142651 106.3342800  81.2317685  17.9891731
 105.5210665  81.5311856  18.3956923 106.8301794  80.8373374  18.7066213
 111.9317011  81.6959509  26.8206625 112.2866399  81.9230983  27.6801091
 112.5789143  82.0277886  26.1983880 105.8256874  78.8036041  23.6052966
 106.4656254  78.6624800  22.9075929 104.9934405  78.5170554  23.2291568
 102.8285491  78.7736365  18.3825953 103.0892308  79.6881699  18.2735113
 103.6502663  78.3060808  18.5322566 104.3010416  80.1874123  25.5524777
 104.9733470  79.9791485  24.9037426 103.4740203  79.9896209  25.1130010
 110.2035988  76.8136064  27.5690438 109.5563903  77.5126013  27.4754915
 110.9737004  77.2472208  27.9366687 113.6114786  87.0784916  30.6440992
 113.4600293  86.8495467  29.7271075 113.6019466  88.0355517  30.6572337
 110.3800123  84.6516828  25.6287258 111.3092183  84.8027988  25.4556225
 109.9591153  84.7400849  24.7735905 109.1788454  88.6767493  23.3985796
 109.0399540  88.3086277  24.2711734 108.3903051  89.1915132  23.2269753
 104.7037913  83.4616726  26.3127215 104.5657711  82.7296964  26.9138754
 105.6142837  83.3725626  26.0311402 107.3320214  83.1736685  25.8010894
 108.0419833  82.5329877  25.7597513 107.2889522  83.4249580  26.7237075
 115.3206993  90.1104038  28.7217473 115.2619539  89.4263258  28.0548056
 115.7226511  90.8523028  28.2698099 106.0449148  80.1601903  27.6206534
 105.5086505  79.7092641  28.2728130 105.4565857  80.2947812  26.8776998
 115.3224400  88.0743622  26.9531453 114.4351179  87.7369544  27.0757852
 115.8922951  87.3426653  27.1900219  96.9753547  84.4067714  20.2774505
  97.6624587  84.0929444  19.6895520  96.8201676  85.3109079  20.0041756
 101.7788269  79.2957911  24.7059528 101.6946458  78.6883580  23.9709938
 100.9570976  79.7866929  24.7069025 111.9511983  77.7811474  20.0729723
 112.4480683  77.0281436  19.7530794 111.1798965  77.8175791  19.5072933
 108.5346952  79.9228857  19.8001408 108.1644739  79.3699897  20.4882313
 109.0306044  79.3186991  19.2476408 106.3636150  90.3826352  26.8956426
 107.0645610  91.0162835  27.0485820 105.8931265  90.7241084  26.1352065
 114.3930978  74.7481068  22.2209082 113.4794058  74.9785294  22.3891289
 114.8224079  74.8319512  23.0723115 114.1637436  82.9370960  24.7208976
 113.5108887  83.1846867  24.0661429 114.5417816  82.1235098  24.3871453
 110.2125009  83.6790771  31.2075013 109.5365647  83.5784900  31.8777388
 111.0352643  83.5229984  31.6711010 101.9603869  89.9162707  23.8287529
 102.5457305  89.1706395  23.9615433 101.7628707  90.2266664  24.7124192
  96.5521523  82.4868307  22.5491972  96.5905623  81.9531898  23.3429090
  96.0461816  81.9603513  21.9302949 103.9312286  77.3332848  26.0454514
 103.9953612  78.1947679  25.6331912 103.8679406  76.7206849  25.3126872
 103.4064558  79.4055980  29.6927548 104.0336597  79.0233058  30.3065073
 102.5492477  79.1870182  30.0583241 113.8058667  89.8118956  31.2981284
 114.3498571  90.4248914  30.8036238 113.2245512  90.3698534  31.8148297
 100.1830101  81.2132409  15.6245903 100.4783542  80.3043088  15.5712957
  99.2818137  81.1920149  15.3026905 103.7124348  79.2888406  21.6073452
 102.9910934  79.9024374  21.4680925 104.5017604  79.8246171  21.5290098
 106.5150661  76.6242833  27.8814103 107.0385063  76.8705129  28.6440413
 106.2962995  77.4562867  27.4617241 101.9117942  78.8946507  15.7485228
 101.5830649  78.0143886  15.5660334 102.2657313  78.8394176  16.6361617
 107.7203206  77.5656528  25.5663774 107.3800027  76.7664341  25.9684454
 107.0142213  77.8658239  24.9940607 108.3719678  74.6505840  24.0191097
 109.1945748  74.1766318  23.8969987 108.6157742  75.4296324  24.5189783
 105.8958257  81.3424961  21.8283076 105.7502838  81.6565264  22.7207357
 105.4183461  81.9609861  21.2753974 107.7554640  78.3327509  21.8763965
 107.7416209  77.4368602  21.5396263 108.4727068  78.3398172  22.5102251
 109.6080771  78.7664849  23.9217093 109.3498548  79.6881920  23.9201423
 109.0765811  78.3695283  24.6117557 100.3703919  83.8830305  24.7670737
  99.8257387  84.6590113  24.8991011 101.2483269  84.2301110  24.6089858
 107.1591536  77.2141889  17.1451535 107.2807447  76.2858535  17.3442423
 106.8693578  77.2280575  16.2329851 110.0282726  74.8996799  20.2818255
 110.0504423  74.9636133  19.3270235 110.4450785  74.0601308  20.4758761
 101.1569941  83.0100201  27.6600894 100.4151677  83.1582837  28.2465524
 100.8362685  83.2708467  26.7967643 109.1013604  92.5516180  27.4581284
 109.4100730  92.3065326  28.3303983 109.8989086  92.7562818  26.9700154
  99.8035160  88.8151957  20.6500222  98.9667068  88.3874131  20.4684223
  99.7758805  89.0084400  21.5871013 106.6432615  78.7273886  31.3541468
 106.6920771  79.6036009  30.9719237 107.1855130  78.1851279  30.7813111
 117.1287461  89.2715010  30.6342605 116.3383005  89.2539148  30.0947104
 116.8920816  89.8103303  31.3891642 117.2485336  86.1207476  27.9475333
 117.2983341  85.9557483  28.8890856 117.1399259  85.2534735  27.5573214
 114.5389099  82.1038404  29.2634640 115.4398961  81.9644869  28.9718638
 114.6137073  82.2692859  30.2032818 108.8731904  79.4805259  28.1087827
 108.0035213  79.7738825  27.8370415 109.1091384  80.0645704  28.8295090
 118.7503533  88.5404418  28.1917355 118.4588341  88.9034398  29.0280816
 118.1375664  87.8271426  28.0130687 116.9990721  83.6637032  26.6597413
 117.4744843  83.8564678  25.8516264 116.0756287  83.7196218  26.4140797
 111.5770938  75.6984876  25.6253247 112.0952882  76.4345903  25.2999735
 111.2226070  76.0048869  26.4600006 111.8283532  72.1185158  21.1454144
 112.1085286  71.4508347  21.7714570 112.6134139  72.3114254  20.6328807
 115.6992390  80.5402792  24.8925719 116.6509813  80.6400890  24.9137943
 115.5295841  79.7481061  25.4023803 113.7206770  77.6258375  25.0785120
 113.1256702  77.9063388  24.3831608 113.4356466  78.1152276  25.8501861
 118.3274956  80.5519955  24.0526301 117.8114005  79.7678412  23.8656230
 119.2114905  80.2238672  24.2172821 115.9885683  74.2960971  20.0122114
 115.7910505  73.9876059  20.8965446 116.5985389  75.0222610  20.1420044
 109.9002491  86.6822711  31.5095879 110.8205501  86.8601310  31.7035926
 109.8652074  85.7378756  31.3575579  99.1184656  81.8761305  20.4349154
  98.7987441  81.0226613  20.1423528  98.5718085  82.0909883  21.1907121
 102.8964564  84.5923746  24.1518660 103.1150574  85.5240853  24.1706694
 103.3090338  84.2331720  24.9373464 109.8168782  75.0991831  16.1394349
 109.0069510  74.7538916  16.5149595 110.5053199  74.7899375  16.7281960
 111.7459330  74.1769878  17.7618645 112.2990369  74.5965331  18.4208669
 111.9829416  73.2505626  17.8041601 107.7692429  80.1656951  33.5421409
 107.6689156  81.1151308  33.4733500 107.5513971  79.8375190  32.6697479
  98.9872916  85.4964216  22.4042276  98.2936388  85.0818169  21.8912230
  99.7345907  85.5384753  21.8075694 113.5741703  75.6875461  19.4718630
 114.0741482  75.7991995  18.6632949 114.2177311  75.3836514  20.1119439
 107.6323699  83.5954090  32.3586471 107.1490781  84.3954450  32.5650360
 107.7184638  83.6062035  31.4053915 100.9009659  85.4282470  20.2808290
 100.8780347  85.5270157  19.3290174 101.2110295  86.2747621  20.6025457
 103.5597037  87.4858625  24.3954905 104.5140290  87.4542567  24.3284836
 103.3609560  87.0249249  25.2105131 104.1496419  86.0559741  26.9625702
 104.9689308  86.5503820  26.9860540 104.4233227  85.1391709  26.9343270
  99.4031333  80.3897875  27.6617900 100.0490197  79.8796829  28.1505125
  99.1948484  81.1266557  28.2361325 111.9284725  87.4578722  33.1610040
 112.7975885  87.6319375  32.7996675 111.4491477  88.2773139  33.0385769
 106.0970906  94.5775823  24.8399474 106.9998152  94.6099434  25.1565969
 105.8708276  93.6476274  24.8545810 111.7387063  71.2480696  17.6687733
 110.9719459  70.6939183  17.8144415 112.1497768  71.3202565  18.5301884
 103.7428824  77.5365492  31.7592914 104.6060286  77.1802297  31.9696238
 103.1694235  77.1979387  32.4468318 116.3010325  90.9446209  32.7522885
 115.9077270  90.3912407  33.4270530 117.1176465  91.2556787  33.1429403
 119.2178286  92.3604088  30.3443142 119.9587999  92.9611241  30.2647604
 119.4496209  91.6181726  29.7861184 114.2458313  94.7347898  29.6927548
 114.8730351  94.3524975  30.3065073 113.3886231  94.5162100  30.0583241
 117.4826370  94.0565804  31.3541468 117.5314525  94.9327927  30.9719237
 118.0248884  93.5143197  30.7813111 118.6086184  95.4948869  33.5421409
 118.5082911  96.4443226  33.4733500 118.3907726  95.1667108  32.6697479
 110.2425088  95.7189793  27.6617900 110.8883951  95.2088747  28.1505125
 110.0342239  96.4558474  28.2361325 114.5822579  92.8657410  31.7592914
 115.4454040  92.5094214  31.9696238 114.0087989  92.5271304  32.4468318
  71.9631976   5.7998490  15.4462780  71.9044522   5.1157710  14.7793363
  72.3651494   6.5417480  14.9943406  70.4483650   5.5013407  18.0226590
  70.9923554   6.1143366  17.5281545  69.8670495   6.0592986  18.5393603
  73.7712444   4.9609462  17.3587912  72.9807988   4.9433600  16.8192411
  73.5345799   5.4997755  18.1136948  75.3928516   4.2298869  14.9162662
  75.1013325   4.5928850  15.7526123  74.7800648   3.5165878  14.7375994
  68.5709709   3.1473174  19.8855347  69.4400868   3.3213827  19.5241982
  68.0916460   3.9667591  19.7631076  80.2302184  14.8561800   9.2900621
  80.8680594  14.7368548   8.5863961  80.1123027  15.8042644   9.3488574
  77.0391891  14.8089228   9.2262146  76.7010402  14.6930293   8.3382681
  77.9081659  14.4080393   9.2063152  77.5211674  15.9624080  15.1848352
  77.5100314  15.5676878  14.3128855  77.6832313  15.2290153  15.7782123
  70.4443138  18.1575896   8.0543258  71.2364430  17.8166721   7.6389557
  70.6839788  18.2670871   8.9745411  74.2418935  18.7461192  14.1327536
  73.9508801  19.6506823  14.0174202  74.8775919  18.7877719  14.8471605
  75.1675142  16.1238040  10.7228895  75.7638714  15.8994063  10.0085858
  75.2250113  15.3822786  11.3254343  82.7077300   6.2310061  11.7281417
  82.3760625   7.1005472  11.5042632  82.1122914   5.9146345  12.4075447
  79.2008820  18.4322607  11.1277329  78.9009543  19.3347646  11.0193137
  78.8559879  18.1654791  11.9798482  82.6005964  10.9505148   8.8074767
  81.6922841  10.8820556   8.5133528  82.5493559  11.4277092   9.6356592
  74.1829600  25.1966928   4.0948297  74.1053629  26.1474753   4.1736778
  73.5791243  24.8512800   4.7523223  76.6746829  12.3694793  16.7509664
  75.8980163  12.9288713  16.7412529  77.3137392  12.8551576  17.2724534
  74.9293202  15.1780246  16.3127631  75.6707886  15.7165290  16.0362455
  74.2230187  15.8046535  16.4699183  80.4048541  17.3209387  14.9099792
  80.8131897  16.8791797  14.1654425  79.6825803  16.7462014  15.1633985
  76.7579611  12.2581994  12.2833349  77.6040807  12.6821407  12.4267998
  76.6978249  11.6015618  12.9771912  80.7277356  17.8810578   8.6652081
  80.0986218  18.0456292   7.9628149  80.3403018  18.2952187   9.4363045
  84.6066588  18.8165015   6.0196445  83.9217626  19.1963917   5.4693478
  84.6910437  19.4260342   6.7528393  79.9079057   9.9186362  13.9414523
  79.6639989  10.6728423  13.4048799  80.1838987  10.2971710  14.7761770
  81.8617520  16.4624974  12.6191789  82.0734415  17.1056734  11.9426170
  81.8147268  15.6287291  12.1513719  73.1729399  17.1656467   8.8681930
  73.7430756  17.5943736   8.2299414  73.7637511  16.8839052   9.5666115
  73.6654565  12.3319895  17.1142941  73.0353226  13.0136176  17.3478338
  73.5590653  12.2202976  16.1696079  82.9763347  19.3396930  10.7914146
  83.7980791  18.9377117  10.5096828  82.9725750  19.2365164  11.7430262
  76.7419951  18.8880973  12.9474856  76.8064383  19.3501380  13.7833028
  76.0330875  18.2578338  13.0757166  72.9435308   6.6340661  19.4768192
  72.5502254   6.0806859  20.1515836  73.7601449   6.9451239  19.8674709
  71.7192251  21.1890275   5.4704515  71.8958879  22.1108240   5.2825499
  72.5149084  20.8748694   5.8998895  75.8603269   8.0498540  17.0688449
  76.6012983   8.6505693  16.9892911  76.0921192   7.3076177  16.5106491
  71.0044607  13.2354907  15.3466678  70.8898122  12.3340164  15.6473777
  70.1489125  13.4818604  14.9951495  78.0836445  21.1772647  16.9454179
  77.6400299  20.3909026  16.6275083  78.7453659  21.3651798  16.2798070
  72.8423566  22.7068449  11.4714857  73.3930991  22.5785512  10.6991851
  72.0035042  23.0063338  11.1209750  80.1817683  21.4575447  14.9735580
  80.1636158  22.2784328  14.4815849  81.1037603  21.3329522  15.1985721
  76.6390737  18.9719577  15.8159088  77.1719074  18.2107865  15.5858396
  76.1104818  18.6793228  16.5583243  82.9836296  16.2954590   8.4444947
  82.3259970  16.9853851   8.5325075  83.7876695  16.6851021   8.7878933
  78.2722586  12.1248418   8.7407229  77.3545147  12.3463365   8.5828917
  78.6882729  12.1994728   7.8818936  82.5603551  19.6304964   4.6228031
  82.1065878  18.7895874   4.6793222  81.9297518  20.2666362   4.9602811
  81.0036490  21.4681460   5.5577849  81.2959465  22.0286517   4.8390215
  81.5135111  21.7610021   6.3131008  75.9670115  22.2461811   6.6471302
  75.9246294  22.4722658   5.7179835  76.8832814  22.0125186   6.7957104
  79.4135749  12.7145879  13.5451932  79.7685137  12.9417352  14.4046397
  80.0607880  13.0464256  12.9229187  85.1702866  17.9040842   9.2612532
  85.6039372  17.8116131  10.1095586  85.8834446  17.8798342   8.6232548
  78.9030761  21.5042936  10.7945633  78.9567783  22.0733872  11.5623349
  78.0345542  21.6744821  10.4299670  71.7829154  11.2060492  12.2770084
  72.4552207  10.9977854  11.6282733  70.9558940  11.0082578  11.8375316
  86.0318415  17.9464543  11.7945418  86.2254305  18.8510353  12.0404693
  85.9319033  17.4871962  12.6284003  77.6854726   7.8322433  14.2935745
  77.0382641   8.5312383  14.2000221  78.4555741   8.2658577  14.6611993
  81.0933524  18.0971285  17.3686298  80.9419030  17.8681837  16.4516382
  81.0838203  19.0541887  17.3817643  77.8618860  15.6703198  12.3532565
  78.7910920  15.8214358  12.1801532  77.4409890  15.7587219  11.4981211
  76.6607192  19.6953862  10.1231102  76.5218278  19.3272647  10.9957040
  75.8721788  20.2101502   9.9515060  77.2555344  24.7962959   1.4656639
  77.4307100  24.3251002   2.2802262  76.5688132  25.4228725   1.6937900
  78.2112407  19.0735465   7.5119940  77.8762240  19.0336235   8.4077590
  77.7116353  18.4080181   7.0390350  72.1856651  14.4803095  13.0372521
  72.0476449  13.7483334  13.6384060  73.0961575  14.3911995  12.7556709
  74.8138952  14.1923055  12.5256201  75.5238570  13.5516247  12.4842819
  74.7708260  14.4435949  13.4482382  82.8025731  21.1290408  15.4462780
  82.7438277  20.4449628  14.7793363  83.2045249  21.8709398  14.9943406
  73.5267886  11.1788272  14.3451840  72.9905243  10.7279011  14.9973437
  72.9384594  11.3134181  13.6022305  71.8216429  27.9452322   8.2396499
  72.0613028  28.5770846   8.9175518  70.9785626  27.5940362   8.5261858
  82.8043138  19.0929992  13.6776760  81.9169917  18.7555914  13.8003159
  83.3741689  18.3613023  13.9145525  76.3344291  23.7531444  10.6438003
  76.2614463  24.5586416  11.1557308  75.8921684  23.9523410   9.8186024
  76.1234071  22.9903214   4.1540825  75.3401593  23.5324894   4.2479049
  76.8226816  23.5077194   4.5535066  78.7942975  23.6518278  12.7996162
  79.5070947  24.2865743  12.7272063  78.3033003  23.7482144  11.9836163
  73.8454888  21.4012722  13.6201732  74.5464348  22.0349205  13.7731127
  73.3750003  21.7427453  12.8597372  81.6456174  13.9557329  11.4454283
  80.9927624  14.2033237  10.7906736  82.0236554  13.1421467  11.1116760
  78.6063348  23.9917022   5.5482453  78.7885743  23.1738678   6.0110205
  79.4296334  24.2084715   5.1107343  78.9405514  22.9185207   2.8097502
  79.4693280  22.4077662   2.1967664  79.2033733  22.6027738   3.6743035
  77.6943747  14.6977140  17.9320320  77.0184384  14.5971269  18.6022695
  78.5171381  14.5416354  18.3956317  69.4422606  20.9349077  10.5532835
  70.0276043  20.1892765  10.6860739  69.2447445  21.2453033  11.4369499
  72.2961262  23.9700324   5.5695278  71.6271637  24.4546452   5.0859318
  72.1574131  24.2169545   6.4838656  76.4366530  26.0044068  12.1677936
  76.9884838  26.1675689  12.9327021  76.7772724  26.5948505  11.4957961
  70.8883296  10.4242350  16.4172855  71.5155335  10.0419427  17.0310379
  70.0311215  10.2056552  16.7828547  81.2877404  20.8305325  18.0226590
  81.8317308  21.4435283  17.5281545  80.7064249  21.3884904  18.5393603
  79.5734917  23.9526043   9.1541618  79.4486057  23.1515783   8.6452564
  80.2314009  24.4472236   8.6655588  81.6369826  21.7535063  10.7821168
  80.6900161  21.6340414  10.7099495  81.9852599  20.8657561  10.8647430
  73.9969399   7.6429202  14.6059410  74.5203801   7.8891499  15.3685719
  73.7781732   8.4749237  14.1862547  78.6416259  21.5487779   6.9825520
  78.4941222  20.6204487   7.1633090  79.4669753  21.5707870   6.4982596
  82.2450381  22.3716338   8.0690393  83.1696928  22.1659200   7.9314844
  82.0765684  22.1232739   8.9779735  75.2021944   8.5842897  12.2909081
  74.8618765   7.7850710  12.6929760  74.4960950   8.8844608  11.7185914
  77.0899508   9.7851218  10.6462399  76.8317286  10.7068289  10.6446730
  76.5584549   9.3881653  11.3362863  82.0345697  22.8902006   3.4252485
  82.2082575  22.3248428   2.6726337  82.5274588  23.6902901   3.2431975
  67.8522657  14.9016675  11.4916043  67.3076125  15.6776483  11.6236318
  68.7302007  15.2487479  11.3335165  68.6388679  14.0286571  14.3846200
  67.8970415  14.1769206  14.9710831  68.3181423  14.2894837  13.5212950
  76.5832341  23.5702549  14.1826590  76.8919468  23.3251696  15.0549290
  77.3807824  23.7749188  13.6945460  76.6052954  25.7240459   6.4131967
  76.1657944  25.2316838   7.1064824  77.3561070  25.1813426   6.1724042
  69.0845293  21.9152000   6.4156595  69.9103312  21.6155772   6.0355238
  68.7339345  21.1459622   6.8646384  74.0526826  21.2678468   8.4854268
  73.4306835  20.6049173   8.1856496  74.7231693  21.2939600   7.8027916
  74.1251353   9.7460256  18.0786775  74.1739509  10.6222379  17.6964544
  74.6673867   9.2037649  17.5058418  84.6106199  20.2901379  17.3587912
  83.8201743  20.2725518  16.8192411  84.3739553  20.8289673  18.1136948
  84.7304074  17.1393846  14.6720640  84.7802079  16.9743853  15.6136163
  84.6217997  16.2721105  14.2818521  82.0207836  13.1224774  15.9879947
  82.9217699  12.9831238  15.6963945  82.0955811  13.2879228  16.9278124
  76.3550642  10.4991628  14.8333133  75.4853951  10.7925194  14.5615722
  76.5910122  11.0832073  15.5540397  86.2322271  19.5590787  14.9162662
  85.9407079  19.9220768  15.7526123  85.6194402  18.8457795  14.7375994
  84.4809459  14.6823402  13.3842720  84.9563581  14.8751048  12.5761571
  83.5575024  14.7382588  13.1386103  79.0589675   6.7171245  12.3498554
  79.5771619   7.4532272  12.0245042  78.7044808   7.0235239  13.1845313
  83.1811128  11.5589162  11.6171025  84.1328551  11.6587259  11.6383249
  83.0114578  10.7667430  12.1269110  81.2025507   8.6444745  11.8030426
  80.6075440   8.9249758  11.1076915  80.9175204   9.1338646  12.5747167
  85.6599206  14.7795281  10.7313325  85.6275526  13.8411282  10.9173009
  86.2699829  14.8579318   9.9979150  77.3821229  17.7009081  18.2341186
  78.3024239  17.8787680  18.4281232  77.3470812  16.7565126  18.0820885
  70.3783302  15.6110115  10.8763967  70.5969311  16.5427223  10.8952001
  70.7909076  15.2518090  11.6618771  75.2511167  11.1843321  20.2666716
  75.1507894  12.1337678  20.1978807  75.0332709  10.8561560  19.3942786
  75.1142437  14.6140460  19.0831778  74.6309519  15.4140820  19.2895667
  75.2003376  14.6248405  18.1299222  71.0415775  18.5044995  11.1200211
  71.9959028  18.4728937  11.0530143  70.8428298  18.0435618  11.9350437
  71.6315157  17.0746111  13.6871009  72.4508046  17.5690189  13.7105846
  71.9051964  16.1578079  13.6588577  69.3966003  24.0464614   8.1370409
  69.2620471  23.2865015   7.5708407  68.9798066  24.7705514   7.6699198
  72.5535129  24.9433931   8.3488852  72.4367513  25.8879364   8.2467542
  71.7327575  24.6407493   8.7374651  66.8850071  11.4084244  14.3863206
  67.5308935  10.8983198  14.8750431  66.6767222  12.1452926  14.9606631
  79.4103463  18.4765092  19.8855347  80.2794623  18.6505744  19.5241982
  78.9310215  19.2959509  19.7631076  73.5789643  25.5962193  11.5644780
  74.4816890  25.6285803  11.8811275  73.3527013  24.6662644  11.5791116
  75.3343245  24.3493180   8.2254859  74.3838876  24.3495041   8.1119231
  75.6375732  23.6025914   7.7090894  71.2247562   8.5551862  18.4838220
  72.0879023   8.1988666  18.6941545  70.6512973   8.2165756  19.1713625
  91.0695939  30.1853718   9.2900621  91.7074349  30.0660465   8.5863961
  90.9516782  31.1334562   9.3488574  87.8785645  30.1381146   9.2262146
  87.5404157  30.0222211   8.3382681  88.7475413  29.7372311   9.2063152
  83.7372461  31.9916622   5.2159037  83.1737326  31.9006559   4.4475325
  83.6224856  31.1716527   5.6961530  88.3605428  31.2915998  15.1848352
  88.3494069  30.8968796  14.3128855  88.5226068  30.5582070  15.7782123
  81.2836893  33.4867814   8.0543258  82.0758185  33.1458639   7.6389557
  81.5233543  33.5962789   8.9745411  89.3172020  35.6587590   0.5273502
  88.6659999  36.2441671   0.1407516  90.1116382  36.1893785   0.5868539
  83.2427647  32.7476727   0.9260636  84.0158523  32.2005714   0.7873512
  83.5953046  33.6120977   1.1375098  85.0812689  34.0753110  14.1327536
  84.7902555  34.9798740  14.0174202  85.7169674  34.1169637  14.8471605
  86.0068896  31.4529958  10.7228895  86.6032468  31.2285980  10.0085858
  86.0643868  30.7114704  11.3254343  85.2990213  30.8097499   0.7603461
  85.1826471  30.1342403   1.4284546  85.4092473  30.3229873  -0.0564386
  87.6421754  30.2707646   4.4650150  87.2779961  29.7438267   5.1763072
  88.4988870  29.8806115   4.2916636  93.5471055  21.5601979  11.7281417
  93.2154380  22.4297390  11.5042632  92.9516668  21.2438263  12.4075447
  90.0402574  33.7614525  11.1277329  89.7403297  34.6639564  11.0193137
  89.6953634  33.4946708  11.9798482  83.4915056  30.2128322   7.1614034
  82.5665552  30.0804536   7.3691726  83.7399469  30.9922541   7.6583976
  93.4399718  26.2797065   8.8074767  92.5316595  26.2112474   8.5133528
  93.3887314  26.7569010   9.6356592  80.8523867  29.8561595   7.9957823
  80.9816248  30.1096074   8.9097235  80.1721318  30.4489303   7.6762478
  85.0223354  40.5258845   4.0948297  84.9447384  41.4766670   4.1736778
  84.4184998  40.1804718   4.7523223  87.5140584  27.6986711  16.7509664
  86.7373918  28.2580631  16.7412529  88.1531147  28.1843494  17.2724534
  85.7686956  30.5072164  16.3127631  86.5101641  31.0457208  16.0362455
  85.0623942  31.1338453  16.4699183  91.2442296  32.6501305  14.9099792
  91.6525652  32.2083715  14.1654425  90.5219557  32.0753932  15.1633985
  87.5973366  27.5873911  12.2833349  88.4434561  28.0113325  12.4267998
  87.5372004  26.9307536  12.9771912  91.5671111  33.2102495   8.6652081
  90.9379973  33.3748209   7.9628149  91.1796773  33.6244105   9.4363045
  95.4460342  34.1456933   6.0196445  94.7611381  34.5255834   5.4693478
  95.5304192  34.7552260   6.7528393  90.7472811  25.2478280  13.9414523
  90.5033743  26.0020340  13.4048799  91.0232742  25.6263627  14.7761770
  92.7011274  31.7916892  12.6191789  92.9128169  32.4348652  11.9426170
  92.6541022  30.9579209  12.1513719  90.3037503  24.4034713   9.5228361
  89.4421982  24.7015966   9.8145098  90.3299938  24.6205112   8.5909393
  87.1199072  32.9476903   5.9302166  87.5837418  33.2264606   5.1406789
  86.8555870  32.0460348   5.7475257  84.0123153  32.4948385   8.8681930
  84.5824511  32.9235653   8.2299414  84.6031265  32.2130970   9.5666115
  86.0567958  29.0700056   2.7391732  86.7592002  29.5221099   3.2065658
  85.7248587  28.4283875   3.3671625  84.5048320  27.6611812  17.1142941
  83.8746981  28.3428093  17.3478338  84.3984408  27.5494894  16.1696079
  79.7993292  27.3283608   8.0408865  79.0092346  27.5841137   7.5648976
  80.2904540  28.1431946   8.1460906  93.8157102  34.6688848  10.7914146
  94.6374546  34.2669035  10.5096828  93.8119505  34.5657082  11.7430262
  81.7508038  27.6928188   4.9992342  80.9539201  27.8046882   5.5175837
  81.5233630  28.0314840   4.1333232  87.5813705  34.2172891  12.9474856
  87.6458138  34.6793298  13.7833028  86.8724629  33.5870256  13.0757166
  78.0830995  27.5814099  10.4723856  78.3339034  28.4661109  10.7381432
  78.6190544  27.4018700   9.6998948  87.2961723  35.8840998   2.8153837
  87.1607398  36.7292534   3.2438685  87.8371536  36.0860276   2.0519771
  83.7829063  21.9632578  19.4768192  83.3896008  21.4098777  20.1515836
  84.5995203  22.2743157  19.8674709  80.7491120  33.4016436   3.3881762
  81.2615641  34.1959687   3.5387327  81.4013833  32.7042727   3.3215363
  82.5586005  36.5182193   5.4704515  82.7352633  37.4400157   5.2825499
  83.3542839  36.2040612   5.8998895  86.6997024  23.3790457  17.0688449
  87.4406737  23.9797610  16.9892911  86.9314947  22.6368095  16.5106491
  81.8438362  28.5646825  15.3466678  81.7291877  27.6632082  15.6473777
  80.9882879  28.8110521  14.9951495  88.9230199  36.5064565  16.9454179
  88.4794054  35.7200943  16.6275083  89.5847413  36.6943715  16.2798070
  83.6817321  38.0360366  11.4714857  84.2324746  37.9077430  10.6991851
  82.8428797  38.3355255  11.1209750  91.0211438  36.7867365  14.9735580
  91.0029913  37.6076246  14.4815849  91.9431358  36.6621440  15.1985721
  87.4784492  34.3011494  15.8159088  88.0112828  33.5399782  15.5858396
  86.9498573  34.0085146  16.5583243  78.7140037  31.7305091   4.1641332
  79.5515259  32.1402099   3.9475040  78.8918305  30.7904533   4.1341526
  89.7250727  21.7776215   9.3101963  89.2215523  21.7406351   8.4969769
  90.0181334  22.6868958   9.3698620  85.9693613  21.8614945   8.3168145
  86.8346610  21.6657754   7.9574035  86.0371122  21.6325297   9.2437502
  88.8437204  33.4297487   3.3277900  88.3158566  32.6950246   3.0151138
  88.3424707  34.2072163   3.0817869  93.8230050  31.6246507   8.4444947
  93.1653725  32.3145769   8.5325075  94.6270450  32.0142939   8.7878933
  83.5755932  24.0917153   5.6884512  84.1499684  23.8692335   4.9557705
  84.1626914  24.1605848   6.4413113  89.8957883  39.9575204  -0.7490440
  89.2219582  40.2606901  -0.1405483  90.2823705  40.7604285  -1.0984983
  89.1116340  27.4540335   8.7407229  88.1938901  27.6755282   8.5828917
  89.5276484  27.5286646   7.8818936  93.3997305  34.9596881   4.6228031
  92.9459633  34.1187791   4.6793222  92.7691272  35.5958280   4.9602811
  91.8430245  36.7973378   5.5577849  92.1353219  37.3578435   4.8390215
  92.3528865  37.0901939   6.3131008  78.7366208  29.0695806   4.8352066
  78.5390608  28.4765167   4.1103132  78.1812872  28.7648016   5.5528005
  86.7162932  28.9618912   6.9546659  86.7711542  28.0092749   6.8789136
  85.9054134  29.1178352   7.4387957  84.6555292  27.5795972   4.7137038
  83.8423157  27.8790143   5.1202230  85.1514286  27.1851661   5.4311520
  86.8063870  37.5753729   6.6471302  86.7640049  37.8014575   5.7179835
  87.7226569  37.3417104   6.7957104  90.2529504  28.0437797  13.5451932
  90.6078891  28.2709270  14.4046397  90.9001635  28.3756173  12.9229187
  84.1469367  25.1514328  10.3298273  84.7868746  25.0103087   9.6321236
  83.3146897  24.8648841   9.9536875  96.0096620  33.2332760   9.2612532
  96.4433127  33.1408049  10.1095586  96.7228201  33.2090260   8.6232548
  84.9229671  34.4516758   6.4433265  85.7170269  33.9567078   6.2415840
  84.2121363  33.9234621   6.0800971  89.7424515  36.8334854  10.7945633
  89.7961537  37.4025790  11.5623349  88.8739296  37.0036739  10.4299670
  81.2312434  28.5959840   2.5193018  80.3010022  28.5344295   2.7362980
  81.3269906  28.0735793   1.7229659  81.1497983  25.1214653   5.1071260
  81.4104800  26.0359986   4.9980420  81.9715155  24.6539095   5.2567872
  82.6222908  26.5352410  12.2770084  83.2945962  26.3269772  11.6282733
  81.7952695  26.3374496  11.8375316  96.8712170  33.2756460  11.7945418
  97.0648060  34.1802271  12.0404693  96.7712788  32.8163879  12.6284003
  88.5248480  23.1614351  14.2935745  87.8776396  23.8604300  14.2000221
  89.2949496  23.5950495  14.6611993  91.9327278  33.4263203  17.3686298
  91.7812785  33.1973755  16.4516382  91.9231958  34.3833804  17.3817643
  88.7012615  30.9995116  12.3532565  89.6304675  31.1506275  12.1801532
  88.2803645  31.0879137  11.4981211  87.5000947  35.0245780  10.1231102
  87.3612032  34.6564565  10.9957040  86.7115543  35.5393420   9.9515060
  88.0949099  40.1254877   1.4656639  88.2700854  39.6542920   2.2802262
  87.4081887  40.7520643   1.6937900  89.0506162  34.4027383   7.5119940
  88.7155994  34.3628153   8.4077590  88.5510107  33.7372099   7.0390350
  83.0250406  29.8095013  13.0372521  82.8870204  29.0775252  13.6384060
  83.9355329  29.7203913  12.7556709  85.6532706  29.5214972  12.5256201
  86.3632325  28.8808164  12.4842819  85.6102015  29.7727867  13.4482382
  93.6419485  36.4582326  15.4462780  93.5832031  35.7741546  14.7793363
  94.0439003  37.2001316  14.9943406  84.3661640  26.5080190  14.3451840
  83.8298997  26.0570929  14.9973437  83.7778349  26.6426099  13.6022305
  82.6610184  43.2744239   8.2396499  82.9006782  43.9062764   8.9175518
  81.8179380  42.9232279   8.5261858  93.6436892  34.4221909  13.6776760
  92.7563671  34.0847831  13.8003159  94.2135443  33.6904941  13.9145525
  75.2966039  30.7546001   7.0019811  75.9837079  30.4407731   6.4140826
  75.1414168  31.6587366   6.7287063  80.1000762  25.6436198  11.4304835
  80.0158950  25.0361867  10.6955245  79.2783468  26.1345216  11.4314331
  87.1738046  39.0823362  10.6438003  87.1008217  39.8878333  11.1557308
  86.7315439  39.2815328   9.8186024  86.9627825  38.3195132   4.1540825
  86.1795347  38.8616812   4.2479049  87.6620571  38.8369111   4.5535066
  89.6336729  38.9810196  12.7996162  90.3464701  39.6157661  12.7272063
  89.1426758  39.0774062  11.9836163  91.3554256  32.8861449   4.3713453
  90.4210535  33.0062911   4.2018158  91.5330925  31.9833915   4.1073463
  86.8559444  26.2707144   6.5246715  86.4857232  25.7178185   7.2127620
  87.3518537  25.6665278   5.9721715  84.6848643  36.7304639  13.6201732
  85.3858102  37.3641122  13.7731127  84.2143758  37.0719371  12.8597372
  92.4849929  29.2849247  11.4454283  91.8321379  29.5325154  10.7906736
  92.8630309  28.4713385  11.1116760  89.4457103  39.3208940   5.5482453
  89.6279497  38.5030596   6.0110205  90.2690089  39.5376632   5.1107343
  89.7799268  38.2477125   2.8097502  90.3087035  37.7369580   2.1967664
  90.0427488  37.9319655   3.6743035  88.5337502  30.0269058  17.9320320
  87.8578139  29.9263187  18.6022695  89.3565136  29.8708272  18.3956317
  80.2816361  36.2640994  10.5532835  80.8669798  35.5184682  10.6860739
  80.0841199  36.5744951  11.4369499  83.1355016  39.2992242   5.5695278
  82.4665391  39.7838369   5.0859318  82.9967886  39.5461462   6.4838656
  74.8734016  28.8346595   9.2737278  74.9118115  28.3010185  10.0674396
  74.3674308  28.3081800   8.6548255  87.2760285  41.3335985  12.1677936
  87.8278593  41.4967607  12.9327021  87.6166478  41.9240423  11.4957961
  82.2524778  23.6811135  12.7699821  82.3166104  24.5425966  12.3577218
  82.1891898  23.0685137  12.0372179  81.7277050  25.7534268  16.4172855
  82.3549089  25.3711345  17.0310379  80.8704969  25.5348470  16.7828547
  92.1271159  36.1597243  18.0226590  92.6711063  36.7727201  17.5281545
  91.5458004  36.7176821  18.5393603  78.5042593  27.5610697   2.3491210
  78.7996034  26.6521375   2.2958263  77.6030629  27.5398436   2.0272212
  90.4128672  39.2817961   9.1541618  90.2879811  38.4807701   8.6452564
  91.0707763  39.7764154   8.6655588  82.0336840  25.6366693   8.3318758
  81.3123426  26.2502661   8.1926232  82.8230096  26.1724458   8.2535404
  92.4763580  37.0826981  10.7821168  91.5293916  36.9632332  10.7099495
  92.8246353  36.1949479  10.8647430  84.8363154  22.9721120  14.6059410
  85.3597555  23.2183416  15.3685719  84.6175487  23.8041155  14.1862547
  80.2330435  25.2424794   2.4730535  79.9043141  24.3622173   2.2905641
  80.5869805  25.1872463   3.3606924  89.4810014  36.8779697   6.9825520
  89.3334976  35.9496405   7.1633090  90.3063507  36.8999788   6.4982596
  83.3472258  25.5297764   2.8406013  83.6868330  26.0583685   2.1184621
  83.7944378  25.8678170   3.6164579  93.0844135  37.7008256   8.0690393
  94.0090683  37.4951117   7.9314844  92.9159439  37.4524657   8.9779735
  86.0415699  23.9134815  12.2909081  85.7012519  23.1142628  12.6929760
  85.3354705  24.2136526  11.7185914  86.6932171  20.9984127  10.7436404
  87.5158240  20.5244606  10.6215294  86.9370234  21.7774611  11.2435090
  84.2170749  27.6903248   8.5528382  84.0715330  28.0043551   9.4452664
  83.7395953  28.3088148   7.9999281  86.0767132  24.6805796   8.6009272
  86.0628701  23.7846889   8.2641570  86.7939560  24.6876460   9.2347558
  87.9293263  25.1143136  10.6462399  87.6711041  26.0360207  10.6446730
  87.3978303  24.7173571  11.3362863  92.8739452  38.2193923   3.4252485
  93.0476329  37.6540346   2.6726337  93.3668343  39.0194818   3.2431975
  78.6916411  30.2308592  11.4916043  78.1469880  31.0068400  11.6236318
  79.5695761  30.5779397  11.3335165  79.4782433  29.3578489  14.3846200
  78.7364169  29.5061124  14.9710831  79.1575178  29.6186754  13.5212950
  87.4226096  38.8994467  14.1826590  87.7313222  38.6543614  15.0549290
  88.2201578  39.1041105  13.6945460  87.4446708  41.0532377   6.4131967
  87.0051698  40.5608755   7.1064824  88.1954825  40.5105344   6.1724042
  79.9239047  37.2443917   6.4156595  80.7497067  36.9447689   6.0355238
  79.5733099  36.4751540   6.8646384  84.8920580  36.5970386   8.4854268
  84.2700589  35.9341091   8.1856496  85.5625447  36.6231517   7.8027916
  78.1247652  35.1630244   7.3745528  77.2879560  34.7352418   7.1929530
  78.0971297  35.3562687   8.3116320  84.9645108  25.0752174  18.0786775
  85.0133263  25.9514296  17.6964544  85.5067622  24.5329567  17.5058418
  95.4499953  35.6193297  17.3587912  94.6595497  35.6017436  16.8192411
  95.2133308  36.1581591  18.1136948  95.5697828  32.4685763  14.6720640
  95.6195833  32.3035771  15.6136163  95.4611752  31.6013022  14.2818521
  84.4534087  35.1474309   1.9612729  84.6022207  35.8309773   1.3079402
  85.2600531  35.1279399   2.4762185  92.8601591  28.4516691  15.9879947
  93.7611454  28.3123156  15.6963945  92.9349565  28.6171146  16.9278124
  87.1944396  25.8283546  14.8333133  86.3247706  26.1217112  14.5615722
  87.4303876  26.4123991  15.5540397  97.0716025  34.8882705  14.9162662
  96.7800834  35.2512685  15.7526123  96.4588156  34.1749713  14.7375994
  95.3203213  30.0115319  13.3842720  95.7957335  30.2042966  12.5761571
  94.3968779  30.0674505  13.1386103  82.2086720  31.1739487   2.9673798
  81.9632762  30.2701817   3.1654008  82.3782635  31.1756637   2.0253276
  89.8983430  22.0463163  12.3498554  90.4165374  22.7824190  12.0245042
  89.5438563  22.3527156  13.1845313  81.4782368  26.9067844   0.4659959
  80.7851613  26.9812199  -0.1900005  81.2334119  26.1428188   0.9881476
  87.9529493  37.6422439  -0.5675524  87.3803460  38.2612627  -1.0205052
  88.5262286  38.1921801  -0.0335602  94.0204882  26.8881079  11.6171025
  94.9722305  26.9879177  11.6383249  93.8508333  26.0959348  12.1269110
  92.0419262  23.9736663  11.8030426  91.4469194  24.2541675  11.1076915
  91.7568959  24.4630564  12.5747167  96.4992960  30.1087199  10.7313325
  96.4669280  29.1703200  10.9173009  97.1093584  30.1871236   9.9979150
  88.2214984  33.0300998  18.2341186  89.1417993  33.2079597  18.4281232
  88.1864567  32.0857044  18.0820885  77.4397149  28.2239592   7.1594461
  77.1199933  27.3704900   6.8668835  76.8930577  28.4388170   7.9152428
  81.2177056  30.9402033  10.8763967  81.4363066  31.8719141  10.8952001
  81.6302830  30.5810007  11.6618771  86.0904921  26.5135239  20.2666716
  85.9901648  27.4629596  20.1978807  85.8726464  26.1853478  19.3942786
  77.3085409  31.8442503   9.1287582  76.6148880  31.4296456   8.6157537
  78.0558400  31.8863040   8.5321001  85.9536192  29.9432378  19.0831778
  85.4703273  30.7432738  19.2895667  86.0397131  29.9540322  18.1299222
  79.2222151  31.7760757   7.0053597  79.1992839  31.8748444   6.0535480
  79.5322788  32.6225908   7.3270763  81.8809529  33.8336912  11.1200211
  82.8352783  33.8020855  11.0530143  81.6822053  33.3727536  11.9350437
  82.4708911  32.4038028  13.6871009  83.2901800  32.8982107  13.7105846
  82.7445719  31.4869996  13.6588577  80.2359758  39.3756532   8.1370409
  80.1014226  38.6156933   7.5708407  79.8191820  40.0997432   7.6699198
  83.3928884  40.2725849   8.3488852  83.2761268  41.2171281   8.2467542
  82.5721330  39.9699410   8.7374651  77.7243825  26.7376162  14.3863206
  78.3702689  26.2275116  14.8750431  77.5160977  27.4744844  14.9606631
  90.2497218  33.8057010  19.8855347  91.1188377  33.9797662  19.5241982
  89.7703969  34.6251426  19.7631076  84.4183398  40.9254111  11.5644780
  85.3210645  40.9577721  11.8811275  84.1920768  39.9954562  11.5791116
  86.1737000  39.6785097   8.2254859  85.2232631  39.6786959   8.1119231
  86.4769486  38.9317832   7.7090894  82.0641316  23.8843779  18.4838220
  82.9272778  23.5280584  18.6941545  81.4906727  23.5457674  19.1713625
 101.9089693  45.5145636   9.2900621 102.5468103  45.3952383   8.5863961
 101.7910536  46.4626480   9.3488574  98.7179400  45.4673064   9.2262146
  98.3797911  45.3514128   8.3382681  99.5869168  45.0664229   9.2063152
  94.5766215  47.3208540   5.2159037  94.0131080  47.2298477   4.4475325
  94.4618610  46.5008445   5.6961530  99.1999183  46.6207915  15.1848352
  99.1887823  46.2260714  14.3128855  99.3619822  45.8873988  15.7782123
  92.1230647  48.8159732   8.0543258  92.9151939  48.4750556   7.6389557
  92.3627297  48.9254707   8.9745411 100.1565774  50.9879508   0.5273502
  99.5053754  51.5733588   0.1407516 100.9510137  51.5185703   0.5868539
  94.0821401  48.0768645   0.9260636  94.8552277  47.5297632   0.7873512
  94.4346800  48.9412894   1.1375098  95.9206444  49.4045027  14.1327536
  95.6296310  50.3090658  14.0174202  96.5563428  49.4461555  14.8471605
  96.8462651  46.7821876  10.7228895  97.4426223  46.5577898  10.0085858
  96.9037622  46.0406621  11.3254343  96.1383968  46.1389417   0.7603461
  96.0220226  45.4634320   1.4284546  96.2486228  45.6521791  -0.0564386
  98.4815509  45.5999564   4.4650150  98.1173716  45.0730185   5.1763072
  99.3382625  45.2098033   4.2916636 104.3864809  36.8893897  11.7281417
 104.0548134  37.7589308  11.5042632 103.7910423  36.5730181  12.4075447
 100.8796329  49.0906443  11.1277329 100.5797052  49.9931482  11.0193137
 100.5347388  48.8238626  11.9798482  94.3308810  45.5420240   7.1614034
  93.4059307  45.4096454   7.3691726  94.5793224  46.3214459   7.6583976
 104.2793473  41.6088983   8.8074767 103.3710350  41.5404391   8.5133528
 104.2281068  42.0860928   9.6356592  91.6917621  45.1853513   7.9957823
  91.8210003  45.4387992   8.9097235  91.0115073  45.7781221   7.6762478
  95.8617109  55.8550763   4.0948297  95.7841138  56.8058588   4.1736778
  95.2578752  55.5096636   4.7523223  98.3534338  43.0278628  16.7509664
  97.5767672  43.5872549  16.7412529  98.9924901  43.5135411  17.2724534
  96.6080711  45.8364082  16.3127631  97.3495395  46.3749126  16.0362455
  95.9017696  46.4630371  16.4699183 102.0836050  47.9793222  14.9099792
 102.4919406  47.5375633  14.1654425 101.3613312  47.4045850  15.1633985
  98.4367120  42.9165829  12.2833349  99.2828316  43.3405243  12.4267998
  98.3765758  42.2599453  12.9771912 102.4064865  48.5394413   8.6652081
 101.7773727  48.7040127   7.9628149 102.0190527  48.9536022   9.4363045
 106.2854097  49.4748851   6.0196445 105.6005135  49.8547752   5.4693478
 106.3697946  50.0844177   6.7528393 101.5866566  40.5770197  13.9414523
 101.3427498  41.3312258  13.4048799 101.8626496  40.9555545  14.7761770
 103.5405028  47.1208810  12.6191789 103.7521924  47.7640570  11.9426170
 103.4934777  46.2871126  12.1513719 101.1431257  39.7326630   9.5228361
 100.2815736  40.0307884   9.8145098 101.1693692  39.9497029   8.5909393
  97.9592827  48.2768821   5.9302166  98.4231172  48.5556524   5.1406789
  97.6949625  47.3752266   5.7475257  94.8516908  47.8240303   8.8681930
  95.4218265  48.2527571   8.2299414  95.4425020  47.5422887   9.5666115
  96.8961713  44.3991973   2.7391732  97.5985756  44.8513017   3.2065658
  96.5642341  43.7575792   3.3671625  95.3442074  42.9903730  17.1142941
  94.7140735  43.6720011  17.3478338  95.2378162  42.8786812  16.1696079
  90.6387047  42.6575526   8.0408865  89.8486101  42.9133055   7.5648976
  91.1298294  43.4723864   8.1460906 104.6550856  49.9980765  10.7914146
 105.4768300  49.5960953  10.5096828 104.6513259  49.8948999  11.7430262
  92.5901792  43.0220105   4.9992342  91.7932956  43.1338800   5.5175837
  92.3627384  43.3606758   4.1333232  98.4207460  49.5464809  12.9474856
  98.4851892  50.0085216  13.7833028  97.7118384  48.9162173  13.0757166
  88.9224750  42.9106017  10.4723856  89.1732788  43.7953026  10.7381432
  89.4584298  42.7310618   9.6998948  98.1355478  51.2132916   2.8153837
  98.0001152  52.0584452   3.2438685  98.6765290  51.4152194   2.0519771
  94.6222817  37.2924496  19.4768192  94.2289763  36.7390694  20.1515836
  95.4388958  37.6035074  19.8674709  91.5884875  48.7308354   3.3881762
  92.1009396  49.5251604   3.5387327  92.2407588  48.0334645   3.3215363
  93.3979760  51.8474110   5.4704515  93.5746388  52.7692075   5.2825499
  94.1936593  51.5332530   5.8998895  97.5390778  38.7082375  17.0688449
  98.2800492  39.3089528  16.9892911  97.7708701  37.9660013  16.5106491
  92.6832116  43.8938742  15.3466678  92.5685631  42.9923999  15.6473777
  91.8276634  44.1402439  14.9951495  99.7623954  51.8356483  16.9454179
  99.3187808  51.0492861  16.6275083 100.4241168  52.0235633  16.2798070
  94.5211075  53.3652284  11.4714857  95.0718500  53.2369347  10.6991851
  93.6822551  53.6647173  11.1209750 101.8605192  52.1159282  14.9735580
 101.8423667  52.9368164  14.4815849 102.7825112  51.9913358  15.1985721
  98.3178246  49.6303412  15.8159088  98.8506583  48.8691700  15.5858396
  97.7892327  49.3377064  16.5583243  89.5533792  47.0597008   4.1641332
  90.3909014  47.4694017   3.9475040  89.7312059  46.1196451   4.1341526
 100.5644482  37.1068133   9.3101963 100.0609277  37.0698268   8.4969769
 100.8575088  38.0160876   9.3698620  96.8087367  37.1906863   8.3168145
  97.6740364  36.9949671   7.9574035  96.8764876  36.9617215   9.2437502
  99.6830959  48.7589404   3.3277900  99.1552320  48.0242164   3.0151138
  99.1818462  49.5364081   3.0817869 104.6623805  46.9538425   8.4444947
 104.0047479  47.6437686   8.5325075 105.4664204  47.3434857   8.7878933
  94.4149686  39.4209071   5.6884512  94.9893438  39.1984252   4.9557705
  95.0020669  39.4897765   6.4413113  99.9510095  42.7832253   8.7407229
  99.0332656  43.0047200   8.5828917 100.3670238  42.8578564   7.8818936
 104.2391060  50.2888799   4.6228031 103.7853387  49.4479709   4.6793222
 103.6085027  50.9250197   4.9602811 102.6823999  52.1265296   5.5577849
 102.9746974  52.6870353   4.8390215 103.1922620  52.4193857   6.3131008
  89.5759963  44.3987724   4.8352066  89.3784363  43.8057084   4.1103132
  89.0206627  44.0939934   5.5528005  97.5556687  44.2910830   6.9546659
  97.6105296  43.3384667   6.8789136  96.7447889  44.4470269   7.4387957
  95.4949046  42.9087890   4.7137038  94.6816912  43.2082060   5.1202230
  95.9908041  42.5143579   5.4311520  97.6457624  52.9045647   6.6471302
  97.6033803  53.1306493   5.7179835  98.5620323  52.6709021   6.7957104
 101.0923258  43.3729714  13.5451932 101.4472646  43.6001188  14.4046397
 101.7395389  43.7048091  12.9229187  94.9863121  40.4806245  10.3298273
  95.6262501  40.3395005   9.6321236  94.1540652  40.1940759   9.9536875
 106.8490375  48.5624677   9.2612532 107.2826881  48.4699966  10.1095586
 107.5621955  48.5382178   8.6232548  95.7623425  49.7808676   6.4433265
  96.5564024  49.2858996   6.2415840  95.0515117  49.2526539   6.0800971
 100.5818270  52.1626771  10.7945633 100.6355292  52.7317708  11.5623349
  99.7133051  52.3328656  10.4299670  92.0706189  43.9251758   2.5193018
  91.1403777  43.8636213   2.7362980  92.1663661  43.4027710   1.7229659
  91.9891738  40.4506570   5.1071260  92.2498555  41.3651904   4.9980420
  92.8108910  39.9831013   5.2567872  93.4616663  41.8644328  12.2770084
  94.1339716  41.6561690  11.6282733  92.6346449  41.6666414  11.8375316
 107.7105924  48.6048378  11.7945418 107.9041814  49.5094188  12.0404693
 107.6106542  48.1455797  12.6284003  99.3642235  38.4906269  14.2935745
  98.7170150  39.1896218  14.2000221 100.1343250  38.9242412  14.6611993
 102.7721033  48.7555121  17.3686298 102.6206539  48.5265672  16.4516382
 102.7625712  49.7125722  17.3817643  99.5406369  46.3287033  12.3532565
 100.4698429  46.4798193  12.1801532  99.1197399  46.4171054  11.4981211
  98.3394701  50.3537698  10.1231102  98.2005787  49.9856482  10.9957040
  97.5509297  50.8685337   9.9515060  98.9342853  55.4546794   1.4656639
  99.1094609  54.9834837   2.2802262  98.2475641  56.0812560   1.6937900
  99.8899916  49.7319301   7.5119940  99.5549749  49.6920070   8.4077590
  99.3903862  49.0664016   7.0390350  93.8644160  45.1386931  13.0372521
  93.7263958  44.4067169  13.6384060  94.7749084  45.0495831  12.7556709
  96.4926461  44.8506890  12.5256201  97.2026079  44.2100082  12.4842819
  96.4495769  45.1019785  13.4482382 104.4813240  51.7874243  15.4462780
 104.4225786  51.1033463  14.7793363 104.8832758  52.5293233  14.9943406
  95.2055395  41.8372108  14.3451840  94.6692752  41.3862846  14.9973437
  94.6172103  41.9718017  13.6022305  93.5003938  58.6036157   8.2396499
  93.7400537  59.2354681   8.9175518  92.6573135  58.2524197   8.5261858
 104.4830647  49.7513827  13.6776760 103.5957426  49.4139749  13.8003159
 105.0529198  49.0196858  13.9145525  86.1359794  46.0837919   7.0019811
  86.8230834  45.7699649   6.4140826  85.9807923  46.9879284   6.7287063
  90.9394516  40.9728115  11.4304835  90.8552705  40.3653785  10.6955245
  90.1177222  41.4637134  11.4314331  98.0131800  54.4115279  10.6438003
  97.9401972  55.2170251  11.1557308  97.5709193  54.6107245   9.8186024
  97.8021580  53.6487050   4.1540825  97.0189102  54.1908730   4.2479049
  98.5014325  54.1661029   4.5535066 100.4730484  54.3102114  12.7996162
 101.1858456  54.9449578  12.7272063  99.9820512  54.4065980  11.9836163
 102.1948011  48.2153366   4.3713453 101.2604289  48.3354829   4.2018158
 102.3724679  47.3125833   4.1073463  97.6953199  41.5999062   6.5246715
  97.3250986  41.0470102   7.2127620  98.1912291  40.9957195   5.9721715
  95.5242397  52.0596557  13.6201732  96.2251857  52.6933040  13.7731127
  95.0537512  52.4011289  12.8597372 103.3243683  44.6141164  11.4454283
 102.6715133  44.8617072  10.7906736 103.7024063  43.8005303  11.1116760
 100.2850857  54.6500858   5.5482453 100.4673252  53.8322514   6.0110205
 101.1083843  54.8668550   5.1107343 100.6193023  53.5769043   2.8097502
 101.1480789  53.0661497   2.1967664 100.8821242  53.2611573   3.6743035
  99.3731256  45.3560976  17.9320320  98.6971893  45.2555105  18.6022695
 100.1958890  45.2000189  18.3956317  91.1210115  51.5932912  10.5532835
  91.7063552  50.8476600  10.6860739  90.9234954  51.9036869  11.4369499
  93.9748771  54.6284159   5.5695278  93.3059146  55.1130287   5.0859318
  93.8361640  54.8753380   6.4838656  85.7127770  44.1638512   9.2737278
  85.7511870  43.6302103  10.0674396  85.2068063  43.6373718   8.6548255
  98.1154039  56.6627903  12.1677936  98.6672347  56.8259524  12.9327021
  98.4560233  57.2532341  11.4957961  93.0918532  39.0103053  12.7699821
  93.1559859  39.8717884  12.3577218  93.0285653  38.3977054  12.0372179
  92.5670805  41.0826185  16.4172855  93.1942844  40.7003263  17.0310379
  91.7098724  40.8640387  16.7828547 102.9664913  51.4889160  18.0226590
 103.5104817  52.1019119  17.5281545 102.3851758  52.0468739  18.5393603
  89.3436348  42.8902614   2.3491210  89.6389789  41.9813293   2.2958263
  88.4424383  42.8690354   2.0272212 101.2522426  54.6109878   9.1541618
 101.1273566  53.8099618   8.6452564 101.9101518  55.1056072   8.6655588
  92.8730595  40.9658611   8.3318758  92.1517180  41.5794579   8.1926232
  93.6623850  41.5016376   8.2535404 103.3157335  52.4118899  10.7821168
 102.3687670  52.2924250  10.7099495 103.6640108  51.5241397  10.8647430
  95.6756908  38.3013037  14.6059410  96.1991310  38.5475334  15.3685719
  95.4569241  39.1333072  14.1862547  91.0724189  40.5716712   2.4730535
  90.7436895  39.6914091   2.2905641  91.4263560  40.5164381   3.3606924
 100.3203768  52.2071615   6.9825520 100.1728731  51.2788322   7.1633090
 101.1457262  52.2291705   6.4982596  94.1866012  40.8589682   2.8406013
  94.5262085  41.3875603   2.1184621  94.6338133  41.1970088   3.6164579
 103.9237890  53.0300174   8.0690393 104.8484437  52.8243035   7.9314844
 103.7553193  52.7816575   8.9779735  96.8809453  39.2426733  12.2909081
  96.5406274  38.4434546  12.6929760  96.1748459  39.5428443  11.7185914
  97.5325925  36.3276045  10.7436404  98.3551994  35.8536523  10.6215294
  97.7763989  37.1066529  11.2435090  95.0564504  43.0195166   8.5528382
  94.9109085  43.3335469   9.4452664  94.5789707  43.6380066   7.9999281
  96.9160887  40.0097714   8.6009272  96.9022455  39.1138807   8.2641570
  97.6333315  40.0168377   9.2347558  98.7687017  40.4435054  10.6462399
  98.5104795  41.3652124  10.6446730  98.2372058  40.0465488  11.3362863
 103.7133206  53.5485841   3.4252485 103.8870084  52.9832263   2.6726337
 104.2062097  54.3486736   3.2431975  89.5310166  45.5600510  11.4916043
  88.9863634  46.3360318  11.6236318  90.4089516  45.9071315  11.3335165
  90.3176188  44.6870406  14.3846200  89.5757924  44.8353042  14.9710831
  89.9968932  44.9478672  13.5212950  98.2619850  54.2286385  14.1826590
  98.5706977  53.9835531  15.0549290  99.0595332  54.4333023  13.6945460
  98.2840463  56.3824294   6.4131967  97.8445453  55.8900673   7.1064824
  99.0348579  55.8397262   6.1724042  90.7632801  52.5735835   6.4156595
  91.5890821  52.2739607   6.0355238  90.4126853  51.8043457   6.8646384
  95.7314335  51.9262303   8.4854268  95.1094344  51.2633008   8.1856496
  96.4019202  51.9523435   7.8027916  88.9641407  50.4922161   7.3745528
  88.1273315  50.0644336   7.1929530  88.9365052  50.6854605   8.3116320
  95.8038862  40.4044091  18.0786775  95.8527018  41.2806214  17.6964544
  96.3461376  39.8621484  17.5058418 106.2893708  50.9485215  17.3587912
 105.4989252  50.9309353  16.8192411 106.0527062  51.4873508  18.1136948
 106.4091583  47.7977681  14.6720640 106.4589588  47.6327688  15.6136163
 106.3005506  46.9304940  14.2818521  95.2927842  50.4766227   1.9612729
  95.4415962  51.1601691   1.3079402  96.0994285  50.4571317   2.4762185
 103.6995345  43.7808609  15.9879947 104.6005208  43.6415074  15.6963945
 103.7743320  43.9463064  16.9278124  98.0338151  41.1575464  14.8333133
  97.1641460  41.4509030  14.5615722  98.2697631  41.7415909  15.5540397
 107.9109780  50.2174622  14.9162662 107.6194588  50.5804603  15.7526123
 107.2981911  49.5041631  14.7375994 106.1596968  45.3407237  13.3842720
 106.6351090  45.5334883  12.5761571 105.2362533  45.3966423  13.1386103
  93.0480475  46.5031404   2.9673798  92.8026516  45.5993734   3.1654008
  93.2176389  46.5048555   2.0253276 100.7377184  37.3755081  12.3498554
 101.2559128  38.1116108  12.0245042 100.3832317  37.6819074  13.1845313
  92.3176122  42.2359762   0.4659959  91.6245367  42.3104117  -0.1900005
  92.0727874  41.4720105   0.9881476  98.7923247  52.9714357  -0.5675524
  98.2197214  53.5904544  -1.0205052  99.3656041  53.5213719  -0.0335602
 104.8598637  42.2172997  11.6171025 105.8116060  42.3171095  11.6383249
 104.6902087  41.4251266  12.1269110 102.8813016  39.3028580  11.8030426
 102.2862949  39.5833593  11.1076915 102.5962713  39.7922481  12.5747167
 107.3386715  45.4379117  10.7313325 107.3063035  44.4995118  10.9173009
 107.9487338  45.5163154   9.9979150  99.0608738  48.3592916  18.2341186
  99.9811748  48.5371515  18.4281232  99.0258321  47.4148961  18.0820885
  88.2790903  43.5531510   7.1594461  87.9593687  42.6996818   6.8668835
  87.7324331  43.7680088   7.9152428  92.0570811  46.2693951  10.8763967
  92.2756820  47.2011058  10.8952001  92.4696584  45.9101925  11.6618771
  96.9298676  41.8427156  20.2666716  96.8295403  42.7921513  20.1978807
  96.7120218  41.5145395  19.3942786  88.1479163  47.1734421   9.1287582
  87.4542635  46.7588374   8.6157537  88.8952154  47.2154958   8.5321001
  96.7929946  45.2724295  19.0831778  96.3097028  46.0724655  19.2895667
  96.8790885  45.2832240  18.1299222  90.0615906  47.1052675   7.0053597
  90.0386594  47.2040362   6.0535480  90.3716542  47.9517826   7.3270763
  92.7203284  49.1628830  11.1200211  93.6746537  49.1312772  11.0530143
  92.5215807  48.7019454  11.9350437  93.3102666  47.7329946  13.6871009
  94.1295555  48.2274025  13.7105846  93.5839473  46.8161914  13.6588577
  91.0753512  54.7048449   8.1370409  90.9407980  53.9448850   7.5708407
  90.6585575  55.4289349   7.6699198  94.2322638  55.6017766   8.3488852
  94.1155022  56.5463199   8.2467542  93.4115084  55.2991328   8.7374651
  88.5637580  42.0668080  14.3863206  89.2096444  41.5567034  14.8750431
  88.3554731  42.8036761  14.9606631 101.0890972  49.1348927  19.8855347
 101.9582132  49.3089580  19.5241982 100.6097724  49.9543344  19.7631076
  95.2577152  56.2546028  11.5644780  96.1604399  56.2869639  11.8811275
  95.0314522  55.3246479  11.5791116  97.0130754  55.0077015   8.2254859
  96.0626385  55.0078876   8.1119231  97.3163240  54.2609749   7.7090894
  92.9035071  39.2135697  18.4838220  93.7666532  38.8572502  18.6941545
  92.3300482  38.8749592  19.1713625 112.7483448  60.8437553   9.2900621
 113.3861858  60.7244301   8.5863961 112.6304291  61.7918397   9.3488574
 109.5573154  60.7964981   9.2262146 109.2191666  60.6806046   8.3382681
 110.4262922  60.3956146   9.2063152 110.0392937  61.9499833  15.1848352
 110.0281578  61.5552631  14.3128855 110.2013577  61.2165906  15.7782123
 102.9624402  64.1451649   8.0543258 103.7545694  63.8042474   7.6389557
 103.2021052  64.2546624   8.9745411 106.7600198  64.7336945  14.1327536
 106.4690064  65.6382576  14.0174202 107.3957183  64.7753472  14.8471605
 107.6856405  62.1113793  10.7228895 108.2819977  61.8869816  10.0085858
 107.7431377  61.3698539  11.3254343 115.2258564  52.2185814  11.7281417
 114.8941889  53.0881225  11.5042632 114.6304177  51.9022098  12.4075447
 111.7190083  64.4198360  11.1277329 111.4190806  65.3223399  11.0193137
 111.3741143  64.1530544  11.9798482 105.1702565  60.8712157   7.1614034
 104.2453061  60.7388371   7.3691726 105.4186978  61.6506376   7.6583976
 115.1187227  56.9380901   8.8074767 114.2104104  56.8696309   8.5133528
 115.0674823  57.4152846   9.6356592 102.5311376  60.5145431   7.9957823
 102.6603757  60.7679910   8.9097235 101.8508827  61.1073139   7.6762478
 109.1928093  58.3570546  16.7509664 108.4161427  58.9164466  16.7412529
 109.8318656  58.8427329  17.2724534 107.4474465  61.1656000  16.3127631
 108.1889150  61.7041043  16.0362455 106.7411451  61.7922288  16.4699183
 112.9229805  63.3085140  14.9099792 113.3313161  62.8667551  14.1654425
 112.2007066  62.7337768  15.1633985 109.2760875  58.2457747  12.2833349
 110.1222070  58.6697160  12.4267998 109.2159513  57.5891371  12.9771912
 112.4260320  55.9062115  13.9414523 112.1821252  56.6604176  13.4048799
 112.7020251  56.2847463  14.7761770 114.3798783  62.4500727  12.6191789
 114.5915678  63.0932487  11.9426170 114.3328531  61.6163044  12.1513719
 111.9825012  55.0618548   9.5228361 111.1209491  55.3599802   9.8145098
 112.0087447  55.2788947   8.5909393 105.6910662  63.1532220   8.8681930
 106.2612019  63.5819489   8.2299414 106.2818774  62.8714805   9.5666115
 106.1835829  58.3195648  17.1142941 105.5534490  59.0011929  17.3478338
 106.0771917  58.2078729  16.1696079 101.4780801  57.9867444   8.0408865
 100.6879855  58.2424972   7.5648976 101.9692049  58.8015782   8.1460906
 103.4295547  58.3512023   4.9992342 102.6326710  58.4630717   5.5175837
 103.2021139  58.6898675   4.1333232 109.2601214  64.8756726  12.9474856
 109.3245647  65.3377133  13.7833028 108.5512138  64.2454091  13.0757166
  99.7618504  58.2397934  10.4723856 100.0126543  59.1244944  10.7381432
 100.2978053  58.0602536   9.6998948 105.4616572  52.6216414  19.4768192
 105.0683517  52.0682612  20.1515836 106.2782712  52.9326992  19.8674709
 108.3784533  54.0374293  17.0688449 109.1194246  54.6381446  16.9892911
 108.6102455  53.2951930  16.5106491 103.5225871  59.2230660  15.3466678
 103.4079386  58.3215917  15.6473777 102.6670388  59.4694357  14.9951495
 110.6017708  67.1648400  16.9454179 110.1581563  66.3784779  16.6275083
 111.2634922  67.3527551  16.2798070 105.3604830  68.6944202  11.4714857
 105.9112255  68.5661265  10.6991851 104.5216305  68.9939091  11.1209750
 112.6998946  67.4451200  14.9735580 112.6817422  68.2660081  14.4815849
 113.6218867  67.3205275  15.1985721 109.1572001  64.9595330  15.8159088
 109.6900337  64.1983618  15.5858396 108.6286082  64.6668981  16.5583243
 111.4038236  52.4360051   9.3101963 110.9003032  52.3990186   8.4969769
 111.6968843  53.3452793   9.3698620 107.6481122  52.5198780   8.3168145
 108.5134119  52.3241589   7.9574035 107.7158631  52.2909132   9.2437502
 105.2543441  54.7500988   5.6884512 105.8287193  54.5276170   4.9557705
 105.8414423  54.8189683   6.4413113 110.7903849  58.1124171   8.7407229
 109.8726410  58.3339118   8.5828917 111.2063993  58.1870481   7.8818936
 100.4153717  59.7279641   4.8352066 100.2178117  59.1349002   4.1103132
  99.8600381  59.4231852   5.5528005 108.3950441  59.6202748   6.9546659
 108.4499051  58.6676584   6.8789136 107.5841643  59.7762187   7.4387957
 106.3342801  58.2379808   4.7137038 105.5210666  58.5373978   5.1202230
 106.8301795  57.8435496   5.4311520 111.9317013  58.7021632  13.5451932
 112.2866400  58.9293105  14.4046397 112.5789144  59.0340009  12.9229187
 105.8256876  55.8098163  10.3298273 106.4656255  55.6686922   9.6321236
 104.9934406  55.5232676   9.9536875 102.8285492  55.7798488   5.1071260
 103.0892309  56.6943821   4.9980420 103.6502664  55.3122931   5.2567872
 104.3010417  57.1936245  12.2770084 104.9733471  56.9853607  11.6282733
 103.4740204  56.9958331  11.8375316 110.2035989  53.8198186  14.2935745
 109.5563904  54.5188136  14.2000221 110.9737005  54.2534330  14.6611993
 113.6114787  64.0847038  17.3686298 113.4600294  63.8557590  16.4516382
 113.6019467  65.0417640  17.3817643 110.3800124  61.6578951  12.3532565
 111.3092184  61.8090111  12.1801532 109.9591154  61.7462972  11.4981211
 109.1788456  65.6829616  10.1231102 109.0399541  65.3148400  10.9957040
 108.3903052  66.1977255   9.9515060 104.7037915  60.4678848  13.0372521
 104.5657713  59.7359087  13.6384060 105.6142838  60.3787748  12.7556709
 107.3320215  60.1798808  12.5256201 108.0419834  59.5392000  12.4842819
 107.2889524  60.4311702  13.4482382 115.3206994  67.1166161  15.4462780
 115.2619540  66.4325381  14.7793363 115.7226512  67.8585151  14.9943406
 106.0449149  57.1664025  14.3451840 105.5086506  56.7154764  14.9973437
 105.4565858  57.3009934  13.6022305 115.3224401  65.0805745  13.6776760
 114.4351180  64.7431667  13.8003159 115.8922952  64.3488776  13.9145525
  96.9753548  61.4129837   7.0019811  97.6624588  61.0991567   6.4140826
  96.8201677  62.3171201   6.7287063 101.7788271  56.3020033  11.4304835
 101.6946459  55.6945703  10.6955245 100.9570977  56.7929051  11.4314331
 108.5346953  56.9290980   6.5246715 108.1644741  56.3762020   7.2127620
 109.0306046  56.3249113   5.9721715 106.3636152  67.3888475  13.6201732
 107.0645611  68.0224958  13.7731127 105.8931267  67.7303206  12.8597372
 114.1637438  59.9433082  11.4454283 113.5108888  60.1908990  10.7906736
 114.5417818  59.1297220  11.1116760 110.2125011  60.6852893  17.9320320
 109.5365648  60.5847023  18.6022695 111.0352645  60.5292107  18.3956317
 101.9603870  66.9224830  10.5532835 102.5457307  66.1768518  10.6860739
 101.7628708  67.2328786  11.4369499  96.5521525  59.4930430   9.2737278
  96.5905624  58.9594021  10.0674396  96.0461817  58.9665635   8.6548255
 103.9312287  54.3394970  12.7699821 103.9953613  55.2009801  12.3577218
 103.8679407  53.7268972  12.0372179 103.4064559  56.4118103  16.4172855
 104.0336598  56.0295180  17.0310379 102.5492478  56.1932305  16.7828547
 113.8058668  66.8181078  18.0226590 114.3498572  67.4311036  17.5281545
 113.2245513  67.3760657  18.5393603 100.1830102  58.2194532   2.3491210
 100.4783543  57.3105211   2.2958263  99.2818138  58.1982272   2.0272212
 103.7124349  56.2950529   8.3318758 102.9910935  56.9086496   8.1926232
 104.5017605  56.8308293   8.2535404 106.5150663  53.6304955  14.6059410
 107.0385064  53.8767252  15.3685719 106.2962996  54.4624990  14.1862547
 101.9117944  55.9008630   2.4730535 101.5830650  55.0206009   2.2905641
 102.2657314  55.8456298   3.3606924 107.7203208  54.5718650  12.2909081
 107.3800028  53.7726463  12.6929760 107.0142214  54.8720361  11.7185914
 108.3719680  51.6567963  10.7436404 109.1945749  51.1828441  10.6215294
 108.6157743  52.4358446  11.2435090 105.8958258  58.3487083   8.5528382
 105.7502839  58.6627386   9.4452664 105.4183462  58.9671984   7.9999281
 107.7554641  55.3389631   8.6009272 107.7416210  54.4430725   8.2641570
 108.4727069  55.3460295   9.2347558 109.6080772  55.7726972  10.6462399
 109.3498550  56.6944042  10.6446730 109.0765812  55.3757406  11.3362863
 100.3703920  60.8892428  11.4916043  99.8257389  61.6652236  11.6236318
 101.2483270  61.2363232  11.3335165 101.1569942  60.0162324  14.3846200
 100.4151678  60.1644959  14.9710831 100.8362687  60.2770590  13.5212950
 109.1013605  69.5578302  14.1826590 109.4100731  69.3127449  15.0549290
 109.8989087  69.7624941  13.6945460  99.8035161  65.8214079   7.3745528
  98.9667069  65.3936254   7.1929530  99.7758806  66.0146523   8.3116320
 106.6432617  55.7336009  18.0786775 106.6920772  56.6098132  17.6964544
 107.1855131  55.1913402  17.5058418 117.1287462  66.2777132  17.3587912
 116.3383006  66.2601271  16.8192411 116.8920817  66.8165426  18.1136948
 117.2485337  63.1269599  14.6720640 117.2983342  62.9619606  15.6136163
 117.1399261  62.2596858  14.2818521 114.5389100  59.1100527  15.9879947
 115.4398963  58.9706991  15.6963945 114.6137074  59.2754981  16.9278124
 108.8731905  56.4867381  14.8333133 108.0035214  56.7800947  14.5615722
 109.1091385  57.0707826  15.5540397 118.7503534  65.5466540  14.9162662
 118.4588342  65.9096521  15.7526123 118.1375665  64.8333548  14.7375994
 116.9990722  60.6699155  13.3842720 117.4744844  60.8626801  12.5761571
 116.0756288  60.7258341  13.1386103 111.5770939  52.7046998  12.3498554
 112.0952883  53.4408025  12.0245042 111.2226072  53.0110992  13.1845313
 115.6992391  57.5464915  11.6171025 116.6509814  57.6463012  11.6383249
 115.5295842  56.7543183  12.1269110 113.7206771  54.6320498  11.8030426
 113.1256703  54.9125511  11.1076915 113.4356468  55.1214399  12.5747167
 109.9002493  63.6884834  18.2341186 110.8205502  63.8663433  18.4281232
 109.8652076  62.7440879  18.0820885  99.1184658  58.8823427   7.1594461
  98.7987442  58.0288735   6.8668835  98.5718086  59.0972005   7.9152428
 102.8964565  61.5985868  10.8763967 103.1150575  62.5302976  10.8952001
 103.3090339  61.2393843  11.6618771 107.7692430  57.1719074  20.2666716
 107.6689157  58.1213431  20.1978807 107.5513973  56.8437313  19.3942786
  98.9872918  62.5026339   9.1287582  98.2936389  62.0880292   8.6157537
  99.7345909  62.5446875   8.5321001 107.6323701  60.6016213  19.0831778
 107.1490782  61.4016573  19.2895667 107.7184640  60.6124158  18.1299222
 100.9009660  62.4344593   7.0053597 100.8780348  62.5332280   6.0535480
 101.2110297  63.2809743   7.3270763 103.5597038  64.4920748  11.1200211
 104.5140292  64.4604690  11.0530143 103.3609562  64.0311371  11.9350437
 104.1496420  63.0621864  13.6871009 104.9689309  63.5565942  13.7105846
 104.4233228  62.1453832  13.6588577  99.4031334  57.3959997  14.3863206
 100.0490198  56.8858951  14.8750431  99.1948486  58.1328679  14.9606631
 111.9284727  64.4640845  19.8855347 112.7975886  64.6381497  19.5241982
 111.4491478  65.2835262  19.7631076 106.0970907  71.5837946  11.5644780
 106.9998154  71.6161556  11.8811275 105.8708277  70.6538397  11.5791116
 103.7428825  54.5427615  18.4838220 104.6060287  54.1864419  18.6941545
 103.1694236  54.2041509  19.1713625 116.3010326  67.9508331  19.4768192
 115.9077272  67.3974530  20.1515836 117.1176466  68.2618910  19.8674709
 119.2178287  69.3666210  17.0688449 119.9588001  69.9673363  16.9892911
 119.4496210  68.6243848  16.5106491 114.2458314  71.7410021  16.4172855
 114.8730353  71.3587098  17.0310379 113.3886233  71.5224223  16.7828547
 117.4826371  71.0627927  18.0786775 117.5314527  71.9390049  17.6964544
 118.0248885  70.5205320  17.5058418 118.6086185  72.5010992  20.2666716
 118.5082912  73.4505349  20.1978807 118.3907727  72.1729231  19.3942786
 110.2425089  72.7251915  14.3863206 110.8883952  72.2150869  14.8750431
 110.0342240  73.4620597  14.9606631 114.5822580  69.8719532  18.4838220
 115.4454041  69.5156337  18.6941545 114.0087991  69.5333427  19.1713625
   4.3519297  77.0003354  86.7927274   3.5983005  76.4310752  86.6371279
   4.4866838  76.9666019  87.7397909   0.7167910  78.4411343  87.0893389
   1.5514801  78.8801147  87.2530949   0.8527038  77.9649996  86.2701635
   4.7625712  77.1578964  89.5247519   5.4929101  76.8964252  90.0855222
   4.1532658  76.4207686  89.5649587   2.8441009  75.2986827  90.1221970
   2.1174173  75.1642792  89.5138462   2.4288296  75.6063656  90.9278688
   0.4618804  71.5198679  87.4755402   1.0563295  71.2794415  86.7648710
   0.5345388  70.8005810  88.1028938   2.7689877  74.8264880  86.2498823
   2.2089435  74.8958069  87.0230385   2.1633380  74.6505865  85.5298319
   4.3545895  91.5021394  88.9428779   4.9924305  91.3828141  88.2392119
   4.2366738  92.4502238  89.0016731   1.1635602  91.4548822  88.8790303
   0.8254113  91.3389887  87.9910838   2.0325370  91.0539987  88.8591309
   2.6021976  96.9755266  80.1801659   1.9509956  97.5609347  79.7935673
   3.3966339  97.5061461  80.2396697   3.9087164  89.2272848  86.0181987
   4.6950253  88.8092271  85.6672404   4.1725868  90.1318940  86.1863635
   4.0797241  94.6645698  80.7170643   3.4443074  94.7380325  81.4291548
   3.7494648  95.2539297  80.0389723   9.3095591  89.1648081  86.9214965
  10.0420763  88.5947298  87.1552795   8.5534947  88.7769681  87.3621471
   0.9271711  91.5875322  84.1178308   0.5629918  91.0605943  84.8291229
   1.7838827  91.1973792  83.9444793   6.8321011  82.8769655  91.3809574
   6.5004336  83.7465066  91.1570789   6.2366625  82.5605939  92.0603604
   3.3252531  95.0782201  90.7805486   3.0253254  95.9807240  90.6721294
   2.9803590  94.8114384  91.6326639   6.7249675  87.5964741  88.4602924
   5.8166552  87.5280150  88.1661685   6.6737270  88.0736686  89.2884749
   8.5911321  85.7981180  90.2380798   7.9485701  86.0913713  89.5920592
   8.0866250  85.6834100  91.0433994   6.2451485  89.5444353  80.9266657
   7.1569341  89.7771740  80.7514354   5.7361132  90.1281397  80.3641736
   0.8823322  88.9041587  91.9361506   1.7284518  89.3281001  92.0796155
   0.8221960  88.2475212  92.6300070   4.8521067  94.5270171  88.3180238
   4.2229929  94.6915885  87.6156306   4.4646729  94.9411781  89.0891202
   8.7310299  95.4624609  85.6724602   8.0461337  95.8423511  85.1221635
   8.8154148  96.0719936  86.4056550   4.0322768  86.5645956  93.5942680
   3.7883700  87.3188016  93.0576956   4.3082698  86.9431303  94.4289927
   5.9861231  93.1084568  92.2719946   6.1978126  93.7516328  91.5954327
   5.9390979  92.2746885  91.8041876   3.5887460  85.7202389  89.1756518
   2.7271939  86.0183642  89.4673255   3.6149894  85.9372788  88.2437550
   7.1007058  95.9856524  90.4442303   7.9224502  95.5836711  90.1624985
   7.0969461  95.8824758  91.3958419  15.1913052  92.3295272  86.7927274
  14.4376760  91.7602670  86.6371279  15.3260593  92.2957937  87.7397909
   0.5811680  97.2008674  82.4681994   0.4457354  98.0460210  82.8966842
   1.1221492  97.4027952  81.7047928   3.9304143  80.7239236  90.9980887
   3.5868413  81.6140878  90.9219998   4.2983106  80.5340894  90.1350472
   3.8954426  90.7147847  79.5053322   3.3801049  91.4852452  79.7441710
   3.6231734  90.0412984  80.1286384   1.4801537  85.5597548  84.5638561
   0.6243133  85.1704399  84.3844199   1.8928489  85.6389509  83.7038346
   3.0100684  83.0943891  88.9630121   2.5065479  83.0574027  88.1497926
   3.3031290  84.0036634  89.0226777   8.8688700  93.4680202  81.4406496
   8.0918143  93.1291362  80.9961658   9.5480181  93.4732825  80.7661461
   3.6840729  88.5874939  81.3313104   3.3790865  88.9021089  82.1823247
   4.6371171  88.6656359  81.3740437   2.1287161  94.7465163  82.9806058
   1.6008522  94.0117922  82.6679295   1.6274664  95.5239839  82.7346026
   7.1080007  92.9414183  88.0973104   6.4503681  93.6313445  88.1853232
   7.9120406  93.3310615  88.4407090   5.9185466  91.2958556  86.1477046
   6.4317347  91.9288548  86.6498755   6.5686690  90.6959751  85.7820406
   3.1807840 101.2742880  78.9037717   2.5069539 101.5774577  79.5122675
   3.5673662 102.0771961  78.5543174   2.3966297  88.7708012  88.3935386
   1.4788858  88.9922959  88.2357074   2.8126440  88.8454322  87.5347093
   3.1801344  90.1699427  83.5238066   3.9273163  90.6820824  83.2145188
   3.4492934  89.8483480  84.3842460   1.4527995  92.6657968  80.5065021
   0.5439214  92.3817001  80.6037490   1.4823078  93.0857046  79.6468328
   6.6847262  96.2764557  84.2756188   6.2309589  95.4355467  84.3321379
   6.0541229  96.9125956  84.6130968   5.6280181  87.2056543  85.5056856
   4.8902938  86.6933930  85.8367098   5.8806955  86.7656925  84.6940133
   5.1280201  98.1141054  85.2106006   5.4203176  98.6746111  84.4918372
   5.6378822  98.4069615  85.9659165   5.7291809  79.9832795  86.0998625
   6.0350686  79.1230159  85.8124540   6.4544414  80.5750416  85.8997619
   1.1504082  94.2066712  77.8453099   0.7123512  93.4902571  77.3858737
   1.8914523  94.4342826  77.2838191   3.5379460  89.3605473  93.1980089
   3.8928848  89.5876946  94.0574555   4.1851591  89.6923850  92.5757344
   9.2677197  92.4823909  83.9029418   9.1295096  92.6725505  82.9750607
   8.9113416  93.2443291  84.3597469   9.2946577  94.5500436  88.9140689
   9.7283083  94.4575725  89.7623743  10.0078157  94.5257936  88.2760705
  10.1562126  94.5924136  91.4473575  10.3498016  95.4969947  91.6932850
  10.0562744  94.1331555  92.2812160   1.8098437  84.4782027  93.9463902
   1.1626352  85.1771977  93.8528378   2.5799452  84.9118171  94.3140150
   1.9862571  92.3162792  92.0060722   2.9154631  92.4673951  91.8329689
   1.5653601  92.4046813  91.1509368   1.3799055 101.4422553  81.1184796
   1.5550811 100.9710596  81.9330419   0.6931843 102.0688319  81.3466057
   2.3356118  95.7195059  87.1648097   2.0005951  95.6795829  88.0605747
   1.8360064  95.0539775  86.6918507   5.2715310  93.0651093  77.4385157
   4.6544481  92.3397921  77.3418210   4.8031798  93.8260454  77.0952231
   6.9286849  95.7389586  93.3304917   6.0413628  95.4015507  93.4531316
   7.4985400  95.0072617  93.5673682   3.5574432  85.4457437  86.4503187
   4.0543132  84.6927400  86.1304257   2.7861413  85.4821754  85.8846396
  11.4104189  91.1497803  88.0921479  11.3994066  92.0322518  87.7215412
  10.5421569  90.7969354  87.8976016   4.6404213  94.2029125  84.0241610
   3.7060491  94.3230587  83.8546315   4.8180881  93.3001591  83.7601620
   8.0276764  90.0446444  84.5591645   8.4937216  90.8774435  84.4851947
   8.4784265  89.5791425  85.2636903   6.0952995  96.3890265  81.5577797
   6.3712839  96.2746860  82.4671671   5.2257494  95.9907750  81.5189970
   5.9993427  82.4127031  88.5982546   5.0856507  82.6431258  88.7664753
   6.4286528  82.4965475  89.4496578   5.7699885  90.6016923  91.0982440
   5.1171336  90.8492830  90.4434893   6.1480265  89.7881061  90.7644917
   2.7307059 100.6376616  85.2010610   2.9129454  99.8198272  85.6638363
   3.5540045 100.8544308  84.7635500   3.0649225  99.5644801  82.4625659
   3.5936991  99.0537256  81.8495821   3.3277444  99.2487331  83.3271192
   3.6978628 100.5985637  88.8069775   3.5729768  99.7975377  88.2980721
   4.3557720 101.0931830  88.3183745   5.7613537  98.3994657  90.4349325
   4.8143872  98.2800008  90.3627652   6.1096310  97.5117155  90.5175587
   2.7659970  98.1947373  86.6353677   2.6184933  97.2664081  86.8161248
   3.5913464  98.2167464  86.1510753   6.3694092  99.0175932  87.7218550
   7.2940639  98.8118793  87.5843001   6.2009395  98.7692333  88.6307892
   2.7621484  86.0485211  81.6285795   2.9785099  86.9309849  81.3274623
   2.2815552  85.6571424  80.8991437   1.2143219  86.4310812  90.2990556
   0.9560997  87.3527883  90.2974887   0.6828260  86.0341247  90.9891020
   6.1589408  99.5361599  83.0780642   6.3326286  98.9708022  82.3254494
   6.6518299 100.3362494  82.8960132   1.6345175  82.5642763  86.6591719
   1.6566872  82.6282096  85.7043698   2.0513234  81.7247271  86.8532225
  12.0128799  92.2998022  84.6970941  12.4559945  91.5505347  84.2990065
  11.1355310  92.2908159  84.3144673   7.1464581  98.8528364  80.1777540
   7.8415485  99.4735056  80.3964855   7.4887731  98.0023715  80.4529918
   9.0456004  96.3028069  81.7064871   9.5707328  96.6415342  80.9814191
   8.9578356  95.3675085  81.5228005   8.8547785  93.7853439  94.3248797
   8.9045790  93.6203447  95.2664320   8.7461708  92.9180698  93.9346678
   6.1451547  89.7684367  95.6408104   7.0461410  89.6290832  95.3492102
   6.2199522  89.9338822  96.5806281  10.3565982  96.2050381  94.5690819
  10.0650790  96.5680361  95.4054280   9.7438113  95.4917389  94.3904151
  11.5561664  93.7703261  87.0893389  12.3908555  94.2093065  87.2530949
  11.6920793  93.2941914  86.2701635   8.6053170  91.3282995  93.0370877
   9.0807292  91.5210642  92.2289728   7.6818735  91.3842181  92.7914260
   3.1833386  83.3630839  92.0026711   3.7015330  84.0991866  91.6773199
   2.8288519  83.6694832  92.8373470   3.4345981  79.7831122  87.5227607
   3.7147734  79.1154311  88.1488034   4.2196588  79.9760217  87.0102271
   1.2379449  98.9590115  79.0852634   0.6653416  99.5780303  78.6323105
   1.8112243  99.5089477  79.6192555   7.3054839  88.2048756  91.2699182
   8.2572262  88.3046853  91.2911406   7.1358289  87.4127024  91.7797267
   5.3269218  85.2904339  91.4558583   4.7319151  85.5709351  90.7605072
   5.0418915  85.7798240  92.2275324   4.4576709  99.2427266  80.2161216
   5.3907382  99.1772827  80.4194091   4.3699922 100.0783532  79.7575748
   7.0864726  98.5593136  77.1765163   7.0078357  98.2252999  78.0700921
   7.9074392  99.0514904  77.1756636   9.7842917  91.4254875  90.3841482
   9.7519237  90.4870876  90.5701166  10.3943540  91.5038912  89.6507307
   1.6226248  90.2950928  76.4268686   2.5685352  90.1657136  76.4957104
   1.2440493  89.5565590  76.9038114   9.9337405  88.2165919  90.4299765
   9.4176454  87.4324375  90.2429694  10.8177354  87.8884635  90.5946285
   7.5948132  81.9606934  86.3895578   7.3972953  81.6522022  87.2738910
   8.2047838  82.6868573  86.5193508  15.6019467  92.4870882  89.5247519
  16.3322855  92.2256170  90.0855222  14.9926412  91.7499604  89.5649587
  13.6834764  90.6278745  90.1221970  12.9567927  90.4934710  89.5138462
  13.2682051  90.9355573  90.9278688   1.4231231  82.7637794  82.5167813
   0.6131959  82.4184879  82.8923059   2.1115647  82.4545338  83.1055424
   3.3521779  81.8415841  84.1392109   3.9052817  82.2611295  84.7982132
   3.5891865  80.9151589  84.1815065   6.7300586  83.9516366  83.6470773
   6.1499255  84.6101170  83.2648826   6.4636519  83.1293711  83.2358191
   5.1804152  83.3521424  85.8492094   5.6803931  83.4637958  85.0406413
   5.8239760  83.0482477  86.4892902   5.5125464  86.1116457  82.7027122
   4.6251319  86.3966107  82.4847316   5.9279453  85.9510220  81.8554399
   8.8640000  86.1362978  86.4181461   9.6400390  86.6259430  86.6906078
   8.1388134  86.5621032  86.8753330  11.3012559  86.8490597  87.4755402
  11.8957049  86.6086333  86.7648710  11.3739142  86.1297727  88.1028938
   4.6568677  95.8761131  76.7975142   5.3604527  96.0811134  77.4132797
   3.9331326  96.4437893  77.0624225   5.4866488  91.6270993  82.9177412
   5.4301689  92.0839544  82.0785044   6.0394830  90.8661677  82.7400255
   9.2971294  87.4160724  83.7427531   9.0408228  87.0157360  84.5735739
   8.6724162  88.1304518  83.6177671  13.6083631  90.1556798  86.2498823
  13.0483189  90.2249987  87.0230385  13.0027135  89.9797782  85.5298319
   6.5655375  96.3143660  78.8473602   7.4000979  95.8824859  78.6651077
   6.4039718  96.1425674  79.7750496   6.2201267  92.8175774  80.2129941
   6.1650071  92.6520045  79.2718385   5.5947322  93.5251807  80.3692131
   3.3449512  78.9126659  84.0461196   2.5781908  78.3585146  84.1917879
   3.7560217  78.9848528  84.9075348  15.1939650 106.8313312  88.9428779
  15.8318060 106.7120059  88.2392119  15.0760493 107.7794156  89.0016731
  12.0029356 106.7840740  88.8790303  11.6647868 106.6681804  87.9910838
  12.8719124 106.3831905  88.8591309   9.7037636 105.5528987  78.2107243
   9.9563156 105.0310508  77.4490706   8.7662195 105.3895133  78.3133927
  14.7480918 104.5564765  86.0181987  15.5344008 104.1384189  85.6672404
  15.0119623 105.4610858  86.1863635  20.1489345 104.4939999  86.9214965
  20.8814517 103.9239215  87.1552795  19.3928701 104.1061599  87.3621471
  11.7665465 106.9167240  84.1178308  11.4023672 106.3897861  84.8291229
  12.6232581 106.5265709  83.9444793  17.6714766  98.2061573  91.3809574
  17.3398091  99.0756984  91.1570789  17.0760379  97.8897857  92.0603604
  11.4070952 101.9457140  79.1139656  11.5745355 102.8137376  79.4810127
  11.2168121 102.1084422  78.1900945  17.5643429 102.9256659  88.4602924
  16.6560306 102.8572067  88.1661685  17.5131025 103.4028604  89.2884749
  11.3860173 104.4014797  80.0986323  11.2659798 104.8471848  80.9371803
  10.6912761 104.7500115  79.5399861  19.4305076 101.1273097  90.2380798
  18.7879456 101.4205630  89.5920592  18.9260004 101.0126018  91.0433994
  17.0845239 104.8736271  80.9266657  17.9963095 105.1063657  80.7514354
  16.5754886 105.4573315  80.3641736  11.7217077 104.2333505  91.9361506
  12.5678272 104.6572919  92.0796155  11.6615715 103.5767129  92.6300070
  14.8716522 101.8937873  93.5942680  14.6277454 102.6479934  93.0576956
  15.1476453 102.2723221  94.4289927  16.8254985 108.4376486  92.2719946
  17.0371880 109.0808246  91.5954327  16.7784733 107.6038802  91.8041876
  14.4281214 101.0494306  89.1756518  13.5665693 101.3475560  89.4673255
  14.4543649 101.2664705  88.2437550  10.1811669 105.7159649  82.3919889
  10.8835713 106.1680693  82.8593815   9.8492298 105.0743468  83.0199782
   3.9237003 103.9743202  87.6937022   3.1336057 104.2300731  87.2177133
   4.4148251 104.7891540  87.7989063   5.8751749 104.3387781  84.6520499
   5.0782912 104.4506476  85.1703995   5.6477341 104.6774434  83.7861389
  26.0306806 107.6587190  86.7927274  25.2770514 107.0894588  86.6371279
  26.1654347 107.6249854  87.7397909  14.7697898  96.0531154  90.9980887
  14.4262167  96.9432796  90.9219998  15.1376860  95.8632812  90.1350472
  14.7348180 106.0439765  79.5053322  14.2194804 106.8144370  79.7441710
  14.4625489 105.3704901  80.1286384  12.3195291 100.8889466  84.5638561
  11.4636888 100.4996316  84.3844199  12.7322243 100.9681427  83.7038346
  13.8494438  98.4235809  88.9630121  13.3459234  98.3865944  88.1497926
  14.1425045  99.3328552  89.0226777  10.0937324  98.5074539  87.9696302
  10.9590321  98.3117348  87.6102192  10.1614833  98.2784891  88.8965659
  19.7082455 108.7972120  81.4406496  18.9311897 108.4583279  80.9961658
  20.3873935 108.8024743  80.7661461  14.5234484 103.9166857  81.3313104
  14.2184619 104.2313006  82.1823247  15.4764926 103.9948277  81.3740437
  17.9473761 108.2706101  88.0973104  17.2897436 108.9605362  88.1853232
  18.7514161 108.6602533  88.4407090   7.6999643 100.7376747  85.3412669
   8.2743395 100.5151928  84.6085862   8.2870625 100.8065441  86.0941270
  16.7579220 106.6250474  86.1477046  17.2711102 107.2580465  86.6498755
  17.4080444 106.0251669  85.7820406   8.0269230 102.7681208  79.3608554
   7.1906542 103.1055894  79.6817829   7.8874000 102.6330188  78.4235691
  10.0022311  97.6117996  84.0687739   9.3486723  97.2967013  83.4444353
   9.9602785  96.9893736  84.7947561  13.2360051 104.0999929  88.3935386
  12.3182612 104.3214876  88.2357074  13.6520195 104.1746240  87.5347093
  14.0195099 105.4991345  83.5238066  14.7666918 106.0112742  83.2145188
  14.2886688 105.1775398  84.3842460  16.4673936 102.5348461  85.5056856
  15.7296693 102.0225847  85.8367098  16.7200710 102.0948843  84.6940133
  16.5685563  95.3124713  86.0998625  16.8744440  94.4522077  85.8124540
  17.2938168  95.9042333  85.8997619  10.8406643 105.6078506  86.6074816
  10.8955253 104.6552343  86.5317293  10.0297845 105.7637945  87.0916114
   8.7799003 104.2255566  84.3665195   7.9666869 104.5249736  84.7730387
   9.2757997 103.8311255  85.0839677  14.3773215 104.6897390  93.1980089
  14.7322602 104.9168864  94.0574555  15.0245346 105.0215767  92.5757344
  20.1070952 107.8115826  83.9029418  19.9688850 108.0017422  82.9750607
  19.7507170 108.5735209  84.3597469   8.2713078 101.7973921  89.9826430
   8.9112457 101.6562681  89.2849393   7.4390608 101.5108435  89.6065032
  20.1340331 109.8792353  88.9140689  20.5676838 109.7867642  89.7623743
  20.8471912 109.8549854  88.2760705   5.3556145 105.2419434  82.1721175
   4.4253733 105.1803889  82.3891137   5.4513617 104.7195386  81.3757816
   5.2741694 101.7674246  84.7599417   5.5348511 102.6819580  84.6508577
   6.0958866 101.2998689  84.9096029  20.9955881 109.9216054  91.4473575
  21.1891771 110.8261864  91.6932850  20.8956499 109.4623473  92.2812160
  12.6492191  99.8073945  93.9463902  12.0020107 100.5063894  93.8528378
  13.4193207 100.2410088  94.3140150  12.8256326 107.6454709  92.0060722
  13.7548386 107.7965869  91.8329689  12.4047356 107.7338730  91.1509368
  16.1109064 108.3943011  77.4385157  15.4938235 107.6689839  77.3418210
  15.6425553 109.1552371  77.0952231   7.9007610 102.6128435  76.5606461
   7.0237077 102.4917236  76.1968708   8.3765363 101.8214514  76.3085350
  14.3968186 100.7749355  86.4503187  14.8936886 100.0219317  86.1304257
  13.6255168 100.8113672  85.8846396  22.2497944 106.4789721  88.0921479
  22.2387820 107.3614436  87.7215412  21.3815323 106.1261271  87.8976016
  10.9803155 102.9166738  86.1774872  10.6100943 102.3637778  86.8655777
  11.4762248 102.3124872  85.6249872  18.8670519 105.3738362  84.5591645
  19.3330971 106.2066353  84.4851947  19.3178019 104.9083343  85.2636903
  16.8387181  97.7418949  88.5982546  15.9250261  97.9723175  88.7664753
  17.2680283  97.8257393  89.4496578  16.6093640 105.9308840  91.0982440
  15.9565090 106.1784748  90.4434893  16.9874020 105.1172979  90.7644917
   6.3768489 100.3270729  92.4227978   6.4409815 101.1885560  92.0105375
   6.3135609  99.7144730  91.6900336   2.6286304 104.2070290  82.0019367
   2.9239745 103.2980969  81.9486420   1.7274340 104.1858030  81.6800369
   6.1580551 102.2826287  87.9846915   5.4367137 102.8962255  87.8454389
   6.9473807 102.8184052  87.9063561   8.9606865  99.6180714  94.2587567
   9.4841267  99.8643010  95.0213876   8.7419198 100.4500748  93.8390704
   4.3574146 101.8884388  82.1258692   4.0286852 101.0081767  81.9433798
   4.7113516 101.8332057  83.0135081   7.4715969 102.1757358  82.4934170
   7.8112041 102.7043279  81.7712778   7.9188089 102.5137764  83.2692736
  10.1659410 100.5594409  91.9437238   9.8256230  99.7602222  92.3457918
   9.4598416 100.8596119  91.3714071  10.8175882  97.6443721  90.3964561
  11.6401951  97.1704199  90.2743451  11.0613945  98.4234205  90.8963247
   9.4584116 100.6731980  80.6927462  10.1792479 101.0513232  80.1891179
   8.8349420 101.3920856  80.7962440  13.6015239 101.3777128  81.6285795
  13.8178853 102.2601766  81.3274623  13.1209306 100.9863342  80.8991437
   8.3414460 104.3362842  88.2056539   8.1959041 104.6503145  89.0980821
   7.8639664 104.9547742  87.6527438  10.2010843 101.3265390  88.2537429
  10.1872412 100.4306483  87.9169727  10.9183271 101.3336053  88.8875715
  12.0536974 101.7602730  90.2990556  11.7954752 102.6819801  90.2974887
  11.5222014 101.3633164  90.9891020   9.6047739 100.2079770  83.5224999
   9.7263650  99.2796416  83.7215887   9.3149782 100.2218456  82.6103314
  12.4738930  97.8934680  86.6591719  12.4960626  97.9574013  85.7043698
  12.8906989  97.0539189  86.8532225  22.8522554 107.6289940  84.6970941
  23.2953700 106.8797265  84.2990065  21.9749064 107.6200076  84.3144673
  19.6941539 109.1145357  94.3248797  19.7439544 108.9495364  95.2664320
  19.5855463 108.2472616  93.9346678  16.9845302 105.0976285  95.6408104
  17.8855165 104.9582750  95.3492102  17.0593276 105.2630740  96.5806281
  11.3188107 102.4743140  94.4861290  10.4491417 102.7676706  94.2143879
  11.5547587 103.0583585  95.2068554  22.3955419 109.0995178  87.0893389
  23.2302310 109.5384982  87.2530949  22.5314547 108.6233831  86.2701635
  19.4446924 106.6574913  93.0370877  19.9201046 106.8502559  92.2289728
  18.5212490 106.7134099  92.7914260  14.0227141  98.6922757  92.0026711
  14.5409085  99.4283784  91.6773199  13.6682274  98.9986750  92.8373470
   5.6026079 103.5527438  80.1188117   4.9095324 103.6271793  79.4628152
   5.3577831 102.7887781  80.6409633  14.2739735  95.1123039  87.5227607
  14.5541489  94.4446228  88.1488034  15.0590342  95.3052135  87.0102271
  18.1448593 103.5340673  91.2699182  19.0966016 103.6338771  91.2911406
  17.9752044 102.7418942  91.7797267  16.1662973 100.6196256  91.4558583
  15.5712905 100.9001269  90.7605072  15.8812670 101.1090157  92.2275324
  20.6236671 106.7546793  90.3841482  20.5912991 105.8162794  90.5701166
  21.2337295 106.8330830  89.6507307  12.4620002 105.6242846  76.4268686
  13.4079107 105.4949054  76.4957104  12.0834247 104.8857508  76.9038114
  20.7731160 103.5457836  90.4299765  20.2570208 102.7616293  90.2429694
  21.6571108 103.2176553  90.5946285  18.4341887  97.2898852  86.3895578
  18.2366708  96.9813940  87.2738910  19.0441592  98.0160491  86.5193508
  26.4413221 107.8162800  89.5247519  27.1716610 107.5548088  90.0855222
  25.8320167 107.0791522  89.5649587  24.5228518 105.9570662  90.1221970
  23.7961682 105.8226627  89.5138462  24.1075805 106.2647491  90.9278688
  10.6462919 103.5492822  76.3623571   9.7394375 103.2525935  76.4386285
  10.9238900 103.2522640  75.4957858  12.2624985  98.0929712  82.5167813
  11.4525713  97.7476797  82.8923059  12.9509402  97.7837256  83.1055424
  14.1915533  97.1707759  84.1392109  14.7446572  97.5903212  84.7982132
  14.4285620  96.2443507  84.1815065   9.4161704 100.4079757  76.5035550
  10.2780868 100.7334656  76.7631368   9.6012048  99.6211253  75.9908616
  17.5694340  99.2808284  83.6470773  16.9893009  99.9393088  83.2648826
  17.3030273  98.4585629  83.2358191  16.0197907  98.6813342  85.8492094
  16.5197685  98.7929876  85.0406413  16.6633515  98.3774394  86.4892902
  16.3519218 101.4408374  82.7027122  15.4645073 101.7258025  82.4847316
  16.7673207 101.2802138  81.8554399  19.7033755 101.4654895  86.4181461
  20.4794145 101.9551348  86.6906078  18.9781889 101.8912949  86.8753330
  22.1406313 102.1782515  87.4755402  22.7350804 101.9378250  86.7648710
  22.2132897 101.4589645  88.1028938  16.3260242 106.9562910  82.9177412
  16.2695444 107.4131462  82.0785044  16.8788585 106.1953595  82.7400255
  20.1365048 102.7452642  83.7427531  19.8801982 102.3449278  84.5735739
  19.5117916 103.4596436  83.6177671  24.4477386 105.4848715  86.2498823
  23.8876944 105.5541905  87.0230385  23.8420889 105.3089700  85.5298319
  17.0595021 108.1467691  80.2129941  17.0043825 107.9811963  79.2718385
  16.4341077 108.8543724  80.3692131  10.3691147  97.6475800  79.7915259
  10.3569817  98.5917640  79.9483530  11.2614569  97.4645946  79.4974721
  14.1843266  94.2418577  84.0461196  13.4175662  93.6877064  84.1917879
  14.5953971  94.3140446  84.9075348  25.6091652 111.3823072  90.9980887
  25.2655922 112.2724713  90.9219998  25.9770615 111.1924729  90.1350472
  27.4079318 110.6416631  86.0998625  27.7138195 109.7813994  85.8124540
  28.1331923 111.2334251  85.8997619  25.1133490 110.4414957  87.5227607
  25.3935243 109.7738146  88.1488034  25.8984097 110.6344052  87.0102271
  29.2735641 112.6190770  86.3895578  29.0760462 112.3105858  87.2738910
  29.8835347 113.3452408  86.5193508  25.0237021 109.5710495  84.0461196
  24.2569417 109.0168982  84.1917879  25.4347726 109.6432364  84.9075348
   4.3519298  54.0065477  73.5172581   3.5983007  53.4372875  73.3616586
   4.4866840  53.9728142  74.4643216   0.7167911  55.4473466  73.8138696
   1.5514802  55.8863270  73.9776256   0.8527040  54.9712119  72.9946941
   4.7625713  54.1641087  76.2492825   5.4929102  53.9026375  76.8100529
   4.1532659  53.4269809  76.2894893   2.8441011  52.3048950  76.8467277
   2.1174174  52.1704914  76.2383768   2.4288297  52.6125778  77.6523995
   0.4618805  48.5260802  74.2000708   1.0563296  48.2856538  73.4894016
   0.5345389  47.8067932  74.8274245   2.7689878  51.8327003  72.9744129
   2.2089436  51.9020192  73.7475691   2.1633382  51.6567987  72.2543626
   4.3545897  68.5083517  75.6674085   4.9924307  68.3890264  74.9637425
   4.2366740  69.4564360  75.7262037   1.1635603  68.4610945  75.6035610
   0.8254114  68.3452009  74.7156145   2.0325371  68.0602110  75.5836616
   1.6455386  69.6145796  81.5621815   1.6344027  69.2198595  80.6902319
   1.8076025  68.8811869  82.1555587   2.6021977  73.9817389  66.9046966
   1.9509957  74.5671469  66.5180979   3.3966340  74.5123584  66.9642003
   3.9087165  66.2334970  72.7427293   4.6950254  65.8154394  72.3917710
   4.1725869  67.1381063  72.9108942   4.0797242  71.6707821  67.4415950
   3.4443075  71.7442447  68.1536855   3.7494649  72.2601420  66.7635029
   9.3095592  66.1710204  73.6460272  10.0420764  65.6009420  73.8798101
   8.5534948  65.7831804  74.0866777   0.9271712  68.5937445  70.8423614
   0.5629919  68.0668066  71.5536536   1.7838828  68.2035914  70.6690100
   6.8321013  59.8831778  78.1054880   6.5004337  60.7527189  77.8816095
   6.2366626  59.5668062  78.7848911   3.3252532  72.0844324  77.5050793
   3.0253255  72.9869362  77.3966600   2.9803592  71.8176507  78.3571946
   6.7249676  64.6026864  75.1848230   5.8166553  64.5342272  74.8906991
   6.6737272  65.0798809  76.0130056   8.5911322  62.8043302  76.9626104
   7.9485703  63.0975835  76.3165899   8.0866251  62.6896223  77.7679301
   6.2451486  66.5506475  67.6511964   7.1569342  66.7833862  67.4759661
   5.7361133  67.1343520  67.0887042   4.5292254  70.9731103  81.2873256
   4.9375610  70.5313514  80.5427888   3.8069515  70.3983731  81.5407449
   0.8823324  65.9103710  78.6606813   1.7284519  66.3343124  78.8041462
   0.8221961  65.2537334  79.3545376   4.8521068  71.5332294  75.0425545
   4.2229931  71.6978008  74.3401613   4.4646730  71.9473903  75.8136509
   8.7310300  72.4686732  72.3969909   8.0461338  72.8485633  71.8466942
   8.8154150  73.0782058  73.1301857   4.0322769  63.5708078  80.3187987
   3.7883701  64.3250139  79.7822262   4.3082700  63.9493426  81.1535234
   5.9861232  70.1146691  78.9965252   6.1978127  70.7578451  78.3199633
   5.9390980  69.2809007  78.5287182   3.5887461  62.7264511  75.9001824
   2.7271940  63.0245765  76.1918562   3.6149895  62.9434910  74.9682857
   7.1007060  72.9918646  77.1687610   7.9224503  72.5898833  76.8870291
   7.0969463  72.8886880  78.1203725  15.1913053  69.3357395  73.5172581
  14.4376761  68.7664793  73.3616586  15.3260594  69.3020059  74.4643216
   0.5811681  74.2070797  69.1927300   0.4457356  75.0522333  69.6212148
   1.1221493  74.4090075  68.4293234   2.2080157  74.8294363  83.3227643
   1.7644011  74.0430742  83.0048547   2.8697371  75.0173514  82.6571533
   4.3061395  75.1097163  81.3509044   4.2879871  75.9306044  80.8589313
   5.2281315  74.9851239  81.5759185   3.9304144  57.7301359  77.7226194
   3.5868414  58.6203001  77.6465305   4.2983107  57.5403017  76.8595779
   3.8954427  67.7209970  66.2298629   3.3801051  68.4914575  66.4687016
   3.6231736  67.0475106  66.8531690   1.4801538  62.5659671  71.2883867
   0.6243135  62.1766521  71.1089506   1.8928490  62.6451632  70.4283653
   3.0100685  60.1006014  75.6875427   2.5065480  60.0636149  74.8743232
   3.3031292  61.0098757  75.7472084   8.8688701  70.4742325  68.1651803
   8.0918144  70.1353484  67.7206965   9.5480182  70.4794948  67.4906768
   3.6840730  65.5937062  68.0558410   3.3790866  65.9083211  68.9068553
   4.6371172  65.6718482  68.0985743   2.1287162  71.7527285  69.7051364
   1.6008524  71.0180045  69.3924602   1.6274665  72.5301962  69.4591333
   7.1080008  69.9476306  74.8218411   6.4503683  70.6375567  74.9098539
   7.9120407  70.3372738  75.1652397   5.9185467  68.3020679  72.8722352
   6.4317349  68.9350670  73.3744062   6.5686691  67.7021874  72.5065712
   3.1807841  78.2805003  65.6283023   2.5069540  78.5836700  66.2367981
   3.5673663  79.0834083  65.2788480   2.3966298  65.7770134  75.1180693
   1.4788859  65.9985081  74.9602381   2.8126441  65.8516445  74.2592400
   3.1801346  67.1761550  70.2483373   3.9273165  67.6882947  69.9390495
   3.4492935  66.8545603  71.1087767   1.4527996  69.6720091  67.2310327
   0.5439215  69.3879123  67.3282797   1.4823080  70.0919169  66.3713634
   6.6847263  73.2826680  71.0001495   6.2309590  72.4417590  71.0566685
   6.0541230  73.9188078  71.3376275   5.6280183  64.2118666  72.2302162
   4.8902940  63.6996052  72.5612405   5.8806956  63.7719048  71.4185439
   5.1280202  75.1203177  71.9351313   5.4203177  75.6808234  71.2163679
   5.6378823  75.4131738  72.6904472   5.7291810  56.9894918  72.8243932
   6.0350687  56.1292281  72.5369847   6.4544415  57.5812538  72.6242926
   1.1504084  71.2128834  64.5698406   0.7123514  70.4964693  64.1104043
   1.8914524  71.4404949  64.0083497   3.5379461  66.3667595  79.9225395
   3.8928849  66.5939068  80.7819861   4.1851593  66.6985972  79.3002651
   9.2677198  69.4886031  70.6274724   9.1295097  69.6787627  69.6995914
   8.9113417  70.2505414  71.0842776   9.2946578  71.5562558  75.6385996
   9.7283085  71.4637847  76.4869050  10.0078159  71.5320059  75.0006012
   3.0274473  75.1564652  77.1719097   3.0811495  75.7255589  77.9396812
   2.1589254  75.3266537  76.8073134  10.1562128  71.5986259  78.1718881
  10.3498018  72.5032069  78.4178156  10.0562746  71.1393678  79.0057466
   1.8098438  61.4844149  80.6709209   1.1626353  62.1834099  80.5773685
   2.5799454  61.9180293  81.0385457   5.2177236  71.7493002  83.7459762
   5.0662743  71.5203553  82.8289846   5.2081916  72.7063603  83.7591107
   1.9862573  69.3224914  78.7306028   2.9154633  69.4736074  78.5574996
   1.5653603  69.4108935  77.8754675   1.3799056  78.4484675  67.8430103
   1.5550812  77.9772718  68.6575725   0.6931844  79.0750441  68.0711363
   2.3356120  72.7257181  73.8893404   2.0005952  72.6857951  74.7851054
   1.8360065  72.0601897  73.4163814   5.2715311  70.0713216  64.1630463
   4.6544482  69.3460044  64.0663516   4.8031800  70.8322576  63.8197538
   6.9269443  74.7812124  81.8236244   6.8681989  74.0971344  81.1566827
   7.3288961  75.5231114  81.3716870   6.9286850  72.7451708  80.0550224
   6.0413629  72.4077630  80.1776622   7.4985401  72.0134739  80.2918989
   3.5574433  62.4519560  73.1748494   4.0543133  61.6989522  72.8549564
   2.7861415  62.4883877  72.6091703  11.4104191  68.1559925  74.8166785
  11.3994067  69.0384641  74.4460718  10.5421570  67.8031476  74.6221322
   2.9186687  77.3039994  79.1769625   3.6314659  77.9387459  79.1045527
   2.4276716  77.4003860  78.3609627   4.6404214  71.2091247  70.7486917
   3.7060493  71.3292710  70.5791621   4.8180882  70.3063714  70.4846927
   8.0276765  67.0508566  71.2836951   8.4937217  67.8836558  71.2097254
   8.4784266  66.5853548  71.9882210   6.0952996  73.3952388  68.2823103
   6.3712840  73.2808982  69.1916977   5.2257495  72.9969873  68.2435276
   5.9993428  59.4189153  75.3227853   5.0856508  59.6493380  75.4910059
   6.4286530  59.5027598  76.1741885   5.7699887  67.6079045  77.8227747
   5.1171337  67.8554953  77.1680199   6.1480266  66.7943184  77.4890224
   2.7307060  77.6438739  71.9255917   2.9129455  76.8260395  72.3883669
   3.5540046  77.8606431  71.4880807   3.0649226  76.5706924  69.1870965
   3.5936992  76.0599378  68.5741127   3.3277445  76.2549454  70.0516498
   1.8187460  68.3498856  84.3093784   1.1428097  68.2492986  84.9796159
   2.6415093  68.1938070  84.7729781   0.5610242  79.6565784  78.5451400
   1.1128550  79.8197405  79.3100485   0.9016436  80.2470222  77.8731424
   5.4121117  74.4827041  84.4000054   5.9561021  75.0957000  83.9055009
   4.8307962  75.0406620  84.9167067   3.6978630  77.6047759  75.5315082
   3.5729769  76.8037499  75.0226027   4.3557721  78.0993953  75.0429052
   5.7613538  75.4056780  77.1594632   4.8143874  75.2862131  77.0872959
   6.1096311  74.5179278  77.2420893   2.7659971  75.2009496  73.3598984
   2.6184934  74.2726203  73.5406554   3.5913465  75.2229586  72.8756059
   6.3694093  76.0238054  74.4463857   7.2940641  75.8180916  74.3088308
   6.2009397  75.7754456  75.3553198   2.7621486  63.0547333  68.3531101
   2.9785100  63.9371971  68.0519930   2.2815553  62.6633547  67.6236743
   1.2143221  63.4372935  77.0235863   0.9560999  64.3590005  77.0220193
   0.6828261  63.0403369  77.7136327   6.1589409  76.5423722  69.8025948
   6.3326287  75.9770144  69.0499801   6.6518301  77.3424617  69.6205438
   1.6345176  59.5704885  73.3837025   1.6566873  59.6344218  72.4289005
   2.0513235  58.7309394  73.5777532  12.0128801  69.3060145  71.4216248
  12.4559947  68.5567470  71.0235371  11.1355311  69.2970281  71.0389980
   7.1464582  75.8590486  66.9022847   7.8415487  76.4797179  67.1210161
   7.4887732  75.0085838  67.1775224   9.0456005  73.3090192  68.4310177
   9.5707329  73.6477465  67.7059497   8.9578358  72.3737207  68.2473312
   0.7076054  77.2224266  80.5600054   1.0163180  76.9773412  81.4322754
   1.5051536  77.4270904  80.0718924   8.7349911  73.9423096  83.7361375
   7.9445455  73.9247234  83.1965875   8.4983266  74.4811389  84.4910412
   8.8547786  70.7915562  81.0494104   8.9045791  70.6265569  81.9909627
   8.7461710  69.9242821  80.6591985   6.1451549  66.7746490  82.3653411
   7.0461411  66.6352955  82.0737408   6.2199523  66.9400945  83.3051588
  10.3565983  73.2112503  81.2936125  10.0650791  73.5742484  82.1299586
   9.7438114  72.4979512  81.1149457  11.5561665  70.7765383  73.8138696
  12.3908557  71.2155187  73.9776256  11.6920794  70.3004036  72.9946941
   8.6053171  68.3345118  79.7616183   9.0807293  68.5272764  78.9535035
   7.6818737  68.3904304  79.5159567   3.1833388  60.3692962  78.7272017
   3.7015332  61.1053989  78.4018506   2.8288521  60.6756955  79.5618776
   3.4345982  56.7893244  74.2472914   3.7147736  56.1216433  74.8733340
   4.2196589  56.9822340  73.7347578   1.2379450  75.9652238  65.8097940
   0.6653417  76.5842425  65.3568412   1.8112244  76.5151600  66.3437862
   7.3054840  65.2110878  77.9944489   8.2572263  65.3108976  78.0156713
   7.1358291  64.4189147  78.5042573   5.3269220  62.2966461  78.1803890
   4.7319152  62.5771474  77.4850379   5.0418916  62.7860362  78.9520631
   4.4576710  76.2489388  66.9406522   5.3907383  76.1834950  67.1439398
   4.3699923  77.0845655  66.4821055   7.0864727  75.5655258  63.9010470
   7.0078358  75.2315122  64.7946228   7.9074394  76.0577026  63.9001942
   9.7842918  68.4316998  77.1086789   9.7519238  67.4932999  77.2946472
  10.3943542  68.5101035  76.3752614   1.6226249  67.3013051  63.1513993
   2.5685354  67.1719259  63.2202411   1.2440494  66.5627713  63.6283421
   9.9337407  65.2228041  77.1545072   9.4176455  64.4386498  76.9675001
  10.8177355  64.8946758  77.3191591   7.5948133  58.9669057  73.1140884
   7.3972955  58.6584145  73.9984216   8.2047839  59.6930696  73.2438814
  15.6019468  69.4933005  76.2492825  16.3322856  69.2318293  76.8100529
  14.9926413  68.7561727  76.2894893  13.6834765  67.6340867  76.8467277
  12.9567929  67.4996832  76.2383768  13.2682052  67.9417696  77.6523995
   1.5064941  71.3530797  84.6114650   2.4267951  71.5309396  84.8054696
   1.4714524  70.4086842  84.4594349   1.4231232  59.7699917  69.2413119
   0.6131960  59.4247002  69.6168365   2.1115649  59.4607461  69.8300731
   3.3521780  58.8477964  70.8637416   3.9052819  59.2673417  71.5227439
   3.5891866  57.9213712  70.9060372   6.7300587  60.9578489  70.3716080
   6.1499256  61.6163293  69.9894133   6.4636520  60.1355833  69.9603498
   5.1804154  60.3583547  72.5737400   5.6803932  60.4700081  71.7651719
   5.8239761  60.0544599  73.2138209   5.5125465  63.1178579  69.4272428
   4.6251320  63.4028230  69.2092623   5.9279454  62.9572343  68.5799705
   8.8640001  63.1425100  73.1426768   9.6400391  63.6321553  73.4151384
   8.1388135  63.5683154  73.5998637  11.3012560  63.8552719  74.2000708
  11.8957051  63.6148455  73.4894016  11.3739144  63.1359850  74.8274245
   4.6568679  72.8823254  63.5220448   5.3604529  73.0873256  64.1378104
   3.9331327  73.4500016  63.7869532   5.4866489  68.6333115  69.6422719
   5.4301690  69.0901667  68.8030351   6.0394831  67.8723800  69.4645561
   9.2971295  64.4222847  70.4672838   9.0408229  64.0219483  71.2981046
   8.6724163  65.1366641  70.3422977  13.6083633  67.1618920  72.9744129
  13.0483191  67.2312110  73.7475691  13.0027136  66.9859905  72.2543626
   6.5655376  73.3205783  65.5718908   7.4000980  72.8886982  65.3896383
   6.4039719  73.1487797  66.4995803   6.2201268  69.8237896  66.9375248
   6.1650072  69.6582168  65.9963692   5.5947323  70.5313929  67.0937437
   3.5347175  72.1286808  86.2628810   4.4038335  72.3027461  85.9015445
   3.0553927  72.9481225  86.1404540   3.3449513  55.9188782  70.7706503
   2.5781909  55.3647269  70.9163185   3.7560218  55.9910651  71.6320655
  15.1939651  83.8375434  75.6674085  15.8318061  83.7182182  74.9637425
  15.0760494  84.7856278  75.7262037  12.0029357  83.7902862  75.6035610
  11.6647869  83.6743927  74.7156145  12.8719126  83.3894027  75.5836616
   7.8616173  85.6438339  71.5932501   7.2981038  85.5528276  70.8248789
   7.7468568  84.8238243  72.0734993  12.4849140  84.9437714  81.5621815
  12.4737781  84.5490512  80.6902319  12.6469780  84.2103787  82.1555587
   5.4080605  87.1389530  74.4316721   6.2001897  86.7980355  74.0163021
   5.6477255  87.2484505  75.3518875  13.4415732  89.3109306  66.9046966
  12.7903712  89.8963387  66.5180979  14.2360095  89.8415501  66.9642003
   7.3671359  86.3998444  67.3034100   8.1402235  85.8527431  67.1646976
   7.7196758  87.2642693  67.5148561   9.2056402  87.7274826  80.5100999
   8.9146268  88.6320457  80.3947666   9.8413386  87.7691353  81.2245069
  10.1312608  85.1051674  77.1002359  10.7276181  84.8807697  76.3859322
  10.1887580  84.3636420  77.7027807   9.7037637  82.5591110  64.9352550
   9.9563157  82.0372631  64.1736013   8.7662196  82.3957255  65.0379234
  14.7480920  81.5626888  72.7427293  15.5344009  81.1446311  72.3917710
  15.0119624  82.4672980  72.9108942  14.9190997  86.9999738  67.4415950
  14.2836830  87.0734365  68.1536855  14.5888403  87.5893337  66.7635029
  20.1489347  81.5002121  73.6460272  20.8814519  80.9301338  73.8798101
  19.3928702  81.1123722  74.0866777   9.4233926  84.4619216  67.1376925
   9.3070184  83.7864119  67.8058009   9.5336185  83.9751590  66.3209078
  11.7665466  83.9229363  70.8423614  11.4023674  83.3959984  71.5536536
  12.6232582  83.5327832  70.6690100  17.6714767  75.2123695  78.1054880
  17.3398092  76.0819106  77.8816095  17.0760380  74.8959979  78.7848911
  11.4070953  78.9519262  65.8384963  11.5745356  79.8199499  66.2055434
  11.2168123  79.1146544  64.9146252  14.1646287  87.4136241  77.5050793
  13.8647010  88.3161280  77.3966600  13.8197346  87.1468425  78.3571946
   7.6158768  83.8650038  73.5387497   6.6909265  83.7326252  73.7465189
   7.8643181  84.6444257  74.0357440  17.5643430  79.9318782  75.1848230
  16.6560308  79.8634190  74.8906991  17.5131026  80.4090726  76.0130056
  11.3860174  81.4076920  66.8231629  11.2659800  81.8533971  67.6617110
  10.6912763  81.7562238  66.2645168   4.9767579  83.5083312  74.3731287
   5.1059960  83.7617791  75.2870698   4.2965030  84.1011020  74.0535942
   9.1467066  94.1780562  70.4721761   9.0691096  95.1288387  70.5510241
   8.5428710  93.8326434  71.1296687  11.6384296  81.3508427  83.1283128
  10.8617630  81.9102347  83.1185992  12.2774859  81.8365210  83.6497998
  19.4305077  78.1335220  76.9626104  18.7879457  78.4267753  76.3165899
  18.9260005  78.0188140  77.7679301  17.0845240  81.8798393  67.6511964
  17.9963097  82.1125780  67.4759661  16.5754888  82.4635437  67.0887042
   9.8930669  84.1593880  82.6901095  10.6345353  84.6978924  82.4135918
   9.1867654  84.7860169  82.8472646  15.3686008  86.3023021  81.2873256
  15.7769364  85.8605431  80.5427888  14.6463270  85.7275648  81.5407449
  11.7217078  81.2395628  78.6606813  12.5678273  81.6635041  78.8041462
  11.6615716  80.5829252  79.3545376  15.6914823  86.8624212  75.0425545
  15.0623685  87.0269926  74.3401613  15.3040485  87.2765821  75.8136509
  19.5704055  87.7978649  72.3969909  18.8855093  88.1777551  71.8466942
  19.6547904  88.4073976  73.1301857  14.8716524  78.8999996  80.3187987
  14.6277455  79.6542057  79.7822262  15.1476454  79.2785344  81.1535234
  16.8254986  85.4438608  78.9965252  17.0371882  86.0870368  78.3199633
  16.7784735  84.6100925  78.5287182  14.4281215  78.0556429  75.9001824
  13.5665694  78.3537683  76.1918562  14.4543650  78.2726828  74.9682857
  11.2442785  86.5998620  72.3075630  11.7081130  86.8786323  71.5180253
  10.9799583  85.6982064  72.1248721   8.1366866  86.1470101  75.2455393
   8.7068223  86.5757370  74.6072878   8.7274978  85.8652686  75.9439579
  10.1811671  82.7221772  69.1165195  10.8835714  83.1742816  69.5839122
   9.8492299  82.0805591  69.7445088   8.6292032  81.3133529  83.4916405
   7.9990693  81.9949810  83.7251801   8.5228120  81.2016610  82.5469543
   3.9237005  80.9805325  74.4182329   3.1336059  81.2362853  73.9422439
   4.4148252  81.7953663  74.5234369  17.9400814  88.3210564  77.1687610
  18.7618258  87.9190751  76.8870291  17.9363217  88.2178798  78.1203725
   5.8751750  81.3449904  71.3765806   5.0782913  81.4568598  71.8949301
   5.6477342  81.6836556  70.5106696  11.7057418  87.8694607  79.3248320
  11.7701850  88.3315014  80.1606492  10.9968342  87.2391972  79.4530630
   2.2074708  81.2335815  76.8497320   2.4582746  82.1182825  77.1154896
   2.7434256  81.0540417  76.0772411  26.0306807  84.6649312  73.5172581
  25.2770516  84.0956710  73.3616586  26.1654349  84.6311977  74.4643216
  11.4205435  89.5362715  69.1927300  11.2851110  90.3814250  69.6212148
  11.9615248  89.7381992  68.4293234   7.9072775  75.6154295  85.8541656
   7.5139721  75.0620493  86.5289300   8.7238915  75.9264873  86.2448173
   4.8734833  87.0538153  69.7655226   5.3859353  87.8481403  69.9160790
   5.5257546  86.3564443  69.6988827   6.6829717  90.1703909  71.8477979
   6.8596346  91.0921874  71.6598963   7.4786551  89.8562328  72.2772359
  10.8240736  77.0312174  83.4461912  11.5650449  77.6319327  83.3666375
  11.0558659  76.2889811  82.8879955   5.9682074  82.2168541  81.7240142
   5.8535589  81.3153798  82.0247241   5.1126592  82.4632238  81.3724958
  13.0473912  90.1586281  83.3227643  12.6037766  89.3722660  83.0048547
  13.7091125  90.3465432  82.6571533   7.8061033  91.6882083  77.8488321
   8.3568458  91.5599146  77.0765315   6.9672509  91.9876972  77.4983214
  15.1455150  90.4389081  81.3509044  15.1273625  91.2597962  80.8589313
  16.0675070  90.3143156  81.5759185  11.6028204  87.9533211  82.1932552
  12.1356541  87.1921499  81.9631860  11.0742285  87.6606862  82.9356707
  14.7697899  73.0593277  77.7226194  14.4262168  73.9494918  77.6465305
  15.1376862  72.8694934  76.8595779   2.8383750  85.3826807  70.5414796
   3.6758972  85.7923815  70.3248504   3.0162017  84.4426249  70.5114990
  14.7348182  83.0501888  66.2298629  14.2194805  83.8206492  66.4687016
  14.4625490  82.3767024  66.8531690  12.3195293  77.8951588  71.2883867
  11.4636889  77.5058439  71.1089506  12.7322244  77.9743549  70.4283653
  13.8494439  75.4297932  75.6875427  13.3459235  75.3928067  74.8743232
  14.1425046  76.3390674  75.7472084  10.0937325  75.5136661  74.6941609
  10.9590322  75.3179470  74.3347498  10.1614834  75.2847013  75.6210966
  19.7082456  85.8034242  68.1651803  18.9311899  85.4645402  67.7206965
  20.3873937  85.8086865  67.4906768  14.5234485  80.9228980  68.0558410
  14.2184620  81.2375129  68.9068553  15.4764927  81.0010400  68.0985743
  12.9680917  87.0819203  69.7051364  12.4402278  86.3471963  69.3924602
  12.4668419  87.8593879  69.4591333  17.9473763  85.2768224  74.8218411
  17.2897437  85.9667485  74.9098539  18.7514162  85.6664655  75.1652397
   7.6999644  77.7438869  72.0657976   8.2743396  77.5214051  71.3331169
   8.2870627  77.8127564  72.8186577  16.7579221  83.6312596  72.8722352
  17.2711103  84.2642588  73.3744062  17.4080445  83.0313792  72.5065712
   8.0269231  79.7743330  66.0853861   7.1906544  80.1118017  66.4063136
   7.8874001  79.6392310  65.1480998  10.0022312  74.6180118  70.7933045
   9.3486724  74.3029135  70.1689660   9.9602786  73.9955859  71.5192868
  11.1133517  84.8999413  62.7086337  10.2060579  84.6688667  62.9077486
  11.6104549  84.1037033  62.8960319  14.0201596  93.6096921  65.6283023
  13.3463294  93.9128617  66.2367981  14.4067418  94.4126001  65.2788480
  13.2360052  81.1062052  75.1180693  12.3182614  81.3276999  74.9602381
  13.6520196  81.1808362  74.2592400  14.0195100  82.5053467  70.2483373
  14.7666919  83.0174865  69.9390495  14.2886690  82.1837520  71.1087767
  12.2921750  85.0012008  67.2310327  11.3832970  84.7171041  67.3282797
  12.3216834  85.4211087  66.3713634  17.5241018  88.6118598  71.0001495
  17.0703345  87.7709508  71.0566685  16.8934984  89.2479996  71.3376275
  16.4673937  79.5410584  72.2302162  15.7296694  79.0287970  72.5612405
  16.7200711  79.1010965  71.4185439  15.9673957  90.4495094  71.9351313
  16.2596931  91.0100151  71.2163679  16.4772577  90.7423655  72.6904472
  16.5685565  72.3186836  72.8243932  16.8744441  71.4584199  72.5369847
  17.2938169  72.9104456  72.6242926   2.8609921  82.7217522  71.2125530
   2.6634320  82.1286883  70.4876596   2.3056585  82.4169733  71.9301468
  10.8406644  82.6140629  73.3320123  10.8955254  81.6614465  73.2562599
  10.0297846  82.7700068  73.8161421  11.9897838  86.5420752  64.5698406
  11.5517268  85.8256611  64.1104043  12.7308279  86.7696867  64.0083497
   8.7799004  81.2317689  71.0910502   7.9666870  81.5311859  71.4975694
   9.2757998  80.8373377  71.8084984  10.9307582  91.2275445  73.0244766
  10.8883761  91.4536292  72.0953298  11.8470281  90.9938820  73.1730567
  14.3773216  81.6959513  79.9225395  14.7322604  81.9230986  80.7819861
  15.0245347  82.0277890  79.3002651  20.1070953  84.8177949  70.6274724
  19.9688851  85.0079545  69.6995914  19.7507172  85.5797332  71.0842776
   8.2713079  78.8036044  76.7071736   8.9112458  78.6624803  76.0094700
   7.4390610  78.5170557  76.3310338  20.1340332  86.8854476  75.6385996
  20.5676839  86.7929765  76.4869050  20.8471913  86.8611976  75.0006012
   9.0473383  88.1038474  72.8206729   9.8413981  87.6088795  72.6189304
   8.3365075  87.5756338  72.4574435  13.8668227  90.4856570  77.1719097
  13.9205250  91.0547506  77.9396812  12.9983009  90.6558455  76.8073134
   5.3556146  82.2481556  68.8966482   4.4253734  82.1866012  69.1136444
   5.4513618  81.7257509  68.1003123   5.2741695  78.7736369  71.4844723
   5.5348513  79.6881702  71.3753884   6.0958868  78.3060812  71.6341336
   6.7466621  80.1874126  78.6543548   7.4189674  79.9791488  78.0056197
   5.9196407  79.9896212  78.2148780  20.9955882  86.9278177  78.1718881
  21.1891772  87.8323987  78.4178156  20.8956500  86.4685596  79.0057466
  12.6492193  76.8136067  80.6709209  12.0020108  77.5126017  80.5773685
  13.4193208  77.2472211  81.0385457  16.0570991  87.0784919  83.7459762
  15.9056497  86.8495471  82.8289846  16.0475670  88.0355521  83.7591107
  12.8256327  84.6516832  78.7306028  13.7548387  84.8027992  78.5574996
  12.4047357  84.7400853  77.8754675  11.6244659  88.6767496  76.5004566
  11.4855745  88.3086281  77.3730504  10.8359255  89.1915136  76.3288524
  12.2192811  93.7776593  67.8430103  12.3944567  93.3064636  68.6575725
  11.5325599  94.4042359  68.0711363  13.1749874  88.0549099  73.8893404
  12.8399707  88.0149869  74.7851054  12.6753820  87.3893815  73.4163814
   7.1494118  83.4616729  79.4145985   7.0113916  82.7296968  80.0157524
   8.0599041  83.3725629  79.1330173  16.1109066  85.4005134  64.1630463
  15.4938236  84.6751962  64.0663516  15.6425554  86.1614494  63.8197538
   9.7776419  83.1736689  78.9029665  10.4876037  82.5329881  78.8616283
   9.7345727  83.4249583  79.8255845  17.7663197  90.1104042  81.8236244
  17.7075743  89.4263262  81.1566827  18.1682716  90.8523032  81.3716870
   8.4905353  80.1601906  80.7225304   7.9542710  79.7092645  81.3746900
   7.9022061  80.2947815  79.9795768   6.7853896  96.9265956  74.6169963
   7.0250494  97.5584480  75.2948981   5.9423093  96.5753996  74.9035322
   7.9007612  79.6190558  63.2851768   7.0237078  79.4979359  62.9214014
   8.3765365  78.8276636  63.0330656  17.7680605  88.0743626  80.0550224
  16.8807383  87.7369548  80.1776622  18.3379156  87.3426657  80.2918989
   4.2244474  79.2957914  77.8078299   4.1402663  78.6883584  77.0728709
   3.4027180  79.7866932  77.8087795  11.2981758  92.7345078  77.0211467
  11.2251929  93.5400050  77.5330771  10.8559151  92.9337044  76.1959488
  11.0871538  91.9716848  70.5314288  10.3039060  92.5138528  70.6252513
  11.7864283  92.4890828  70.9308529  14.3968188  77.7811478  73.1748494
  14.8936887  77.0281440  72.8549564  13.6255169  77.8175794  72.6091703
  22.2497945  83.4851843  74.8166785  22.2387821  84.3676559  74.4460718
  21.3815325  83.1323394  74.6221322  13.7580442  92.6331912  79.1769625
  14.4708414  93.2679377  79.1045527  13.2670470  92.7295778  78.3609627
  15.4797968  86.5383165  70.7486917  14.5454247  86.6584627  70.5791621
  15.6574637  85.6355632  70.4846927  10.9803156  79.9228861  72.9020178
  10.6100944  79.3699901  73.5901084  11.4762249  79.3186994  72.3495178
  18.8670520  82.3800484  71.2836951  19.3330972  83.2128476  71.2097254
  19.3178020  81.9145466  71.9882210   8.8092355  90.3826356  79.9975196
   9.5101815  91.0162839  80.1504590   8.3387470  90.7241087  79.2370835
  16.9346751  88.7244305  68.2823103  17.2106595  88.6100900  69.1916977
  16.0651250  88.3261790  68.2435276  16.8387183  74.7481071  75.3227853
  15.9250262  74.9785298  75.4910059  17.2680284  74.8319515  76.1741885
  16.6093641  82.9370963  77.8227747  15.9565091  83.1846871  77.1680199
  16.9874021  82.1235101  77.4890224  13.5700815  92.9730656  71.9255917
  13.7523209  92.1552312  72.3883669  14.3933801  93.1898349  71.4880807
  13.9042980  91.8998841  69.1870965  14.4330747  91.3891296  68.5741127
  14.1671200  91.5841372  70.0516498  12.6581214  83.6790774  84.3093784
  11.9821851  83.5784903  84.9796159  13.4808848  83.5229988  84.7729781
   4.4060073  89.9162711  76.9306299   4.9913510  89.1706399  77.0634203
   4.2084912  90.2266667  77.8142963   7.2598728  92.9513958  71.9468741
   6.5909104  93.4360086  71.4632781   7.1211598  93.1983179  72.8612120
  11.4003997  94.9857702  78.5451400  11.9522305  95.1489323  79.3100485
  11.7410190  95.5762139  77.8731424   6.3768490  77.3332851  79.1473284
   6.4409817  78.1947682  78.7350682   6.3135610  76.7206853  78.4145643
   5.8520763  79.4055984  82.7946319   6.4792801  79.0233061  83.4083843
   4.9948682  79.1870186  83.1602011  16.2514871  89.8118959  84.4000054
  16.7954775  90.4248917  83.9055009  15.6701716  90.3698538  84.9167067
   2.6286305  81.2132413  68.7264673   2.9239747  80.3043091  68.6731727
   1.7274341  81.1920152  68.4045676  14.5372384  92.9339677  75.5315082
  14.4123524  92.1329417  75.0226027  15.1951475  93.4285870  75.0429052
   6.1580552  79.2888410  74.7092222   5.4367138  79.9024377  74.5699695
   6.9473808  79.8246174  74.6308868  16.6007293  90.7348697  77.1594632
  15.6537628  90.6154048  77.0872959  16.9490066  89.8471195  77.2420893
   8.9606866  76.6242836  80.9832874   9.4841268  76.8705133  81.7459183
   8.7419199  77.4562871  80.5636011   4.3574147  78.8946511  68.8503999
   4.0286853  78.0143890  68.6679104   4.7113518  78.8394179  69.7380388
  13.6053726  90.5301413  73.3598984  13.4578688  89.6018121  73.5406554
  14.4307219  90.5521504  72.8756059   7.4715970  79.1819481  69.2179476
   7.8112043  79.7105402  68.4958085   7.9188091  79.5199887  69.9938043
  17.2087848  91.3529972  74.4463857  18.1334395  91.1472833  74.3088308
  17.0403151  91.1046373  75.3553198  10.1659411  77.5656531  78.6682544
   9.8256231  76.7664344  79.0703224   9.4598417  77.8658242  78.0959377
  10.8175883  74.6505844  77.1209867  11.6401952  74.1766322  76.9988758
  11.0613946  75.4296327  77.6208554   9.4584117  77.6794102  67.4172769
  10.1792480  78.0575355  66.9136486   8.8349421  78.3982979  67.5207747
  13.6015240  78.3839251  68.3531101  13.8178855  79.2663889  68.0519930
  13.1209307  77.9925464  67.6236743   8.3414462  81.3424964  74.9301846
   8.1959042  81.6565267  75.8226127   7.8639665  81.9609865  74.3772745
  10.2010844  78.3327512  74.9782735  10.1872413  77.4368606  74.6415033
  10.9183273  78.3398176  75.6121022  12.0536975  78.7664852  77.0235863
  11.7954753  79.6881923  77.0220193  11.5222016  78.3695287  77.7136327
  16.9983164  91.8715640  69.8025948  17.1720041  91.3062062  69.0499801
  17.4912055  92.6716534  69.6205438   2.8160124  83.8830309  77.8689507
   2.2713592  84.6590117  78.0009781   3.6939474  84.2301113  77.7108629
   9.6047740  77.2141893  70.2470306   9.7263652  76.2858539  70.4461193
   9.3149783  77.2280579  69.3348621  12.4738931  74.8996803  73.3837025
  12.4960628  74.9636136  72.4289005  12.8906990  74.0601312  73.5777532
  22.8522555  84.6352063  71.4216248  23.2953701  83.8859388  71.0235371
  21.9749065  84.6262199  71.0389980  17.9858336  91.1882404  66.9022847
  18.6809241  91.8089097  67.1210161  18.3281487  90.3377755  67.1775224
   3.6026146  83.0100205  80.7619664   2.8607882  83.1582840  81.3484294
   3.2818890  83.2708471  79.8986413  19.8849760  88.6382110  68.4310177
  20.4101084  88.9769382  67.7059497  19.7972112  87.7029125  68.2473312
  11.5469808  92.5516183  80.5600054  11.8556935  92.3065330  81.4322754
  12.3445290  92.7562822  80.0718924  11.5690420  94.7054093  72.7905431
  11.1295411  94.2130472  73.4838287  12.3198537  94.1627060  72.5497506
   4.0482759  90.8965634  72.7930059   4.8740779  90.5969406  72.4128702
   3.6976811  90.1273256  73.2419847   9.0164292  90.2492102  74.8627732
   8.3944302  89.5862807  74.5629960   9.6869159  90.2753234  74.1801380
   2.2491364  88.8151960  73.7518992   1.4123273  88.3874134  73.5702993
   2.2215010  89.0084403  74.6889783   9.0888820  78.7273890  84.4560238
   9.1376975  79.6036013  84.0738008   9.6311334  78.1851283  83.8831881
  19.5743666  89.2715013  83.7361375  18.7839209  89.2539152  83.1965875
  19.3377020  89.8103307  84.4910412  19.6941541  86.1207480  81.0494104
  19.7439546  85.9557487  81.9909627  19.5855464  85.2534739  80.6591985
   8.5777799  88.7996025  68.3386193   8.7265920  89.4831490  67.6852865
   9.3844243  88.7801115  68.8535648  16.9845303  82.1038408  82.3653411
  17.8855166  81.9644872  82.0737408  17.0593278  82.2692862  83.3051588
  11.3188108  79.4805262  81.2106597  10.4491418  79.7738828  80.9389185
  11.5547589  80.0645707  81.9313861  21.1959737  88.5404421  81.2936125
  20.9044546  88.9034402  82.1299586  20.5831869  87.8271429  81.1149457
  22.3955420  86.1057301  73.8138696  23.2302311  86.5447105  73.9776256
  22.5314549  85.6295954  72.9946941  19.4446926  83.6637036  79.7616183
  19.9201047  83.8564682  78.9535035  18.5212491  83.7196222  79.5159567
   6.3330432  84.8261203  69.3447262   6.0876474  83.9223533  69.5427472
   6.5026347  84.8278353  68.4026740  14.0227142  75.6984879  78.7272017
  14.5409086  76.4345906  78.4018506  13.6682275  76.0048873  79.5618776
   5.6026080  80.5589560  66.8433423   4.9095325  80.6333915  66.1873459
   5.3577832  79.7949904  67.3654940  14.2739736  72.1185162  74.2472914
  14.5541490  71.4508351  74.8733340  15.0590343  72.3114257  73.7347578
  12.0773205  91.2944156  65.8097940  11.5047172  91.9134343  65.3568412
  12.6505999  91.8443517  66.3437862  18.1448595  80.5402796  77.9944489
  19.0966018  80.6400893  78.0156713  17.9752045  79.7481064  78.5042573
  16.1662974  77.6258379  78.1803890  15.5712906  77.9063392  77.4850379
  15.8812671  78.1152280  78.9520631  15.2970465  91.5781306  66.9406522
  16.2301138  91.5126868  67.1439398  15.2093677  92.4137573  66.4821055
  17.9258481  90.8947176  63.9010470  17.8472113  90.5607040  64.7946228
  18.7468148  91.3868944  63.9001942  20.6236673  83.7608915  77.1086789
  20.5912993  82.8224916  77.2946472  21.2337296  83.8392952  76.3752614
  12.4620003  82.6304968  63.1513993  13.4079108  82.5011177  63.2202411
  12.0834248  81.8919630  63.6283421  20.7731161  80.5519959  77.1545072
  20.2570210  79.7678416  76.9675001  21.6571110  80.2238676  77.3191591
  18.4341888  74.2960974  73.1140884  18.2366709  73.9876063  73.9984216
  19.0441594  75.0222613  73.2438814  26.4413222  84.8224922  76.2492825
  27.1716611  84.5610210  76.8100529  25.8320168  84.0853644  76.2894893
  24.5228519  82.9632785  76.8467277  23.7961683  82.8288750  76.2383768
  24.1075806  83.2709614  77.6523995  12.3458696  86.6822715  84.6114650
  13.2661705  86.8601314  84.8054696  12.3108279  85.7378760  84.4594349
  10.6462921  80.5554945  63.0868878   9.7394376  80.2588058  63.1631592
  10.9238902  80.2584763  62.2203164   1.5640861  81.8761308  73.5367924
   1.2443645  81.0226616  73.2442298   1.0174289  82.0909886  74.2925892
   5.3420768  84.5923749  77.2537431   5.5606778  85.5240857  77.2725465
   5.7546542  84.2331724  78.0392235  12.2624986  75.0991835  69.2413119
  11.4525715  74.7538920  69.6168365  12.9509403  74.7899378  69.8300731
  14.1915535  74.1769881  70.8637416  14.7446573  74.5965335  71.5227439
  14.4285621  73.2505629  70.9060372  10.2148634  80.1656955  86.6440180
  10.1145361  81.1151312  86.5752271   9.9970176  79.8375194  85.7716250
   9.4161705  77.4141880  63.2280857  10.2780869  77.7396778  63.4876674
   9.6012049  76.6273376  62.7153923   1.4329121  85.4964220  75.5061046
   0.7392592  85.0818173  74.9931000   2.1802112  85.5384756  74.9094465
  17.5694342  76.2870407  70.3716080  16.9893011  76.9455211  69.9894133
  17.3030274  75.4647751  69.9603498  16.0197908  75.6875464  72.5737400
  16.5197686  75.7991999  71.7651719  16.6633516  75.3836517  73.2138209
  10.0779904  83.5954094  85.4605241   9.5946986  84.3954454  85.6669130
  10.1640843  83.6062039  84.5072685   3.3465863  85.4282474  73.3827061
   3.3236552  85.5270161  72.4308944   3.6566500  86.2747624  73.7044227
   6.0053241  87.4858629  77.4973675   6.9596495  87.4542571  77.4303607
   5.8065765  87.0249252  78.3123901   6.5952623  86.0559745  80.0644473
   7.4145512  86.5503823  80.0879310   6.8689431  85.1391713  80.0362040
  16.3519220  78.4470497  69.4272428  15.4645075  78.7320148  69.2092623
  16.7673209  78.2864260  68.5799705  19.7033756  78.4717018  73.1426768
  20.4794146  78.9613470  73.4151384  18.9781890  78.8975072  73.5998637
  22.1406314  79.1844637  74.2000708  22.7350805  78.9440373  73.4894016
  22.2132898  78.4651768  74.8274245   4.3603470  93.0278248  74.5143873
   4.2257938  92.2678649  73.9481871   3.9435532  93.7519148  74.0472662
  15.4962433  88.2115172  63.5220448  16.1998283  88.4165174  64.1378104
  14.7725082  88.7791933  63.7869532  16.3260243  83.9625033  69.6422719
  16.2695445  84.4193584  68.8030351  16.8788586  83.2015717  69.4645561
  20.1365049  79.7514765  70.4672838  19.8801984  79.3511400  71.2981046
  19.5117917  80.4658559  70.3422977  24.4477387  82.4910838  72.9744129
  23.8876945  82.5604027  73.7475691  23.8420891  82.3151823  72.2543626
   7.5172596  93.9247565  74.7262316   7.4004980  94.8692998  74.6241006
   6.6965042  93.6221127  75.1148115  17.4049131  88.6497701  65.5718908
  18.2394734  88.2178899  65.3896383  17.2433473  88.4779714  66.4995803
  17.0595023  85.1529814  66.9375248  17.0043827  84.9874086  65.9963692
  16.4341078  85.8605847  67.0937437   1.8487538  80.3897878  80.7636670
   2.4946401  79.8796832  81.2523895   1.6404689  81.1266560  81.3380095
  14.3740930  87.4578726  86.2628810  15.2432090  87.6319378  85.9015445
  13.8947681  88.2773143  86.1404540  10.3691148  74.6537923  66.5160566
  10.3569818  75.5979763  66.6728837  11.2614570  74.4708068  66.2220027
   8.5427110  94.5775827  77.9418244   9.4454357  94.6099437  78.2584739
   8.3164480  93.6476278  77.9564580  10.2980712  93.3306813  74.6028323
   9.3476343  93.3308675  74.4892695  10.6013198  92.5839548  74.0864357
  14.1843268  71.2480700  70.7706503  13.4175663  70.6939186  70.9163185
  14.5953973  71.3202568  71.6320655   6.1885029  77.5365496  84.8611684
   7.0516490  77.1802300  85.0715009   5.6150439  77.1979390  85.5487088
  26.0333406  99.1667352  75.6674085  26.6711816  99.0474099  74.9637425
  25.9154249 100.1148196  75.7262037  22.8423112  99.1194780  75.6035610
  22.5041623  99.0035845  74.7156145  23.7112880  98.7185945  75.5836616
  18.7009928 100.9730256  71.5932501  18.1374793 100.8820193  70.8248789
  18.5862323 100.1530161  72.0734993  23.3242895 100.2729632  81.5621815
  23.3131536  99.8782430  80.6902319  23.4863534  99.5395704  82.1555587
  16.2474360 102.4681448  74.4316721  17.0395651 102.1272273  74.0163021
  16.4871010 102.5776423  75.3518875  24.2809486 104.6401224  66.9046966
  23.6297466 105.2255305  66.5180979  25.0753849 105.1707419  66.9642003
  18.2065113 101.7290361  67.3034100  18.9795989 101.1819348  67.1646976
  18.5590512 102.5934611  67.5148561  20.0450156 103.0566744  80.5100999
  19.7540022 103.9612374  80.3947666  20.6807140 103.0983271  81.2245069
  20.9706363 100.4343592  77.1002359  21.5669935 100.2099614  76.3859322
  21.0281334  99.6928338  77.7027807  20.5431391  97.8883027  64.9352550
  20.7956912  97.3664549  64.1736013  19.6055950  97.7249173  65.0379234
  25.5874674  96.8918806  72.7427293  26.3737763  96.4738229  72.3917710
  25.8513378  97.7964898  72.9108942  25.7584751 102.3291656  67.4415950
  25.1230584 102.4026283  68.1536855  25.4282158 102.9185255  66.7635029
  30.9883101  96.8294039  73.6460272  31.7208273  96.2593256  73.8798101
  30.2322457  96.4415639  74.0866777  20.2627680  99.7911133  67.1376925
  20.1463938  99.1156037  67.8058009  20.3729940  99.3043507  66.3209078
  22.6059221  99.2521280  70.8423614  22.2417428  98.7251901  71.5536536
  23.4626337  98.8619749  70.6690100  28.5108522  90.5415613  78.1054880
  28.1791846  91.4111024  77.8816095  27.9154135  90.2251897  78.7848911
  22.2464708  94.2811180  65.8384963  22.4139110  95.1491417  66.2055434
  22.0561877  94.4438462  64.9146252  25.0040041 102.7428159  77.5050793
  24.7040764 103.6453198  77.3966600  24.6591101 102.4760342  78.3571946
  18.4552523  99.1941956  73.5387497  17.5303019  99.0618170  73.7465189
  18.7036936  99.9736175  74.0357440  28.4037185  95.2610699  75.1848230
  27.4954062  95.1926108  74.8906991  28.3524781  95.7382644  76.0130056
  22.2253929  96.7368838  66.8231629  22.1053554  97.1825888  67.6617110
  21.5306517  97.0854155  66.2645168  15.8161334  98.8375229  74.3731287
  15.9453715  99.0909708  75.2870698  15.1358785  99.4302937  74.0535942
  19.9860821 109.5072479  70.4721761  19.9084851 110.4580304  70.5510241
  19.3822465 109.1618352  71.1296687  22.4778051  96.6800345  83.1283128
  21.7011385  97.2394265  83.1185992  23.1168614  97.1657128  83.6497998
  30.2698831  93.4627138  76.9626104  29.6273212  93.7559671  76.3165899
  29.7653760  93.3480058  77.7679301  27.9238995  97.2090311  67.6511964
  28.8356851  97.4417698  67.4759661  27.4148642  97.7927355  67.0887042
  20.7324423  99.4885798  82.6901095  21.4739107 100.0270842  82.4135918
  20.0261408 100.1152087  82.8472646  26.2079763 101.6314939  81.2873256
  26.6163119 101.1897349  80.5427888  25.4857024 101.0567566  81.5407449
  22.5610833  96.5687545  78.6606813  23.4072028  96.9926959  78.8041462
  22.5009470  95.9121170  79.3545376  26.5308577 102.1916129  75.0425545
  25.9017440 102.3561843  74.3401613  26.1434239 102.6057739  75.8136509
  30.4097809 103.1270567  72.3969909  29.7248847 103.5069468  71.8466942
  30.4941658 103.7365894  73.1301857  25.7110278  94.2291914  80.3187987
  25.4671210  94.9833974  79.7822262  25.9870209  94.6077261  81.1535234
  27.6648741 100.7730526  78.9965252  27.8765636 101.4162286  78.3199633
  27.6178489  99.9392843  78.5287182  25.2674970  93.3848347  75.9001824
  24.4059449  93.6829600  76.1918562  25.2937404  93.6018746  74.9682857
  22.0836539 101.9290537  72.3075630  22.5474885 102.2078240  71.5180253
  21.8193337 101.0273982  72.1248721  18.9760620 101.4762019  75.2455393
  19.5461977 101.9049287  74.6072878  19.5668732 101.1944604  75.9439579
  21.0205425  98.0513690  69.1165195  21.7229469  98.5034733  69.5839122
  20.6886054  97.4097509  69.7445088  19.4685787  96.6425446  83.4916405
  18.8384447  97.3241727  83.7251801  19.3621875  96.5308528  82.5469543
  14.7630759  96.3097242  74.4182329  13.9729813  96.5654771  73.9422439
  15.2542007  97.1245580  74.5234369  28.7794569 103.6502482  77.1687610
  29.6012012 103.2482669  76.8870291  28.7756972 103.5470716  78.1203725
  16.7145505  96.6741822  71.3765806  15.9176668  96.7860516  71.8949301
  16.4871097  97.0128474  70.5106696  22.5451172 103.1986525  79.3248320
  22.6095605 103.6606932  80.1606492  21.8362096 102.5683890  79.4530630
  13.0468462  96.5627733  76.8497320  13.2976501  97.4474743  77.1154896
  13.5828011  96.3832334  76.0772411  36.8700562  99.9941230  73.5172581
  36.1164270  99.4248628  73.3616586  37.0048103  99.9603895  74.4643216
  22.2599190 104.8654632  69.1927300  22.1244865 105.7106168  69.6212148
  22.8009002 105.0673910  68.4293234  18.7466529  90.9446212  85.8541656
  18.3533475  90.3912411  86.5289300  19.5632670  91.2556791  86.2448173
  15.7128587 102.3830070  69.7655226  16.2253108 103.1773321  69.9160790
  16.3651300 101.6856361  69.6988827  17.5223472 105.4995827  71.8477979
  17.6990100 106.4213791  71.6598963  18.3180305 105.1854246  72.2772359
  21.6634490  92.3604091  83.4461912  22.4044204  92.9611244  83.3666375
  21.8952413  91.6181729  82.8879955  16.8075828  97.5460459  81.7240142
  16.6929344  96.6445716  82.0247241  15.9520346  97.7924155  81.3724958
  23.8867666 105.4878199  83.3227643  23.4431520 104.7014577  83.0048547
  24.5484880 105.6757349  82.6571533  18.6454787 107.0174000  77.8488321
  19.1962213 106.8891064  77.0765315  17.8066263 107.3168889  77.4983214
  25.9848904 105.7680999  81.3509044  25.9667380 106.5889880  80.8589313
  26.9068824 105.6435074  81.5759185  22.4421958 103.2825128  82.1932552
  22.9750295 102.5213416  81.9631860  21.9136040 102.9898780  82.9356707
  25.6091653  88.3885194  77.7226194  25.2655923  89.2786836  77.6465305
  25.9770616  88.1986852  76.8595779  13.6777504 100.7118725  70.5414796
  14.5152726 101.1215733  70.3248504  13.8555772  99.7718167  70.5114990
  25.5741936  98.3793805  66.2298629  25.0588560  99.1498410  66.4687016
  25.3019245  97.7058941  66.8531690  23.1589047  93.2243506  71.2883867
  22.3030643  92.8350356  71.1089506  23.5715999  93.3035467  70.4283653
  24.6888194  90.7589849  75.6875427  24.1852989  90.7219985  74.8743232
  24.9818801  91.6682592  75.7472084  20.9331080  90.8428579  74.6941609
  21.7984076  90.6471388  74.3347498  21.0008589  90.6138931  75.6210966
  30.5476210 101.1326160  68.1651803  29.7705653 100.7937319  67.7206965
  31.2267691 101.1378783  67.4906768  25.3628239  96.2520897  68.0558410
  25.0578375  96.5667047  68.9068553  26.3158681  96.3302317  68.0985743
  23.8074671 102.4111121  69.7051364  23.2796033 101.6763880  69.3924602
  23.3062174 103.1885797  69.4591333  28.7867517 100.6060141  74.8218411
  28.1291192 101.2959403  74.9098539  29.5907916 100.9956573  75.1652397
  18.5393399  93.0730787  72.0657976  19.1137151  92.8505969  71.3331169
  19.1264381  93.1419482  72.8186577  27.5972976  98.9604514  72.8722352
  28.1104858  99.5934506  73.3744062  28.2474200  98.3605709  72.5065712
  18.8662986  95.1035248  66.0853861  18.0300298  95.4409935  66.4063136
  18.7267756  94.9684228  65.1480998  20.8416066  89.9472036  70.7933045
  20.1880479  89.6321053  70.1689660  20.7996541  89.3247776  71.5192868
  21.9527271 100.2291331  62.7086337  21.0454333  99.9980584  62.9077486
  22.4498303  99.4328950  62.8960319  24.8595350 108.9388838  65.6283023
  24.1857049 109.2420535  66.2367981  25.2461172 109.7417919  65.2788480
  24.0753807  96.4353969  75.1180693  23.1576368  96.6568916  74.9602381
  24.4913950  96.5100280  74.2592400  24.8588855  97.8345385  70.2483373
  25.6060674  98.3466782  69.9390495  25.1280444  97.5129438  71.1087767
  23.1315505 100.3303926  67.2310327  22.2226724 100.0462959  67.3282797
  23.1610589 100.7503004  66.3713634  28.3634772 103.9410515  71.0001495
  27.9097099 103.1001425  71.0566685  27.7328739 104.5771914  71.3376275
  27.3067692  94.8702501  72.2302162  26.5690449  94.3579888  72.5612405
  27.5594465  94.4302883  71.4185439  26.8067711 105.7787012  71.9351313
  27.0990686 106.3392069  71.2163679  27.3166332 106.0715573  72.6904472
  27.4079319  87.6478753  72.8243932  27.7138196  86.7876117  72.5369847
  28.1331924  88.2396374  72.6242926  13.7003675  98.0509440  71.2125530
  13.5028075  97.4578801  70.4876596  13.1450339  97.7461650  71.9301468
  21.6800399  97.9432546  73.3320123  21.7349009  96.9906383  73.2562599
  20.8691601  98.0991986  73.8161421  22.8291593 101.8712670  64.5698406
  22.3911022 101.1548528  64.1104043  23.5702033 102.0988784  64.0083497
  19.6192759  96.5609606  71.0910502  18.8060624  96.8603777  71.4975694
  20.1151753  96.1665295  71.8084984  21.7701337 106.5567363  73.0244766
  21.7277515 106.7828209  72.0953298  22.6864035 106.3230738  73.1730567
  25.2166970  97.0251431  79.9225395  25.5716358  97.2522904  80.7819861
  25.8639102  97.3569807  79.3002651  30.9464707 100.1469867  70.6274724
  30.8082606 100.3371463  69.6995914  30.5900926 100.9089249  71.0842776
  19.1106833  94.1327962  76.7071736  19.7506213  93.9916721  76.0094700
  18.2784364  93.8462475  76.3310338  30.9734087 102.2146394  75.6385996
  31.4070594 102.1221683  76.4869050  31.6865668 102.1903894  75.0006012
  19.8867137 103.4330392  72.8206729  20.6807736 102.9380712  72.6189304
  19.1758830 102.9048255  72.4574435  24.7061982 105.8148488  77.1719097
  24.7599004 106.3839424  77.9396812  23.8376763 105.9850373  76.8073134
  16.1949901  97.5773474  68.8966482  15.2647489  97.5157929  69.1136444
  16.2907373  97.0549427  68.1003123  16.1135450  94.1028287  71.4844723
  16.3742267  95.0173620  71.3753884  16.9352622  93.6352729  71.6341336
  17.5860375  95.5166044  78.6543548  18.2583429  95.3083406  78.0056197
  16.7590162  95.3188130  78.2148780  31.8349637 102.2570094  78.1718881
  32.0285527 103.1615905  78.4178156  31.7350255 101.7977513  79.0057466
  23.4885947  92.1427985  80.6709209  22.8413862  92.8417934  80.5773685
  24.2586963  92.5764129  81.0385457  26.8964745 102.4076837  83.7459762
  26.7450252 102.1787389  82.8289846  26.8869425 103.3647438  83.7591107
  23.6650082  99.9808750  78.7306028  24.5942142 100.1319909  78.5574996
  23.2441112 100.0692771  77.8754675  22.4638413 104.0059414  76.5004566
  22.3249499 103.6378199  77.3730504  21.6753010 104.5207054  76.3288524
  23.0586565 109.1068511  67.8430103  23.2338321 108.6356554  68.6575725
  22.3719353 109.7334277  68.0711363  24.0143629 103.3841017  73.8893404
  23.6793461 103.3441787  74.7851054  23.5147574 102.7185733  73.4163814
  17.9887872  98.7908647  79.4145985  17.8507670  98.0588886  80.0157524
  18.8992796  98.7017547  79.1330173  26.9502820 100.7297051  64.1630463
  26.3331991 100.0043879  64.0663516  26.4819309 101.4906411  63.8197538
  20.6170173  98.5028606  78.9029665  21.3269792  97.8621798  78.8616283
  20.5739481  98.7541501  79.8255845  28.6056952 105.4395960  81.8236244
  28.5469498 104.7555180  81.1566827  29.0076470 106.1814950  81.3716870
  19.3299107  95.4893824  80.7225304  18.7936464  95.0384563  81.3746900
  18.7415816  95.6239733  79.9795768  18.7401366  94.9482475  63.2851768
  17.8630832  94.8271276  62.9214014  19.2159119  94.1568554  63.0330656
  28.6074359 103.4035543  80.0550224  27.7201138 103.0661465  80.1776622
  29.1772910 102.6718575  80.2918989  10.2603506  99.7359635  73.3793275
  10.9474546  99.4221365  72.7914290  10.1051635 100.6401000  73.1060526
  15.0638228  94.6249832  77.8078299  14.9796417  94.0175501  77.0728709
  14.2420935  95.1158850  77.8087795  22.1375513 108.0636996  77.0211467
  22.0645684 108.8691967  77.5330771  21.6952906 108.2628962  76.1959488
  21.9265292 107.3008766  70.5314288  21.1432814 107.8430446  70.6252513
  22.6258037 107.8182745  70.9308529  25.2361942  93.1103395  73.1748494
  25.7330642  92.3573358  72.8549564  24.4648924  93.1467712  72.6091703
  33.0891700  98.8143761  74.8166785  33.0781576  99.6968476  74.4460718
  32.2209079  98.4615312  74.6221322  24.5974196 107.9623830  79.1769625
  25.3102168 108.5971295  79.1045527  24.1064225 108.0587696  78.3609627
  26.3191723 101.8675083  70.7486917  25.3848002 101.9876545  70.5791621
  26.4968391 100.9647549  70.4846927  21.8196911  95.2520778  72.9020178
  21.4494699  94.6991819  73.5901084  22.3156003  94.6478912  72.3495178
  29.7064274  97.7092402  71.2836951  30.1724726  98.5420393  71.2097254
  30.1571775  97.2437383  71.9882210  19.6486110 105.7118273  79.9975196
  20.3495569 106.3454756  80.1504590  19.1781225 106.0533005  79.2370835
  27.7740505 104.0536223  68.2823103  28.0500349 103.9392818  69.1916977
  26.9045004 103.6553708  68.2435276  27.6780937  90.0772989  75.3227853
  26.7644017  90.3077216  75.4910059  28.1074038  90.1611433  76.1741885
  27.4487396  98.2662881  77.8227747  26.7958846  98.5138788  77.1680199
  27.8267775  97.4527019  77.4890224  24.4094569 108.3022574  71.9255917
  24.5916964 107.4844230  72.3883669  25.2327555 108.5190266  71.4880807
  24.7436735 107.2290759  69.1870965  25.2724501 106.7183214  68.5741127
  25.0064954 106.9133289  70.0516498  23.4974969  99.0082692  84.3093784
  22.8215606  98.9076821  84.9796159  24.3202602  98.8521906  84.7729781
  15.2453828 105.2454628  76.9306299  15.8307264 104.4998316  77.0634203
  15.0478666 105.5558585  77.8142963  18.0992483 108.2805876  71.9468741
  17.4302858 108.7652003  71.4632781  17.9605353 108.5275096  72.8612120
   9.8371482  97.8160229  75.6510742   9.8755582  97.2823819  76.4447860
   9.3311775  97.2895434  75.0321719  22.2397751 110.3149619  78.5451400
  22.7916059 110.4781241  79.3100485  22.5803945 110.9054057  77.8731424
  17.2162245  92.6624769  79.1473284  17.2803571  93.5239600  78.7350682
  17.1529365  92.0498771  78.4145643  16.6914517  94.7347902  82.7946319
  17.3186556  94.3524979  83.4083843  15.8342436  94.5162104  83.1602011
  27.0908626 105.1410877  84.4000054  27.6348530 105.7540835  83.9055009
  26.5095471 105.6990455  84.9167067  13.4680060  96.5424331  68.7264673
  13.7633501  95.6335009  68.6731727  12.5668096  96.5212070  68.4045676
  25.3766139 108.2631595  75.5315082  25.2517278 107.4621335  75.0226027
  26.0345230 108.7577788  75.0429052  16.9974307  94.6180327  74.7092222
  16.2760893  95.2316295  74.5699695  17.7867563  95.1538092  74.6308868
  27.4401047 106.0640615  77.1594632  26.4931383 105.9445966  77.0872959
  27.7883820 105.1763113  77.2420893  19.8000620  91.9534754  80.9832874
  20.3235022  92.1997050  81.7459183  19.5812954  92.7854789  80.5636011
  15.1967902  94.2238428  68.8503999  14.8680608  93.3435807  68.6679104
  15.5507272  94.1686097  69.7380388  24.4447480 105.8593331  73.3598984
  24.2972443 104.9310039  73.5406554  25.2700974 105.8813422  72.8756059
  18.3109725  94.5111398  69.2179476  18.6505797  95.0397319  68.4958085
  18.7581845  94.8491804  69.9938043  28.0481602 106.6821890  74.4463857
  28.9728150 106.4764751  74.3088308  27.8796906 106.4338291  75.3553198
  21.0053165  92.8948449  78.6682544  20.6649986  92.0956262  79.0703224
  20.2992172  93.1950160  78.0959377  21.6569637  89.9797761  77.1209867
  22.4795707  89.5058240  76.9988758  21.9007701  90.7588245  77.6208554
  20.2977872  93.0086020  67.4172769  21.0186234  93.3867273  66.9136486
  19.6743176  93.7274897  67.5207747  24.4408995  93.7131169  68.3531101
  24.6572609  94.5955807  68.0519930  23.9603062  93.3217382  67.6236743
  19.1808216  96.6716882  74.9301846  19.0352797  96.9857185  75.8226127
  18.7033420  97.2901782  74.3772745  21.0404599  93.6619430  74.9782735
  21.0266168  92.7660523  74.6415033  21.7577027  93.6690094  75.6121022
  22.8930730  94.0956770  77.0235863  22.6348507  95.0173841  77.0220193
  22.3615770  93.6987205  77.7136327  27.8376918 107.2007557  69.8025948
  28.0113796 106.6353980  69.0499801  28.3305810 108.0008452  69.6205438
  13.6553878  99.2122226  77.8689507  13.1107346  99.9882034  78.0009781
  14.5333228  99.5593031  77.7108629  20.4441495  92.5433810  70.2470306
  20.5657406  91.6150456  70.4461193  20.1543537  92.5572496  69.3348621
  23.3132685  90.2288721  73.3837025  23.3354382  90.2928054  72.4289005
  23.7300744  89.3893229  73.5777532  33.6916310  99.9643980  71.4216248
  34.1347456  99.2151305  71.0235371  32.8142820  99.9554117  71.0389980
  28.8252091 106.5174322  66.9022847  29.5202996 107.1381014  67.1210161
  29.1675241 105.6669673  67.1775224  14.4419900  98.3392123  80.7619664
  13.7001636  98.4874758  81.3484294  14.1212644  98.6000388  79.8986413
  30.7243514 103.9674027  68.4310177  31.2494838 104.3061300  67.7059497
  30.6365867 103.0321043  68.2473312  22.3863563 107.8808101  80.5600054
  22.6950689 107.6357248  81.4322754  23.1839045 108.0854739  80.0718924
  22.4084175 110.0346010  72.7905431  21.9689165 109.5422389  73.4838287
  23.1592292 109.4918978  72.5497506  14.8876514 106.2257551  72.7930059
  15.7134534 105.9261323  72.4128702  14.5370566 105.4565174  73.2419847
  19.8558047 105.5784020  74.8627732  19.2338056 104.9154725  74.5629960
  20.5262914 105.6045151  74.1801380  13.0885119 104.1443878  73.7518992
  12.2517027 103.7166052  73.5702993  13.0608764 104.3376321  74.6889783
  19.9282574  94.0565808  84.4560238  19.9770730  94.9327930  84.0738008
  20.4705089  93.5143201  83.8831881  30.4137420 104.6006931  83.7361375
  29.6232964 104.5831070  83.1965875  30.1770775 105.1395225  84.4910412
  30.5335295 101.4499397  81.0494104  30.5833300 101.2849405  81.9909627
  30.4249219 100.5826656  80.6591985  19.4171554 104.1287943  68.3386193
  19.5659674 104.8123407  67.6852865  20.2237997 104.1093033  68.8535648
  27.8239058  97.4330325  82.3653411  28.7248920  97.2936790  82.0737408
  27.8987032  97.5984780  83.3051588  22.1581863  94.8097180  81.2106597
  21.2885172  95.1030746  80.9389185  22.3941343  95.3937625  81.9313861
  32.0353492 103.8696339  81.2936125  31.7438300 104.2326319  82.1299586
  31.4225623 103.1563347  81.1149457  33.2349174 101.4349219  73.8138696
  34.0696066 101.8739023  73.9776256  33.3708303 100.9587872  72.9946941
  30.2840680  98.9928953  79.7616183  30.7594802  99.1856600  78.9535035
  29.3606246  99.0488139  79.5159567  17.1724187 100.1553121  69.3447262
  16.9270229  99.2515451  69.5427472  17.3420101 100.1570271  68.4026740
  24.8620897  91.0276797  78.7272017  25.3802841  91.7637824  78.4018506
  24.5076029  91.3340790  79.5618776  16.4419834  95.8881478  66.8433423
  15.7489079  95.9625833  66.1873459  16.1971586  95.1241822  67.3654940
  25.1133491  87.4477079  74.2472914  25.3935245  86.7800269  74.8733340
  25.8984098  87.6406175  73.7347578  22.9166959 106.6236073  65.8097940
  22.3440926 107.2426261  65.3568412  23.4899753 107.1735435  66.3437862
  28.9842349  95.8694713  77.9944489  29.9359772  95.9692811  78.0156713
  28.8145800  95.0772982  78.5042573  27.0056729  92.9550297  78.1803890
  26.4106661  93.2355309  77.4850379  26.7206425  93.4444198  78.9520631
  26.1364219 106.9073224  66.9406522  27.0694892 106.8418785  67.1439398
  26.0487432 107.7429490  66.4821055  28.7652236 106.2239094  63.9010470
  28.6865867 105.8898957  64.7946228  29.5861903 106.7160862  63.9001942
  31.4630427  99.0900833  77.1086789  31.4306747  98.1516834  77.2946472
  32.0731051  99.1684870  76.3752614  23.3013758  97.9596886  63.1513993
  24.2472863  97.8303094  63.2202411  22.9228003  97.2211548  63.6283421
  31.6124915  95.8811877  77.1545072  31.0963964  95.0970333  76.9675001
  32.4964864  95.5530593  77.3191591  29.2735642  89.6252892  73.1140884
  29.0760464  89.3167980  73.9984216  29.8835348  90.3514531  73.2438814
  37.2806977 100.1516840  76.2492825  38.0110365  99.8902128  76.8100529
  36.6713922  99.4145562  76.2894893  35.3622274  98.2924703  76.8467277
  34.6355438  98.1580668  76.2383768  34.9469561  98.6001531  77.6523995
  23.1852450 102.0114632  84.6114650  24.1055460 102.1893231  84.8054696
  23.1502033 101.0670678  84.4594349  21.4856675  95.8846863  63.0868878
  20.5788130  95.5879975  63.1631592  21.7632656  95.5876681  62.2203164
  12.4034615  97.2053226  73.5367924  12.0837400  96.3518534  73.2442298
  11.8568044  97.4201804  74.2925892  16.1814523  99.9215667  77.2537431
  16.4000533 100.8532775  77.2725465  16.5940297  99.5623641  78.0392235
  23.1018741  90.4283752  69.2413119  22.2919469  90.0830837  69.6168365
  23.7903158  90.1191296  69.8300731  25.0309289  89.5061799  70.8637416
  25.5840328  89.9257252  71.5227439  25.2679375  88.5797547  70.9060372
  21.0542388  95.4948873  86.6440180  20.9539115  96.4443230  86.5752271
  20.8363930  95.1667112  85.7716250  20.2555460  92.7433798  63.2280857
  21.1174624  93.0688696  63.4876674  20.4405804  91.9565294  62.7153923
  12.2722875 100.8256137  75.5061046  11.5786347 100.4110090  74.9931000
  13.0195866 100.8676674  74.9094465  28.4088096  91.6162324  70.3716080
  27.8286765  92.2747128  69.9894133  28.1424029  90.7939669  69.9603498
  26.8591662  91.0167382  72.5737400  27.3591441  91.1283916  71.7651719
  27.5027270  90.7128435  73.2138209  20.9173658  98.9246012  85.4605241
  20.4340740  99.7246372  85.6669130  21.0034597  98.9353956  84.5072685
  14.1859618 100.7574391  73.3827061  14.1630306 100.8562078  72.4308944
  14.4960254 101.6039542  73.7044227  16.8446996 102.8150546  77.4973675
  17.7990249 102.7834489  77.4303607  16.6459519 102.3541170  78.3123901
  17.4346378 101.3851662  80.0644473  18.2539267 101.8795741  80.0879310
  17.7083186 100.4683630  80.0362040  27.1912974  93.7762415  69.4272428
  26.3038829  94.0612065  69.2092623  27.6066963  93.6156178  68.5799705
  30.5427510  93.8008936  73.1426768  31.3187900  94.2905388  73.4151384
  29.8175644  94.2266990  73.5998637  32.9800069  94.5136555  74.2000708
  33.5744560  94.2732291  73.4894016  33.0526653  93.7943685  74.8274245
  26.3356188 103.5407089  63.5220448  27.0392038 103.7457092  64.1378104
  25.6118836 104.1083851  63.7869532  27.1653998  99.2916951  69.6422719
  27.1089199  99.7485502  68.8030351  27.7182340  98.5307635  69.4645561
  30.9758804  95.0806682  70.4672838  30.7195738  94.6803318  71.2981046
  30.3511672  95.7950476  70.3422977  35.2871142  97.8202756  72.9744129
  34.7270700  97.8895945  73.7475691  34.6814645  97.6443740  72.2543626
  28.2442885 103.9789618  65.5718908  29.0788489 103.5470817  65.3896383
  28.0827228 103.8071632  66.4995803  27.8988777 100.4821732  66.9375248
  27.8437581 100.3166003  65.9963692  27.2734832 101.1897765  67.0937437
  12.6881292  95.7189796  80.7636670  13.3340156  95.2088750  81.2523895
  12.4798443  96.4558478  81.3380095  25.2134684 102.7870644  86.2628810
  26.0825844 102.9611296  85.9015445  24.7341436 103.6065060  86.1404540
  21.2084903  89.9829841  66.5160566  21.1963572  90.9271681  66.6728837
  22.1008325  89.7999986  66.2220027  19.3820865 109.9067745  77.9418244
  20.2848111 109.9391355  78.2584739  19.1558235 108.9768196  77.9564580
  21.1374467 108.6598731  74.6028323  20.1870098 108.6600593  74.4892695
  21.4406953 107.9131466  74.0864357  25.0237022  86.5772617  70.7706503
  24.2569418  86.0231104  70.9163185  25.4347727  86.6494486  71.6320655
  17.0278783  92.8657413  84.8611684  17.8910245  92.5094218  85.0715009
  16.4544194  92.5271308  85.5487088  36.8727160 114.4959270  75.6674085
  37.5105570 114.3766017  74.9637425  36.7548003 115.4440114  75.7262037
  33.6816866 114.4486698  75.6035610  33.3435378 114.3327762  74.7156145
  34.5506635 114.0477863  75.5836616  34.1636649 115.6021549  81.5621815
  34.1525290 115.2074348  80.6902319  34.3257289 114.8687622  82.1555587
  31.3825146 113.2174945  64.9352550  31.6350666 112.6956466  64.1736013
  30.4449705 113.0541090  65.0379234  36.4268429 112.2210723  72.7427293
  37.2131518 111.8030147  72.3917710  36.6907133 113.1256816  72.9108942
  41.8276856 112.1585957  73.6460272  42.5602028 111.5885173  73.8798101
  41.0716211 111.7707557  74.0866777  33.4452975 114.5813198  70.8423614
  33.0811183 114.0543819  71.5536536  34.3020091 114.1911667  70.6690100
  39.3502276 105.8707531  78.1054880  39.0185601 106.7402942  77.8816095
  38.7547889 105.5543815  78.7848911  33.0858462 109.6103098  65.8384963
  33.2532865 110.4783334  66.2055434  32.8955631 109.7730380  64.9146252
  39.2430939 110.5902617  75.1848230  38.3347817 110.5218025  74.8906991
  39.1918535 111.0674562  76.0130056  33.0647683 112.0660755  66.8231629
  32.9447309 112.5117806  67.6617110  32.3700272 112.4146073  66.2645168
  33.3171805 112.0092262  83.1283128  32.5405139 112.5686183  83.1185992
  33.9562368 112.4949045  83.6497998  41.1092586 108.7919055  76.9626104
  40.4666966 109.0851588  76.3165899  40.6047514 108.6771976  77.7679301
  38.7632749 112.5382228  67.6511964  39.6750606 112.7709615  67.4759661
  38.2542397 113.1219273  67.0887042  33.4004587 111.8979463  78.6606813
  34.2465782 112.3218877  78.8041462  33.3403225 111.2413087  79.3545376
  36.5504033 109.5583831  80.3187987  36.3064964 110.3125892  79.7822262
  36.8263963 109.9369179  81.1535234  38.5042495 116.1022444  78.9965252
  38.7159391 116.7454204  78.3199633  38.4572244 115.2684760  78.5287182
  36.1068724 108.7140264  75.9001824  35.2453203 109.0121518  76.1918562
  36.1331159 108.9310663  74.9682857  31.8599180 113.3805607  69.1165195
  32.5623223 113.8326651  69.5839122  31.5279808 112.7389426  69.7445088
  30.3079541 111.9717364  83.4916405  29.6778202 112.6533645  83.7251801
  30.2015629 111.8600446  82.5469543  25.6024514 111.6389160  74.4182329
  24.8123568 111.8946689  73.9422439  26.0935761 112.4537498  74.5234369
  27.5539259 112.0033739  71.3765806  26.7570422 112.1152434  71.8949301
  27.3264851 112.3420392  70.5106696  47.7094316 115.3233148  73.5172581
  46.9558025 114.7540546  73.3616586  47.8441857 115.2895812  74.4643216
  29.5860284 106.2738130  85.8541656  29.1927230 105.7204328  86.5289300
  30.4026424 106.5848708  86.2448173  32.5028245 107.6896009  83.4461912
  33.2437958 108.2903162  83.3666375  32.7346168 106.9473647  82.8879955
  36.4485408 103.7177112  77.7226194  36.1049677 104.6078754  77.6465305
  36.8164370 103.5278770  76.8595779  36.4135691 113.7085723  66.2298629
  35.8982314 114.4790328  66.4687016  36.1412999 113.0350859  66.8531690
  33.9982802 108.5535424  71.2883867  33.1424398 108.1642274  71.1089506
  34.4109753 108.6327385  70.4283653  35.5281948 106.0881767  75.6875427
  35.0246744 106.0511902  74.8743232  35.8212555 106.9974510  75.7472084
  31.7724834 106.1720497  74.6941609  32.6377831 105.9763305  74.3347498
  31.8402343 105.9430849  75.6210966  41.3869965 116.4618078  68.1651803
  40.6099408 116.1229237  67.7206965  42.0661446 116.4670701  67.4906768
  36.2021994 111.5812815  68.0558410  35.8972129 111.8958964  68.9068553
  37.1552436 111.6594235  68.0985743  39.6261272 115.9352059  74.8218411
  38.9684946 116.6251320  74.9098539  40.4301671 116.3248491  75.1652397
  29.3787153 108.4022705  72.0657976  29.9530905 108.1797886  71.3331169
  29.9658136 108.4711399  72.8186577  38.4366730 114.2896432  72.8722352
  38.9498612 114.9226423  73.3744062  39.0867954 113.6897627  72.5065712
  29.7056740 110.4327166  66.0853861  28.8694053 110.7701852  66.4063136
  29.5661510 110.2976146  65.1480998  31.6809821 105.2763954  70.7933045
  31.0274233 104.9612971  70.1689660  31.6390295 104.6539694  71.5192868
  34.9147561 111.7645887  75.1180693  33.9970123 111.9860834  74.9602381
  35.3307705 111.8392198  74.2592400  35.6982609 113.1637303  70.2483373
  36.4454428 113.6758700  69.9390495  35.9674199 112.8421356  71.1087767
  38.1461446 110.1994419  72.2302162  37.4084203 109.6871805  72.5612405
  38.3988220 109.7594801  71.4185439  38.2473074 102.9770671  72.8243932
  38.5531950 102.1168035  72.5369847  38.9725678 103.5688291  72.6242926
  32.5194153 113.2724464  73.3320123  32.5742763 112.3198301  73.2562599
  31.7085355 113.4283903  73.8161421  30.4586513 111.8901524  71.0910502
  29.6454379 112.1895694  71.4975694  30.9545507 111.4957213  71.8084984
  36.0560725 112.3543348  79.9225395  36.4110113 112.5814821  80.7819861
  36.7032856 112.6861725  79.3002651  41.7858462 115.4761784  70.6274724
  41.6476360 115.6663380  69.6995914  41.4294681 116.2381167  71.0842776
  29.9500588 109.4619879  76.7071736  30.5899967 109.3208639  76.0094700
  29.1178119 109.1754393  76.3310338  41.8127841 117.5438311  75.6385996
  42.2464348 117.4513600  76.4869050  42.5259422 117.5195812  75.0006012
  27.0343655 112.9065392  68.8966482  26.1041243 112.8449847  69.1136444
  27.1301127 112.3841344  68.1003123  26.9529204 109.4320204  71.4844723
  27.2136022 110.3465538  71.3753884  27.7746377 108.9644647  71.6341336
  28.4254130 110.8457962  78.6543548  29.0977183 110.6375324  78.0056197
  27.5983916 110.6480048  78.2148780  42.6743391 117.5862012  78.1718881
  42.8679281 118.4907822  78.4178156  42.5744009 117.1269431  79.0057466
  34.3279702 107.4719902  80.6709209  33.6807617 108.1709852  80.5773685
  35.0980717 107.9056046  81.0385457  34.5043836 115.3100667  78.7306028
  35.4335896 115.4611827  78.5574996  34.0834866 115.3984688  77.8754675
  37.7896575 116.0588969  64.1630463  37.1725745 115.3335797  64.0663516
  37.3213063 116.8198329  63.8197538  31.4563928 113.8320524  78.9029665
  32.1663546 113.1913716  78.8616283  31.4133236 114.0833419  79.8255845
  30.1692862 110.8185742  80.7225304  29.6330219 110.3676480  81.3746900
  29.5809570 110.9531651  79.9795768  29.5795121 110.2774393  63.2851768
  28.7024587 110.1563194  62.9214014  30.0552874 109.4860471  63.0330656
  25.9031983 109.9541749  77.8078299  25.8190172 109.3467419  77.0728709
  25.0814689 110.4450768  77.8087795  36.0755697 108.4395313  73.1748494
  36.5724396 107.6865275  72.8549564  35.3042678 108.4759630  72.6091703
  43.9285454 114.1435679  74.8166785  43.9175330 115.0260394  74.4460718
  43.0602834 113.7907229  74.6221322  32.6590665 110.5812696  72.9020178
  32.2888453 110.0283736  73.5901084  33.1549758 109.9770829  72.3495178
  40.5458029 113.0384319  71.2836951  41.0118481 113.8712311  71.2097254
  40.9965529 112.5729301  71.9882210  38.5174692 105.4064906  75.3227853
  37.6037771 105.6369133  75.4910059  38.9467793 105.4903351  76.1741885
  38.2881150 113.5954798  77.8227747  37.6352600 113.8430706  77.1680199
  38.6661530 112.7818937  77.4890224  34.3368723 114.3374609  84.3093784
  33.6609360 114.2368739  84.9796159  35.1596357 114.1813823  84.7729781
  28.0555999 107.9916687  79.1473284  28.1197326 108.8531518  78.7350682
  27.9923119 107.3790688  78.4145643  27.5308272 110.0639819  82.7946319
  28.1580310 109.6816897  83.4083843  26.6736191 109.8454021  83.1602011
  24.3073814 111.8716248  68.7264673  24.6027256 110.9626927  68.6731727
  23.4061850 111.8503988  68.4045676  27.8368061 109.9472245  74.7092222
  27.1154647 110.5608213  74.5699695  28.6261317 110.4830010  74.6308868
  30.6394375 107.2826671  80.9832874  31.1628777 107.5288968  81.7459183
  30.4206708 108.1146706  80.5636011  26.0361656 109.5530346  68.8503999
  25.7074362 108.6727725  68.6679104  26.3901027 109.4978015  69.7380388
  29.1503479 109.8403316  69.2179476  29.4899552 110.3689237  68.4958085
  29.5975600 110.1783722  69.9938043  31.8446920 108.2240367  78.6682544
  31.5043740 107.4248180  79.0703224  31.1385926 108.5242077  78.0959377
  32.4963392 105.3089679  77.1209867  33.3189461 104.8350157  76.9988758
  32.7401455 106.0880163  77.6208554  31.1371626 108.3377937  67.4172769
  31.8579989 108.7159190  66.9136486  30.5136930 109.0566814  67.5207747
  35.2802749 109.0423086  68.3531101  35.4966364 109.9247724  68.0519930
  34.7996816 108.6509300  67.6236743  30.0201971 112.0008800  74.9301846
  29.8746551 112.3149103  75.8226127  29.5427174 112.6193700  74.3772745
  31.8798353 108.9911348  74.9782735  31.8659922 108.0952441  74.6415033
  32.5970782 108.9982011  75.6121022  33.7324484 109.4248688  77.0235863
  33.4742262 110.3465758  77.0220193  33.2009525 109.0279122  77.7136327
  31.2835249 107.8725728  70.2470306  31.4051161 106.9442374  70.4461193
  30.9937292 107.8864414  69.3348621  34.1526440 105.5580638  73.3837025
  34.1748137 105.6219971  72.4289005  34.5694499 104.7185147  73.5777532
  44.5310064 115.2935898  71.4216248  44.9741210 114.5443223  71.0235371
  43.6536574 115.2846034  71.0389980  30.7676329 109.3857725  84.4560238
  30.8164484 110.2619848  84.0738008  31.3098843 108.8435118  83.8831881
  41.3729050 116.7791315  81.0494104  41.4227055 116.6141322  81.9909627
  41.2642973 115.9118574  80.6591985  38.6632812 112.7622243  82.3653411
  39.5642675 112.6228708  82.0737408  38.7380787 112.9276698  83.3051588
  32.9975617 110.1389098  81.2106597  32.1278927 110.4322664  80.9389185
  33.2335098 110.7229543  81.9313861  44.0742929 116.7641136  73.8138696
  44.9089820 117.2030940  73.9776256  44.2102058 116.2879789  72.9946941
  41.1234435 114.3220871  79.7616183  41.5988556 114.5148517  78.9535035
  40.2000000 114.3780057  79.5159567  35.7014651 106.3568715  78.7272017
  36.2196595 107.0929742  78.4018506  35.3469784 106.6632708  79.5618776
  27.2813589 111.2173396  66.8433423  26.5882834 111.2917751  66.1873459
  27.0365341 110.4533739  67.3654940  35.9527245 102.7768997  74.2472914
  36.2328999 102.1092186  74.8733340  36.7377852 102.9698093  73.7347578
  39.8236104 111.1986631  77.9944489  40.7753527 111.2984729  78.0156713
  39.6539554 110.4064900  78.5042573  37.8450483 108.2842214  78.1803890
  37.2500415 108.5647227  77.4850379  37.5600180 108.7736115  78.9520631
  42.3024182 114.4192751  77.1086789  42.2700502 113.4808752  77.2946472
  42.9124805 114.4976788  76.3752614  34.1407512 113.2888804  63.1513993
  35.0866617 113.1595012  63.2202411  33.7621757 112.5503466  63.6283421
  42.4518670 111.2103794  77.1545072  41.9357719 110.4262251  76.9675001
  43.3358619 110.8822511  77.3191591  40.1129397 104.9544810  73.1140884
  39.9154218 104.6459898  73.9984216  40.7229102 105.6806449  73.2438814
  48.1200731 115.4808758  76.2492825  48.8504120 115.2194046  76.8100529
  47.5107677 114.7437480  76.2894893  46.2016028 113.6216620  76.8467277
  45.4749192 113.4872585  76.2383768  45.7863315 113.9293449  77.6523995
  32.3250430 111.2138780  63.0868878  31.4181885 110.9171893  63.1631592
  32.6026411 110.9168598  62.2203164  33.9412495 105.7575670  69.2413119
  33.1313224 105.4122755  69.6168365  34.6296912 105.4483214  69.8300731
  35.8703044 104.8353717  70.8637416  36.4234082 105.2549170  71.5227439
  36.1073130 103.9089465  70.9060372  31.8936143 110.8240790  86.6440180
  31.7932870 111.7735147  86.5752271  31.6757685 110.4959029  85.7716250
  31.0949214 108.0725715  63.2280857  31.9568378 108.3980614  63.4876674
  31.2799558 107.2857211  62.7153923  39.2481851 106.9454242  70.3716080
  38.6680520 107.6039046  69.9894133  38.9817783 106.1231586  69.9603498
  37.6985417 106.3459300  72.5737400  38.1985195 106.4575834  71.7651719
  38.3421025 106.0420352  73.2138209  38.0306729 109.1054332  69.4272428
  37.1432584 109.3903983  69.2092623  38.4460718 108.9448096  68.5799705
  41.3821265 109.1300853  73.1426768  42.1581655 109.6197306  73.4151384
  40.6569399 109.5558907  73.5998637  43.8193823 109.8428472  74.2000708
  44.4138314 109.6024208  73.4894016  43.8920407 109.1235603  74.8274245
  38.0047752 114.6208868  69.6422719  37.9482954 115.0777420  68.8030351
  38.5576095 113.8599553  69.4645561  41.8152558 110.4098600  70.4672838
  41.5589493 110.0095236  71.2981046  41.1905426 111.1242394  70.3422977
  46.1264896 113.1494673  72.9744129  45.5664454 113.2187863  73.7475691
  45.5208400 112.9735658  72.2543626  38.7382532 115.8113649  66.9375248
  38.6831335 115.6457921  65.9963692  38.1128587 116.5189682  67.0937437
  23.5275047 111.0481714  80.7636670  24.1733910 110.5380668  81.2523895
  23.3192198 111.7850395  81.3380095  32.0478657 105.3121758  66.5160566
  32.0357327 106.2563598  66.6728837  32.9402079 105.1291904  66.2220027
  35.8630777 101.9064535  70.7706503  35.0963172 101.3523022  70.9163185
  36.2741482 101.9786404  71.6320655  27.8672538 108.1949331  84.8611684
  28.7303999 107.8386136  85.0715009  27.2937948 107.8563226  85.5487088
  47.2879162 119.0469030  77.7226194  46.9443432 119.9370671  77.6465305
  47.6558125 118.8570687  76.8595779  49.0866828 118.3062589  72.8243932
  49.3925705 117.4459952  72.5369847  49.8119433 118.8980209  72.6242926
  46.7921000 118.1060915  74.2472914  47.0722754 117.4384104  74.8733340
  47.5771607 118.2990010  73.7347578  50.9523151 120.2836728  73.1140884
  50.7547973 119.9751816  73.9984216  51.5622857 121.0098366  73.2438814
  46.7024531 117.2356453  70.7706503  45.9356927 116.6814939  70.9163185
  47.1135236 117.3078322  71.6320655   4.3519300  31.0127600  60.2417888
   3.5983008  30.4434998  60.0861892   4.4866841  30.9790264  61.1888522
   0.7167912  32.4535588  60.5384002   1.5514803  32.8925392  60.7021563
   0.8527041  31.9774241  59.7192248   4.7625715  31.1703210  62.9738132
   5.4929103  30.9088498  63.5345835   4.1532660  30.4331932  63.0140200
   2.8441012  29.3111072  63.5712583   2.1174175  29.1767037  62.9629075
   2.4288299  29.6187901  64.3769301   0.4618807  25.5322924  60.9246015
   1.0563297  25.2918660  60.2139323   0.5345390  24.8130055  61.5519551
   2.7689879  28.8389125  59.6989436   2.2089437  28.9082315  60.4720998
   2.1633383  28.6630110  58.9788932   4.3545898  45.5145639  62.3919392
   4.9924308  45.3952386  61.6882732   4.2366741  46.4626483  62.4507344
   1.1635604  45.4673067  62.3280916   0.8254116  45.3514132  61.4401451
   2.0325372  45.0664232  62.3081923   1.6455387  46.6207919  68.2867122
   1.6344028  46.2260717  67.4147626   1.8076027  45.8873992  68.8800893
   2.6021979  50.9879511  53.6292272   1.9509958  51.5733592  53.2426286
   3.3966341  51.5185706  53.6887310   3.9087166  43.2397093  59.4672600
   4.6950256  42.8216516  59.1163017   4.1725871  44.1443185  59.6354248
   4.0797244  48.6769943  54.1661257   3.4443077  48.7504570  54.8782161
   3.7494650  49.2663542  53.4880336   9.3095594  43.1772326  60.3705578
  10.0420765  42.6071543  60.6043408   8.5534949  42.7893927  60.8112084
   0.9271713  45.5999568  57.5668921   0.5629920  45.0730189  58.2781842
   1.7838829  45.2098037  57.3935406   6.8321014  36.8893900  64.8300187
   6.5004339  37.7589311  64.6061402   6.2366627  36.5730184  65.5094217
   3.3252533  49.0906446  64.2296100   3.0253256  49.9931485  64.1211907
   2.9803593  48.8238629  65.0817253   6.7249677  41.6088986  61.9093537
   5.8166555  41.5404395  61.6152298   6.6737273  42.0860931  62.7375362
   8.5911324  39.8105425  63.6871411   7.9485704  40.1037958  63.0411206
   8.0866252  39.6958345  64.4924608   6.2451487  43.5568598  54.3757270
   7.1569343  43.7895985  54.2004968   5.7361134  44.1405642  53.8132349
   4.5292255  47.9793226  68.0118563   4.9375611  47.5375636  67.2673195
   3.8069516  47.4045853  68.2652756   0.8823325  42.9165833  65.3852120
   1.7284520  43.3405246  65.5286769   0.8221963  42.2599457  66.0790683
   4.8521070  48.5394416  61.7670852   4.2229932  48.7040131  61.0646920
   4.4646732  48.9536026  62.5381816   8.7310301  49.4748854  59.1215215
   8.0461340  49.8547756  58.5712249   8.8154151  50.0844181  59.8547163
   4.0322770  40.5770201  67.0433293   3.7883702  41.3312262  66.5067569
   4.3082701  40.9555549  67.8780540   5.9861233  47.1208813  65.7210559
   6.1978128  47.7640573  65.0444940   5.9390981  46.2871130  65.2532489
   3.5887462  39.7326634  62.6247131   2.7271941  40.0307888  62.9163869
   3.6149897  39.9497033  61.6928164   7.1007061  49.9980769  63.8932916
   7.9224505  49.5960956  63.6115598   7.0969464  49.8949003  64.8449032
  15.1913054  46.3419517  60.2417888  14.4376762  45.7726915  60.0861892
  15.3260595  46.3082182  61.1888522   0.5811682  51.2132920  55.9172607
   0.4457357  52.0584455  56.3457455   1.1221495  51.4152197  55.1538541
   2.2080158  51.8356486  70.0472949   1.7644013  51.0492865  69.7293854
   2.8697372  52.0235637  69.3816840   4.3061397  52.1159286  68.0754350
   4.2879872  52.9368167  67.5834620   5.2281317  51.9913361  68.3004492
   3.9304146  34.7363481  64.4471501   3.5868415  35.6265123  64.3710611
   4.2983108  34.5465139  63.5841086   3.8954428  44.7272093  52.9543936
   3.3801052  45.4976697  53.1932323   3.6231737  44.0537229  53.5776997
   1.4801539  39.5721793  58.0129174   0.6243136  39.1828644  57.8334813
   1.8928491  39.6513754  57.1528960   3.0100686  37.1068137  62.4120734
   2.5065482  37.0698272  61.5988539   3.3031293  38.0160879  62.4717390
   8.8688703  47.4804447  54.8897109   8.0918145  47.1415607  54.4452271
   9.5480184  47.4857070  54.2152074   3.6840732  42.5999185  54.7803717
   3.3790867  42.9145334  55.6313860   4.6371174  42.6780605  54.8231050
   2.1287163  48.7589408  56.4296671   1.6008525  48.0242168  56.1169908
   1.6274666  49.5364084  56.1836639   7.1080009  46.9538428  61.5463717
   6.4503684  47.6437690  61.6343846   7.9120409  47.3434860  61.8897703
   5.9185468  45.3082801  59.5967659   6.4317350  45.9412793  60.0989369
   6.5686692  44.7083997  59.2311019   3.1807842  55.2867125  52.3528330
   2.5069541  55.5898822  52.9613288   3.5673664  56.0896206  52.0033787
   2.3966299  42.7832257  61.8425999   1.4788860  43.0047204  61.6847687
   2.8126443  42.8578567  60.9837707   3.1801347  44.1823672  56.9728680
   3.9273166  44.6945070  56.6635802   3.4492936  43.8607725  57.8333073
   1.4527997  46.6782213  53.9555634   0.5439216  46.3941246  54.0528104
   1.4823081  47.0981292  53.0958941   6.6847264  50.2888803  57.7246802
   6.2309592  49.4479712  57.7811992   6.0541231  50.9250201  58.0621582
   5.6280184  41.2180789  58.9547469   4.8902941  40.7058175  59.2857712
   5.8806958  40.7781170  58.1430746   5.1280204  52.1265299  58.6596620
   5.4203178  52.6870356  57.9408985   5.6378824  52.4193860  59.4149779
   5.7291811  33.9957041  59.5489238   6.0350688  33.1354404  59.2615153
   6.4544416  34.5874661  59.3488232   1.1504085  48.2190957  51.2943713
   0.7123515  47.5026816  50.8349350   1.8914526  48.4467072  50.7328804
   3.5379463  43.3729718  66.6470702   3.8928850  43.6001191  67.5065168
   4.1851594  43.7048095  66.0247957   9.2677200  46.4948154  57.3520031
   9.1295098  46.6849750  56.4241220   8.9113418  47.2567537  57.8088082
   9.2946579  48.5624681  62.3631303   9.7283086  48.4699970  63.2114357
  10.0078160  48.5382181  61.7251319   3.0274474  52.1626775  63.8964403
   3.0811496  52.7317711  64.6642119   2.1589255  52.3328660  63.5318440
  10.1562129  48.6048381  64.8964188  10.3498019  49.5094192  65.1423463
  10.0562747  48.1455801  65.7302773   1.8098440  38.4906272  67.3954515
   1.1626355  39.1896222  67.3018992   2.5799455  38.9242416  67.7630764
   5.2177237  48.7555124  70.4705069   5.0662744  48.5265676  69.5535152
   5.2081917  49.7125726  70.4836414   1.9862574  46.3287037  65.4551335
   2.9154634  46.4798197  65.2820302   1.5653604  46.4171058  64.5999982
   1.3799058  55.4546798  54.5675409   1.5550813  54.9834841  55.3821032
   0.6931846  56.0812564  54.7956670   2.3356121  49.7319304  60.6138710
   2.0005953  49.6920074  61.5096360   1.8360066  49.0664020  60.1409121
   5.2715312  47.0775338  50.8875770   4.6544483  46.3522167  50.7908823
   4.8031801  47.8384699  50.5442844   6.9269444  51.7874247  68.5481550
   6.8681990  51.1033467  67.8812134   7.3288962  52.5293237  68.0962176
   6.9286851  49.7513831  66.7795530   6.0413630  49.4139753  66.9021929
   7.4985402  49.0196862  67.0164296   3.5574435  39.4581683  59.8993800
   4.0543134  38.7051645  59.5794871   2.7861416  39.4945999  59.3337010
  11.4104192  45.1622048  61.5412092  11.3994068  46.0446764  61.1706025
  10.5421571  44.8093599  61.3466629   2.9186688  54.3102117  65.9014932
   3.6314660  54.9449582  65.8290833   2.4276717  54.4065983  65.0854934
   4.6404215  48.2153370  57.4732224   3.7060494  48.3354832  57.3036928
   4.8180884  47.3125837  57.2092234   8.0276767  44.0570689  58.0082258
   8.4937219  44.8898681  57.9342560   8.4784267  43.5915671  58.7127516
   6.0952998  50.4014510  55.0068410   6.3712842  50.2871105  55.9162284
   5.2257496  50.0031995  54.9680583   5.9993429  36.4251276  62.0473159
   5.0856509  36.6555503  62.2155366   6.4286531  36.5089720  62.8987192
   5.7699888  44.6141168  64.5473053   5.1171338  44.8617075  63.8925506
   6.1480268  43.8005306  64.2135530   2.7307062  54.6500861  58.6501223
   2.9129456  53.8322517  59.1128976   3.5540048  54.8668553  58.2126113
   3.0649227  53.5769046  55.9116272   3.5936994  53.0661501  55.2986434
   3.3277447  53.2611577  56.7761805   1.8187461  45.3560979  71.0339090
   1.1428098  45.2555108  71.7041465   2.6415095  45.2000193  71.4975087
   0.5610244  56.6627907  65.2696706   1.1128552  56.8259528  66.0345791
   0.9016437  57.2532344  64.5976731   5.4121118  51.4889164  71.1245361
   5.9561022  52.1019122  70.6300316   4.8307963  52.0468742  71.6412374
   3.6978631  54.6109882  62.2560388   3.5729770  53.8099622  61.7471334
   4.3557722  55.1056075  61.7674358   5.7613539  52.4118902  63.8839939
   4.8143875  52.2924253  63.8118265   6.1096312  51.5241400  63.9666200
   2.7659973  52.2071618  60.0844291   2.6184935  51.2788326  60.2651861
   3.5913466  52.2291709  59.6001366   6.3694094  53.0300177  61.1709164
   7.2940642  52.8243038  61.0333615   6.2009398  52.7816578  62.0798505
   2.7621487  40.0609456  55.0776408   2.9785101  40.9434094  54.7765236
   2.2815554  39.6695669  54.3482050   1.2143222  40.4435057  63.7481170
   0.9561000  41.3652128  63.7465500   0.6828262  40.0465492  64.4381634
   6.1589411  53.5485845  56.5271255   6.3326288  52.9832267  55.7745107
   6.6518302  54.3486739  56.3450745   1.6345178  36.5767008  60.1082332
   1.6566874  36.6406341  59.1534312   2.0513237  35.7371517  60.3022838
  12.0128802  46.3122267  58.1461555  12.4559948  45.5629593  57.7480678
  11.1355312  46.3032404  57.7635287   7.1464583  52.8652609  53.6268153
   7.8415488  53.4859302  53.8455468   7.4887733  52.0147960  53.9020531
   9.0456006  50.3152314  55.1555484   9.5707330  50.6539587  54.4304804
   8.9578359  49.3799330  54.9718619   0.7076055  54.2286388  67.2845361
   1.0163181  53.9835535  68.1568060   1.5051537  54.4333027  66.7964231
   8.7349912  50.9485218  70.4606682   7.9445456  50.9309357  69.9211181
   8.4983267  51.4873512  71.2155719   8.8547787  47.7977684  67.7739411
   8.9045792  47.6327692  68.7154933   8.7461711  46.9304943  67.3837291
   6.1451550  43.7808612  69.0898717   7.0461413  43.6415077  68.7982715
   6.2199524  43.9463067  70.0296895  10.3565984  50.2174626  68.0181432
  10.0650793  50.5804607  68.8544893   9.7438116  49.5041634  67.8394764
  11.5561667  47.7827506  60.5384002  12.3908558  48.2217310  60.7021563
  11.6920795  47.3066159  59.7192248   8.6053173  45.3407241  66.4861490
   9.0807294  45.5334887  65.6780341   7.6818738  45.3966426  66.2404874
   3.1833389  37.3755084  65.4517324   3.7015333  38.1116111  65.1263812
   2.8288522  37.6819077  66.2864083   3.4345983  33.7955367  60.9718221
   3.7147737  33.1278556  61.5978647   4.2196590  33.9884462  60.4592884
   1.2379452  52.9714361  52.5343247   0.6653419  53.5904548  52.0813719
   1.8112245  53.5213722  53.0683169   7.3054842  42.2173001  64.7189796
   8.2572264  42.3171098  64.7402020   7.1358292  41.4251269  65.2287880
   5.3269221  39.3028584  64.9049197   4.7319153  39.5833597  64.2095685
   5.0418918  39.7922485  65.6765938   4.4576711  53.2551511  53.6651829
   5.3907385  53.1897072  53.8684705   4.3699924  54.0907778  53.2066362
   7.0864728  52.5717381  50.6255777   7.0078360  52.2377245  51.5191535
   7.9074395  53.0639149  50.6247249   9.7842919  45.4379120  63.8332095
   9.7519239  44.4995121  64.0191779  10.3943543  45.5163157  63.0997920
   1.6226250  44.3075173  49.8759299   2.5685355  44.1781381  49.9447717
   1.2440495  43.5689835  50.3528727   9.9337408  42.2290164  63.8790378
   9.4176456  41.4448620  63.6920307  10.8177356  41.9008880  64.0436898
   7.5948135  35.9731179  59.8386191   7.3972956  35.6646268  60.7229523
   8.2047840  36.6992818  59.9684121  15.6019469  46.4995127  62.9738132
  16.3322858  46.2380415  63.5345835  14.9926415  45.7623849  63.0140200
  13.6834766  44.6402990  63.5712583  12.9567930  44.5058955  62.9629075
  13.2682053  44.9479818  64.3769301   1.5064943  48.3592919  71.3359956
   2.4267952  48.5371519  71.5300003   1.4714526  47.4148965  71.1839656
   1.4231233  36.7762039  55.9658426   0.6131961  36.4309124  56.3413672
   2.1115650  36.4669583  56.5546037   3.3521781  35.8540086  57.5882722
   3.9052820  36.2735540  58.2472746   3.5891868  34.9275834  57.6305678
   6.7300588  37.9640611  57.0961387   6.1499257  38.6225415  56.7139439
   6.4636521  37.1417956  56.6848804   5.1804155  37.3645669  59.2982707
   5.6803933  37.4762204  58.4897026   5.8239763  37.0606722  59.9383516
   5.5125466  40.1240702  56.1517735   4.6251321  40.4090352  55.9337930
   5.9279455  39.9634465  55.3045012   8.8640003  40.1487223  59.8672074
   9.6400393  40.6383675  60.1396691   8.1388137  40.5745277  60.3243944
  11.3012561  40.8614842  60.9246015  11.8957052  40.6210578  60.2139323
  11.3739145  40.1421973  61.5519551   4.6568680  49.8885376  50.2465755
   5.3604530  50.0935379  50.8623411   3.9331329  50.4562138  50.5114839
   5.4866490  45.6395238  56.3668025   5.4301692  46.0963789  55.5275658
   6.0394833  44.8785922  56.1890868   9.2971296  41.4284970  57.1918145
   9.0408230  41.0281605  58.0226352   8.6724164  42.1428764  57.0668284
  13.6083634  44.1681043  59.6989436  13.0483192  44.2374232  60.4720998
  13.0027137  43.9922027  58.9788932   6.5655377  50.3267906  52.2964215
   7.4000981  49.8949104  52.1141690   6.4039720  50.1549919  53.2241110
   6.2201269  46.8300019  53.6620554   6.1650073  46.6644290  52.7208998
   5.5947325  47.5376052  53.8182744   3.5347177  49.1348931  72.9874117
   4.4038336  49.3089583  72.6260752   3.0553928  49.9543348  72.8649846
   3.3449514  32.9250905  57.4951810   2.5781910  32.3709391  57.6408492
   3.7560219  32.9972773  58.3565961  15.1939652  60.8437557  62.3919392
  15.8318062  60.7244304  61.6882732  15.0760495  61.7918401  62.4507344
  12.0029359  60.7964985  62.3280916  11.6647870  60.6806050  61.4401451
  12.8719127  60.3956150  62.3081923   7.8616174  62.6500461  58.3177807
   7.2981039  62.5590398  57.5494095   7.7468569  61.8300366  58.7980300
  12.4849142  61.9499837  68.2867122  12.4737782  61.5552635  67.4147626
  12.6469781  61.2165909  68.8800893   5.4080606  64.1451653  61.1562028
   6.2001898  63.8042478  60.7408327   5.6477256  64.2546628  62.0764181
  13.4415733  66.3171429  53.6292272  12.7903713  66.9025509  53.2426286
  14.2360096  66.8477624  53.6887310   7.3671360  63.4060566  54.0279407
   8.1402236  62.8589553  53.8892282   7.7196759  64.2704815  54.2393868
   9.2056403  64.7336948  67.2346306   8.9146269  65.6382579  67.1192972
   9.8413387  64.7753476  67.9490376  10.1312610  62.1113797  63.8247666
  10.7276182  61.8869819  63.1104629  10.1887581  61.3698542  64.4273113
   9.7037638  59.5653232  51.6597857   9.9563159  59.0434754  50.8981320
   8.7662197  59.4019378  51.7624540  14.7480921  58.5689011  59.4672600
  15.5344010  58.1508434  59.1163017  15.0119625  59.4735103  59.6354248
  14.9190998  64.0061861  54.1661257  14.2836831  64.0796487  54.8782161
  14.5888405  64.5955460  53.4880336  20.1489348  58.5064244  60.3705578
  20.8814520  57.9363461  60.6043408  19.3928704  58.1185844  60.8112084
   9.4233927  61.4681338  53.8622232   9.3070185  60.7926242  54.5303316
   9.5336187  60.9813712  53.0454385  11.7665468  60.9291485  57.5668921
  11.4023675  60.4022106  58.2781842  12.6232584  60.5389954  57.3935406
  17.6714768  52.2185818  64.8300187  17.3398093  53.0881229  64.6061402
  17.0760382  51.9022102  65.5094217  11.4070955  55.9581385  52.5630269
  11.5745357  56.8261621  52.9300740  11.2168124  56.1208667  51.6391559
  14.1646288  64.4198364  64.2296100  13.8647011  65.3223403  64.1211907
  13.8197347  64.1530547  65.0817253   7.6158769  60.8712161  60.2632804
   6.6909266  60.7388375  60.4710496   7.8643183  61.6506380  60.7602747
  17.5643432  56.9380904  61.9093537  16.6560309  56.8696313  61.6152298
  17.5131027  57.4152849  62.7375362  11.3860176  58.4139043  53.5476936
  11.2659801  58.8596093  54.3862416  10.6912764  58.7624360  52.9890474
   4.9767580  60.5145434  61.0976593   5.1059962  60.7679913  62.0116005
   4.2965032  61.1073142  60.7781248   9.1467068  71.1842684  57.1967067
   9.0691097  72.1350509  57.2755548   8.5428711  70.8388557  57.8541994
  11.6384297  58.3570550  69.8528434  10.8617632  58.9164470  69.8431299
  12.2774861  58.8427333  70.3743304  19.4305078  55.1397343  63.6871411
  18.7879458  55.4329876  63.0411206  18.9260007  55.0250263  64.4924608
  17.0845242  58.8860516  54.3757270  17.9963098  59.1187902  54.2004968
  16.5754889  59.4697560  53.8132349   9.8930670  61.1656003  69.4146401
  10.6345354  61.7041047  69.1381225   9.1867655  61.7922292  69.5717953
  15.3686009  63.3085144  68.0118563  15.7769365  62.8667554  67.2673195
  14.6463271  62.7337771  68.2652756  11.7217079  58.2457750  65.3852120
  12.5678275  58.6697164  65.5286769  11.6615717  57.5891375  66.0790683
  15.6914824  63.8686334  61.7670852  15.0623686  64.0332048  61.0646920
  15.3040486  64.2827944  62.5381816  19.5704056  64.8040772  59.1215215
  18.8855094  65.1839673  58.5712249  19.6547905  65.4136099  59.8547163
  14.8716525  55.9062119  67.0433293  14.6277457  56.6604179  66.5067569
  15.1476455  56.2847466  67.8780540  16.8254988  62.4500731  65.7210559
  17.0371883  63.0932491  65.0444940  16.7784736  61.6163048  65.2532489
  14.4281217  55.0618552  62.6247131  13.5665696  55.3599805  62.9163869
  14.4543651  55.2788951  61.6928164  11.2442786  63.6060742  59.0320937
  11.7081131  63.8848445  58.2425559  10.9799584  62.7044187  58.8494027
   8.1366867  63.1532224  61.9700700   8.7068224  63.5819492  61.3318184
   8.7274979  62.8714809  62.6684886  10.1811672  59.7283895  55.8410502
  10.8835715  60.1804938  56.3084428   9.8492300  59.0867713  56.4690395
   8.6292034  58.3195651  70.2161711   7.9990694  59.0011932  70.4497108
   8.5228121  58.2078733  69.2714850   3.9237006  57.9867447  61.1427635
   3.1336060  58.2424976  60.6667746   4.4148253  58.8015785  61.2479676
  17.9400815  65.3272686  63.8932916  18.7618259  64.9252874  63.6115598
  17.9363218  65.2240921  64.8449032   5.8751751  58.3512027  58.1011112
   5.0782915  58.4630721  58.6194608   5.6477344  58.6898679  57.2352003
  11.7057419  64.8756730  66.0493627  11.7701851  65.3377137  66.8851799
  10.9968343  64.2454095  66.1775937   2.2074709  58.2397938  63.5742626
   2.4582747  59.1244948  63.8400202   2.7434257  58.0602539  62.8017718
  26.0306809  61.6711435  60.2417888  25.2770517  61.1018833  60.0861892
  26.1654350  61.6374099  61.1888522  11.4205437  66.5424837  55.9172607
  11.2851111  67.3876373  56.3457455  11.9615249  66.7444115  55.1538541
   7.9072776  52.6216417  72.5786962   7.5139722  52.0682616  73.2534607
   8.7238917  52.9326996  72.9693480   4.8734834  64.0600275  56.4900532
   5.3859355  64.8543526  56.6406097   5.5257547  63.3626566  56.4234134
   6.6829719  67.1766032  58.5723285   6.8596347  68.0983996  58.3844269
   7.4786552  66.8624451  59.0017665  10.8240737  54.0374296  70.1707219
  11.5650451  54.6381449  70.0911681  11.0558660  53.2951934  69.6125261
   5.9682075  59.2230663  68.4485449   5.8535590  58.3215921  68.7492547
   5.1126593  59.4694360  68.0970265  13.0473913  67.1648404  70.0472949
  12.6037767  66.3784782  69.7293854  13.7091127  67.3527554  69.3816840
   7.8061034  68.6944205  64.5733628   8.3568459  68.5661269  63.8010622
   6.9672510  68.9939094  64.2228520  15.1455151  67.4451204  68.0754350
  15.1273626  68.2660085  67.5834620  16.0675071  67.3205279  68.3004492
  11.6028205  64.9595333  68.9177859  12.1356542  64.1983621  68.6877167
  11.0742286  64.6668985  69.6602013  14.7697900  50.0655399  64.4471501
  14.4262170  50.9557041  64.3710611  15.1376863  49.8757057  63.5841086
   2.8383751  62.3888930  57.2660103   3.6758973  62.7985938  57.0493810
   3.0162018  61.4488372  57.2360297  14.7348183  60.0564010  52.9543936
  14.2194806  60.8268615  53.1932323  14.4625491  59.3829146  53.5776997
  12.3195294  54.9013711  58.0129174  11.4636890  54.5120561  57.8334813
  12.7322246  54.9805672  57.1528960  13.8494441  52.4360054  62.4120734
  13.3459236  52.3990189  61.5988539  14.1425047  53.3452797  62.4717390
  10.0937326  52.5198784  61.4186916  10.9590323  52.3241593  61.0592805
  10.1614835  52.2909136  62.3456272  19.7082457  62.8096365  54.8897109
  18.9311900  62.4707524  54.4452271  20.3873938  62.8148988  54.2152074
  14.5234486  57.9291102  54.7803717  14.2184622  58.2437252  55.6313860
  15.4764928  58.0072522  54.8231050  12.9680918  64.0881326  56.4296671
  12.4402279  63.3534085  56.1169908  12.4668421  64.8656002  56.1836639
  17.9473764  62.2830346  61.5463717  17.2897438  62.9729608  61.6343846
  18.7514163  62.6726778  61.8897703   7.6999646  54.7500992  58.7903282
   8.2743397  54.5276173  58.0576475   8.2870628  54.8189686  59.5431884
  16.7579223  60.6374719  59.5967659  17.2711104  61.2704711  60.0989369
  17.4080447  60.0375914  59.2311019   8.0269233  56.7805453  52.8099168
   7.1906545  57.1180140  53.1308442   7.8874002  56.6454433  51.8726305
  10.0022313  51.6242241  57.5178352   9.3486726  51.3091258  56.8934967
   9.9602787  51.0017981  58.2438175  11.1133518  61.9061536  49.4331644
  10.2060580  61.6750789  49.6322793  11.6104550  61.1099155  49.6205625
  14.0201597  70.6159043  52.3528330  13.3463296  70.9190740  52.9613288
  14.4067419  71.4188123  52.0033787  13.2360054  58.1124174  61.8425999
  12.3182615  58.3339121  61.6847687  13.6520197  58.1870485  60.9837707
  14.0195101  59.5115590  56.9728680  14.7666920  60.0236987  56.6635802
  14.2886691  59.1899643  57.8333073  12.2921752  62.0074131  53.9555634
  11.3832971  61.7233164  54.0528104  12.3216835  62.4273209  53.0958941
  17.5241019  65.6180720  57.7246802  17.0703346  64.7771630  57.7811992
  16.8934986  66.2542119  58.0621582  16.4673939  56.5472706  58.9547469
  15.7296695  56.0350093  59.2857712  16.7200712  56.1073088  58.1430746
  15.9673958  67.4557217  58.6596620  16.2596933  68.0162274  57.9408985
  16.4772579  67.7485778  59.4149779  16.5685566  49.3248958  59.5489238
  16.8744443  48.4646322  59.2615153  17.2938171  49.9166579  59.3488232
   2.8609922  59.7279645  57.9370836   2.6634322  59.1349006  57.2121903
   2.3056586  59.4231855  58.6546775  10.8406646  59.6202751  60.0565429
  10.8955255  58.6676588  59.9807906  10.0297848  59.7762190  60.5406728
  11.9897839  63.5482874  51.2943713  11.5517269  62.8318733  50.8349350
  12.7308280  63.7758989  50.7328804   8.7799005  58.2379811  57.8155808
   7.9666871  58.5373982  58.2221000   9.2758000  57.8435500  58.5330290
  10.9307583  68.2337568  59.7490073  10.8883762  68.4598414  58.8198605
  11.8470282  68.0000943  59.8975874  14.3773217  58.7021636  66.6470702
  14.7322605  58.9293109  67.5065168  15.0245348  59.0340012  66.0247957
  20.1070954  61.8240071  57.3520031  19.9688853  62.0141667  56.4241220
  19.7507173  62.5859454  57.8088082   8.2713080  55.8098167  63.4317043
   8.9112460  55.6686926  62.7340006   7.4390611  55.5232680  63.0555645
  20.1340334  63.8916598  62.3631303  20.5676840  63.7991888  63.2114357
  20.8471914  63.8674099  61.7251319   9.0473384  65.1100597  59.5452036
   9.8413983  64.6150917  59.3434611   8.3365077  64.5818460  59.1819741
  13.8668229  67.4918693  63.8964403  13.9205251  68.0609629  64.6642119
  12.9983010  67.6620578  63.5318440   5.3556148  59.2543679  55.6211788
   4.4253736  59.1928134  55.8381750   5.4513620  58.7319632  54.8248430
   5.2741697  55.7798492  58.2090030   5.5348514  56.6943825  58.0999190
   6.0958869  55.3122934  58.3586643   6.7466622  57.1936249  65.3788854
   7.4189675  56.9853611  64.7301503   5.9196409  56.9958335  64.9394087
  20.9955883  63.9340299  64.8964188  21.1891773  64.8386110  65.1423463
  20.8956501  63.4747718  65.7302773  12.6492194  53.8198190  67.3954515
  12.0020109  54.5188139  67.3018992  13.4193209  54.2534334  67.7630764
  16.0570992  64.0847042  70.4705069  15.9056498  63.8557594  69.5535152
  16.0475671  65.0417643  70.4836414  12.8256328  61.6578955  65.4551335
  13.7548388  61.8090114  65.2820302  12.4047358  61.7462975  64.5999982
  11.6244660  65.6829619  63.2249873  11.4855746  65.3148403  64.0975811
  10.8359256  66.1977258  63.0533830  12.2192812  70.7838716  54.5675409
  12.3944568  70.3126759  55.3821032  11.5325600  71.4104482  54.7956670
  13.1749875  65.0611222  60.6138710  12.8399708  65.0211992  61.5096360
  12.6753821  64.3955938  60.1409121   7.1494119  60.4678852  66.1391292
   7.0113917  59.7359091  66.7402831   8.0599043  60.3787752  65.8575479
  16.1109067  62.4067256  50.8875770  15.4938238  61.6814084  50.7908823
  15.6425555  63.1676616  50.5442844   9.7776420  60.1798811  65.6274971
  10.4876038  59.5392003  65.5861590   9.7345728  60.4311706  66.5501152
  17.7663199  67.1166164  68.5481550  17.7075745  66.4325385  67.8812134
  18.1682717  67.8585154  68.0962176   8.4905354  57.1664029  67.4470611
   7.9542711  56.7154767  68.0992207   7.9022062  57.3009938  66.7041075
   6.7853897  73.9328078  61.3415269   7.0250496  74.5646602  62.0194288
   5.9423094  73.5816118  61.6280629   7.9007613  56.6252680  50.0097074
   7.0237079  56.5041481  49.6459321   8.3765366  55.8338759  49.7575963
  17.7680606  65.0805748  66.7795530  16.8807385  64.7431670  66.9021929
  18.3379157  64.3488780  67.0164296   4.2244475  56.3020037  64.5323605
   4.1402664  55.6945706  63.7974015   3.4027182  56.7929055  64.5333102
  11.2981759  69.7407201  63.7456773  11.2251931  70.5462172  64.2576078
  10.8559152  69.9399167  62.9204795  11.0871539  68.9778971  57.2559595
  10.3039061  69.5200651  57.3497819  11.7864284  69.4952950  57.6553836
  14.3968189  54.7873600  59.8993800  14.8936889  54.0343563  59.5794871
  13.6255171  54.8237917  59.3337010  22.2497946  60.4913966  61.5412092
  22.2387823  61.3738681  61.1706025  21.3815326  60.1385517  61.3466629
  13.7580443  69.6394035  65.9014932  14.4708415  70.2741500  65.8290833
  13.2670471  69.7357901  65.0854934  15.4797970  63.5445287  57.4732224
  14.5454248  63.6646750  57.3036928  15.6574638  62.6417754  57.2092234
  10.9803158  56.9290983  59.6265485  10.6100945  56.3762024  60.3146390
  11.4762250  56.3249117  59.0740485  18.8670521  59.3862607  58.0082258
  19.3330973  60.2190598  57.9342560  19.3178022  58.9207588  58.7127516
   8.8092356  67.3888478  66.7220503   9.5101816  68.0224961  66.8749897
   8.3387471  67.7303210  65.9616142  16.9346752  65.7306428  55.0068410
  17.2106596  65.6163023  55.9162284  16.0651251  65.3323913  54.9680583
  16.8387184  51.7543194  62.0473159  15.9250264  51.9847421  62.2155366
  17.2680285  51.8381638  62.8987192  16.6093642  59.9433086  64.5473053
  15.9565093  60.1908993  63.8925506  16.9874022  59.1297224  64.2135530
  13.5700816  69.9792779  58.6501223  13.7523211  69.1614435  59.1128976
  14.3933802  70.1960471  58.2126113  13.9042982  68.9060964  55.9116272
  14.4330748  68.3953419  55.2986434  14.1671201  68.5903494  56.7761805
  12.6581215  60.6852897  71.0339090  11.9821852  60.5847026  71.7041465
  13.4808849  60.5292110  71.4975087   4.4060074  66.9224833  63.6551606
   4.9913511  66.1768521  63.7879510   4.2084913  67.2328790  64.5388269
   7.2598730  69.9576081  58.6714048   6.5909105  70.4422208  58.1878088
   7.1211599  70.2045301  59.5857426  11.4003998  71.9919824  65.2696706
  11.9522306  72.1551446  66.0345791  11.7410192  72.5824262  64.5976731
   6.3768491  54.3394974  65.8718591   6.4409818  55.2009805  65.4595989
   6.3135612  53.7268976  65.1390949   5.8520764  56.4118107  69.5191625
   6.4792803  56.0295184  70.1329150   4.9948683  56.1932308  69.8847318
  16.2514873  66.8181082  71.1245361  16.7954776  67.4311040  70.6300316
  15.6701717  67.3760660  71.6412374   2.6286307  58.2194536  55.4509980
   2.9239748  57.3105214  55.3977034   1.7274342  58.1982275  55.1290982
  14.5372385  69.9401800  62.2560388  14.4123525  69.1391540  61.7471334
  15.1951477  70.4347993  61.7674358   6.1580554  56.2950532  61.4337529
   5.4367139  56.9086500  61.2945002   6.9473809  56.8308297  61.3554175
  16.6007294  67.7410820  63.8839939  15.6537629  67.6216171  63.8118265
  16.9490067  66.8533318  63.9666200   8.9606867  53.6304959  67.7078180
   9.4841269  53.8767255  68.4704490   8.7419200  54.4624994  67.2881318
   4.3574148  55.9008633  55.5749305   4.0286854  55.0206012  55.3924411
   4.7113519  55.8456302  56.4625694  13.6053727  67.5363536  60.0844291
  13.4578690  66.6080243  60.2651861  14.4307221  67.5583627  59.6001366
   7.4715971  56.1881603  55.9424783   7.8112044  56.7167524  55.2203391
   7.9188092  56.5262009  56.7183349  17.2087849  68.3592095  61.1709164
  18.1334396  68.1534956  61.0333615  17.0403152  68.1108496  62.0798505
  10.1659412  54.5718654  65.3927851   9.8256233  53.7726467  65.7948531
   9.4598419  54.8720365  64.8204684  10.8175884  51.6567966  63.8455174
  11.6401953  51.1828444  63.7234064  11.0613948  52.4358450  64.3453860
   9.4584119  54.6856225  54.1418076  10.1792481  55.0637477  53.6381793
   8.8349423  55.4045102  54.2453054  13.6015241  55.3901374  55.0776408
  13.8178856  56.2726012  54.7765236  13.1209309  54.9987587  54.3482050
   8.3414463  58.3487087  61.6547153   8.1959044  58.6627390  62.5471434
   7.8639666  58.9671987  61.1018051  10.2010846  55.3389635  61.7028042
  10.1872414  54.4430728  61.3660340  10.9183274  55.3460299  62.3366328
  12.0536976  55.7726975  63.7481170  11.7954754  56.6944046  63.7465500
  11.5222017  55.3757410  64.4381634  16.9983165  68.8777762  56.5271255
  17.1720043  68.3124185  55.7745107  17.4912056  69.6778657  56.3450745
   2.8160125  60.8892431  64.5934814   2.2713593  61.6652239  64.7255088
   3.6939475  61.2363236  64.4353935   9.6047742  54.2204015  56.9715612
   9.7263653  53.2920661  57.1706500   9.3149784  54.2342701  56.0593928
  12.4738932  51.9058926  60.1082332  12.4960629  51.9698259  59.1534312
  12.8906991  51.0663434  60.3022838  22.8522556  61.6414185  58.1461555
  23.2953702  60.8921510  57.7480678  21.9749067  61.6324322  57.7635287
  17.9858338  68.1944527  53.6268153  18.6809242  68.8151219  53.8455468
  18.3281488  67.3439878  53.9020531   3.6026147  60.0162328  67.4864971
   2.8607883  60.1644963  68.0729601   3.2818891  60.2770593  66.6231720
  19.8849761  65.6444232  55.1555484  20.4101085  65.9831505  54.4304804
  19.7972113  64.7091247  54.9718619  11.5469810  69.5578306  67.2845361
  11.8556936  69.3127453  68.1568060  12.3445292  69.7624944  66.7964231
  11.5690422  71.7116215  59.5150737  11.1295412  71.2192594  60.2083594
  12.3198539  71.1689183  59.2742812   4.0482761  67.9027756  59.5175365
   4.8740780  67.6031528  59.1374009   3.6976813  67.1335379  59.9665154
   9.0164294  67.2554225  61.5873039   8.3944303  66.5924930  61.2875267
   9.6869161  67.2815356  60.9046687   2.2491366  65.8214083  60.4764299
   1.4123274  65.3936257  60.2948300   2.2215011  66.0146526  61.4135090
   9.0888821  55.7336013  71.1805545   9.1376977  56.6098135  70.7983314
   9.6311335  55.1913406  70.6077188  19.5743667  66.2777136  70.4606682
  18.7839211  66.2601275  69.9211181  19.3377021  66.8165429  71.2155719
  19.6941542  63.1269602  67.7739411  19.7439547  62.9619610  68.7154933
  19.5855465  62.2596861  67.3837291   8.5777801  65.8058148  55.0631499
   8.7265921  66.4893612  54.4098172   9.3844244  65.7863238  55.5780955
  16.9845304  59.1100530  69.0898717  17.8855167  58.9706995  68.7982715
  17.0593279  59.2754985  70.0296895  11.3188110  56.4867385  67.9351904
  10.4491419  56.7800951  67.6634492  11.5547590  57.0707830  68.6559167
  21.1959739  65.5466544  68.0181432  20.9044547  65.9096524  68.8544893
  20.5831870  64.8333552  67.8394764  22.3955421  63.1119423  60.5384002
  23.2302312  63.5509228  60.7021563  22.5314550  62.6358077  59.7192248
  19.4446927  60.6699158  66.4861490  19.9201049  60.8626805  65.6780341
  18.5212492  60.7258344  66.2404874   6.3330434  61.8323325  56.0692568
   6.0876476  60.9285655  56.2672778   6.5026348  61.8340476  55.1272046
  14.0227143  52.7047002  65.4517324  14.5409087  53.4408029  65.1263812
  13.6682276  53.0110995  66.2864083   5.6026081  57.5651683  53.5678730
   4.9095326  57.6396038  52.9118766   5.3577833  56.8012027  54.0900247
  14.2739738  49.1247284  60.9718221  14.5541491  48.4570473  61.5978647
  15.0590345  49.3176380  60.4592884  12.0773206  68.3006278  52.5343247
  11.5047173  68.9196465  52.0813719  12.6506000  68.8505640  53.0683169
  18.1448596  57.5464918  64.7189796  19.0966019  57.6463016  64.7402020
  17.9752046  56.7543187  65.2287880  16.1662975  54.6320502  64.9049197
  15.5712908  54.9125514  64.2095685  15.8812672  55.1214403  65.6765938
  15.2970466  68.5843428  53.6651829  16.2301139  68.5188990  53.8684705
  15.2093679  69.4199695  53.2066362  17.9258483  67.9009299  50.6255777
  17.8472114  67.5669162  51.5191535  18.7468149  68.3931067  50.6247249
  20.6236674  60.7671038  63.8332095  20.5912994  59.8287039  64.0191779
  21.2337297  60.8455075  63.0997920  12.4620005  59.6367091  49.8759299
  13.4079109  59.5073299  49.9447717  12.0834250  58.8981753  50.3528727
  20.7731162  57.5582081  63.8790378  20.2570211  56.7740538  63.6920307
  21.6571111  57.2300798  64.0436898  18.4341889  51.3023097  59.8386191
  18.2366710  50.9938185  60.7229523  19.0441595  52.0284736  59.9684121
  26.4413224  61.8287045  62.9738132  27.1716612  61.5672333  63.5345835
  25.8320169  61.0915767  63.0140200  24.5228521  59.9694907  63.5712583
  23.7961684  59.8350872  62.9629075  24.1075808  60.2771736  64.3769301
  12.3458697  63.6884837  71.3359956  13.2661707  63.8663436  71.5300003
  12.3108280  62.7440883  71.1839656  10.6462922  57.5617067  49.8114185
   9.7394377  57.2650180  49.8876898  10.9238903  57.2646886  48.9448471
   1.5640862  58.8823431  60.2613231   1.2443647  58.0288739  59.9687605
   1.0174290  59.0972009  61.0171198   5.3420770  61.5985872  63.9782737
   5.5606780  62.5302980  63.9970771   5.7546544  61.2393846  64.7637541
  12.2624988  52.1053957  55.9658426  11.4525716  51.7601042  56.3413672
  12.9509404  51.7961501  56.5546037  14.1915536  51.1832004  57.5882722
  14.7446574  51.6027457  58.2472746  14.4285622  50.2567752  57.6305678
  10.2148635  57.1719078  73.3685486  10.1145362  58.1213435  73.2997577
   9.9970177  56.8437316  72.4961556   9.4161706  54.4204003  49.9526164
  10.2780870  54.7458901  50.2121981   9.6012051  53.6335499  49.4399230
   1.4329122  62.5026342  62.2306353   0.7392594  62.0880295  61.7176307
   2.1802113  62.5446879  61.6339771  17.5694343  53.2932529  57.0961387
  16.9893012  53.9517333  56.7139439  17.3030276  52.4709874  56.6848804
  16.0197909  52.6937587  59.2982707  16.5197688  52.8054121  58.4897026
  16.6633517  52.3898640  59.9383516  10.0779905  60.6016216  72.1850548
   9.5946987  61.4016577  72.3914437  10.1640844  60.6124161  71.2317992
   3.3465865  62.4344596  60.1072367   3.3236553  62.5332283  59.1554251
   3.6566501  63.2809747  60.4289534   6.0053243  64.4920751  64.2218982
   6.9596496  64.4604693  64.1548913   5.8065766  64.0311375  65.0369208
   6.5952625  63.0621867  66.7889779   7.4145514  63.5565946  66.8124617
   6.8689432  62.1453835  66.7607347  16.3519221  55.4532619  56.1517735
  15.4645076  55.7382270  55.9337930  16.7673210  55.2926383  55.3045012
  19.7033757  55.4779140  59.8672074  20.4794147  55.9675593  60.1396691
  18.9781891  55.9037195  60.3243944  22.1406316  56.1906760  60.9246015
  22.7350806  55.9502496  60.2139323  22.2132899  55.4713890  61.5519551
   4.3603471  70.0340371  61.2389180   4.2257939  69.2740772  60.6727178
   3.9435534  70.7581270  60.7717969  15.4962434  65.2177294  50.2465755
  16.1998285  65.4227297  50.8623411  14.7725083  65.7854056  50.5114839
  16.3260245  60.9687155  56.3668025  16.2695446  61.4255707  55.5275658
  16.8788587  60.2077840  56.1890868  20.1365051  56.7576887  57.1918145
  19.8801985  56.3573523  58.0226352  19.5117919  57.4720681  57.0668284
  24.4477388  59.4972961  59.6989436  23.8876946  59.5666150  60.4720998
  23.8420892  59.3213945  58.9788932   7.5172597  70.9309688  61.4507622
   7.4004981  71.8755120  61.3486313   6.6965044  70.6283249  61.8393422
  17.4049132  65.6559823  52.2964215  18.2394736  65.2241022  52.1141690
  17.2433475  65.4841837  53.2241110  17.0595024  62.1591937  53.6620554
  17.0043828  61.9936208  52.7208998  16.4341079  62.8667970  53.8182744
   1.8487539  57.3960001  67.4881977   2.4946403  56.8858955  67.9769202
   1.6404690  58.1328683  68.0625402  14.3740931  64.4640849  72.9874117
  15.2432091  64.6381501  72.6260752  13.8947683  65.2835265  72.8649846
  10.3691149  51.6600046  53.2405873  10.3569819  52.6041886  53.3974144
  11.2614571  51.4770191  52.9465334   8.5427111  71.5837950  64.6663551
   9.4454358  71.6161560  64.9830046   8.3164481  70.6538400  64.6809887
  10.2980713  70.3368936  61.3273629   9.3476344  70.3370798  61.2138002
  10.6013200  69.5901671  60.8109664  14.1843269  48.2542822  57.4951810
  13.4175665  47.7001309  57.6408492  14.5953974  48.3264691  58.3565961
   6.1885030  54.5427618  71.5856991   7.0516492  54.1864423  71.7960315
   5.6150441  54.2041513  72.2732395  18.7009929  77.9792379  58.3177807
  18.1374794  77.8882316  57.5494095  18.5862324  77.1592283  58.7980300
  16.2474361  79.4743571  61.1562028  17.0395653  79.1334395  60.7408327
  16.4871011  79.5838546  62.0764181  24.2809488  81.6463347  53.6292272
  23.6297467  82.2317427  53.2426286  25.0753850  82.1769542  53.6887310
  18.2065115  78.7352484  54.0279407  18.9795991  78.1881471  53.8892282
  18.5590514  79.5996733  54.2393868  20.0450157  80.0628866  67.2346306
  19.7540023  80.9674497  67.1192972  20.6807142  80.1045394  67.9490376
  20.9706364  77.4405715  63.8247666  21.5669936  77.2161737  63.1104629
  21.0281336  76.6990460  64.4273113  20.5431393  74.8945150  51.6597857
  20.7956913  74.3726671  50.8981320  19.6055952  74.7311295  51.7624540
  25.7584753  79.3353779  54.1661257  25.1230586  79.4088405  54.8782161
  25.4282159  79.9247377  53.4880336  20.2627681  76.7973256  53.8622232
  20.1463939  76.1218159  54.5303316  20.3729941  76.3105630  53.0454385
  22.6059222  76.2583403  57.5668921  22.2417429  75.7314024  58.2781842
  23.4626338  75.8681872  57.3935406  22.2464709  71.2873303  52.5630269
  22.4139112  72.1553539  52.9300740  22.0561878  71.4500584  51.6391559
  25.0040042  79.7490282  64.2296100  24.7040765  80.6515320  64.1211907
  24.6591102  79.4822465  65.0817253  18.4552524  76.2004078  60.2632804
  17.5303020  76.0680293  60.4710496  18.7036937  76.9798298  60.7602747
  22.2253930  73.7430960  53.5476936  22.1053555  74.1888011  54.3862416
  21.5306518  74.0916278  52.9890474  15.8161335  75.8437352  61.0976593
  15.9453716  76.0971831  62.0116005  15.1358786  76.4365060  60.7781248
  19.9860822  86.5134602  57.1967067  19.9084852  87.4642427  57.2755548
  19.3822466  86.1680474  57.8541994  27.9238996  74.2152433  54.3757270
  28.8356852  74.4479820  54.2004968  27.4148643  74.7989478  53.8132349
  20.7324424  76.4947921  69.4146401  21.4739109  77.0332965  69.1381225
  20.0261410  77.1214210  69.5717953  26.5308579  79.1978252  61.7670852
  25.9017441  79.3623966  61.0646920  26.1434241  79.6119861  62.5381816
  30.4097810  80.1332690  59.1215215  29.7248849  80.5131591  58.5712249
  30.4941660  80.7428016  59.8547163  22.0836540  78.9352660  59.0320937
  22.5474886  79.2140363  58.2425559  21.8193339  78.0336105  58.8494027
  18.9760621  78.4824141  61.9700700  19.5461979  78.9111410  61.3318184
  19.5668733  78.2006726  62.6684886  21.0205426  75.0575812  55.8410502
  21.7229470  75.5096856  56.3084428  20.6886055  74.4159631  56.4690395
  19.4685788  73.6487569  70.2161711  18.8384449  74.3303850  70.4497108
  19.3621876  73.5370651  69.2714850  14.7630760  73.3159365  61.1427635
  13.9729814  73.5716894  60.6667746  15.2542008  74.1307703  61.2479676
  28.7794570  80.6564604  63.8932916  29.6012014  80.2544791  63.6115598
  28.7756973  80.5532838  64.8449032  16.7145506  73.6803944  58.1011112
  15.9176669  73.7922638  58.6194608  16.4871098  74.0190596  57.2352003
  22.5451173  80.2048647  66.0493627  22.6095606  80.6669055  66.8851799
  21.8362097  79.5746012  66.1775937  13.0468463  73.5689855  63.5742626
  13.2976502  74.4536865  63.8400202  13.5828012  73.3894457  62.8017718
  22.2599191  81.8716755  55.9172607  22.1244866  82.7168291  56.3457455
  22.8009004  82.0736033  55.1538541  18.7466531  67.9508335  72.5786962
  18.3533476  67.3974533  73.2534607  19.5632671  68.2618913  72.9693480
  15.7128588  79.3892193  56.4900532  16.2253109  80.1835443  56.6406097
  16.3651301  78.6918483  56.4234134  17.5223473  82.5057949  58.5723285
  17.6990102  83.4275914  58.3844269  18.3180307  82.1916368  59.0017665
  21.6634492  69.3666214  70.1707219  22.4044205  69.9673367  70.0911681
  21.8952415  68.6243852  69.6125261  16.8075830  74.5522581  68.4485449
  16.6929345  73.6507838  68.7492547  15.9520347  74.7986278  68.0970265
  23.8867667  82.4940321  70.0472949  23.4431522  81.7076700  69.7293854
  24.5484881  82.6819472  69.3816840  18.6454789  84.0236123  64.5733628
  19.1962214  83.8953186  63.8010622  17.8066265  84.3231012  64.2228520
  25.9848906  82.7743121  68.0754350  25.9667381  83.5952002  67.5834620
  26.9068826  82.6497197  68.3004492  22.4421960  80.2887251  68.9177859
  22.9750296  79.5275539  68.6877167  21.9136041  79.9960903  69.6602013
  13.6777505  77.7180847  57.2660103  14.5152727  78.1277856  57.0493810
  13.8555773  76.7780289  57.2360297  25.5741937  75.3855928  52.9543936
  25.0588561  76.1560533  53.1932323  25.3019246  74.7121064  53.5776997
  23.1589048  70.2305629  58.0129174  22.3030645  69.8412479  57.8334813
  23.5716000  70.3097590  57.1528960  20.9331081  67.8490702  61.4186916
  21.7984078  67.6533510  61.0592805  21.0008590  67.6201053  62.3456272
  30.5476212  78.1388283  54.8897109  29.7705654  77.7999442  54.4452271
  31.2267692  78.1440906  54.2152074  25.3628241  73.2583020  54.7803717
  25.0578376  73.5729169  55.6313860  26.3158683  73.3364440  54.8231050
  23.8074672  79.4173243  56.4296671  23.2796034  78.6826003  56.1169908
  23.3062175  80.1947920  56.1836639  18.5393400  70.0792910  58.7903282
  19.1137152  69.8568091  58.0576475  19.1264382  70.1481604  59.5431884
  18.8662987  72.1097371  52.8099168  18.0300299  72.4472057  53.1308442
  18.7267757  71.9746350  51.8726305  20.8416068  66.9534159  57.5178352
  20.1880480  66.6383176  56.8934967  20.7996542  66.3309899  58.2438175
  21.9527273  77.2353454  49.4331644  21.0454334  77.0042707  49.6322793
  22.4498305  76.4391073  49.6205625  24.8595351  85.9450961  52.3528330
  24.1857050  86.2482658  52.9613288  25.2461173  86.7480041  52.0033787
  23.1315506  77.3366048  53.9555634  22.2226725  77.0525081  54.0528104
  23.1610590  77.7565127  53.0958941  28.3634773  80.9472638  57.7246802
  27.9097101  80.1063548  57.7811992  27.7328740  81.5834036  58.0621582
  26.8067713  82.7849135  58.6596620  27.0990687  83.3454192  57.9408985
  27.3166333  83.0777696  59.4149779  27.4079320  64.6540876  59.5489238
  27.7138197  63.7938239  59.2615153  28.1331925  65.2458496  59.3488232
  13.7003676  75.0571563  57.9370836  13.5028076  74.4640923  57.2121903
  13.1450340  74.7523773  58.6546775  22.8291594  78.8774792  51.2943713
  22.3911024  78.1610651  50.8349350  23.5702035  79.1050907  50.7328804
  19.6192760  73.5671729  57.8155808  18.8060626  73.8665899  58.2221000
  20.1151754  73.1727418  58.5330290  21.7701338  83.5629486  59.7490073
  21.7277517  83.7890332  58.8198605  22.6864037  83.3292860  59.8975874
  30.9464709  77.1531989  57.3520031  30.8082607  77.3433585  56.4241220
  30.5900927  77.9151372  57.8088082  19.1106835  71.1390084  63.4317043
  19.7506214  70.9978843  62.7340006  18.2784365  70.8524598  63.0555645
  19.8867139  80.4392515  59.5452036  20.6807737  79.9442835  59.3434611
  19.1758831  79.9110378  59.1819741  24.7061983  82.8210610  63.8964403
  24.7599005  83.3901547  64.6642119  23.8376764  82.9912495  63.5318440
  16.1949902  74.5835596  55.6211788  15.2647490  74.5220052  55.8381750
  16.2907374  74.0611549  54.8248430  16.1135451  71.1090409  58.2090030
  16.3742268  72.0235743  58.0999190  16.9352623  70.6414852  58.3586643
  17.5860376  72.5228166  65.3788854  18.2583430  72.3145529  64.7301503
  16.7590163  72.3250252  64.9394087  22.4638415  81.0121537  63.2249873
  22.3249500  80.6440321  64.0975811  21.6753011  81.5269176  63.0533830
  23.0586567  86.1130633  54.5675409  23.2338322  85.6418676  55.3821032
  22.3719355  86.7396399  54.7956670  24.0143630  80.3903139  60.6138710
  23.6793462  80.3503909  61.5096360  23.5147575  79.7247855  60.1409121
  17.9887874  75.7970769  66.1391292  17.8507672  75.0651008  66.7402831
  18.8992797  75.7079670  65.8575479  26.9502821  77.7359174  50.8875770
  26.3331992  77.0106002  50.7908823  26.4819310  78.4968534  50.5442844
  28.6056953  82.4458082  68.5481550  28.5469499  81.7617302  67.8812134
  29.0076471  83.1877072  68.0962176  17.6247652  89.2619996  61.3415269
  17.8644250  89.8938520  62.0194288  16.7816848  88.9108036  61.6280629
  18.7401367  71.9544598  50.0097074  17.8630834  71.8333399  49.6459321
  19.2159120  71.1630676  49.7575963  28.6074360  80.4097666  66.7795530
  27.7201139  80.0723588  66.9021929  29.1772911  79.6780697  67.0164296
  10.2603507  76.7421758  60.1038582  10.9474547  76.4283488  59.5159597
  10.1051636  77.6463122  59.8305833  15.0638230  71.6311954  64.5323605
  14.9796418  71.0237624  63.7974015  14.2420936  72.1220973  64.5333102
  22.1375514  85.0699118  63.7456773  22.0645685  85.8754090  64.2576078
  21.6952907  85.2691084  62.9204795  21.9265293  84.3070888  57.2559595
  21.1432815  84.8492569  57.3497819  22.6258039  84.8244868  57.6553836
  24.5974197  84.9685952  65.9014932  25.3102169  85.6033417  65.8290833
  24.1064226  85.0649818  65.0854934  26.3191724  78.8737205  57.4732224
  25.3848003  78.9938668  57.3036928  26.4968393  77.9709672  57.2092234
  19.6486111  82.7180396  66.7220503  20.3495570  83.3516879  66.8749897
  19.1781226  83.0595127  65.9616142  27.7740507  81.0598346  55.0068410
  28.0500351  80.9454940  55.9162284  26.9045005  80.6615831  54.9680583
  24.4094571  85.3084697  58.6501223  24.5916965  84.4906352  59.1128976
  25.2327557  85.5252389  58.2126113  24.7436736  84.2352882  55.9116272
  25.2724503  83.7245336  55.2986434  25.0064956  83.9195412  56.7761805
  15.2453829  82.2516751  63.6551606  15.8307266  81.5060439  63.7879510
  15.0478667  82.5620708  64.5388269  18.0992484  85.2867998  58.6714048
  17.4302859  85.7714126  58.1878088  17.9605354  85.5337219  59.5857426
   9.8371484  74.8222351  62.3756049   9.8755583  74.2885942  63.1693167
   9.3311776  74.2957557  61.7567026  22.2397753  87.3211742  65.2696706
  22.7916061  87.4843363  66.0345791  22.5803946  87.9116180  64.5976731
  17.2162246  69.6686892  65.8718591  17.2803572  70.5301723  65.4595989
  17.1529366  69.0560893  65.1390949  16.6914518  71.7410024  69.5191625
  17.3186557  71.3587102  70.1329150  15.8342437  71.5224226  69.8847318
  27.0908627  82.1472999  71.1245361  27.6348531  82.7602958  70.6300316
  26.5095472  82.7052578  71.6412374  13.4680061  73.5486453  55.4509980
  13.7633502  72.6397132  55.3977034  12.5668097  73.5274193  55.1290982
  25.3766140  85.2693717  62.2560388  25.2517279  84.4683457  61.7471334
  26.0345231  85.7639911  61.7674358  16.9974308  71.6242450  61.4337529
  16.2760894  72.2378418  61.2945002  17.7867564  72.1600215  61.3554175
  27.4401048  83.0702737  63.8839939  26.4931384  82.9508089  63.8118265
  27.7883821  82.1825236  63.9666200  19.8000622  68.9596876  67.7078180
  20.3235024  69.2059173  68.4704490  19.5812955  69.7916911  67.2881318
  15.1967903  71.2300551  55.5749305  14.8680609  70.3497930  55.3924411
  15.5507273  71.1748220  56.4625694  24.4447482  82.8655454  60.0844291
  24.2972444  81.9372161  60.2651861  25.2700975  82.8875544  59.6001366
  18.3109726  71.5173521  55.9424783  18.6505798  72.0459442  55.2203391
  18.7581846  71.8553927  56.7183349  28.0481603  83.6884012  61.1709164
  28.9728151  83.4826874  61.0333615  27.8796907  83.4400414  62.0798505
  21.6569639  66.9859884  63.8455174  22.4795708  66.5120362  63.7234064
  21.9007702  67.7650368  64.3453860  20.2977873  70.0148142  54.1418076
  21.0186236  70.3929395  53.6381793  19.6743177  70.7337019  54.2453054
  24.4408996  70.7193291  55.0776408  24.6572610  71.6017929  54.7765236
  23.9603063  70.3279505  54.3482050  19.1808217  73.6779005  61.6547153
  19.0352798  73.9919308  62.5471434  18.7033421  74.2963905  61.1018051
  21.0404600  70.6681553  61.7028042  21.0266169  69.7722646  61.3660340
  21.7577028  70.6752216  62.3366328  27.8376920  84.2069680  56.5271255
  28.0113797  83.6416102  55.7745107  28.3305811  85.0070575  56.3450745
  13.6553879  76.2184349  64.5934814  13.1107348  76.9944157  64.7255088
  14.5333229  76.5655153  64.4353935  20.4441496  69.5495933  56.9715612
  20.5657407  68.6212579  57.1706500  20.1543539  69.5634619  56.0593928
  23.3132687  67.2350843  60.1082332  23.3354383  67.2990176  59.1534312
  23.7300746  66.3955352  60.3022838  33.6916311  76.9706103  58.1461555
  34.1347457  76.2213428  57.7480678  32.8142821  76.9616239  57.7635287
  28.8252092  83.5236444  53.6268153  29.5202997  84.1443137  53.8455468
  29.1675242  82.6731796  53.9020531  14.4419901  75.3454245  67.4864971
  13.7001637  75.4936881  68.0729601  14.1212646  75.6062511  66.6231720
  30.7243515  80.9736150  55.1555484  31.2494839  81.3123423  54.4304804
  30.6365868  80.0383165  54.9718619  22.3863564  84.8870223  67.2845361
  22.6950690  84.6419370  68.1568060  23.1839046  85.0916862  66.7964231
  22.4084176  87.0408133  59.5150737  21.9689166  86.5484512  60.2083594
  23.1592293  86.4981101  59.2742812  14.8876515  83.2319674  59.5175365
  15.7134535  82.9323446  59.1374009  14.5370567  82.4627296  59.9665154
  19.8558048  82.5846142  61.5873039  19.2338057  81.9216847  61.2875267
  20.5262915  82.6107274  60.9046687  13.0885120  81.1506000  60.4764299
  12.2517028  80.7228175  60.2948300  13.0608766  81.3438444  61.4135090
  19.9282576  71.0627930  71.1805545  19.9770731  71.9390053  70.7983314
  20.4705090  70.5205323  70.6077188  30.4137421  81.6069053  70.4606682
  29.6232965  81.5893192  69.9211181  30.1770776  82.1457347  71.2155719
  19.4171555  81.1350066  55.0631499  19.5659675  81.8185530  54.4098172
  20.2237999  81.1155156  55.5780955  32.0353493  80.8758461  68.0181432
  31.7438302  81.2388442  68.8544893  31.4225625  80.1625470  67.8394764
  33.2349176  78.4411341  60.5384002  34.0696067  78.8801145  60.7021563
  33.3708304  77.9649994  59.7192248  17.1724188  77.1615243  56.0692568
  16.9270230  76.2577573  56.2672778  17.3420103  77.1632394  55.1272046
  16.4419836  72.8943601  53.5678730  15.7489081  72.9687956  52.9118766
  16.1971588  72.1303944  54.0900247  25.1133492  64.4539202  60.9718221
  25.3935246  63.7862391  61.5978647  25.8984099  64.6468298  60.4592884
  22.9166961  83.6298196  52.5343247  22.3440928  84.2488383  52.0813719
  23.4899754  84.1797558  53.0683169  26.1364220  83.9135346  53.6651829
  27.0694894  83.8480908  53.8684705  26.0487433  84.7491613  53.2066362
  28.7652237  83.2301216  50.6255777  28.6865869  82.8961080  51.5191535
  29.5861904  83.7222984  50.6247249  23.3013759  74.9659009  49.8759299
  24.2472864  74.8365217  49.9447717  22.9228004  74.2273671  50.3528727
  29.2735644  66.6315015  59.8386191  29.0760465  66.3230103  60.7229523
  29.8835349  67.3576654  59.9684121  23.1852452  79.0176755  71.3359956
  24.1055461  79.1955354  71.5300003  23.1502035  78.0732800  71.1839656
  21.4856676  72.8908985  49.8114185  20.5788132  72.5942098  49.8876898
  21.7632657  72.5938803  48.9448471  12.4034617  74.2115349  60.2613231
  12.0837401  73.3580657  59.9687605  11.8568045  74.4263927  61.0171198
  16.1814524  76.9277790  63.9782737  16.4000534  77.8594897  63.9970771
  16.5940298  76.5685764  64.7637541  23.1018742  67.4345875  55.9658426
  22.2919470  67.0892960  56.3413672  23.7903159  67.1253419  56.5546037
  25.0309290  66.5123922  57.5882722  25.5840329  66.9319375  58.2472746
  25.2679377  65.5859670  57.6305678  21.0542390  72.5010995  73.3685486
  20.9539116  73.4505352  73.2997577  20.8363932  72.1729234  72.4961556
  20.2555461  69.7495920  49.9526164  21.1174625  70.0750819  50.2121981
  20.4405805  68.9627416  49.4399230  12.2722877  77.8318260  62.2306353
  11.5786348  77.4172213  61.7176307  13.0195868  77.8738797  61.6339771
  26.8591664  68.0229504  59.2982707  27.3591442  68.1346039  58.4897026
  27.5027272  67.7190557  59.9383516  20.9173660  75.9308134  72.1850548
  20.4340741  76.7308494  72.3914437  21.0034599  75.9416079  71.2317992
  14.1859619  77.7636514  60.1072367  14.1630307  77.8624201  59.1554251
  14.4960256  78.6101665  60.4289534  16.8446997  79.8212669  64.2218982
  17.7990251  79.7896611  64.1548913  16.6459521  79.3603293  65.0369208
  17.4346379  78.3913785  66.7889779  18.2539268  78.8857864  66.8124617
  17.7083187  77.4745753  66.7607347  27.1912975  70.7824537  56.1517735
  26.3038830  71.0674188  55.9337930  27.6066964  70.6218301  55.3045012
  15.1997226  85.3632288  61.2389180  15.0651694  84.6032689  60.6727178
  14.7829288  86.0873188  60.7717969  26.3356189  80.5469212  50.2465755
  27.0392039  80.7519214  50.8623411  25.6118838  81.1145974  50.5114839
  27.1653999  76.2979073  56.3668025  27.1089201  76.7547625  55.5275658
  27.7182342  75.5369758  56.1890868  35.2871143  74.8264878  59.6989436
  34.7270701  74.8958068  60.4720998  34.6814646  74.6505863  58.9788932
  18.3566352  86.2601605  61.4507622  18.2398736  87.2047038  61.3486313
  17.5358798  85.9575167  61.8393422  28.2442886  80.9851741  52.2964215
  29.0788490  80.5532940  52.1141690  28.0827229  80.8133755  53.2241110
  27.8988778  77.4883854  53.6620554  27.8437582  77.3228126  52.7208998
  27.2734834  78.1959887  53.8182744  12.6881293  72.7251919  67.4881977
  13.3340157  72.2150873  67.9769202  12.4798445  73.4620600  68.0625402
  25.2134686  79.7932766  72.9874117  26.0825845  79.9673419  72.6260752
  24.7341437  80.6127183  72.8649846  21.2084904  66.9891963  53.2405873
  21.1963574  67.9333803  53.3974144  22.1008326  66.8062109  52.9465334
  19.3820866  86.9129867  64.6663551  20.2848113  86.9453477  64.9830046
  19.1558236  85.9830318  64.6809887  21.1374468  85.6660854  61.3273629
  20.1870099  85.6662715  61.2138002  21.4406954  84.9193588  60.8109664
  25.0237023  63.5834740  57.4951810  24.2569419  63.0293227  57.6408492
  25.4347728  63.6556609  58.3565961  17.0278784  69.8719536  71.5856991
  17.8910246  69.5156341  71.7960315  16.4544195  69.5333431  72.2732395
  36.8727161  91.5021392  62.3919392  37.5105571  91.3828140  61.6882732
  36.7548004  92.4502236  62.4507344  33.6816868  91.4548820  62.3280916
  33.3435379  91.3389885  61.4401451  34.5506636  91.0539985  62.3081923
  29.5403683  93.3084297  58.3177807  28.9768548  93.2174234  57.5494095
  29.4256078  92.4884201  58.7980300  34.1636651  92.6083672  68.2867122
  34.1525291  92.2136470  67.4147626  34.3257290  91.8749745  68.8800893
  27.0868115  94.8035488  61.1562028  27.8789407  94.4626313  60.7408327
  27.3264765  94.9130463  62.0764181  35.1203242  96.9755264  53.6292272
  34.4691222  97.5609345  53.2426286  35.9147605  97.5061459  53.6887310
  29.0458869  94.0644402  54.0279407  29.8189745  93.5173389  53.8892282
  29.3984268  94.9288651  54.2393868  30.8843912  95.3920784  67.2346306
  30.5933778  96.2966415  67.1192972  31.5200896  95.4337311  67.9490376
  31.8100119  92.7697632  63.8247666  32.4063691  92.5453655  63.1104629
  31.8675090  92.0282378  64.4273113  31.3825147  90.2237068  51.6597857
  31.6350668  89.7018589  50.8981320  30.4449706  90.0603213  51.7624540
  36.4268430  89.2272846  59.4672600  37.2131519  88.8092269  59.1163017
  36.6907134  90.1318938  59.6354248  36.5978507  94.6645696  54.1661257
  35.9624340  94.7380323  54.8782161  36.2675914  95.2539295  53.4880336
  41.8276857  89.1648079  60.3705578  42.5602029  88.5947296  60.6043408
  41.0716213  88.7769680  60.8112084  31.1021436  92.1265174  53.8622232
  30.9857694  91.4510077  54.5303316  31.2123696  91.6397548  53.0454385
  33.4452977  91.5875321  57.5668921  33.0811184  91.0605942  58.2781842
  34.3020093  91.1973790  57.3935406  33.0858464  86.6165220  52.5630269
  33.2532866  87.4845457  52.9300740  32.8955633  86.7792502  51.6391559
  35.8433797  95.0782199  64.2296100  35.5434520  95.9807238  64.1211907
  35.4984856  94.8114383  65.0817253  29.2946278  91.5295996  60.2632804
  28.3696775  91.3972210  60.4710496  29.5430692  92.3090215  60.7602747
  39.2430941  87.5964739  61.9093537  38.3347818  87.5280148  61.6152298
  39.1918536  88.0736684  62.7375362  33.0647685  89.0722878  53.5476936
  32.9447310  89.5179929  54.3862416  32.3700273  89.4208196  52.9890474
  26.6555089  91.1729270  61.0976593  26.7847471  91.4263749  62.0116005
  25.9752541  91.7656978  60.7781248  30.8254577 101.8426520  57.1967067
  30.7478606 102.7934345  57.2755548  30.2216220 101.4972392  57.8541994
  33.3171806  89.0154385  69.8528434  32.5405140  89.5748305  69.8431299
  33.9562369  89.5011168  70.3743304  41.1092587  85.7981178  63.6871411
  40.4666967  86.0913711  63.0411206  40.6047516  85.6834098  64.4924608
  38.7632751  89.5444351  54.3757270  39.6750607  89.7771738  54.2004968
  38.2542398  90.1281395  53.8132349  31.5718179  91.8239838  69.4146401
  32.3132863  92.3624882  69.1381225  30.8655164  92.4506127  69.5717953
  37.0473518  93.9668979  68.0118563  37.4556874  93.5251389  67.2673195
  36.3250780  93.3921606  68.2652756  33.4004588  88.9041586  65.3852120
  34.2465784  89.3280999  65.5286769  33.3403226  88.2475210  66.0790683
  37.3702333  94.5270170  61.7670852  36.7411195  94.6915884  61.0646920
  36.9827995  94.9411779  62.5381816  41.2491565  95.4624607  59.1215215
  40.5642603  95.8423509  58.5712249  41.3335414  96.0719934  59.8547163
  36.5504034  86.5645954  67.0433293  36.3064966  87.3188015  66.5067569
  36.8263964  86.9431302  67.8780540  38.5042497  93.1084566  65.7210559
  38.7159392  93.7516326  65.0444940  38.4572245  92.2746883  65.2532489
  36.1068725  85.7202387  62.6247131  35.2453205  86.0183641  62.9163869
  36.1331160  85.9372786  61.6928164  32.9230295  94.2644578  59.0320937
  33.3868640  94.5432281  58.2425559  32.6587093  93.3628022  58.8494027
  29.8154376  93.8116059  61.9700700  30.3855733  94.2403328  61.3318184
  30.4062488  93.5298644  62.6684886  31.8599181  90.3867730  55.8410502
  32.5623224  90.8388774  56.3084428  31.5279809  89.7451549  56.4690395
  30.3079542  88.9779487  70.2161711  29.6778203  89.6595767  70.4497108
  30.2015630  88.8662568  69.2714850  25.6024515  88.6451283  61.1427635
  24.8123569  88.9008811  60.6667746  26.0935762  89.4599621  61.2479676
  39.6188324  95.9856522  63.8932916  40.4405768  95.5836709  63.6115598
  39.6150727  95.8824756  64.8449032  27.5539260  89.0095862  58.1011112
  26.7570424  89.1214556  58.6194608  27.3264852  89.3482514  57.2352003
  33.3844928  95.5340565  66.0493627  33.4489360  95.9960972  66.8851799
  32.6755852  94.9037930  66.1775937  23.8862218  88.8981773  63.5742626
  24.1370256  89.7828783  63.8400202  24.4221766  88.7186375  62.8017718
  47.7094318  92.3295270  60.2417888  46.9558026  91.7602668  60.0861892
  47.8441859  92.2957935  61.1888522  33.0992946  97.2008673  55.9172607
  32.9638620  98.0460208  56.3457455  33.6402758  97.4027950  55.1538541
  29.5860285  83.2800252  72.5786962  29.1927231  82.7266451  73.2534607
  30.4026426  83.5910831  72.9693480  26.5522343  94.7184111  56.4900532
  27.0646864  95.5127361  56.6406097  27.2045056  94.0210401  56.4234134
  28.3617228  97.8349867  58.5723285  28.5383856  98.7567832  58.3844269
  29.1574061  97.5208286  59.0017665  32.5028246  84.6958132  70.1707219
  33.2437960  85.2965285  70.0911681  32.7346169  83.9535769  69.6125261
  27.6469584  89.8814499  68.4485449  27.5323099  88.9799756  68.7492547
  26.7914102  90.1278196  68.0970265  34.7261422  97.8232239  70.0472949
  34.2825276  97.0368618  69.7293854  35.3878636  98.0111390  69.3816840
  29.4848543  99.3528041  64.5733628  30.0355968  99.2245104  63.8010622
  28.6460019  99.6522930  64.2228520  36.8242660  98.1035039  68.0754350
  36.8061135  98.9243920  67.5834620  37.7462580  97.9789114  68.3004492
  33.2815714  95.6179169  68.9177859  33.8144051  94.8567457  68.6877167
  32.7529795  95.3252820  69.6602013  24.5171260  93.0472765  57.2660103
  25.3546482  93.4569773  57.0493810  24.6949527  92.1072207  57.2360297
  36.4135692  90.7147846  52.9543936  35.8982315  91.4852450  53.1932323
  36.1413000  90.0412982  53.5776997  33.9982803  85.5597546  58.0129174
  33.1424399  85.1704397  57.8334813  34.4109755  85.6389507  57.1528960
  35.5281950  83.0943890  62.4120734  35.0246745  83.0574025  61.5988539
  35.8212556  84.0036632  62.4717390  31.7724835  83.1782619  61.4186916
  32.6377832  82.9825428  61.0592805  31.8402344  82.9492971  62.3456272
  41.3869966  93.4680200  54.8897109  40.6099409  93.1291360  54.4452271
  42.0661447  93.4732823  54.2152074  36.2021995  88.5874938  54.7803717
  35.8972131  88.9021087  55.6313860  37.1552437  88.6656358  54.8231050
  34.6468427  94.7465161  56.4296671  34.1189788  94.0117921  56.1169908
  34.1455930  95.5239837  56.1836639  39.6261273  92.9414181  61.5463717
  38.9684947  93.6313443  61.6343846  40.4301672  93.3310613  61.8897703
  29.3787154  85.4084827  58.7903282  29.9530906  85.1860009  58.0576475
  29.9658137  85.4773522  59.5431884  38.4366732  91.2958554  59.5967659
  38.9498613  91.9288546  60.0989369  39.0867956  90.6959750  59.2311019
  29.7056742  87.4389288  52.8099168  28.8694054  87.7763975  53.1308442
  29.5661511  87.3038268  51.8726305  31.6809822  82.2826076  57.5178352
  31.0274235  81.9675093  56.8934967  31.6390296  81.6601817  58.2438175
  32.7921027  92.5645371  49.4331644  31.8848089  92.3334625  49.6322793
  33.2892059  91.7682991  49.6205625  35.6989106 101.2742878  52.3528330
  35.0250805 101.5774575  52.9613288  36.0854928 102.0771959  52.0033787
  34.9147563  88.7708010  61.8425999  33.9970124  88.9922957  61.6847687
  35.3307706  88.8454320  60.9837707  35.6982610  90.1699425  56.9728680
  36.4454429  90.6820823  56.6635802  35.9674200  89.8483478  57.8333073
  33.9709261  92.6657966  53.9555634  33.0620480  92.3816999  54.0528104
  34.0004344  93.0857045  53.0958941  39.2028528  96.2764556  57.7246802
  38.7490855  95.4355466  57.7811992  38.5722495  96.9125954  58.0621582
  38.1461447  87.2056542  58.9547469  37.4084204  86.6933928  59.2857712
  38.3988221  86.7656923  58.1430746  37.6461467  98.1141052  58.6596620
  37.9384442  98.6746109  57.9408985  38.1560088  98.4069613  59.4149779
  38.2473075  79.9832794  59.5489238  38.5531952  79.1230157  59.2615153
  38.9725680  80.5750414  59.3488232  24.5397431  90.3863480  57.9370836
  24.3421831  89.7932841  57.2121903  23.9844095  90.0815690  58.6546775
  32.5194155  90.2786587  60.0565429  32.5742764  89.3260423  59.9807906
  31.7085357  90.4346026  60.5406728  33.6685348  94.2066710  51.2943713
  33.2304778  93.4902569  50.8349350  34.4095789  94.4342825  50.7328804
  30.4586514  88.8963646  57.8155808  29.6454380  89.1957817  58.2221000
  30.9545509  88.5019335  58.5330290  32.6095092  98.8921403  59.7490073
  32.5671271  99.1182250  58.8198605  33.5257791  98.6584778  59.8975874
  36.0560726  89.3605471  66.6470702  36.4110114  89.5876944  67.5065168
  36.7032857  89.6923848  66.0247957  41.7858463  92.4823907  57.3520031
  41.6476362  92.6725503  56.4241220  41.4294682  93.2443290  57.8088082
  29.9500589  86.4682002  63.4317043  30.5899969  86.3270761  62.7340006
  29.1178120  86.1816515  63.0555645  41.8127843  94.5500434  62.3631303
  42.2464349  94.4575723  63.2114357  42.5259423  94.5257934  61.7251319
  30.7260893  95.7684432  59.5452036  31.5201492  95.2734753  59.3434611
  30.0152586  95.2402296  59.1819741  35.5455738  98.1502528  63.8964403
  35.5992760  98.7193464  64.6642119  34.6770519  98.3204413  63.5318440
  27.0343657  89.9127514  55.6211788  26.1041245  89.8511970  55.8381750
  27.1301129  89.3903467  54.8248430  26.9529206  86.4382327  58.2090030
  27.2136023  87.3527660  58.0999190  27.7746378  85.9706770  58.3586643
  28.4254131  87.8520084  65.3788854  29.0977184  87.6437446  64.7301503
  27.5983918  87.6542170  64.9394087  42.6743392  94.5924135  64.8964188
  42.8679282  95.4969945  65.1423463  42.5744010  94.1331554  65.7302773
  34.3279703  84.4782025  67.3954515  33.6807618  85.1771975  67.3018992
  35.0980718  84.9118169  67.7630764  37.7358501  94.7430877  70.4705069
  37.5844007  94.5141429  69.5535152  37.7263180  95.7001479  70.4836414
  34.5043837  92.3162790  65.4551335  35.4335897  92.4673950  65.2820302
  34.0834867  92.4046811  64.5999982  33.3032169  96.3413454  63.2249873
  33.1643255  95.9732239  64.0975811  32.5146765  96.8561094  63.0533830
  33.8980321 101.4422551  54.5675409  34.0732077 100.9710594  55.3821032
  33.2113109 102.0688317  54.7956670  34.8537384  95.7195057  60.6138710
  34.5187217  95.6795827  61.5096360  34.3541330  95.0539773  60.1409121
  28.8281628  91.1262687  66.1391292  28.6901426  90.3942926  66.7402831
  29.7386552  91.0371587  65.8575479  37.7896576  93.0651091  50.8875770
  37.1725747  92.3397920  50.7908823  37.3213064  93.8260452  50.5442844
  31.4563929  90.8382646  65.6274971  32.1663547  90.1975839  65.5861590
  31.4133237  91.0895541  66.5501152  39.4450708  97.7750000  68.5481550
  39.3863254  97.0909220  67.8812134  39.8470226  98.5168990  68.0962176
  30.1692863  87.8247864  67.4470611  29.6330220  87.3738603  68.0992207
  29.5809571  87.9593773  66.7041075  28.4641406 104.5911914  61.3415269
  28.7038005 105.2230438  62.0194288  27.6210603 104.2399954  61.6280629
  29.5795122  87.2836516  50.0097074  28.7024588  87.1625317  49.6459321
  30.0552875  86.4922594  49.7575963  39.4468115  95.7389584  66.7795530
  38.5594894  95.4015506  66.9021929  40.0166666  95.0072615  67.0164296
  21.0997262  92.0713675  60.1038582  21.7868302  91.7575406  59.5159597
  20.9445391  92.9755040  59.8305833  25.9031984  86.9603872  64.5323605
  25.8190173  86.3529542  63.7974015  25.0814691  87.4512890  64.5333102
  32.9769268 100.3991036  63.7456773  32.9039440 101.2046008  64.2576078
  32.5346661 100.5983002  62.9204795  32.7659048  99.6362806  57.2559595
  31.9826570 100.1784486  57.3497819  33.4651793 100.1536786  57.6553836
  36.0755698  85.4457436  59.8993800  36.5724398  84.6927398  59.5794871
  35.3042679  85.4821752  59.3337010  43.9285455  91.1497801  61.5412092
  43.9175332  92.0322517  61.1706025  43.0602835  90.7969352  61.3466629
  35.4367952 100.2977870  65.9014932  36.1495924 100.9325335  65.8290833
  34.9457980 100.3941736  65.0854934  37.1585479  94.2029123  57.4732224
  36.2241757  94.3230585  57.3036928  37.3362147  93.3001590  57.2092234
  32.6590667  87.5874819  59.6265485  32.2888454  87.0345859  60.3146390
  33.1549759  86.9832952  59.0740485  40.5458030  90.0446442  58.0082258
  41.0118482  90.8774434  57.9342560  40.9965531  89.5791424  58.7127516
  30.4879865  98.0472314  66.7220503  31.1889325  98.6808797  66.8749897
  30.0174980  98.3887045  65.9616142  38.6134261  96.3890263  55.0068410
  38.8894105  96.2746858  55.9162284  37.7438760  95.9907748  54.9680583
  38.2881151  90.6016921  64.5473053  37.6352602  90.8492828  63.8925506
  38.6661531  89.7881059  64.2135530  35.2488325 100.6376614  58.6501223
  35.4310720  99.8198270  59.1128976  36.0721311 100.8544306  58.2126113
  35.5830491  99.5644799  55.9116272  36.1118257  99.0537254  55.2986434
  35.8458710  99.2487330  56.7761805  34.3368724  91.3436732  71.0339090
  33.6609361  91.2430861  71.7041465  35.1596358  91.1875946  71.4975087
  26.0847583  97.5808669  63.6551606  26.6701020  96.8352357  63.7879510
  25.8872422  97.8912625  64.5388269  28.9386239 100.6159916  58.6714048
  28.2696614 101.1006044  58.1878088  28.7999108 100.8629136  59.5857426
  20.6765238  90.1514269  62.3756049  20.7149338  89.6177860  63.1693167
  20.1705531  89.6249474  61.7567026  33.0791507 102.6503660  65.2696706
  33.6309815 102.8135281  66.0345791  33.4197701 103.2408097  64.5976731
  28.0556000  84.9978809  65.8718591  28.1197327  85.8593640  65.4595989
  27.9923121  84.3852811  65.1390949  27.5308273  87.0701942  69.5191625
  28.1580312  86.6879019  70.1329150  26.6736192  86.8516144  69.8847318
  37.9302381  97.4764917  71.1245361  38.4742285  98.0894875  70.6300316
  37.3489226  98.0344495  71.6412374  24.3073816  88.8778371  55.4509980
  24.6027257  87.9689049  55.3977034  23.4061851  88.8566110  55.1290982
  36.2159894 100.5985635  62.2560388  36.0911034  99.7975375  61.7471334
  36.8738986 101.0931828  61.7674358  27.8368063  86.9534368  61.4337529
  27.1154648  87.5670335  61.2945002  28.6261318  87.4892132  61.3554175
  38.2794803  98.3994655  63.8839939  37.3325138  98.2800006  63.8118265
  38.6277576  97.5117153  63.9666200  30.6394376  84.2888794  67.7078180
  31.1628778  84.5351091  68.4704490  30.4206709  85.1208829  67.2881318
  26.0361657  86.5592469  55.5749305  25.7074363  85.6789848  55.3924411
  26.3901028  86.5040137  56.4625694  35.2841236  98.1947371  60.0844291
  35.1366199  97.2664079  60.2651861  36.1094730  98.2167462  59.6001366
  29.1503480  86.8465438  55.9424783  29.4899553  87.3751360  55.2203391
  29.5975601  87.1845845  56.7183349  38.8875358  99.0175930  61.1709164
  39.8121905  98.8118791  61.0333615  38.7190661  98.7692331  62.0798505
  31.8446921  85.2302489  65.3927851  31.5043742  84.4310302  65.7948531
  31.1385928  85.5304200  64.8204684  32.4963393  82.3151802  63.8455174
  33.3189462  81.8412280  63.7234064  32.7401457  83.0942285  64.3453860
  31.1371628  85.3440060  54.1418076  31.8579990  85.7221313  53.6381793
  30.5136932  86.0628937  54.2453054  35.2802750  86.0485209  55.0776408
  35.4966365  86.9309847  54.7765236  34.7996818  85.6571422  54.3482050
  30.0201972  89.0070922  61.6547153  29.8746553  89.3211225  62.5471434
  29.5427175  89.6255823  61.1018051  31.8798355  85.9973470  61.7028042
  31.8659923  85.1014564  61.3660340  32.5970783  86.0044134  62.3366328
  33.7324485  86.4310810  63.7481170  33.4742263  87.3527881  63.7465500
  33.2009526  86.0341245  64.4381634  38.6770674  99.5361598  56.5271255
  38.8507552  98.9708020  55.7745107  39.1699565 100.3362492  56.3450745
  24.4947634  91.5476267  64.5934814  23.9501102  92.3236075  64.7255088
  25.3726984  91.8947071  64.4353935  31.2835251  84.8787851  56.9715612
  31.4051162  83.9504497  57.1706500  30.9937293  84.8926536  56.0593928
  34.1526441  82.5642761  60.1082332  34.1748138  82.6282094  59.1534312
  34.5694500  81.7247270  60.3022838  44.5310065  92.2998020  58.1461555
  44.9741211  91.5505346  57.7480678  43.6536576  92.2908157  57.7635287
  39.6645847  98.8528362  53.6268153  40.3596751  99.4735055  53.8455468
  40.0068997  98.0023713  53.9020531  25.2813656  90.6746163  67.4864971
  24.5395392  90.8228798  68.0729601  24.9606400  90.9354429  66.6231720
  41.5637270  96.3028067  55.1555484  42.0888594  96.6415340  54.4304804
  41.4759622  95.3675083  54.9718619  33.2257318 100.2162141  67.2845361
  33.5344445  99.9711288  68.1568060  34.0232801 100.4208780  66.7964231
  33.2477931 102.3700051  59.5150737  32.8082921 101.8776429  60.2083594
  33.9986047 101.8273018  59.2742812  25.7270270  98.5611592  59.5175365
  26.5528289  98.2615363  59.1374009  25.3764322  97.7919214  59.9665154
  30.6951803  97.9138060  61.5873039  30.0731812  97.2508765  61.2875267
  31.3656670  97.9399192  60.9046687  23.9278875  96.4797918  60.4764299
  23.0910783  96.0520092  60.2948300  23.9002520  96.6730361  61.4135090
  30.7676330  86.3919848  71.1805545  30.8164486  87.2681971  70.7983314
  31.3098844  85.8497241  70.6077188  41.2531176  96.9360971  70.4606682
  40.4626720  96.9185110  69.9211181  41.0164530  97.4749265  71.2155719
  41.3729051  93.7853438  67.7739411  41.4227056  93.6203445  68.7154933
  41.2642974  92.9180697  67.3837291  30.2565310  96.4641983  55.0631499
  30.4053430  97.1477448  54.4098172  31.0631753  96.4447073  55.5780955
  38.6632813  89.7684366  69.0898717  39.5642676  89.6290830  68.7982715
  38.7380788  89.9338820  70.0296895  32.9975619  87.1451220  67.9351904
  32.1278928  87.4384786  67.6634492  33.2335099  87.7291665  68.6559167
  42.8747248  96.2050379  68.0181432  42.5832056  96.5680360  68.8544893
  42.2619379  95.4917387  67.8394764  44.0742930  93.7703259  60.5384002
  44.9089821  94.2093063  60.7021563  44.2102059  93.2941912  59.7192248
  41.1234436  91.3282994  66.4861490  41.5988558  91.5210640  65.6780341
  40.2000001  91.3842179  66.2404874  28.0117943  92.4907161  56.0692568
  27.7663985  91.5869491  56.2672778  28.1813857  92.4924311  55.1272046
  27.2813590  88.2235518  53.5678730  26.5882835  88.2979873  52.9118766
  27.0365342  87.4595862  54.0900247  33.7560715  98.9590114  52.5343247
  33.1834682  99.5780301  52.0813719  34.3293509  99.5089475  53.0683169
  39.8236105  88.2048754  64.7189796  40.7753528  88.3046851  64.7402020
  39.6539555  87.4127022  65.2287880  37.8450484  85.2904337  64.9049197
  37.2500417  85.5709350  64.2095685  37.5600181  85.7798238  65.6765938
  36.9757975  99.2427264  53.6651829  37.9088648  99.1772825  53.8684705
  36.8881188 100.0783531  53.2066362  39.6045992  98.5593134  50.6255777
  39.5259623  98.2252998  51.5191535  40.4255658  99.0514902  50.6247249
  42.3024183  91.4254873  63.8332095  42.2700503  90.4870874  64.0191779
  42.9124806  91.5038910  63.0997920  34.1407514  90.2950926  49.8759299
  35.0866618  90.1657135  49.9447717  33.7621759  89.5565588  50.3528727
  42.4518671  88.2165917  63.8790378  41.9357720  87.4324373  63.6920307
  43.3358620  87.8884633  64.0436898  40.1129398  81.9606932  59.8386191
  39.9154219  81.6522021  60.7229523  40.7229104  82.6868571  59.9684121
  48.1200733  92.4870880  62.9738132  48.8504121  92.2256168  63.5345835
  47.5107678  91.7499602  63.0140200  46.2016030  90.6278743  63.5712583
  45.4749193  90.4934708  62.9629075  45.7863317  90.9355571  64.3769301
  34.0246206  94.3468673  71.3359956  34.9449216  94.5247272  71.5300003
  33.9895789  93.4024718  71.1839656  32.3250431  88.2200903  49.8114185
  31.4181886  87.9234015  49.8876898  32.6026412  87.9230721  48.9448471
  23.2428371  89.5407266  60.2613231  22.9231155  88.6872574  59.9687605
  22.6961799  89.7555844  61.0171198  27.0208279  92.2569707  63.9782737
  27.2394288  93.1886815  63.9970771  27.4334053  91.8977682  64.7637541
  33.9412496  82.7637792  55.9658426  33.1313225  82.4184877  56.3413672
  34.6296913  82.4545336  56.5546037  35.8703045  81.8415839  57.5882722
  36.4234083  82.2611293  58.2472746  36.1073131  80.9151587  57.6305678
  31.8936144  87.8302913  73.3685486  31.7932871  88.7797270  73.2997577
  31.6757686  87.5021152  72.4961556  31.0949215  85.0787838  49.9526164
  31.9568379  85.4042736  50.2121981  31.2799560  84.2919334  49.4399230
  23.1116631  93.1610178  62.2306353  22.4180103  92.7464130  61.7176307
  23.8589622  93.2030714  61.6339771  39.2481852  83.9516364  57.0961387
  38.6680521  84.6101168  56.7139439  38.9817785  83.1293709  56.6848804
  37.6985418  83.3521422  59.2982707  38.1985197  83.4637957  58.4897026
  38.3421026  83.0482475  59.9383516  31.7567414  91.2600052  72.1850548
  31.2734496  92.0600412  72.3914437  31.8428353  91.2707997  71.2317992
  25.0253374  93.0928431  60.1072367  25.0024062  93.1916119  59.1554251
  25.3354010  93.9393582  60.4289534  27.6840752  95.1504586  64.2218982
  28.6384005  95.1188529  64.1548913  27.4853275  94.6895210  65.0369208
  28.2740134  93.7205703  66.7889779  29.0933023  94.2149781  66.8124617
  28.5476941  92.8037671  66.7607347  38.0306730  86.1116455  56.1517735
  37.1432585  86.3966105  55.9337930  38.4460719  85.9510218  55.3045012
  41.3821266  86.1362976  59.8672074  42.1581656  86.6259428  60.1396691
  40.6569400  86.5621030  60.3243944  43.8193825  86.8490595  60.9246015
  44.4138315  86.6086331  60.2139323  43.8920408  86.1297726  61.5519551
  26.0390980 100.6924206  61.2389180  25.9045448  99.9324607  60.6727178
  25.6223043 101.4165106  60.7717969  37.1749943  95.8761130  50.2465755
  37.8785793  96.0811132  50.8623411  36.4512592  96.4437891  50.5114839
  38.0047754  91.6270991  56.3668025  37.9482955  92.0839542  55.5275658
  38.5576096  90.8661675  56.1890868  41.8152560  87.4160723  57.1918145
  41.5589494  87.0157358  58.0226352  41.1905428  88.1304517  57.0668284
  46.1264897  90.1556796  59.6989436  45.5664455  90.2249985  60.4720998
  45.5208401  89.9797781  58.9788932  29.1960106 101.5893523  61.4507622
  29.0792490 102.5338955  61.3486313  28.3752552 101.2867085  61.8393422
  39.0836641  96.3143659  52.2964215  39.9182245  95.8824857  52.1141690
  38.9220984  96.1425672  53.2241110  38.7382533  92.8175772  53.6620554
  38.6831337  92.6520043  52.7208998  38.1128588  93.5251805  53.8182744
  23.5275048  88.0543836  67.4881977  24.1733912  87.5442790  67.9769202
  23.3192199  88.7912518  68.0625402  36.0528440  95.1224684  72.9874117
  36.9219600  95.2965336  72.6260752  35.5735192  95.9419101  72.8649846
  32.0478658  82.3183881  53.2405873  32.0357328  83.2625721  53.3974144
  32.9402080  82.1354026  52.9465334  30.2214620 102.2421785  64.6663551
  31.1241867 102.2745395  64.9830046  29.9951990 101.3122236  64.6809887
  31.9768222 100.9952771  61.3273629  31.0263853 100.9954633  61.2138002
  32.2800709 100.2485506  60.8109664  35.8630778  78.9126658  57.4951810
  35.0963174  78.3585144  57.6408492  36.2741483  78.9848526  58.3565961
  27.8672539  85.2011453  71.5856991  28.7304000  84.8448258  71.7960315
  27.2937950  84.8625348  72.2732395  47.7120916 106.8313310  62.3919392
  48.3499326 106.7120057  61.6882732  47.5941759 107.7794154  62.4507344
  44.5210622 106.7840738  62.3280916  44.1829134 106.6681803  61.4401451
  45.3900390 106.3831903  62.3081923  40.3797438 108.6376214  58.3177807
  39.8162303 108.5466151  57.5494095  40.2649833 107.8176119  58.7980300
  45.0030405 107.9375590  68.2867122  44.9919046 107.5428388  67.4147626
  45.1651045 107.2041662  68.8800893  37.9261870 110.1327406  61.1562028
  38.7183162 109.7918231  60.7408327  38.1658520 110.2422381  62.0764181
  45.9596997 112.3047182  53.6292272  45.3084976 112.8901262  53.2426286
  46.7541359 112.8353377  53.6887310  39.8852624 109.3936319  54.0279407
  40.6583500 108.8465306  53.8892282  40.2378023 110.2580569  54.2393868
  41.7237666 110.7212701  67.2346306  41.4327532 111.6258332  67.1192972
  42.3594651 110.7629229  67.9490376  42.6493873 108.0989550  63.8247666
  43.2457445 107.8745572  63.1104629  42.7068845 107.3574295  64.4273113
  42.2218902 105.5528985  51.6597857  42.4744422 105.0310507  50.8981320
  41.2843461 105.3895131  51.7624540  47.2662184 104.5564764  59.4672600
  48.0525274 104.1384187  59.1163017  47.5300889 105.4610856  59.6354248
  47.4372262 109.9937614  54.1661257  46.8018095 110.0672241  54.8782161
  47.1069668 110.5831213  53.4880336  52.6670611 104.4939997  60.3705578
  53.3995783 103.9239214  60.6043408  51.9109967 104.1061597  60.8112084
  41.9415190 107.4557091  53.8622232  41.8251448 106.7801995  54.5303316
  42.0517450 106.9689465  53.0454385  44.2846731 106.9167238  57.5668921
  43.9204938 106.3897859  58.2781842  45.1413847 106.5265707  57.3935406
  50.1896032  98.2061571  64.8300187  49.8579357  99.0756982  64.6061402
  49.5941645  97.8897855  65.5094217  43.9252218 101.9457138  52.5630269
  44.0926621 102.8137374  52.9300740  43.7349387 102.1084420  51.6391559
  46.6827551 110.4074117  64.2296100  46.3828274 111.3099156  64.1211907
  46.3378611 110.1406300  65.0817253  40.1340033 106.8587914  60.2632804
  39.2090529 106.7264128  60.4710496  40.3824446 107.6382133  60.7602747
  50.0824695 102.9256657  61.9093537  49.1741572 102.8572066  61.6152298
  50.0312291 103.4028602  62.7375362  43.9041439 104.4014796  53.5476936
  43.7841064 104.8471846  54.3862416  43.2094027 104.7500113  52.9890474
  37.4948844 106.5021187  61.0976593  37.6241225 106.7555666  62.0116005
  36.8146295 107.0948895  60.7781248  41.6648331 117.1718437  57.1967067
  41.5872361 118.1226262  57.2755548  41.0609975 116.8264310  57.8541994
  44.1565561 104.3446303  69.8528434  43.3798895 104.9040223  69.8431299
  44.7956124 104.8303086  70.3743304  51.9486342 101.1273096  63.6871411
  51.3060722 101.4205629  63.0411206  51.4441270 101.0126016  64.4924608
  49.6026505 104.8736269  54.3757270  50.5144361 105.1063656  54.2004968
  49.0936152 105.4573313  53.8132349  42.4111933 107.1531756  69.4146401
  43.1526618 107.6916800  69.1381225  41.7048919 107.7798045  69.5717953
  47.8867273 109.2960897  68.0118563  48.2950629 108.8543307  67.2673195
  47.1644534 108.7213524  68.2652756  44.2398343 104.2333503  65.3852120
  45.0859538 104.6572917  65.5286769  44.1796981 103.5767128  66.0790683
  48.2096088 109.8562087  61.7670852  47.5804950 110.0207801  61.0646920
  47.8221750 110.2703697  62.5381816  52.0885319 110.7916525  59.1215215
  51.4036358 111.1715426  58.5712249  52.1729169 111.4011852  59.8547163
  47.3897788 101.8937872  67.0433293  47.1458720 102.6479932  66.5067569
  47.6657719 102.2723219  67.8780540  49.3436251 108.4376484  65.7210559
  49.5553146 109.0808244  65.0444940  49.2965999 107.6038801  65.2532489
  46.9462480 101.0494305  62.6247131  46.0846959 101.3475558  62.9163869
  46.9724915 101.2664704  61.6928164  43.7624049 109.5936495  59.0320937
  44.2262395 109.8724198  58.2425559  43.4980847 108.6919940  58.8494027
  40.6548130 109.1407977  61.9700700  41.2249488 109.5695245  61.3318184
  41.2456242 108.8590562  62.6684886  42.6992935 105.7159648  55.8410502
  43.4016979 106.1680691  56.3084428  42.3673564 105.0743467  56.4690395
  41.1473297 104.3071404  70.2161711  40.5171958 104.9887685  70.4497108
  41.0409385 104.1954486  69.2714850  36.4418269 103.9743200  61.1427635
  35.6517323 104.2300729  60.6667746  36.9329517 104.7891538  61.2479676
  50.4582079 111.3148440  63.8932916  51.2799523 110.9128627  63.6115598
  50.4544482 111.2116674  64.8449032  38.3933015 104.3387780  58.1011112
  37.5964178 104.4506474  58.6194608  38.1658607 104.6774432  57.2352003
  44.2238682 110.8632483  66.0493627  44.2883115 111.3252890  66.8851799
  43.5149606 110.2329848  66.1775937  34.7255972 104.2273691  63.5742626
  34.9764011 105.1120701  63.8400202  35.2615521 104.0478292  62.8017718
  58.5488072 107.6587188  60.2417888  57.7951780 107.0894586  60.0861892
  58.6835613 107.6249852  61.1888522  43.9386700 112.5300590  55.9172607
  43.8032375 113.3752126  56.3457455  44.4796513 112.7319868  55.1538541
  40.4254040  98.6092170  72.5786962  40.0320985  98.0558369  73.2534607
  41.2420180  98.9202749  72.9693480  37.3916097 110.0476028  56.4900532
  37.9040618 110.8419279  56.6406097  38.0438810 109.3502319  56.4234134
  39.2010982 113.1641785  58.5723285  39.3777610 114.0859749  58.3844269
  39.9967816 112.8500204  59.0017665  43.3422001 100.0250049  70.1707219
  44.0831714 100.6257202  70.0911681  43.5739924  99.2827687  69.6125261
  38.4863339 105.2106416  68.4485449  38.3716854 104.3091674  68.7492547
  37.6307856 105.4570113  68.0970265  45.5655176 113.1524157  70.0472949
  45.1219031 112.3660535  69.7293854  46.2272390 113.3403307  69.3816840
  40.3242298 114.6819958  64.5733628  40.8749723 114.5537022  63.8010622
  39.4853774 114.9814847  64.2228520  47.6636415 113.4326957  68.0754350
  47.6454890 114.2535838  67.5834620  48.5856335 113.3081032  68.3004492
  44.1209469 110.9471086  68.9177859  44.6537805 110.1859374  68.6877167
  43.5923550 110.6544738  69.6602013  47.2879164  96.0531152  64.4471501
  46.9443433  96.9432794  64.3710611  47.6558126  95.8632810  63.5841086
  35.3565014 108.3764683  57.2660103  36.1940236 108.7861691  57.0493810
  35.5343282 107.4364125  57.2360297  47.2529446 106.0439763  52.9543936
  46.7376070 106.8144368  53.1932323  46.9806755 105.3704899  53.5776997
  44.8376557 100.8889464  58.0129174  43.9818154 100.4996314  57.8334813
  45.2503509 100.9681425  57.1528960  46.3675704  98.4235807  62.4120734
  45.8640500  98.3865942  61.5988539  46.6606311  99.3328550  62.4717390
  42.6118590  98.5074537  61.4186916  43.4771587  98.3117346  61.0592805
  42.6796099  98.2784889  62.3456272  52.2263720 108.7972118  54.8897109
  51.4493163 108.4583277  54.4452271  52.9055201 108.8024741  54.2152074
  47.0415750 103.9166855  54.7803717  46.7365885 104.2313005  55.6313860
  47.9946192 103.9948275  54.8231050  45.4862181 110.0757079  56.4296671
  44.9583543 109.3409838  56.1169908  44.9849684 110.8531755  56.1836639
  50.4655027 108.2706099  61.5463717  49.8078702 108.9605361  61.6343846
  51.2695427 108.6602531  61.8897703  40.2180909 100.7376745  58.7903282
  40.7924661 100.5151926  58.0576475  40.8051891 100.8065439  59.5431884
  49.2760486 106.6250472  59.5967659  49.7892368 107.2580464  60.0989369
  49.9261710 106.0251667  59.2311019  40.5450496 102.7681206  52.8099168
  39.7087808 103.1055893  53.1308442  40.4055266 102.6330186  51.8726305
  42.5203577  97.6117994  57.5178352  41.8667989  97.2967011  56.8934967
  42.4784051  96.9893734  58.2438175  43.6314782 107.8937289  49.4331644
  42.7241843 107.6626542  49.6322793  44.1285814 107.0974908  49.6205625
  46.5382860 116.6034796  52.3528330  45.8644559 116.9066493  52.9613288
  46.9248682 117.4063876  52.0033787  45.7541317 104.0999927  61.8425999
  44.8363878 104.3214874  61.6847687  46.1701461 104.1746238  60.9837707
  46.5376365 105.4991343  56.9728680  47.2848184 106.0112740  56.6635802
  46.8067954 105.1775396  57.8333073  44.8103015 107.9949884  53.9555634
  43.9014234 107.7108917  54.0528104  44.8398099 108.4148962  53.0958941
  50.0422282 111.6056473  57.7246802  49.5884610 110.7647383  57.7811992
  49.4116249 112.2417872  58.0621582  48.9855202 102.5348459  58.9547469
  48.2477959 102.0225846  59.2857712  49.2381976 102.0948841  58.1430746
  48.4855222 113.4432970  58.6596620  48.7778196 114.0038027  57.9408985
  48.9953842 113.7361531  59.4149779  49.0866829  95.3124711  59.5489238
  49.3925706  94.4522075  59.2615153  49.8119434  95.9042332  59.3488232
  35.3791185 105.7155398  57.9370836  35.1815585 105.1224759  57.2121903
  34.8237849 105.4107608  58.6546775  43.3587909 105.6078504  60.0565429
  43.4136519 104.6552341  59.9807906  42.5479111 105.7637944  60.5406728
  44.5079103 109.5358627  51.2943713  44.0698533 108.8194486  50.8349350
  45.2489544 109.7634742  50.7328804  41.2980269 104.2255564  57.8155808
  40.4848134 104.5249735  58.2221000  41.7939263 103.8311253  58.5330290
  43.4488847 114.2213321  59.7490073  43.4065026 114.4474167  58.8198605
  44.3651546 113.9876696  59.8975874  46.8954481 104.6897389  66.6470702
  47.2503868 104.9168862  67.5065168  47.5426612 105.0215765  66.0247957
  52.6252218 107.8115825  57.3520031  52.4870116 108.0017420  56.4241220
  52.2688436 108.5735207  57.8088082  40.7894344 101.7973920  63.4317043
  41.4293723 101.6562679  62.7340006  39.9571874 101.5108433  63.0555645
  52.6521597 109.8792352  62.3631303  53.0858104 109.7867641  63.2114357
  53.3653178 109.8549852  61.7251319  41.5654648 111.0976350  59.5452036
  42.3595246 110.6026670  59.3434611  40.8546340 110.5694213  59.1819741
  46.3849492 113.4794446  63.8964403  46.4386514 114.0485382  64.6642119
  45.5164273 113.6496331  63.5318440  37.8737411 105.2419432  55.6211788
  36.9434999 105.1803887  55.8381750  37.9694883 104.7195385  54.8248430
  37.7922960 101.7674245  58.2090030  38.0529777 102.6819578  58.0999190
  38.6140132 101.2998687  58.3586643  39.2647885 103.1812002  65.3788854
  39.9370939 102.9729364  64.7301503  38.4377672 102.9834088  64.9394087
  53.5137147 109.9216052  64.8964188  53.7073037 110.8261863  65.1423463
  53.4137765 109.4623471  65.7302773  45.1673457  99.8073943  67.3954515
  44.5201373 100.5063892  67.3018992  45.9374473 100.2410087  67.7630764
  48.5752255 110.0722795  70.4705069  48.4237762 109.8433347  69.5535152
  48.5656935 111.0293396  70.4836414  45.3437592 107.6454708  65.4551335
  46.2729652 107.7965867  65.2820302  44.9228622 107.7338728  64.5999982
  44.1425924 111.6705372  63.2249873  44.0037009 111.3024156  64.0975811
  43.3540520 112.1853012  63.0533830  44.7374076 116.7714469  54.5675409
  44.9125831 116.3002512  55.3821032  44.0506864 117.3980235  54.7956670
  45.6931139 111.0486975  60.6138710  45.3580971 111.0087745  61.5096360
  45.1935084 110.3831691  60.1409121  39.6675383 106.4554605  66.1391292
  39.5295181 105.7234844  66.7402831  40.5780306 106.3663505  65.8575479
  48.6290330 108.3943009  50.8875770  48.0119501 107.6689837  50.7908823
  48.1606819 109.1552369  50.5442844  42.2957683 106.1674564  65.6274971
  43.0057302 105.5267756  65.5861590  42.2526992 106.4187459  66.5501152
  50.2844462 113.1041917  68.5481550  50.2257008 112.4201138  67.8812134
  50.6863980 113.8460907  68.0962176  41.0086617 103.1539782  67.4470611
  40.4723974 102.7030520  68.0992207  40.4203326 103.2885691  66.7041075
  40.4188876 102.6128433  50.0097074  39.5418343 102.4917234  49.6459321
  40.8946629 101.8214512  49.7575963  50.2861869 111.0681501  66.7795530
  49.3988648 110.7307423  66.9021929  50.8560420 110.3364533  67.0164296
  31.9391016 107.4005593  60.1038582  32.6262056 107.0867323  59.5159597
  31.7839145 108.3046958  59.8305833  36.7425739 102.2895790  64.5323605
  36.6583927 101.6821459  63.7974015  35.9208445 102.7804808  64.5333102
  43.8163023 115.7282954  63.7456773  43.7433194 116.5337925  64.2576078
  43.3740416 115.9274920  62.9204795  43.6052802 114.9654724  57.2559595
  42.8220324 115.5076404  57.3497819  44.3045548 115.4828703  57.6553836
  46.9149452 100.7749353  59.8993800  47.4118152 100.0219316  59.5794871
  46.1436434 100.8113670  59.3337010  54.7679210 106.4789719  61.5412092
  54.7569086 107.3614434  61.1706025  53.8996589 106.1261270  61.3466629
  46.2761706 115.6269788  65.9014932  46.9889678 116.2617253  65.8290833
  45.7851735 115.7233654  65.0854934  47.9979233 109.5321040  57.4732224
  47.0635512 109.6522503  57.3036928  48.1755902 108.6293507  57.2092234
  43.4984421 102.9166736  59.6265485  43.1282209 102.3637777  60.3146390
  43.9943514 102.3124870  59.0740485  51.3851785 105.3738360  58.0082258
  51.8512237 106.2066351  57.9342560  51.8359285 104.9083341  58.7127516
  41.3273620 113.3764231  66.7220503  42.0283079 114.0100714  66.8749897
  40.8568735 113.7178963  65.9616142  49.4528016 111.7182181  55.0068410
  49.7287860 111.6038776  55.9162284  48.5832514 111.3199666  54.9680583
  49.3568447  97.7418947  62.0473159  48.4431527  97.9723174  62.2155366
  49.7861549  97.8257391  62.8987192  49.1274906 105.9308839  64.5473053
  48.4746356 106.1784746  63.8925506  49.5055286 105.1172977  64.2135530
  46.0882080 115.9668532  58.6501223  46.2704474 115.1490188  59.1128976
  46.9115066 116.1836224  58.2126113  46.4224245 114.8936717  55.9116272
  46.9512012 114.3829172  55.2986434  46.6852465 114.5779247  56.7761805
  45.1762479 106.6728650  71.0339090  44.5003116 106.5722779  71.7041465
  45.9990113 106.5167864  71.4975087  36.9241338 112.9100586  63.6551606
  37.5094775 112.1644274  63.7879510  36.7266176 113.2204543  64.5388269
  39.7779993 115.9451834  58.6714048  39.1090368 116.4297961  58.1878088
  39.6392863 116.1921054  59.5857426  31.5158993 105.4806187  62.3756049
  31.5543092 104.9469777  63.1693167  31.0099285 104.9541392  61.7567026
  43.9185262 117.9795577  65.2696706  44.4703570 118.1427199  66.0345791
  44.2591455 118.5700015  64.5976731  38.8949755 100.3270727  65.8718591
  38.9591081 101.1885558  65.4595989  38.8316875  99.7144729  65.1390949
  38.3702027 102.3993860  69.5191625  38.9974066 102.0170937  70.1329150
  37.5129946 102.1808062  69.8847318  48.7696136 112.8056835  71.1245361
  49.3136040 113.4186793  70.6300316  48.1882981 113.3636413  71.6412374
  35.1467570 104.2070289  55.4509980  35.4421011 103.2980967  55.3977034
  34.2455606 104.1858028  55.1290982  47.0553649 115.9277553  62.2560388
  46.9304788 115.1267293  61.7471334  47.7132740 116.4223746  61.7674358
  38.6761817 102.2826285  61.4337529  37.9548403 102.8962253  61.2945002
  39.4655073 102.8184050  61.3554175  49.1188557 113.7286573  63.8839939
  48.1718893 113.6091924  63.8118265  49.4671330 112.8409071  63.9666200
  41.4788131  99.6180712  67.7078180  42.0022532  99.8643008  68.4704490
  41.2600464 100.4500747  67.2881318  36.8755412 101.8884386  55.5749305
  36.5468118 101.0081765  55.3924411  37.2294782 101.8332055  56.4625694
  46.1234991 113.5239289  60.0844291  45.9759953 112.5955996  60.2651861
  46.9488484 113.5459380  59.6001366  39.9897235 102.1757356  55.9424783
  40.3293307 102.7043277  55.2203391  40.4369355 102.5137762  56.7183349
  49.7269112 114.3467848  61.1709164  50.6515660 114.1410709  61.0333615
  49.5584416 114.0984249  62.0798505  42.6840676 100.5594407  65.3927851
  42.3437496  99.7602220  65.7948531  41.9779682 100.8596118  64.8204684
  43.3357148  97.6443719  63.8455174  44.1583217  97.1704197  63.7234064
  43.5795211  98.4234203  64.3453860  41.9765382 100.6731978  54.1418076
  42.6973745 101.0513231  53.6381793  41.3530686 101.3920855  54.2453054
  46.1196505 101.3777127  55.0776408  46.3360119 102.2601765  54.7765236
  45.6390572 100.9863340  54.3482050  40.8595726 104.3362840  61.6547153
  40.7140307 104.6503143  62.5471434  40.3820930 104.9547740  61.1018051
  42.7192109 101.3265388  61.7028042  42.7053678 100.4306481  61.3660340
  43.4364537 101.3336052  62.3366328  44.5718240 101.7602728  63.7481170
  44.3136018 102.6819799  63.7465500  44.0403280 101.3633163  64.4381634
  49.5164429 114.8653515  56.5271255  49.6901306 114.2999938  55.7745107
  50.0093320 115.6654410  56.3450745  35.3341388 106.8768184  64.5934814
  34.7894857 107.6527992  64.7255088  36.2120738 107.2238989  64.4353935
  42.1229005 100.2079768  56.9715612  42.2444916  99.2796414  57.1706500
  41.8331047 100.2218454  56.0593928  44.9920196  97.8934679  60.1082332
  45.0141892  97.9574012  59.1534312  45.4088255  97.0539187  60.3022838
  55.3703820 107.6289938  58.1461555  55.8134966 106.8797263  57.7480678
  54.4930330 107.6200075  57.7635287  50.5039601 114.1820280  53.6268153
  51.1990506 114.8026972  53.8455468  50.8462751 113.3315631  53.9020531
  36.1207410 106.0038081  67.4864971  35.3789146 106.1520716  68.0729601
  35.8000155 106.2646346  66.6231720  52.4031024 111.6319985  55.1555484
  52.9282348 111.9707258  54.4304804  52.3153377 110.6967000  54.9718619
  44.0651073 115.5454059  67.2845361  44.3738199 115.3003206  68.1568060
  44.8626555 115.7500697  66.7964231  44.0871685 117.6991968  59.5150737
  43.6476675 117.2068347  60.2083594  44.8379802 117.1564936  59.2742812
  36.5664024 113.8903509  59.5175365  37.3922044 113.5907281  59.1374009
  36.2158076 113.1211132  59.9665154  41.5345557 113.2429978  61.5873039
  40.9125566 112.5800683  61.2875267  42.2050424 113.2691109  60.9046687
  34.7672629 111.8089836  60.4764299  33.9304537 111.3812010  60.2948300
  34.7396274 112.0022279  61.4135090  41.6070085 101.7211766  71.1805545
  41.6558240 102.5973888  70.7983314  42.1492599 101.1789159  70.6077188
  52.0924930 112.2652889  70.4606682  51.3020474 112.2477028  69.9211181
  51.8558285 112.8041182  71.2155719  52.2122805 109.1145355  67.7739411
  52.2620810 108.9495363  68.7154933  52.1036729 108.2472614  67.3837291
  41.0959064 111.7933901  55.0631499  41.2447184 112.4769365  54.4098172
  41.9025508 111.7738991  55.5780955  49.5026568 105.0976283  69.0898717
  50.4036431 104.9582748  68.7982715  49.5774542 105.2630738  70.0296895
  43.8369373 102.4743138  67.9351904  42.9672683 102.7676704  67.6634492
  44.0728853 103.0583583  68.6559167  53.7141002 111.5342297  68.0181432
  53.4225811 111.8972277  68.8544893  53.1013134 110.8209305  67.8394764
  54.9136685 109.0995176  60.5384002  55.7483576 109.5384981  60.7021563
  55.0495813 108.6233830  59.7192248  51.9628190 106.6574911  66.4861490
  52.4382312 106.8502558  65.6780341  51.0393756 106.7134097  66.2404874
  38.8511697 107.8199079  56.0692568  38.6057739 106.9161409  56.2672778
  39.0207612 107.8216229  55.1272046  46.5408407  98.6922755  65.4517324
  47.0590351  99.4283782  65.1263812  46.1863540  98.9986748  66.2864083
  38.1207345 103.5527436  53.5678730  37.4276590 103.6271791  52.9118766
  37.8759097 102.7887780  54.0900247  46.7921001  95.1123037  60.9718221
  47.0722755  94.4446226  61.5978647  47.5771608  95.3052133  60.4592884
  44.5954470 114.2882031  52.5343247  44.0228437 114.9072218  52.0813719
  45.1687263 114.8381393  53.0683169  50.6629859 103.5340671  64.7189796
  51.6147282 103.6338769  64.7402020  50.4933310 102.7418940  65.2287880
  48.6844239 100.6196255  64.9049197  48.0894171 100.9001267  64.2095685
  48.3993936 101.1090156  65.6765938  47.8151729 114.5719181  53.6651829
  48.7482403 114.5064743  53.8684705  47.7274942 115.4075448  53.2066362
  50.4439746 113.8885052  50.6255777  50.3653378 113.5544915  51.5191535
  51.2649413 114.3806820  50.6247249  53.1417937 106.7546791  63.8332095
  53.1094257 105.8162792  64.0191779  53.7518561 106.8330828  63.0997920
  44.9801268 105.6242844  49.8759299  45.9260373 105.4949052  49.9447717
  44.6015513 104.8857506  50.3528727  53.2912426 103.5457835  63.8790378
  52.7751474 102.7616291  63.6920307  54.1752374 103.2176551  64.0436898
  50.9523153  97.2898850  59.8386191  50.7547974  96.9813938  60.7229523
  51.5622858  98.0160489  59.9684121  58.9594487 107.8162798  62.9738132
  59.6897876 107.5548086  63.5345835  58.3501433 107.0791520  63.0140200
  57.0409784 105.9570661  63.5712583  56.3142948 105.8226625  62.9629075
  56.6257071 106.2647489  64.3769301  44.8639961 109.6760590  71.3359956
  45.7842970 109.8539189  71.5300003  44.8289544 108.7316636  71.1839656
  43.1644185 103.5492820  49.8114185  42.2575641 103.2525933  49.8876898
  43.4420166 103.2522639  48.9448471  34.0822126 104.8699184  60.2613231
  33.7624910 104.0164492  59.9687605  33.5355554 105.0847762  61.0171198
  37.8602033 107.5861625  63.9782737  38.0788043 108.5178733  63.9970771
  38.2727807 107.2269599  64.7637541  44.7806251  98.0929710  55.9658426
  43.9706979  97.7476795  56.3413672  45.4690668  97.7837254  56.5546037
  46.7096799  97.1707757  57.5882722  47.2627838  97.5903210  58.2472746
  46.9466886  96.2443505  57.6305678  42.7329899 103.1594831  73.3685486
  42.6326625 104.1089188  73.2997577  42.5151441 102.8313070  72.4961556
  41.9342970 100.4079756  49.9526164  42.7962134 100.7334654  50.2121981
  42.1193314  99.6211252  49.4399230  33.9510386 108.4902095  62.2306353
  33.2573857 108.0756048  61.7176307  34.6983377 108.5322632  61.6339771
  50.0875606  99.2808282  57.0961387  49.5074275  99.9393086  56.7139439
  49.8211539  98.4585627  56.6848804  48.5379173  98.6813340  59.2982707
  49.0378951  98.7929874  58.4897026  49.1814781  98.3774393  59.9383516
  42.5961169 106.5891969  72.1850548  42.1128250 107.3892330  72.3914437
  42.6822108 106.5999914  71.2317992  35.8647128 108.4220349  60.1072367
  35.8417816 108.5208036  59.1554251  36.1747765 109.2685500  60.4289534
  38.5234506 110.4796504  64.2218982  39.4777760 110.4480446  64.1548913
  38.3247030 110.0187128  65.0369208  39.1133888 109.0497620  66.7889779
  39.9326777 109.5441699  66.8124617  39.3870696 108.1329588  66.7607347
  48.8700484 101.4408373  56.1517735  47.9826339 101.7258023  55.9337930
  49.2854473 101.2802136  55.3045012  52.2215021 101.4654894  59.8672074
  52.9975411 101.9551346  60.1396691  51.4963155 101.8912948  60.3243944
  54.6587579 102.1782513  60.9246015  55.2532070 101.9378249  60.2139323
  54.7314163 101.4589643  61.5519551  48.0143698 111.2053047  50.2465755
  48.7179548 111.4103050  50.8623411  47.2906347 111.7729809  50.5114839
  48.8441508 106.9562908  56.3668025  48.7876710 107.4131460  55.5275658
  49.3969851 106.1953593  56.1890868  52.6546314 102.7452640  57.1918145
  52.3983248 102.3449276  58.0226352  52.0299182 103.4596434  57.0668284
  56.9658652 105.4848714  59.6989436  56.4058210 105.5541903  60.4720998
  56.3602155 105.3089698  58.9788932  49.9230395 111.6435576  52.2964215
  50.7575999 111.2116775  52.1141690  49.7614738 111.4717590  53.2241110
  49.5776287 108.1467690  53.6620554  49.5225091 107.9811961  52.7208998
  48.9522343 108.8543723  53.8182744  34.3668802 103.3835754  67.4881977
  35.0127666 102.8734708  67.9769202  34.1585954 104.1204436  68.0625402
  46.8922195 110.4516602  72.9874117  47.7613354 110.6257254  72.6260752
  46.4128946 111.2711018  72.8649846  42.8872413  97.6475799  53.2405873
  42.8751083  98.5917639  53.3974144  43.7795835  97.4645944  52.9465334
  41.0608375 117.5713703  64.6663551  41.9635622 117.6037313  64.9830046
  40.8345745 116.6414154  64.6809887  42.8161977 116.3244689  61.3273629
  41.8657608 116.3246551  61.2138002  43.1194463 115.5777424  60.8109664
  46.7024532  94.2418575  57.4951810  45.9356928  93.6877062  57.6408492
  47.1135237  94.3140444  58.3565961  38.7066293 100.5303371  71.5856991
  39.5697755 100.1740176  71.7960315  38.1331704 100.1917266  72.2732395
  58.5514670 122.1605228  62.3919392  59.1893080 122.0411975  61.6882732
  58.4335513 123.1086071  62.4507344  55.3604377 122.1132656  62.3280916
  55.0222888 121.9973720  61.4401451  56.2294145 121.7123821  62.3081923
  55.8424160 123.2667507  68.2867122  55.8312800 122.8720306  67.4147626
  56.0044799 122.5333580  68.8800893  53.0612656 120.8820903  51.6597857
  53.3138177 120.3602424  50.8981320  52.1237215 120.7187048  51.7624540
  58.1055939 119.8856681  59.4672600  58.8919028 119.4676105  59.1163017
  58.3694643 120.7902774  59.6354248  63.5064366 119.8231915  60.3705578
  64.2389538 119.2531131  60.6043408  62.7503722 119.4353515  60.8112084
  55.1240486 122.2459156  57.5668921  54.7598693 121.7189777  58.2781842
  55.9807602 121.8557625  57.3935406  61.0289786 113.5353489  64.8300187
  60.6973111 114.4048900  64.6061402  60.4335400 113.2189773  65.5094217
  54.7645973 117.2749056  52.5630269  54.9320375 118.1429292  52.9300740
  54.5743142 117.4376337  51.6391559  60.9218450 118.2548575  61.9093537
  60.0135327 118.1863983  61.6152298  60.8706045 118.7320520  62.7375362
  54.7435194 119.7306713  53.5476936  54.6234819 120.1763764  54.3862416
  54.0487782 120.0792031  52.9890474  54.9959315 119.6738220  69.8528434
  54.2192649 120.2332141  69.8431299  55.6349878 120.1595003  70.3743304
  62.7880096 116.4565013  63.6871411  62.1454476 116.7497546  63.0411206
  62.2835025 116.3417934  64.4924608  60.4420260 120.2028186  54.3757270
  61.3538116 120.4355573  54.2004968  59.9329907 120.7865231  53.8132349
  55.0792097 119.5625421  65.3852120  55.9253293 119.9864835  65.5286769
  55.0190735 118.9059045  66.0790683  58.2291543 117.2229789  67.0433293
  57.9852475 117.9771850  66.5067569  58.5051473 117.6015137  67.8780540
  60.1830006 123.7668402  65.7210559  60.3946901 124.4100162  65.0444940
  60.1359754 122.9330718  65.2532489  57.7856234 116.3786222  62.6247131
  56.9240714 116.6767476  62.9163869  57.8118669 116.5956621  61.6928164
  53.5386690 121.0451565  55.8410502  54.2410733 121.4972609  56.3084428
  53.2067318 120.4035384  56.4690395  51.9867051 119.6363322  70.2161711
  51.3565712 120.3179603  70.4497108  51.8803139 119.5246404  69.2714850
  47.2812024 119.3035118  61.1427635  46.4911078 119.5592647  60.6667746
  47.7723271 120.1183456  61.2479676  49.2326769 119.6679697  58.1011112
  48.4357933 119.7798391  58.6194608  49.0052361 120.0066349  57.2352003
  69.3881827 122.9879106  60.2417888  68.6345535 122.4186504  60.0861892
  69.5229368 122.9541770  61.1888522  51.2647794 113.9384088  72.5786962
  50.8714740 113.3850286  73.2534607  52.0813935 114.2494666  72.9693480
  54.1815755 115.3541967  70.1707219  54.9225469 115.9549120  70.0911681
  54.4133678 114.6119605  69.6125261  58.1272918 111.3823070  64.4471501
  57.7837188 112.2724712  64.3710611  58.4951881 111.1924727  63.5841086
  58.0923201 121.3731681  52.9543936  57.5769824 122.1436286  53.1932323
  57.8200509 120.6996817  53.5776997  55.6770312 116.2181382  58.0129174
  54.8211908 115.8288232  57.8334813  56.0897264 116.2973343  57.1528960
  57.2069459 113.7527725  62.4120734  56.7034254 113.7157860  61.5988539
  57.5000065 114.6620468  62.4717390  53.4512344 113.8366455  61.4186916
  54.3165341 113.6409263  61.0592805  53.5189853 113.6076806  62.3456272
  63.0657475 124.1264036  54.8897109  62.2886918 123.7875195  54.4452271
  63.7448956 124.1316659  54.2152074  57.8809504 119.2458773  54.7803717
  57.5759640 119.5604922  55.6313860  58.8339946 119.3240193  54.8231050
  61.3048782 123.5998017  61.5463717  60.6472456 124.2897278  61.6343846
  62.1089181 123.9894449  61.8897703  51.0574663 116.0668663  58.7903282
  51.6318415 115.8443844  58.0576475  51.6445646 116.1357357  59.5431884
  60.1154241 121.9542390  59.5967659  60.6286122 122.5872381  60.0989369
  60.7655465 121.3543585  59.2311019  51.3844251 118.0973124  52.8099168
  50.5481563 118.4347810  53.1308442  51.2449020 117.9622103  51.8726305
  53.3597331 112.9409912  57.5178352  52.7061744 112.6258929  56.8934967
  53.3177805 112.3185652  58.2438175  56.5935072 119.4291845  61.8425999
  55.6757633 119.6506792  61.6847687  57.0095215 119.5038156  60.9837707
  57.3770119 120.8283261  56.9728680  58.1241938 121.3404658  56.6635802
  57.6461709 120.5067313  57.8333073  59.8248956 117.8640377  58.9547469
  59.0871713 117.3517763  59.2857712  60.0775730 117.4240759  58.1430746
  59.9260584 110.6416629  59.5489238  60.2319461 109.7813992  59.2615153
  60.6513189 111.2334249  59.3488232  54.1981664 120.9370422  60.0565429
  54.2530273 119.9844258  59.9807906  53.3872866 121.0929861  60.5406728
  52.1374023 119.5547482  57.8155808  51.3241889 119.8541652  58.2221000
  52.6333018 119.1603171  58.5330290  57.7348235 120.0189306  66.6470702
  58.0897623 120.2460779  67.5065168  58.3820366 120.3507683  66.0247957
  63.4645972 123.1407742  57.3520031  63.3263871 123.3309338  56.4241220
  63.1082191 123.9027125  57.8088082  51.6288098 117.1265837  63.4317043
  52.2687478 116.9854596  62.7340006  50.7965629 116.8400351  63.0555645
  63.4915352 125.2084269  62.3631303  63.9251858 125.1159558  63.2114357
  64.2046932 125.1841770  61.7251319  48.7131166 120.5711350  55.6211788
  47.7828754 120.5095805  55.8381750  48.8088638 120.0487302  54.8248430
  48.6316715 117.0966162  58.2090030  48.8923532 118.0111496  58.0999190
  49.4533887 116.6290605  58.3586643  50.1041640 118.5103920  65.3788854
  50.7764693 118.3021282  64.7301503  49.2771426 118.3126006  64.9394087
  64.3530901 125.2507970  64.8964188  64.5466791 126.1553780  65.1423463
  64.2531519 124.7915389  65.7302773  56.0067212 115.1365860  67.3954515
  55.3595127 115.8355810  67.3018992  56.7768227 115.5702004  67.7630764
  56.1831346 122.9746625  65.4551335  57.1123406 123.1257785  65.2820302
  55.7622376 123.0630646  64.5999982  59.4684085 123.7234927  50.8875770
  58.8513256 122.9981755  50.7908823  59.0000573 124.4844287  50.5442844
  53.1351438 121.4966482  65.6274971  53.8451056 120.8559674  65.5861590
  53.0920746 121.7479377  66.5501152  51.8480372 118.4831700  67.4470611
  51.3117729 118.0322438  68.0992207  51.2597080 118.6177609  66.7041075
  51.2582631 117.9420351  50.0097074  50.3812097 117.8209152  49.6459321
  51.7340384 117.1506429  49.7575963  47.5819493 117.6187707  64.5323605
  47.4977682 117.0113377  63.7974015  46.7602199 118.1096726  64.5333102
  57.7543207 116.1041271  59.8993800  58.2511906 115.3511233  59.5794871
  56.9830188 116.1405588  59.3337010  65.6072964 121.8081636  61.5412092
  65.5962841 122.6906352  61.1706025  64.7390344 121.4553187  61.3466629
  54.3378176 118.2458654  59.6265485  53.9675963 117.6929694  60.3146390
  54.8337268 117.6416787  59.0740485  62.2245539 120.7030277  58.0082258
  62.6905991 121.5358269  57.9342560  62.6753039 120.2375259  58.7127516
  60.1962202 113.0710864  62.0473159  59.2825282 113.3015091  62.2155366
  60.6255303 113.1549308  62.8987192  59.9668660 121.2600756  64.5473053
  59.3140110 121.5076664  63.8925506  60.3449040 120.4464895  64.2135530
  56.0156233 122.0020567  71.0339090  55.3396870 121.9014697  71.7041465
  56.8383867 121.8459781  71.4975087  49.7343509 115.6562645  65.8718591
  49.7984836 116.5177476  65.4595989  49.6710630 115.0436646  65.1390949
  49.2095782 117.7285777  69.5191625  49.8367821 117.3462855  70.1329150
  48.3523701 117.5099979  69.8847318  45.9861325 119.5362206  55.4509980
  46.2814766 118.6272885  55.3977034  45.0849360 119.5149946  55.1290982
  49.5155572 117.6118203  61.4337529  48.7942157 118.2254171  61.2945002
  50.3048827 118.1475968  61.3554175  52.3181885 114.9472629  67.7078180
  52.8416287 115.1934926  68.4704490  52.0994218 115.7792664  67.2881318
  47.7149166 117.2176304  55.5749305  47.3861872 116.3373683  55.3924411
  48.0688537 117.1623973  56.4625694  50.8290989 117.5049274  55.9424783
  51.1687062 118.0335195  55.2203391  51.2763110 117.8429680  56.7183349
  53.5234430 115.8886325  65.3927851  53.1831251 115.0894138  65.7948531
  52.8173436 116.1888035  64.8204684  54.1750902 112.9735637  63.8455174
  54.9976971 112.4996115  63.7234064  54.4188966 113.7526121  64.3453860
  52.8159137 116.0023895  54.1418076  53.5367499 116.3805148  53.6381793
  52.1924441 116.7212772  54.2453054  56.9590259 116.7069044  55.0776408
  57.1753874 117.5893682  54.7765236  56.4784327 116.3155258  54.3482050
  51.6989481 119.6654758  61.6547153  51.5534062 119.9795061  62.5471434
  51.2214684 120.2839658  61.1018051  53.5585864 116.6557306  61.7028042
  53.5447432 115.7598399  61.3660340  54.2758292 116.6627969  62.3366328
  55.4111994 117.0894646  63.7481170  55.1529772 118.0111716  63.7465500
  54.8797035 116.6925080  64.4381634  52.9622760 115.5371686  56.9715612
  53.0838671 114.6088332  57.1706500  52.6724802 115.5510372  56.0593928
  55.8313950 113.2226596  60.1082332  55.8535647 113.2865929  59.1534312
  56.2482009 112.3831105  60.3022838  66.2097574 122.9581856  58.1461555
  66.6528720 122.2089181  57.7480678  65.3324085 122.9491992  57.7635287
  52.4463839 117.0503683  71.1805545  52.4951995 117.9265806  70.7983314
  52.9886353 116.5081076  70.6077188  63.0516560 124.4437273  67.7739411
  63.1014565 124.2787280  68.7154933  62.9430483 123.5764532  67.3837291
  60.3420322 120.4268201  69.0898717  61.2430185 120.2874666  68.7982715
  60.4168297 120.5922656  70.0296895  54.6763128 117.8035056  67.9351904
  53.8066437 118.0968622  67.6634492  54.9122608 118.3875501  68.6559167
  65.7530439 124.4287094  60.5384002  66.5877330 124.8676898  60.7021563
  65.8889568 123.9525747  59.7192248  62.8021945 121.9866829  66.4861490
  63.2776067 122.1794475  65.6780341  61.8787510 122.0426015  66.2404874
  57.3802161 114.0214673  65.4517324  57.8984105 114.7575699  65.1263812
  57.0257294 114.3278666  66.2864083  48.9601099 118.8819354  53.5678730
  48.2670344 118.9563709  52.9118766  48.7152851 118.1179697  54.0900247
  57.6314756 110.4414955  60.9718221  57.9116509 109.7738144  61.5978647
  58.4165363 110.6344051  60.4592884  61.5023614 118.8632589  64.7189796
  62.4541037 118.9630687  64.7402020  61.3327064 118.0710858  65.2287880
  59.5237993 115.9488172  64.9049197  58.9287926 116.2293185  64.2095685
  59.2387690 116.4382073  65.6765938  63.9811692 122.0838709  63.8332095
  63.9488012 121.1454710  64.0191779  64.5912315 122.1622745  63.0997920
  55.8195023 120.9534762  49.8759299  56.7654127 120.8240970  49.9447717
  55.4409268 120.2149424  50.3528727  64.1306180 118.8749752  63.8790378
  63.6145229 118.0908209  63.6920307  65.0146129 118.5468469  64.0436898
  61.7916907 112.6190768  59.8386191  61.5941728 112.3105856  60.7229523
  62.4016613 113.3452407  59.9684121  69.7988242 123.1454716  62.9738132
  70.5291630 122.8840004  63.5345835  69.1895187 122.4083438  63.0140200
  67.8803539 121.2862578  63.5712583  67.1536702 121.1518543  62.9629075
  67.4650826 121.5939407  64.3769301  54.0037940 118.8784738  49.8114185
  53.0969395 118.5817851  49.8876898  54.2813921 118.5814556  48.9448471
  55.6200005 113.4221628  55.9658426  54.8100734 113.0768713  56.3413672
  56.3084422 113.1129172  56.5546037  57.5490554 112.4999675  57.5882722
  58.1021592 112.9195128  58.2472746  57.7860640 111.5735423  57.6305678
  53.5723653 118.4886748  73.3685486  53.4720380 119.4381105  73.2997577
  53.3545195 118.1604987  72.4961556  52.7736724 115.7371673  49.9526164
  53.6355888 116.0626572  50.2121981  52.9587069 114.9503169  49.4399230
  60.9269361 114.6100200  57.0961387  60.3468030 115.2685004  56.7139439
  60.6605294 113.7877544  56.6848804  59.3772927 114.0105258  59.2982707
  59.8772706 114.1221792  58.4897026  60.0208535 113.7066310  59.9383516
  59.7094239 116.7700290  56.1517735  58.8220094 117.0549941  55.9337930
  60.1248228 116.6094054  55.3045012  63.0608775 116.7946811  59.8672074
  63.8369165 117.2843264  60.1396691  62.3356909 117.2204865  60.3243944
  65.4981334 117.5074430  60.9246015  66.0925824 117.2670166  60.2139323
  65.5707917 116.7881561  61.5519551  59.6835263 122.2854826  56.3668025
  59.6270464 122.7423378  55.5275658  60.2363605 121.5245511  56.1890868
  63.4940069 118.0744558  57.1918145  63.2377003 117.6741194  58.0226352
  62.8692937 118.7888352  57.0668284  67.8052406 120.8140631  59.6989436
  67.2451964 120.8833821  60.4720998  67.1995910 120.6381616  58.9788932
  60.4170042 123.4759607  53.6620554  60.3618846 123.3103879  52.7208998
  59.7916097 124.1835640  53.8182744  45.2062557 118.7127672  67.4881977
  45.8521421 118.2026626  67.9769202  44.9979708 119.4496353  68.0625402
  53.7266167 112.9767716  53.2405873  53.7144837 113.9209556  53.3974144
  54.6189589 112.7937862  52.9465334  57.5418287 109.5710493  57.4951810
  56.7750683 109.0168980  57.6408492  57.9528992 109.6432362  58.3565961
  49.5460048 115.8595289  71.5856991  50.4091509 115.5032094  71.7960315
  48.9725459 115.5209184  72.2732395  68.9666673 126.7114988  64.4471501
  68.6230942 127.6016629  64.3710611  69.3345635 126.5216645  63.5841086
  70.7654338 125.9708547  59.5489238  71.0713215 125.1105910  59.2615153
  71.4906943 126.5626167  59.3488232  68.4708510 125.7706873  60.9718221
  68.7510264 125.1030062  61.5978647  69.2559117 125.9635968  60.4592884
  72.6310662 127.9482685  59.8386191  72.4335483 127.6397774  60.7229523
  73.2410367 128.6744324  59.9684121  68.3812041 124.9002411  57.4951810
  67.6144437 124.3460897  57.6408492  68.7922746 124.9724279  58.3565961
   4.3545899  22.5207762  49.1164698   4.9924309  22.4014509  48.4128039
   4.2366742  23.4688606  49.1752651   1.1635605  22.4735190  49.0526223
   0.8254117  22.3576255  48.1646758   2.0325374  22.0726355  49.0327229
   1.6455388  23.6270042  55.0112429   1.6344029  23.2322840  54.1392932
   1.8076028  22.8936114  55.6046200   2.6021980  27.9941634  40.3537579
   1.9509960  28.5795714  39.9671593   3.3966343  28.5247829  40.4132616
   3.9087168  20.2459216  46.1917906   4.6950257  19.8278639  45.8408323
   4.1725872  21.1505308  46.3599555   4.0797245  25.6832066  40.8906563
   3.4443078  25.7566692  41.6027468   3.7494651  26.2725665  40.2125643
   9.3095595  20.1834449  47.0950885  10.0420767  19.6133666  47.3288714
   8.5534950  19.7956049  47.5357391   0.9271714  22.6061690  44.2914227
   0.5629922  22.0792311  45.0027149   1.7838830  22.2160159  44.1180713
   3.3252535  26.0968569  50.9541406   3.0253258  26.9993608  50.8457214
   2.9803594  25.8300752  51.8062559   6.7249678  18.6151109  48.6338844
   5.8166556  18.5466517  48.3397605   6.6737274  19.0923054  49.4620669
   8.5911325  16.8167547  50.4116718   7.9485705  17.1100081  49.7656512
   8.0866253  16.7020468  51.2169914   6.2451489  20.5630721  41.1002577
   7.1569345  20.7958107  40.9250274   5.7361136  21.1467765  40.5377655
   4.5292256  24.9855348  54.7363869   4.9375612  24.5437759  53.9918502
   3.8069518  24.4107976  54.9898062   0.8823326  19.9227955  52.1097426
   1.7284521  20.3467369  52.2532075   0.8221964  19.2661580  52.8035989
   4.8521071  25.5456539  48.4916158   4.2229933  25.7102253  47.7892226
   4.4646733  25.9598149  49.2627122   8.7310303  26.4810977  45.8460522
   8.0461341  26.8609878  45.2957555   8.8154152  27.0906304  46.5792470
   4.0322772  17.5832324  53.7678600   3.7883703  18.3374384  53.2312876
   4.3082702  17.9617671  54.6025847   5.9861234  24.1270936  52.4455866
   6.1978130  24.7702696  51.7690247   5.9390983  23.2933253  51.9777796
   3.5887463  16.7388757  49.3492438   2.7271942  17.0370010  49.6409175
   3.6149898  16.9559156  48.4173470   7.1007062  27.0042891  50.6178223
   7.9224506  26.6023079  50.3360905   7.0969465  26.9011126  51.5694339
  15.1913055  23.3481640  46.9663194  14.4376764  22.7789038  46.8107199
  15.3260597  23.3144304  47.9133829   0.5811683  28.2195042  42.6417914
   0.4457358  29.0646578  43.0702762   1.1221496  28.4214320  41.8783848
   2.2080160  28.8418609  56.7718256   1.7644014  28.0554987  56.4539160
   2.8697373  29.0297759  56.1062147   4.3061398  29.1221409  54.7999657
   4.2879873  29.9430290  54.3079926   5.2281318  28.9975484  55.0249798
   3.8954430  21.7334215  39.6789242   3.3801053  22.5038820  39.9177630
   3.6231738  21.0599351  40.3022304   8.8688704  24.4866570  41.6142416
   8.0918147  24.1477729  41.1697578   9.5480185  24.4919193  40.9397381
   3.6840733  19.6061307  41.5049023   3.3790868  19.9207456  42.3559167
   4.6371175  19.6842727  41.5476356   2.1287165  25.7651531  43.1541977
   1.6008526  25.0304290  42.8415215   1.6274667  26.5426207  42.9081946
   7.1080011  23.9600551  48.2709024   6.4503685  24.6499812  48.3589152
   7.9120410  24.3496983  48.6143010   5.9185469  22.3144924  46.3212966
   6.4317351  22.9474916  46.8234675   6.5686693  21.7146119  45.9556326
   3.1807844  32.2929248  39.0773637   2.5069542  32.5960945  39.6858594
   3.5673666  33.0958328  38.7279094   2.3966300  19.7894379  48.5671306
   1.4788862  20.0109326  48.4092994   2.8126444  19.8640690  47.7083013
   3.1801348  21.1885795  43.6973986   3.9273167  21.7007192  43.3881108
   3.4492938  20.8669848  44.5578380   1.4527998  23.6844336  40.6800941
   0.5439218  23.4003369  40.7773410   1.4823082  24.1043414  39.8204247
   6.6847266  27.2950925  44.4492108   6.2309593  26.4541835  44.5057299
   6.0541232  27.9312324  44.7866888   5.6280185  18.2242911  45.6792776
   4.8902942  17.7120297  46.0103018   5.8806959  17.7843293  44.8676052
   5.1280205  29.1327422  45.3841926   5.4203179  29.6932479  44.6654292
   5.6378826  29.4255983  46.1395085   1.1504086  25.2253079  38.0189019
   0.7123516  24.5088938  37.5594657   1.8914527  25.4529194  37.4574111
   3.5379464  20.3791841  53.3716009   3.8928852  20.6063314  54.2310474
   4.1851595  20.7110217  52.7493264   9.2677201  23.5010276  44.0765338
   9.1295099  23.6911872  43.1486527   8.9113420  24.2629659  44.5333389
   9.2946580  25.5686803  49.0876609   9.7283087  25.4762093  49.9359663
  10.0078161  25.5444304  48.4496625   3.0274475  29.1688898  50.6209710
   3.0811498  29.7379834  51.3887426   2.1589257  29.3390783  50.2563747
  10.1562130  25.6110504  51.6209495  10.3498020  26.5156315  51.8668770
  10.0562748  25.1517923  52.4548080   5.2177239  25.7617247  57.1950375
   5.0662745  25.5327799  56.2780459   5.2081918  26.7187848  57.2081720
   1.9862575  23.3349160  52.1796642   2.9154635  23.4860319  52.0065609
   1.5653605  23.4233180  51.3245288   1.3799059  32.4608920  41.2920716
   1.5550815  31.9896964  42.1066339   0.6931847  33.0874687  41.5201977
   2.3356122  26.7381427  47.3384017   2.0005955  26.6982197  48.2341667
   1.8360068  26.0726143  46.8654427   5.2715314  24.0837461  37.6121077
   4.6544484  23.3584289  37.5154129   4.8031802  24.8446821  37.2688151
   6.9269445  28.7936369  55.2726857   6.8681992  28.1095590  54.6057440
   7.3288964  29.5355359  54.8207483   6.9286853  26.7575953  53.5040837
   6.0413631  26.4201875  53.6267236   7.4985404  26.0258985  53.7409602
   3.5574436  16.4643805  46.6239107   4.0543135  15.7113767  46.3040177
   2.7861417  16.5008122  46.0582316  11.4104193  22.1684171  48.2657398
  11.3994069  23.0508886  47.8951332  10.5421573  21.8155722  48.0711935
   2.9186690  31.3164240  52.6260239   3.6314662  31.9511705  52.5536140
   2.4276718  31.4128106  51.8100240   4.6404216  25.2215492  44.1977530
   3.7060495  25.3416955  44.0282235   4.8180885  24.3187959  43.9337540
   8.0276768  21.0632812  44.7327564   8.4937220  21.8960803  44.6587867
   8.4784268  20.5977793  45.4372823   6.0952999  27.4076633  41.7313717
   6.3712843  27.2933228  42.6407591   5.2257498  27.0094118  41.6925890
   5.7699889  21.6203291  51.2718360   5.1171339  21.8679198  50.6170813
   6.1480269  20.8067429  50.9380837   2.7307063  31.6562984  45.3746530
   2.9129457  30.8384640  45.8374282   3.5540049  31.8730676  44.9371420
   3.0649228  30.5831169  42.6361579   3.5936995  30.0723623  42.0231741
   3.3277448  30.2673699  43.5007112   1.8187462  22.3623102  57.7584397
   1.1428099  22.2617231  58.4286772   2.6415096  22.2062315  58.2220394
   0.5610245  33.6690029  51.9942013   1.1128553  33.8321651  52.7591098
   0.9016438  34.2594467  51.3222038   5.4121119  28.4951287  57.8490667
   5.9561023  29.1081245  57.3545622   4.8307964  29.0530865  58.3657680
   3.6978632  31.6172005  48.9805695   3.5729772  30.8161744  48.4716641
   4.3557723  32.1118198  48.4919665   5.7613541  29.4181025  50.6085245
   4.8143876  29.2986376  50.5363572   6.1096314  28.5303523  50.6911507
   2.7659974  29.2133741  46.8089597   2.6184936  28.2850448  46.9897167
   3.5913467  29.2353832  46.3246673   6.3694096  30.0362300  47.8954470
   7.2940643  29.8305161  47.7578921   6.2009399  29.7878701  48.8043812
   6.1589412  30.5547967  43.2516562   6.3326290  29.9894390  42.4990414
   6.6518303  31.3548862  43.0696052  12.0128803  23.3184390  44.8706861
  12.4559949  22.5691715  44.4725985  11.1355313  23.3094526  44.4880593
   7.1464584  29.8714732  40.3513460   7.8415489  30.4921424  40.5700775
   7.4887735  29.0210083  40.6265838   9.0456008  27.3214437  41.8800791
   9.5707332  27.6601710  41.1550111   8.9578360  26.3861452  41.6963925
   0.7076056  31.2348511  54.0090667   1.0163183  30.9897657  54.8813367
   1.5051538  31.4395149  53.5209538   8.7349914  27.9547341  57.1851989
   7.9445457  27.9371480  56.6456488   8.4983268  28.4935634  57.9401025
   8.8547789  24.8039807  54.4984717   8.9045794  24.6389815  55.4400240
   8.7461712  23.9367066  54.1082598   6.1451551  20.7870735  55.8144024
   7.0461414  20.6477200  55.5228022   6.2199526  20.9525190  56.7542201
  10.3565986  27.2236749  54.7426739  10.0650794  27.5866729  55.5790200
   9.7438117  26.5103757  54.5640071  11.5561668  24.7889628  47.2629309
  12.3908559  25.2279432  47.4266869  11.6920797  24.3128282  46.4437555
   8.6053174  22.3469363  53.2106797   9.0807295  22.5397010  52.4025648
   7.6818739  22.4028549  52.9650180   1.2379453  29.9776483  39.2588553
   0.6653420  30.5966670  38.8059025   1.8112247  30.5275845  39.7928475
   7.3054843  19.2235123  51.4435102   8.2572266  19.3233221  51.4647326
   7.1358293  18.4313392  51.9533187   5.3269222  16.3090707  51.6294503
   4.7319154  16.5895719  50.9340992   5.0418919  16.7984607  52.4011244
   4.4576713  30.2613633  40.3897136   5.3907386  30.1959195  40.5930011
   4.3699926  31.0969900  39.9311668   7.0864729  29.5779504  37.3501083
   7.0078361  29.2439367  38.2436841   7.9074396  30.0701272  37.3492556
   9.7842921  22.4441243  50.5577402   9.7519241  21.5057244  50.7437086
  10.3943544  22.5225280  49.8243227   1.6226251  21.3137296  36.6004606
   2.5685356  21.1843504  36.6693024   1.2440496  20.5751958  37.0774034
   9.9337409  19.2352286  50.6035685   9.4176458  18.4510743  50.4165614
  10.8177358  18.9071003  50.7682205  15.6019470  23.5057250  49.6983439
  16.3322859  23.2442538  50.2591142  14.9926416  22.7685972  49.7385507
  13.6834768  21.6465112  50.2957890  12.9567931  21.5121077  49.6874382
  13.2682054  21.9541941  51.1014608   1.5064944  25.3655042  58.0605263
   2.4267953  25.5433641  58.2545309   1.4714527  24.4211087  57.9084962
   6.7300590  14.9702734  43.8206693   6.1499259  15.6287538  43.4384746
   6.4636522  14.1480079  43.4094111   5.5125468  17.1302824  42.8763042
   4.6251323  17.4152475  42.6583236   5.9279457  16.9696588  42.0290319
   8.8640004  17.1549345  46.5917381   9.6400394  17.6445798  46.8641998
   8.1388138  17.5807400  47.0489250  11.3012562  17.8676965  47.6491322
  11.8957053  17.6272701  46.9384630  11.3739146  17.1484095  48.2764858
   4.6568681  26.8947499  36.9711062   5.3604531  27.0997502  37.5868717
   3.9331330  27.4624261  37.2360145   5.4866491  22.6457360  43.0913332
   5.4301693  23.1025912  42.2520964   6.0394834  21.8848045  42.9136175
   9.2971297  18.4347092  43.9163451   9.0408232  18.0343728  44.7471659
   8.6724165  19.1490886  43.7913590  13.6083635  21.1743165  46.4234743
  13.0483193  21.2436355  47.1966305  13.0027139  20.9984150  45.7034239
   6.5655379  27.3330028  39.0209522   7.4000982  26.9011227  38.8386996
   6.4039721  27.1612042  39.9486416   6.2201271  23.8362142  40.3865861
   6.1650075  23.6706413  39.4454305   5.5947326  24.5438175  40.5428051
   3.5347178  26.1411053  59.7119424   4.4038338  26.3151706  59.3506059
   3.0553929  26.9605470  59.5895153  15.1939654  37.8499679  49.1164698
  15.8318064  37.7306427  48.4128039  15.0760497  38.7980523  49.1752651
  12.0029360  37.8027108  49.0526223  11.6647871  37.6868172  48.1646758
  12.8719128  37.4018273  49.0327229   7.8616176  39.6562584  45.0423114
   7.2981041  39.5652521  44.2739402   7.7468571  38.8362488  45.5225607
  12.4849143  38.9561959  55.0112429  12.4737784  38.5614758  54.1392932
  12.6469782  38.2228032  55.6046200   5.4080608  41.1513776  47.8807335
   6.2001899  40.8104600  47.4653634   5.6477258  41.2608751  48.8009488
  13.4415734  43.3233552  40.3537579  12.7903714  43.9087632  39.9671593
  14.2360097  43.8539747  40.4132616   7.3671361  40.4122689  40.7524713
   8.1402237  39.8651676  40.6137589   7.7196760  41.2766938  40.9639175
   9.2056404  41.7399071  53.9591613   8.9146270  42.6444702  53.8438279
   9.8413388  41.7815599  54.6735682  10.1312611  39.1175920  50.5492972
  10.7276183  38.8931942  49.8349935  10.1887582  38.3760665  51.1518420
   9.7037639  36.5715355  38.3843163   9.9563160  36.0496876  37.6226626
   8.7662198  36.4081500  38.4869847  14.7480922  35.5751133  46.1917906
  15.5344011  35.1570556  45.8408323  15.0119626  36.4797225  46.3599555
  14.9190999  41.0123984  40.8906563  14.2836832  41.0858610  41.6027468
  14.5888406  41.6017582  40.2125643  20.1489349  35.5126366  47.0950885
  20.8814521  34.9425583  47.3288714  19.3928705  35.1247967  47.5357391
   9.4233928  38.4743461  40.5867538   9.3070186  37.7988364  41.2548623
   9.5336188  37.9875835  39.7699691  11.7665469  37.9353608  44.2914227
  11.4023676  37.4084229  45.0027149  12.6232585  37.5452077  44.1180713
  17.6714770  29.2247941  51.5545494  17.3398094  30.0943352  51.3306709
  17.0760383  28.9084225  52.2339524  11.4070956  32.9643508  39.2875576
  11.5745358  33.8323744  39.6546047  11.2168125  33.1270789  38.3636865
  14.1646289  41.4260487  50.9541406  13.8647012  42.3285525  50.8457214
  13.8197349  41.1592670  51.8062559   7.6158771  37.8774283  46.9878111
   6.6909267  37.7450497  47.1955803   7.8643184  38.6568503  47.4848053
  17.5643433  33.9443027  48.6338844  16.6560310  33.8758435  48.3397605
  17.5131029  34.4214972  49.4620669  11.3860177  35.4201165  40.2722243
  11.2659802  35.8658216  41.1107723  10.6912765  35.7686483  39.7135781
   4.9767582  37.5207557  47.8221900   5.1059963  37.7742036  48.7361312
   4.2965033  38.1135265  47.5026555   9.1467069  48.1904807  43.9212374
   9.0691099  49.1412632  44.0000855   8.5428713  47.8450679  44.5787300
  11.6384299  35.3632672  56.5773741  10.8617633  35.9226592  56.5676606
  12.2774862  35.8489455  57.0988611  19.4305079  32.1459465  50.4116718
  18.7879460  32.4391998  49.7656512  18.9260008  32.0312385  51.2169914
  17.0845243  35.8922638  41.1002577  17.9963099  36.1250025  40.9250274
  16.5754890  36.4759683  40.5377655   9.8930671  38.1718126  56.1391708
  10.6345355  38.7103170  55.8626532   9.1867656  38.7984414  56.2963260
  15.3686011  40.3147266  54.7363869  15.7769367  39.8729677  53.9918502
  14.6463272  39.7399894  54.9898062  11.7217081  35.2519873  52.1097426
  12.5678276  35.6759286  52.2532075  11.6615718  34.5953497  52.8035989
  15.6914825  40.8748457  48.4916158  15.0623688  41.0394171  47.7892226
  15.3040487  41.2890066  49.2627122  19.5704057  41.8102895  45.8460522
  18.8855095  42.1901796  45.2957555  19.6547907  42.4198221  46.5792470
  14.8716526  32.9124241  53.7678600  14.6277458  33.6666302  53.2312876
  15.1476457  33.2909589  54.6025847  16.8254989  39.4562854  52.4455866
  17.0371884  40.0994614  51.7690247  16.7784737  38.6225170  51.9777796
  14.4281218  32.0680674  49.3492438  13.5665697  32.3661928  49.6409175
  14.4543652  32.2851073  48.4173470  11.2442787  40.6122865  45.7566243
  11.7081133  40.8910568  44.9670866  10.9799585  39.7106309  45.5739334
   8.1366868  40.1594346  48.6946007   8.7068225  40.5881615  48.0563491
   8.7274980  39.8776931  49.3930192  10.1811673  36.7346017  42.5655809
  10.8835717  37.1867061  43.0329735   9.8492302  36.0929836  43.1935702
   8.6292035  35.3257774  56.9407018   7.9990695  36.0074055  57.1742415
   8.5228123  35.2140855  55.9960156   3.9237007  34.9929570  47.8672942
   3.1336061  35.2487098  47.3913053   4.4148255  35.8077908  47.9724983
  17.9400817  42.3334809  50.6178223  18.7618260  41.9314996  50.3360905
  17.9363220  42.2303043  51.5694339   5.8751753  35.3574149  44.8256419
   5.0782916  35.4692843  45.3439914   5.6477345  35.6960801  43.9597309
  11.7057420  41.8818852  52.7738933  11.7701853  42.3439260  53.6097105
  10.9968344  41.2516217  52.9021243   2.2074710  35.2460060  50.2987933
   2.4582749  36.1307070  50.5645509   2.7434259  35.0664662  49.5263025
  26.0306810  38.6773558  46.9663194  25.2770518  38.1080956  46.8107199
  26.1654351  38.6436222  47.9133829  11.4205438  43.5486960  42.6417914
  11.2851113  44.3938496  43.0702762  11.9615250  43.7506237  41.8783848
   7.9072777  29.6278540  59.3032269   7.5139723  29.0744738  59.9779913
   8.7238918  29.9389118  59.6938786   4.8734835  41.0662398  43.2145839
   5.3859356  41.8605648  43.3651404   5.5257548  40.3688688  43.1479440
   6.6829720  44.1828154  45.2968592   6.8596348  45.1046119  45.1089576
   7.4786553  43.8686573  45.7262972  10.8240738  31.0436419  56.8952526
  11.5650452  31.6443572  56.8156988  11.0558661  30.3014057  56.3370568
   5.9682076  36.2292786  55.1730755   5.8535592  35.3278043  55.4737854
   5.1126594  36.4756483  54.8215572  13.0473914  44.1710526  56.7718256
  12.6037768  43.3846905  56.4539160  13.7091128  44.3589677  56.1062147
   7.8061035  45.7006328  51.2978934   8.3568461  45.5723391  50.5255928
   6.9672511  46.0001217  50.9473827  15.1455152  44.4513326  54.7999657
  15.1273628  45.2722207  54.3079926  16.0675072  44.3267402  55.0249798
  11.6028206  41.9657456  55.6423165  12.1356543  41.2045744  55.4122473
  11.0742288  41.6731108  56.3847320  14.7697901  27.0717522  51.1716807
  14.4262171  27.9619163  51.0955918  15.1376864  26.8819179  50.3086392
   2.8383752  39.3951052  43.9905409   3.6758974  39.8048061  43.7739117
   3.0162020  38.4550494  43.9605603  14.7348184  37.0626133  39.6789242
  14.2194808  37.8330737  39.9177630  14.4625493  36.3891269  40.3022304
  12.3195295  31.9075834  44.7374481  11.4636892  31.5182684  44.5580119
  12.7322247  31.9867794  43.8774266  13.8494442  29.4422177  49.1366040
  13.3459237  29.4052312  48.3233846  14.1425049  30.3514920  49.1962697
  10.0937328  29.5260907  48.1432222  10.9590324  29.3303715  47.7838112
  10.1614837  29.2971258  49.0701579  19.7082458  39.8158487  41.6142416
  18.9311901  39.4769647  41.1697578  20.3873939  39.8211111  40.9397381
  14.5234487  34.9353225  41.5049023  14.2184623  35.2499374  42.3559167
  15.4764929  35.0134645  41.5476356  12.9680919  41.0943448  43.1541977
  12.4402281  40.3596208  42.8415215  12.4668422  41.8718125  42.9081946
  17.9473765  39.2892469  48.2709024  17.2897440  39.9791730  48.3589152
  18.7514164  39.6788901  48.6143010   7.6999647  31.7563115  45.5148589
   8.2743399  31.5338296  44.7821782   8.2870629  31.8251809  46.2677190
  16.7579224  37.6436841  46.3212966  17.2711106  38.2766833  46.8234675
  17.4080448  37.0438037  45.9556326   8.0269234  33.7867576  39.5344474
   7.1906546  34.1242262  39.8553749   7.8874004  33.6516555  38.5971611
  10.0022314  28.6304363  44.2423658   9.3486727  28.3153381  43.6180273
   9.9602789  28.0080104  44.9683481  11.1133519  38.9123659  36.1576950
  10.2060581  38.6812912  36.3568099  11.6104551  38.1161278  36.3450932
  14.0201598  47.6221166  39.0773637  13.3463297  47.9252862  39.6858594
  14.4067420  48.4250246  38.7279094  13.2360055  35.1186297  48.5671306
  12.3182616  35.3401244  48.4092994  13.6520198  35.1932607  47.7083013
  14.0195103  36.5177713  43.6973986  14.7666922  37.0299110  43.3881108
  14.2886692  36.1961765  44.5578380  12.2921753  39.0136253  40.6800941
  11.3832972  38.7295286  40.7773410  12.3216837  39.4335332  39.8204247
  17.5241020  42.6242843  44.4492108  17.0703347  41.7833753  44.5057299
  16.8934987  43.2604241  44.7866888  16.4673940  33.5534829  45.6792776
  15.7296697  33.0412215  46.0103018  16.7200713  33.1135211  44.8676052
  15.9673959  44.4619340  45.3841926  16.2596934  45.0224397  44.6654292
  16.4772580  44.7547901  46.1395085  16.5685567  26.3311081  46.2734545
  16.8744444  25.4708444  45.9860460  17.2938172  26.9228701  46.0733539
   2.8609923  36.7341768  44.6616143   2.6634323  36.1411128  43.9367209
   2.3056587  36.4293978  45.3792082  10.8406647  36.6264874  46.7810736
  10.8955257  35.6738710  46.7053213  10.0297849  36.7824313  47.2652034
  11.9897841  40.5544997  38.0189019  11.5517271  39.8380856  37.5594657
  12.7308281  40.7821112  37.4574111   8.7799007  35.2441934  44.5401115
   7.9666872  35.5436104  44.9466307   9.2758001  34.8497623  45.2575597
  10.9307585  45.2399691  46.4735380  10.8883763  45.4660537  45.5443912
  11.8470283  45.0063065  46.6221181  14.3773218  35.7083758  53.3716009
  14.7322606  35.9355231  54.2310474  15.0245350  36.0402135  52.7493264
  20.1070955  38.8302194  44.0765338  19.9688854  39.0203790  43.1486527
  19.7507174  39.5921577  44.5333389   8.2713082  32.8160289  50.1562350
   8.9112461  32.6749048  49.4585313   7.4390612  32.5294803  49.7800952
  20.1340335  40.8978721  49.0876609  20.5676842  40.8054010  49.9359663
  20.8471916  40.8736222  48.4496625   9.0473385  42.1162720  46.2697342
   9.8413984  41.6213040  46.0679917   8.3365078  41.5880583  45.9065048
  13.8668230  44.4980815  50.6209710  13.9205252  45.0671752  51.3887426
  12.9983011  44.6682700  50.2563747   5.3556149  36.2605801  42.3457095
   4.4253737  36.1990257  42.5627057   5.4513621  35.7381754  41.5493736
   5.2741698  32.7860614  44.9335337   5.5348515  33.7005947  44.8244497
   6.0958870  32.3185057  45.0831949   6.7466623  34.1998371  52.1034161
   7.4189677  33.9915734  51.4546810   5.9196410  34.0020457  51.6639393
  20.9955885  40.9402422  51.6209495  21.1891775  41.8448232  51.8668770
  20.8956503  40.4809841  52.4548080  12.6492195  30.8260312  54.1199822
  12.0020110  31.5250262  54.0264298  13.4193211  31.2596456  54.4876070
  16.0570993  41.0909165  57.1950375  15.9056500  40.8619716  56.2780459
  16.0475673  42.0479766  57.2081720  12.8256330  38.6641077  52.1796642
  13.7548390  38.8152237  52.0065609  12.4047360  38.7525098  51.3245288
  11.6244661  42.6891742  49.9495179  11.4855747  42.3210526  50.8221117
  10.8359258  43.2039381  49.7779137  12.2192813  47.7900838  41.2920716
  12.3944569  47.3188881  42.1066339  11.5325601  48.4166604  41.5201977
  13.1749877  42.0673344  47.3384017  12.8399709  42.0274114  48.2341667
  12.6753822  41.4018060  46.8654427   7.1494121  37.4740974  52.8636598
   7.0113918  36.7421213  53.4648137   8.0599044  37.3849874  52.5820786
  16.1109068  39.4129379  37.6121077  15.4938239  38.6876207  37.5154129
  15.6425557  40.1738739  37.2688151   9.7776421  37.1860934  52.3520278
  10.4876040  36.5454126  52.3106896   9.7345729  37.4373829  53.2746459
  17.7663200  44.1228287  55.2726857  17.7075746  43.4387507  54.6057440
  18.1682718  44.8647277  54.8207483   8.4905355  34.1726152  54.1715917
   7.9542712  33.7216890  54.8237514   7.9022064  34.3072060  53.4286382
   6.7853899  50.9390201  48.0660576   7.0250497  51.5708725  48.7439595
   5.9423095  50.5878241  48.3525935   7.9007614  33.6314803  36.7342381
   7.0237080  33.5103604  36.3704628   8.3765367  32.8400881  36.4821270
  17.7680607  42.0867871  53.5040837  16.8807386  41.7493793  53.6267236
  18.3379158  41.3550902  53.7409602   4.2244476  33.3082159  51.2568912
   4.1402665  32.7007829  50.5219322   3.4027183  33.7991178  51.2578408
  11.2981761  46.7469323  50.4702080  11.2251932  47.5524295  50.9821385
  10.8559154  46.9461289  49.6450101  11.0871540  45.9841093  43.9804902
  10.3039062  46.5262774  44.0743126  11.7864285  46.5015073  44.3799143
  14.3968190  31.7935723  46.6239107  14.8936890  31.0405685  46.3040177
  13.6255172  31.8300039  46.0582316  22.2497948  37.4976088  48.2657398
  22.2387824  38.3800804  47.8951332  21.3815327  37.1447639  48.0711935
  13.7580444  46.6456157  52.6260239  14.4708416  47.2803622  52.5536140
  13.2670473  46.7420023  51.8100240  15.4797971  40.5507410  44.1977530
  14.5454250  40.6708873  44.0282235  15.6574639  39.6479877  43.9337540
  10.9803159  33.9353106  46.3510792  10.6100947  33.3824146  47.0391697
  11.4762251  33.3311239  45.7985792  18.8670522  36.3924729  44.7327564
  19.3330975  37.2252721  44.6587867  19.3178023  35.9269711  45.4372823
   8.8092358  44.3950601  53.4465809   9.5101817  45.0287084  53.5995204
   8.3387473  44.7365332  52.6861449  16.9346753  42.7368551  41.7313717
  17.2106597  42.6225145  42.6407591  16.0651252  42.3386035  41.6925890
  16.8387185  28.7605316  48.7718466  15.9250265  28.9909543  48.9400673
  17.2680287  28.8443760  49.6232498  16.6093644  36.9495208  51.2718360
  15.9565094  37.1971116  50.6170813  16.9874023  36.1359346  50.9380837
  13.5700817  46.9854901  45.3746530  13.7523212  46.1676557  45.8374282
  14.3933803  47.2022594  44.9371420  13.9042983  45.9123087  42.6361579
  14.4330749  45.4015541  42.0231741  14.1671203  45.5965617  43.5007112
  12.6581217  37.6915019  57.7584397  11.9821854  37.5909149  58.4286772
  13.4808850  37.5354233  58.2220394   4.4060076  43.9286956  50.3796912
   4.9913512  43.1830644  50.5124816   4.2084914  44.2390913  51.2633576
   7.2598731  46.9638203  45.3959355   6.5909106  47.4484331  44.9123395
   7.1211601  47.2107424  46.3102733  11.4003999  48.9981947  51.9942013
  11.9522307  49.1613568  52.7591098  11.7410193  49.5886385  51.3222038
   6.3768493  31.3457097  52.5963898   6.4409819  32.2071927  52.1841295
   6.3135613  30.7331098  51.8636256   5.8520765  33.4180229  56.2436932
   6.4792804  33.0357306  56.8574456   4.9948684  33.1994431  56.6092624
  16.2514874  43.8243204  57.8490667  16.7954778  44.4373163  57.3545622
  15.6701719  44.3822783  58.3657680   2.6286308  35.2256658  42.1755287
   2.9239749  34.3167337  42.1222340   1.7274344  35.2044398  41.8536289
  14.5372387  46.9463922  48.9805695  14.4123526  46.1453662  48.4716641
  15.1951478  47.4410116  48.4919665   6.1580555  33.3012655  48.1582835
   5.4367141  33.9148623  48.0190309   6.9473811  33.8370420  48.0799481
  16.6007295  44.7472942  50.6085245  15.6537631  44.6278294  50.5363572
  16.9490068  43.8595440  50.6911507   8.9606868  30.6367081  54.4323487
   9.4841270  30.8829378  55.1949796   8.7419202  31.4687116  54.0126624
   4.3574150  32.9070756  42.2994612   4.0286856  32.0268135  42.1169718
   4.7113520  32.8518425  43.1871001  13.6053728  44.5425659  46.8089597
  13.4578691  43.6142366  46.9897167  14.4307222  44.5645749  46.3246673
   7.4715973  33.1943726  42.6670090   7.8112045  33.7229647  41.9448698
   7.9188093  33.5324132  43.4428656  17.2087850  45.3654217  47.8954470
  18.1334398  45.1597079  47.7578921  17.0403154  45.1170619  48.8043812
  10.1659414  31.5780776  52.1173158   9.8256234  30.7788589  52.5193837
   9.4598420  31.8782487  51.5449991  10.8175885  28.6630089  50.5700481
  11.6401955  28.1890567  50.4479371  11.0613949  29.4420573  51.0699167
   9.4584120  31.6918347  40.8663382  10.1792482  32.0699600  40.3627099
   8.8349424  32.4107224  40.9698360  13.6015243  32.3963496  41.8021715
  13.8178857  33.2788134  41.5010543  13.1209310  32.0049710  41.0727357
   8.3414464  35.3549209  48.3792459   8.1959045  35.6689513  49.2716741
   7.8639668  35.9734110  47.8263358  10.2010847  32.3451757  48.4273349
  10.1872416  31.4492851  48.0905647  10.9183275  32.3522421  49.0611635
  12.0536978  32.7789098  50.4726476  11.7954756  33.7006168  50.4710807
  11.5222018  32.3819532  51.1626940  16.9983166  45.8839885  43.2516562
  17.1720044  45.3186307  42.4990414  17.4912058  46.6840780  43.0696052
   2.8160126  37.8954554  51.3180120   2.2713594  38.6714362  51.4500395
   3.6939476  38.2425358  51.1599242   9.6047743  31.2266138  43.6960919
   9.7263654  30.2982784  43.8951806   9.3149785  31.2404824  42.7839234
  12.4738933  28.9121048  46.8327639  12.4960630  28.9760381  45.8779618
  12.8906992  28.0725557  47.0268145  22.8522558  38.6476308  44.8706861
  23.2953704  37.8983633  44.4725985  21.9749068  38.6386444  44.4880593
  17.9858339  45.2006649  40.3513460  18.6809244  45.8213342  40.5700775
  18.3281489  44.3502000  40.6265838   3.6026148  37.0224450  54.2110277
   2.8607884  37.1707086  54.7974908   3.2818892  37.2832716  53.3477027
  19.8849762  42.6506355  41.8800791  20.4101086  42.9893627  41.1550111
  19.7972115  41.7153370  41.6963925  11.5469811  46.5640428  54.0090667
  11.8556937  46.3189575  54.8813367  12.3445293  46.7687067  53.5209538
  11.5690423  48.7178338  46.2396044  11.1295413  48.2254717  46.9328901
  12.3198540  48.1751306  45.9988119   4.0482762  44.9089879  46.2420672
   4.8740782  44.6093651  45.8619315   3.6976814  44.1397501  46.6910461
   9.0164295  44.2616347  48.3118346   8.3944304  43.5987052  48.0120573
   9.6869162  44.2877479  47.6291993   2.2491367  42.8276205  47.2009606
   1.4123275  42.3998380  47.0193607   2.2215012  43.0208649  48.1380397
   9.0888822  32.7398135  57.9050852   9.1376978  33.6160258  57.5228621
   9.6311337  32.1975528  57.3322495  19.5743668  43.2839258  57.1851989
  18.7839212  43.2663397  56.6456488  19.3377023  43.8227552  57.9401025
  19.6941543  40.1331725  54.4984717  19.7439548  39.9681732  55.4400240
  19.5855467  39.2658984  54.1082598   8.5777802  42.8120270  41.7876806
   8.7265922  43.4955735  41.1343479   9.3844245  42.7925360  42.3026262
  16.9845306  36.1162653  55.8144024  17.8855168  35.9769118  55.5228022
  17.0593280  36.2817108  56.7542201  11.3188111  33.4929508  54.6597210
  10.4491420  33.7863074  54.3879799  11.5547591  34.0769953  55.3804474
  21.1959740  42.5528666  54.7426739  20.9044548  42.9158647  55.5790200
  20.5831871  41.8395675  54.5640071  22.3955422  40.1181546  47.2629309
  23.2302314  40.5571350  47.4266869  22.5314551  39.6420199  46.4437555
  19.4446928  37.6761281  53.2106797  19.9201050  37.8688927  52.4025648
  18.5212494  37.7320467  52.9650180   6.3330435  38.8385448  42.7937875
   6.0876477  37.9347778  42.9918085   6.5026349  38.8402599  41.8517353
  14.0227145  29.7109124  52.1762631  14.5409089  30.4470151  51.8509119
  13.6682278  30.0173118  53.0109390   5.6026082  34.5713806  40.2924036
   4.9095327  34.6458161  39.6364072   5.3577834  33.8074149  40.8145553
  14.2739739  26.1309407  47.6963527  14.5541493  25.4632596  48.3223954
  15.0590346  26.3238503  47.1838191  12.0773207  45.3068401  39.2588553
  11.5047174  45.9258588  38.8059025  12.6506001  45.8567763  39.7928475
  18.1448597  34.5527041  51.4435102  19.0966020  34.6525139  51.4647326
  17.9752048  33.7605310  51.9533187  16.1662977  31.6382624  51.6294503
  15.5712909  31.9187637  50.9340992  15.8812673  32.1276525  52.4011244
  15.2970467  45.5905551  40.3897136  16.2301140  45.5251113  40.5930011
  15.2093680  46.4261818  39.9311668  17.9258484  44.9071421  37.3501083
  17.8472115  44.5731285  38.2436841  18.7468151  45.3993189  37.3492556
  20.6236675  37.7733161  50.5577402  20.5912995  36.8349161  50.7437086
  21.2337299  37.8517197  49.8243227  12.4620006  36.6429214  36.6004606
  13.4079111  36.5135422  36.6693024  12.0834251  35.9043876  37.0774034
  20.7731164  34.5644204  50.6035685  20.2570212  33.7802661  50.4165614
  21.6571112  34.2362921  50.7682205  18.4341890  28.3085220  46.5631498
  18.2366712  28.0000308  47.4474830  19.0441596  29.0346859  46.6929428
  26.4413225  38.8349168  49.6983439  27.1716613  38.5734456  50.2591142
  25.8320170  38.0977889  49.7385507  24.5228522  36.9757030  50.2957890
  23.7961686  36.8412995  49.6874382  24.1075809  37.2833859  51.1014608
  12.3458698  40.6946960  58.0605263  13.2661708  40.8725559  58.2545309
  12.3108281  39.7503005  57.9084962  10.6462923  34.5679190  36.5359491
   9.7394378  34.2712303  36.6122205  10.9238904  34.2709008  35.6693777
   1.5640863  35.8885553  46.9858538   1.2443648  35.0350862  46.6932912
   1.0174292  36.1034132  47.7416505   5.3420771  38.6047994  50.7028044
   5.5606781  39.5365102  50.7216078   5.7546545  38.2455969  51.4882848
  12.2624989  29.1116080  42.6903732  11.4525717  28.7663165  43.0658979
  12.9509406  28.8023623  43.2791344  14.1915537  28.1894127  44.3128029
  14.7446576  28.6089580  44.9718052  14.4285623  27.2629875  44.3550985
  10.2148636  34.1781200  60.0930793  10.1145363  35.1275557  60.0242884
   9.9970178  33.8499439  59.2206863   9.4161708  31.4266125  36.6771470
  10.2780872  31.7521024  36.9367288   9.6012052  30.6397621  36.1644536
   1.4329123  39.5088465  48.9551659   0.7392595  39.0942418  48.4421614
   2.1802114  39.5509001  48.3585078  17.5694344  30.2994652  43.8206693
  16.9893013  30.9579456  43.4384746  17.3030277  29.4771996  43.4094111
  16.0197911  29.6999709  46.0228014  16.5197689  29.8116244  45.2142333
  16.6633518  29.3960762  46.6628822  10.0779906  37.6078339  58.9095855
   9.5946988  38.4078699  59.1159744  10.1640845  37.6186284  57.9563299
   3.3465866  39.4406719  46.8317674   3.3236554  39.5394406  45.8799557
   3.6566502  40.2871870  47.1534840   6.0053244  41.4982874  50.9464288
   6.9596497  41.4666816  50.8794220   5.8065767  41.0373497  51.7614514
   6.5952626  40.0683990  53.5135086   7.4145515  40.5628068  53.5369923
   6.8689434  39.1515958  53.4852654  16.3519222  32.4594742  42.8763042
  15.4645077  32.7444393  42.6583236  16.7673211  32.2988505  42.0290319
  19.7033758  32.4841263  46.5917381  20.4794148  32.9737716  46.8641998
  18.9781892  32.9099317  47.0489250  22.1406317  33.1968882  47.6491322
  22.7350808  32.9564618  46.9384630  22.2132901  32.4776013  48.2764858
   4.3603473  47.0402493  47.9634486   4.2257941  46.2802894  47.3972484
   3.9435535  47.7643393  47.4963275  15.4962436  42.2239417  36.9711062
  16.1998286  42.4289419  37.5868717  14.7725084  42.7916179  37.2360145
  16.3260246  37.9749278  43.0913332  16.2695447  38.4317829  42.2520964
  16.8788588  37.2139963  42.9136175  20.1365052  33.7639010  43.9163451
  19.8801986  33.3635646  44.7471659  19.5117920  34.4782804  43.7913590
  24.4477390  36.5035083  46.4234743  23.8876948  36.5728272  47.1966305
  23.8420893  36.3276068  45.7034239   7.5172598  47.9371810  48.1752929
   7.4004983  48.8817243  48.0731619   6.6965045  47.6345372  48.5638728
  17.4049133  42.6621946  39.0209522  18.2394737  42.2303144  38.8386996
  17.2433476  42.4903960  39.9486416  17.0595025  39.1654059  40.3865861
  17.0043829  38.9998331  39.4454305  16.4341080  39.8730092  40.5428051
   1.8487540  34.4022124  54.2127283   2.4946404  33.8921078  54.7014508
   1.6404691  35.1390805  54.7870708  14.3740932  41.4702971  59.7119424
  15.2432092  41.6443623  59.3506059  13.8947684  42.2897388  59.5895153
  10.3691151  28.6662168  39.9651179  10.3569821  29.6104008  40.1219450
  11.2614573  28.4832314  39.6710641   8.5427113  48.5900072  51.3908857
   9.4454359  48.6223682  51.7075352   8.3164483  47.6600523  51.4055193
  10.2980715  47.3431059  48.0518936   9.3476346  47.3432920  47.9383308
  10.6013201  46.5963793  47.5354971  14.1843270  25.2604945  44.2197116
  13.4175666  24.7063432  44.3653799  14.5953975  25.3326814  45.0811268
   6.1885031  31.5489741  58.3102297   7.0516493  31.1926546  58.5205622
   5.6150442  31.2103636  58.9977702  26.0333408  53.1791597  49.1164698
  26.6711818  53.0598344  48.4128039  25.9154251  54.1272441  49.1752651
  22.8423114  53.1319025  49.0526223  22.5041626  53.0160090  48.1646758
  23.7112883  52.7310190  49.0327229  18.7009930  54.9854502  45.0423114
  18.1374795  54.8944439  44.2739402  18.5862325  54.1654406  45.5225607
  23.3242897  54.2853877  55.0112429  23.3131538  53.8906675  54.1392932
  23.4863537  53.5519950  55.6046200  16.2474362  56.4805693  47.8807335
  17.0395654  56.1396518  47.4653634  16.4871012  56.5900668  48.8009488
  24.2809489  58.6525469  40.3537579  23.6297469  59.2379550  39.9671593
  25.0753852  59.1831664  40.4132616  18.2065116  55.7414606  40.7524713
  18.9795992  55.1943594  40.6137589  18.5590515  56.6058856  40.9639175
  20.0450159  57.0690989  53.9591613  19.7540025  57.9736620  53.8438279
  20.6807143  57.1107516  54.6735682  20.9706365  54.4467837  50.5492972
  21.5669938  54.2223860  49.8349935  21.0281337  53.7052583  51.1518420
  20.5431394  51.9007273  38.3843163  20.7956914  51.3788794  37.6226626
  19.6055953  51.7373418  38.4869847  25.5874677  50.9043051  46.1917906
  26.3737766  50.4862474  45.8408323  25.8513381  51.8089143  46.3599555
  25.7584754  56.3415901  40.8906563  25.1230587  56.4150528  41.6027468
  25.4282160  56.9309500  40.2125643  30.9883104  50.8418284  47.0950885
  31.7208276  50.2717501  47.3288714  30.2322459  50.4539885  47.5357391
  20.2627683  53.8035379  40.5867538  20.1463941  53.1280282  41.2548623
  20.3729942  53.3167752  39.7699691  22.6059223  53.2645526  44.2914227
  22.2417431  52.7376147  45.0027149  23.4626339  52.8743995  44.1180713
  28.5108524  44.5539858  51.5545494  28.1791849  45.4235269  51.3306709
  27.9154137  44.2376142  52.2339524  22.2464710  48.2935425  39.2875576
  22.4139113  49.1615662  39.6546047  22.0561880  48.4562707  38.3636865
  25.0040044  56.7552404  50.9541406  24.7040767  57.6577443  50.8457214
  24.6591103  56.4884587  51.8062559  18.4552525  53.2066201  46.9878111
  17.5303022  53.0742415  47.1955803  18.7036938  53.9860420  47.4848053
  28.4037187  49.2734944  48.6338844  27.4954065  49.2050353  48.3397605
  28.3524783  49.7506889  49.4620669  22.2253931  50.7493083  40.2722243
  22.1053557  51.1950134  41.1107723  21.5306520  51.0978400  39.7135781
  15.8161336  52.8499475  47.8221900  15.9453717  53.1033954  48.7361312
  15.1358787  53.4427183  47.5026555  19.9860823  63.5196725  43.9212374
  19.9084853  64.4704550  44.0000855  19.3822467  63.1742597  44.5787300
  22.4778053  50.6924590  56.5773741  21.7011387  51.2518510  56.5676606
  23.1168616  51.1781373  57.0988611  30.2698834  47.4751383  50.4116718
  29.6273214  47.7683916  49.7656512  29.7653762  47.3604303  51.2169914
  27.9238997  51.2214556  41.1002577  28.8356854  51.4541943  40.9250274
  27.4148645  51.8051600  40.5377655  20.7324426  53.5010043  56.1391708
  21.4739110  54.0395087  55.8626532  20.0261411  54.1276332  56.2963260
  26.2079765  55.6439184  54.7363869  26.6163121  55.2021594  53.9918502
  25.4857027  55.0691811  54.9898062  22.5610835  50.5811791  52.1097426
  23.4072030  51.0051204  52.2532075  22.5009473  49.9245415  52.8035989
  26.5308580  56.2040374  48.4916158  25.9017442  56.3686089  47.7892226
  26.1434242  56.6181984  49.2627122  25.7110281  48.2416159  53.7678600
  25.4671212  48.9958219  53.2312876  25.9870211  48.6201507  54.6025847
  27.6648743  54.7854771  52.4455866  27.8765639  55.4286531  51.7690247
  27.6178492  53.9517088  51.9777796  25.2674972  47.3972592  49.3492438
  24.4059451  47.6953846  49.6409175  25.2937407  47.6142991  48.4173470
  22.0836542  55.9414783  45.7566243  22.5474887  56.2202486  44.9670866
  21.8193340  55.0398227  45.5739334  18.9760623  55.4886264  48.6946007
  19.5461980  55.9173532  48.0563491  19.5668735  55.2068849  49.3930192
  21.0205428  52.0637935  42.5655809  21.7229471  52.5158979  43.0329735
  20.6886056  51.4221754  43.1935702  19.4685789  50.6549692  56.9407018
  18.8384450  51.3365972  57.1742415  19.3621877  50.5432773  55.9960156
  14.7630762  50.3221488  47.8672942  13.9729816  50.5779016  47.3913053
  15.2542009  51.1369825  47.9724983  28.7794571  57.6626727  50.6178223
  29.6012015  57.2606914  50.3360905  28.7756974  57.5594961  51.5694339
  16.7145507  50.6866067  44.8256419  15.9176670  50.7984761  45.3439914
  16.4871099  51.0252719  43.9597309  22.5451175  57.2110770  52.7738933
  22.6095607  57.6731177  53.6097105  21.8362099  56.5808135  52.9021243
  13.0468465  50.5751978  50.2987933  13.2976503  51.4598988  50.5645509
  13.5828013  50.3956580  49.5263025  22.2599192  58.8778878  42.6417914
  22.1244867  59.7230413  43.0702762  22.8009005  59.0798155  41.8783848
  18.7466532  44.9570457  59.3032269  18.3533478  44.4036656  59.9779913
  19.5632672  45.2681036  59.6938786  15.7128590  56.3954316  43.2145839
  16.2253110  57.1897566  43.3651404  16.3651303  55.6980606  43.1479440
  17.5223474  59.5120072  45.2968592  17.6990103  60.4338037  45.1089576
  18.3180308  59.1978491  45.7262972  21.6634493  46.3728336  56.8952526
  22.4044206  46.9735490  56.8156988  21.8952416  45.6305974  56.3370568
  16.8075831  51.5584704  55.1730755  16.6929346  50.6569961  55.4737854
  15.9520349  51.8048400  54.8215572  23.8867669  59.5002444  56.7718256
  23.4431523  58.7138823  56.4539160  24.5484882  59.6881595  56.1062147
  18.6454790  61.0298246  51.2978934  19.1962215  60.9015309  50.5255928
  17.8066266  61.3293135  50.9473827  25.9848907  59.7805244  54.7999657
  25.9667382  60.6014125  54.3079926  26.9068827  59.6559319  55.0249798
  22.4421961  57.2949373  55.6423165  22.9750298  56.5337662  55.4122473
  21.9136042  57.0023025  56.3847320  25.6091656  42.4009439  51.1716807
  25.2655925  43.2911081  51.0955918  25.9770619  42.2111097  50.3086392
  13.6777507  54.7242970  43.9905409  14.5152729  55.1339978  43.7739117
  13.8555774  53.7842412  43.9605603  25.5741939  52.3918051  39.6789242
  25.0588562  53.1622655  39.9177630  25.3019247  51.7183187  40.3022304
  23.1589050  47.2367751  44.7374481  22.3030646  46.8474602  44.5580119
  23.5716001  47.3159712  43.8774266  24.6888196  44.7714095  49.1366040
  24.1852992  44.7344230  48.3233846  24.9818803  45.6806837  49.1962697
  20.9331082  44.8552824  48.1432222  21.7984079  44.6595633  47.7838112
  21.0008591  44.6263176  49.0701579  30.5476213  55.1450405  41.6142416
  29.7705656  54.8061565  41.1697578  31.2267694  55.1503028  40.9397381
  25.3628242  50.2645143  41.5049023  25.0578377  50.5791292  42.3559167
  26.3158684  50.3426563  41.5476356  23.8074674  56.4235366  43.1541977
  23.2796035  55.6888126  42.8415215  23.3062176  57.2010042  42.9081946
  28.7867520  54.6184386  48.2709024  28.1291194  55.3083648  48.3589152
  29.5907919  55.0080818  48.6143010  18.5393401  47.0855032  45.5148589
  19.1137153  46.8630214  44.7821782  19.1264384  47.1543727  46.2677190
  27.5972978  52.9728759  46.3212966  28.1104860  53.6058751  46.8234675
  28.2474202  52.3729955  45.9556326  18.8662988  49.1159493  39.5344474
  18.0300301  49.4534180  39.8553749  18.7267758  48.9808473  38.5971611
  20.8416069  43.9596281  44.2423658  20.1880481  43.6445298  43.6180273
  20.7996543  43.3372022  44.9683481  21.9527274  54.2415576  36.1576950
  21.0454336  54.0104830  36.3568099  22.4498306  53.4453195  36.3450932
  24.8595353  62.9513083  39.0773637  24.1857051  63.2544780  39.6858594
  25.2461175  63.7542164  38.7279094  24.0753809  50.4478215  48.5671306
  23.1576371  50.6693162  48.4092994  24.4913953  50.5224525  47.7083013
  24.8588857  51.8469630  43.6973986  25.6060676  52.3591028  43.3881108
  25.1280447  51.5253683  44.5578380  23.1315507  54.3428171  40.6800941
  22.2226727  54.0587204  40.7773410  23.1610591  54.7627250  39.8204247
  28.3634775  57.9534761  44.4492108  27.9097102  57.1125670  44.5057299
  27.7328741  58.5896159  44.7866888  27.3067694  48.8826747  45.6792776
  26.5690451  48.3704133  46.0103018  27.5594468  48.4427128  44.8676052
  26.8067714  59.7911257  45.3841926  27.0990688  60.3516314  44.6654292
  27.3166335  60.0839818  46.1395085  27.4079322  41.6602999  46.2734545
  27.7138198  40.8000362  45.9860460  28.1331926  42.2520619  46.0733539
  13.7003678  52.0633685  44.6616143  13.5028077  51.4703046  43.9367209
  13.1450342  51.7585895  45.3792082  21.6800401  51.9556792  46.7810736
  21.7349011  51.0030628  46.7053213  20.8691603  52.1116231  47.2652034
  22.8291595  55.8836915  38.0189019  22.3911025  55.1672774  37.5594657
  23.5702036  56.1113030  37.4574111  19.6192761  50.5733851  44.5401115
  18.8060627  50.8728022  44.9466307  20.1151755  50.1789540  45.2575597
  21.7701339  60.5691608  46.4735380  21.7277518  60.7952455  45.5443912
  22.6864038  60.3354983  46.6221181  25.2166973  51.0375676  53.3716009
  25.5716361  51.2647149  54.2310474  25.8639104  51.3694053  52.7493264
  30.9464710  54.1594112  44.0765338  30.8082608  54.3495708  43.1486527
  30.5900929  54.9213495  44.5333389  19.1106836  48.1452207  50.1562350
  19.7506215  48.0040966  49.4585313  18.2784367  47.8586720  49.7800952
  30.9734089  56.2270639  49.0876609  31.4070596  56.1345928  49.9359663
  31.6865670  56.2028139  48.4496625  19.8867140  57.4454637  46.2697342
  20.6807738  56.9504957  46.0679917  19.1758832  56.9172500  45.9065048
  24.7061984  59.8272733  50.6209710  24.7599007  60.3963669  51.3887426
  23.8376766  59.9974618  50.2563747  16.1949903  51.5897719  42.3457095
  15.2647491  51.5282175  42.5627057  16.2907375  51.0673672  41.5493736
  16.1135452  48.1152532  44.9335337  16.3742270  49.0297865  44.8244497
  16.9352625  47.6476974  45.0831949  17.5860378  49.5290289  52.1034161
  18.2583431  49.3207651  51.4546810  16.7590164  49.3312375  51.6639393
  23.4885950  46.1552230  54.1199822  22.8413865  46.8542180  54.0264298
  24.2586965  46.5888374  54.4876070  26.8964748  56.4201082  57.1950375
  26.7450254  56.1911634  56.2780459  26.8869427  57.3771684  57.2081720
  23.6650084  53.9932995  52.1796642  24.5942144  54.1444155  52.0065609
  23.2441114  54.0817016  51.3245288  22.4638416  58.0183659  49.9495179
  22.3249502  57.6502444  50.8221117  21.6753012  58.5331299  49.7779137
  23.0586568  63.1192756  41.2920716  23.2338324  62.6480799  42.1066339
  22.3719356  63.7458522  41.5201977  24.0143631  57.3965262  47.3384017
  23.6793464  57.3566032  48.2341667  23.5147577  56.7309978  46.8654427
  17.9887875  52.8032892  52.8636598  17.8507673  52.0713131  53.4648137
  18.8992798  52.7141792  52.5820786  26.9502823  54.7421296  37.6121077
  26.3331993  54.0168125  37.5154129  26.4819311  55.5030657  37.2688151
  20.6170176  52.5152851  52.3520278  21.3269794  51.8746044  52.3106896
  20.5739484  52.7665746  53.2746459  28.6056954  59.4520205  55.2726857
  28.5469501  58.7679425  54.6057440  29.0076473  60.1939195  54.8207483
  19.3299110  49.5018069  54.1715917  18.7936467  49.0508808  54.8237514
  18.7415818  49.6363978  53.4286382  17.6247653  66.2682119  48.0660576
  17.8644251  66.9000643  48.7439595  16.7816850  65.9170159  48.3525935
  18.7401369  48.9606721  36.7342381  17.8630835  48.8395521  36.3704628
  19.2159122  48.1692799  36.4821270  28.6074362  57.4159789  53.5040837
  27.7201140  57.0785710  53.6267236  29.1772913  56.6842820  53.7409602
  10.2603509  53.7483880  46.8283888  10.9474549  53.4345610  46.2404903
  10.1051637  54.6525245  46.5551140  15.0638231  48.6374077  51.2568912
  14.9796420  48.0299747  50.5219322  14.2420937  49.1283095  51.2578408
  22.1375515  62.0761241  50.4702080  22.0645686  62.8816213  50.9821385
  21.6952908  62.2753207  49.6450101  21.9265295  61.3133011  43.9804902
  21.1432817  61.8554691  44.0743126  22.6258040  61.8306991  44.3799143
  25.2361945  47.1227641  46.6239107  25.7330644  46.3697603  46.3040177
  24.4648926  47.1591957  46.0582316  33.0891702  52.8268006  48.2657398
  33.0781578  53.7092721  47.8951332  32.2209082  52.4739557  48.0711935
  24.5974199  61.9748075  52.6260239  25.3102171  62.6095540  52.5536140
  24.1064227  62.0711941  51.8100240  26.3191725  55.8799328  44.1977530
  25.3848004  56.0000790  44.0282235  26.4968394  54.9771794  43.9337540
  21.8196914  49.2645023  46.3510792  21.4494701  48.7116064  47.0391697
  22.3156006  48.6603157  45.7985792  29.7064277  51.7216647  44.7327564
  30.1724729  52.5544639  44.6587867  30.1571777  51.2561629  45.4372823
  19.6486112  59.7242519  53.4465809  20.3495572  60.3579001  53.5995204
  19.1781227  60.0657250  52.6861449  27.7740508  58.0660468  41.7313717
  28.0500352  57.9517063  42.6407591  26.9045007  57.6677953  41.6925890
  27.6780940  44.0897234  48.7718466  26.7644019  44.3201461  48.9400673
  28.1074041  44.1735678  49.6232498  27.4487398  52.2787126  51.2718360
  26.7958848  52.5263033  50.6170813  27.8267778  51.4651264  50.9380837
  24.4094572  62.3146819  45.3746530  24.5916966  61.4968475  45.8374282
  25.2327558  62.5314511  44.9371420  24.7436737  61.2415004  42.6361579
  25.2724504  60.7307459  42.0231741  25.0064957  60.9257534  43.5007112
  23.4974971  53.0206937  57.7584397  22.8215608  52.9201066  58.4286772
  24.3202605  52.8646151  58.2220394  15.2453830  59.2578874  50.3796912
  15.8307267  58.5122561  50.5124816  15.0478669  59.5682830  51.2633576
  18.0992485  62.2930121  45.3959355  17.4302861  62.7776249  44.9123395
  17.9605355  62.5399341  46.3102733   9.8371485  51.8284474  49.1001355
   9.8755584  51.2948064  49.8938473   9.3311778  51.3019679  48.4812332
  22.2397754  64.3273864  51.9942013  22.7916062  64.4905486  52.7591098
  22.5803947  64.9178302  51.3222038  17.2162247  46.6749014  52.5963898
  17.2803574  47.5363845  52.1841295  17.1529367  46.0623016  51.8636256
  16.6914520  48.7472147  56.2436932  17.3186559  48.3649224  56.8574456
  15.8342439  48.5286349  56.6092624  27.0908628  59.1535122  57.8490667
  27.6348532  59.7665080  57.3545622  26.5095473  59.7114700  58.3657680
  13.4680062  50.5548576  42.1755287  13.7633504  49.6459254  42.1222340
  12.5668098  50.5336315  41.8536289  25.3766141  62.2755840  48.9805695
  25.2517281  61.4745580  48.4716641  26.0345232  62.7702033  48.4919665
  16.9974309  48.6304572  48.1582835  16.2760895  49.2440540  48.0190309
  17.7867565  49.1662337  48.0799481  27.4401050  60.0764860  50.6085245
  26.4931385  59.9570211  50.5363572  27.7883823  59.1887358  50.6911507
  19.8000623  45.9658999  54.4323487  20.3235025  46.2121296  55.1949796
  19.5812956  46.7979034  54.0126624  15.1967904  48.2362674  42.2994612
  14.8680610  47.3560052  42.1169718  15.5507275  48.1810342  43.1871001
  24.4447483  59.8717576  46.8089597  24.2972445  58.9434284  46.9897167
  25.2700976  59.8937667  46.3246673  18.3109727  48.5235643  42.6670090
  18.6505800  49.0521565  41.9448698  18.7581848  48.8616049  43.4428656
  28.0481605  60.6946135  47.8954470  28.9728152  60.4888996  47.7578921
  27.8796908  60.4462536  48.8043812  21.0053168  46.9072694  52.1173158
  20.6649988  46.1080507  52.5193837  20.2992174  47.2074405  51.5449991
  21.6569640  43.9922007  50.5700481  22.4795709  43.5182485  50.4479371
  21.9007703  44.7712490  51.0699167  20.2977874  47.0210265  40.8663382
  21.0186237  47.3991518  40.3627099  19.6743178  47.7399142  40.9698360
  24.4408997  47.7255414  41.8021715  24.6572612  48.6080052  41.5010543
  23.9603064  47.3341627  41.0727357  19.1808219  50.6841127  48.3792459
  19.0352799  50.9981430  49.2716741  18.7033422  51.3026027  47.8263358
  21.0404601  47.6743675  48.4273349  21.0266170  46.7784768  48.0905647
  21.7577030  47.6814339  49.0611635  22.8930732  48.1081015  50.4726476
  22.6348510  49.0298086  50.4710807  22.3615773  47.7111450  51.1626940
  27.8376921  61.2131802  43.2516562  28.0113798  60.6478225  42.4990414
  28.3305812  62.0132697  43.0696052  13.6553881  53.2246472  51.3180120
  13.1107349  54.0006280  51.4500395  14.5333231  53.5717276  51.1599242
  20.4441497  46.5558055  43.6960919  20.5657409  45.6274702  43.8951806
  20.1543540  46.5696741  42.7839234  23.3132688  44.2412966  46.8327639
  23.3354385  44.3052299  45.8779618  23.7300747  43.4017475  47.0268145
  33.6916312  53.9768225  44.8706861  34.1347458  53.2275551  44.4725985
  32.8142822  53.9678362  44.4880593  28.8252093  60.5298567  40.3513460
  29.5202998  61.1505260  40.5700775  29.1675244  59.6793918  40.6265838
  14.4419903  52.3516368  54.2110277  13.7001639  52.4999003  54.7974908
  14.1212647  52.6124633  53.3477027  30.7243517  57.9798272  41.8800791
  31.2494841  58.3185545  41.1550111  30.6365869  57.0445288  41.6963925
  22.3863565  61.8932346  54.0090667  22.6950692  61.6481493  54.8813367
  23.1839047  62.0978985  53.5209538  22.4084177  64.0470256  46.2396044
  21.9689168  63.5546634  46.9328901  23.1592294  63.5043223  45.9988119
  14.8876516  60.2381797  46.2420672  15.7134536  59.9385568  45.8619315
  14.5370568  59.4689419  46.6910461  19.8558049  59.5908265  48.3118346
  19.2338059  58.9278970  48.0120573  20.5262916  59.6169397  47.6291993
  13.0885121  58.1568123  47.2009606  12.2517030  57.7290297  47.0193607
  13.0608767  58.3500566  48.1380397  19.9282577  48.0690053  57.9050852
  19.9770732  48.9452176  57.5228621  20.4705091  47.5267446  57.3322495
  30.4137423  58.6131176  57.1851989  29.6232966  58.5955315  56.6456488
  30.1770777  59.1519470  57.9401025  30.5335298  55.4623642  54.4984717
  30.5833303  55.2973650  55.4400240  30.4249221  54.5950901  54.1082598
  19.4171556  58.1412188  41.7876806  19.5659677  58.8247653  41.1343479
  20.2238000  58.1217278  42.3026262  27.8239060  51.4454570  55.8144024
  28.7248923  51.3061035  55.5228022  27.8987035  51.6109025  56.7542201
  22.1581865  48.8221425  54.6597210  21.2885175  49.1154991  54.3879799
  22.3941346  49.4061870  55.3804474  33.2349177  55.4473464  47.2629309
  34.0696068  55.8863268  47.4266869  33.3708306  54.9712117  46.4437555
  30.2840683  53.0053199  53.2106797  30.7594804  53.1980845  52.4025648
  29.3606248  53.0612384  52.9650180  17.1724189  54.1677366  42.7937875
  16.9270231  53.2639696  42.9918085  17.3420104  54.1694516  41.8517353
  24.8620899  45.0401042  52.1762631  25.3802843  45.7762069  51.8509119
  24.5076032  45.3465035  53.0109390  16.4419837  49.9005723  40.2924036
  15.7489082  49.9750078  39.6364072  16.1971589  49.1366067  40.8145553
  25.1133493  41.4601325  47.6963527  25.3935247  40.7924514  48.3223954
  25.8984100  41.6530420  47.1838191  22.9166962  60.6360319  39.2588553
  22.3440929  61.2550506  38.8059025  23.4899756  61.1859680  39.7928475
  28.9842352  49.8818959  51.4435102  29.9359775  49.9817056  51.4647326
  28.8145802  49.0897227  51.9533187  27.0056731  46.9674542  51.6294503
  26.4106663  47.2479555  50.9340992  26.7206428  47.4568443  52.4011244
  26.1364222  60.9197469  40.3897136  27.0694895  60.8543030  40.5930011
  26.0487435  61.7553736  39.9311668  28.7652238  60.2363339  37.3501083
  28.6865870  59.9023203  38.2436841  29.5861905  60.7285107  37.3492556
  31.4630430  53.1025078  50.5577402  31.4306750  52.1641079  50.7437086
  32.0731053  53.1809115  49.8243227  23.3013760  51.9721131  36.6004606
  24.2472865  51.8427339  36.6693024  22.9228005  51.2335793  37.0774034
  31.6124918  49.8936122  50.6035685  31.0963967  49.1094578  50.4165614
  32.4964867  49.5654838  50.7682205  29.2735645  43.6377137  46.5631498
  29.0760466  43.3292226  47.4474830  29.8835351  44.3638776  46.6929428
  35.3622277  52.3048948  50.2957890  34.6355440  52.1704913  49.6874382
  34.9469563  52.6125776  51.1014608  23.1852453  56.0238877  58.0605263
  24.1055462  56.2017476  58.2545309  23.1502036  55.0794923  57.9084962
  21.4856678  49.8971108  36.5359491  20.5788133  49.6004220  36.6122205
  21.7632659  49.6000926  35.6693777  12.4034618  51.2177471  46.9858538
  12.0837402  50.3642779  46.6932912  11.8568046  51.4326049  47.7416505
  16.1814525  53.9339912  50.7028044  16.4000535  54.8657020  50.7216078
  16.5940299  53.5747887  51.4882848  23.1018743  44.4407997  42.6903732
  22.2919472  44.0955082  43.0658979  23.7903160  44.1315541  43.2791344
  25.0309292  43.5186044  44.3128029  25.5840330  43.9381498  44.9718052
  25.2679378  42.5921792  44.3550985  21.0542391  49.5073118  60.0930793
  20.9539118  50.4567475  60.0242884  20.8363933  49.1791357  59.2206863
  20.2555462  46.7558043  36.6771470  21.1174626  47.0812941  36.9367288
  20.4405806  45.9689539  36.1644536  12.2722878  54.8380383  48.9551659
  11.5786349  54.4234335  48.4421614  13.0195869  54.8800919  48.3585078
  28.4088099  45.6286569  43.8206693  27.8286768  46.2871373  43.4384746
  28.1424031  44.8063914  43.4094111  26.8591665  45.0291627  46.0228014
  27.3591443  45.1408162  45.2142333  27.5027273  44.7252680  46.6628822
  20.9173661  52.9370257  58.9095855  20.4340743  53.7370617  59.1159744
  21.0034600  52.9478202  57.9563299  14.1859620  54.7698636  46.8317674
  14.1630309  54.8686324  45.8799557  14.4960257  55.6163787  47.1534840
  16.8446998  56.8274791  50.9464288  17.7990252  56.7958734  50.8794220
  16.6459522  56.3665415  51.7614514  17.4346380  55.3975907  53.5135086
  18.2539269  55.8919986  53.5369923  17.7083188  54.4807876  53.4852654
  27.1912977  47.7886660  42.8763042  26.3038832  48.0736310  42.6583236
  27.6066966  47.6280423  42.0290319  30.5427513  47.8133181  46.5917381
  31.3187903  48.3029633  46.8641998  29.8175647  48.2391235  47.0489250
  32.9800071  48.5260800  47.6491322  33.5744562  48.2856536  46.9384630
  33.0526655  47.8067931  48.2764858  15.1997227  62.3694411  47.9634486
  15.0651695  61.6094812  47.3972484  14.7829289  63.0935311  47.4963275
  26.3356190  57.5531334  36.9711062  27.0392040  57.7581337  37.5868717
  25.6118839  58.1208096  37.2360145  27.1654000  53.3041196  43.0913332
  27.1089202  53.7609747  42.2520964  27.7182343  52.5431880  42.9136175
  30.9758806  49.0930928  43.9163451  30.7195741  48.6927563  44.7471659
  30.3511674  49.8074722  43.7913590  35.2871144  51.8327001  46.4234743
  34.7270702  51.9020190  47.1966305  34.6814648  51.6567985  45.7034239
  18.3566353  63.2663728  48.1752929  18.2398737  64.2109160  48.0731619
  17.5358799  62.9637289  48.5638728  28.2442888  57.9913864  39.0209522
  29.0788491  57.5595062  38.8386996  28.0827230  57.8195877  39.9486416
  27.8988780  54.4945977  40.3865861  27.8437584  54.3290248  39.4454305
  27.2734835  55.2022010  40.5428051  12.6881295  49.7314041  54.2127283
  13.3340158  49.2212995  54.7014508  12.4798446  50.4682723  54.7870708
  25.2134687  56.7994889  59.7119424  26.0825847  56.9735541  59.3506059
  24.7341438  57.6189306  59.5895153  21.2084905  43.9954086  39.9651179
  21.1963575  44.9395926  40.1219450  22.1008327  43.8124231  39.6710641
  19.3820867  63.9191990  51.3908857  20.2848114  63.9515600  51.7075352
  19.1558237  62.9892441  51.4055193  21.1374469  62.6722976  48.0518936
  20.1870100  62.6724838  47.9383308  21.4406955  61.9255711  47.5354971
  25.0237025  40.5896863  44.2197116  24.2569420  40.0355349  44.3653799
  25.4347730  40.6618731  45.0811268  17.0278786  46.8781658  58.3102297
  17.8910247  46.5218463  58.5205622  16.4544196  46.5395553  58.9977702
  29.5403685  70.3146419  45.0423114  28.9768550  70.2236356  44.2739402
  29.4256080  69.4946324  45.5225607  27.0868117  71.8097611  47.8807335
  27.8789408  71.4688436  47.4653634  27.3264767  71.9192586  48.8009488
  35.1203243  73.9817387  40.3537579  34.4691223  74.5671467  39.9671593
  35.9147606  74.5123582  40.4132616  29.0458870  71.0706524  40.7524713
  29.8189746  70.5235511  40.6137589  29.3984269  71.9350773  40.9639175
  31.3825148  67.2299190  38.3843163  31.6350669  66.7080712  37.6226626
  30.4449707  67.0665336  38.4869847  36.5978508  71.6707819  40.8906563
  35.9624341  71.7442445  41.6027468  36.2675915  72.2601418  40.2125643
  31.1021437  69.1327296  40.5867538  30.9857695  68.4572200  41.2548623
  31.2123697  68.6459670  39.7699691  33.0858465  63.6227343  39.2875576
  33.2532867  64.4907579  39.6546047  32.8955634  63.7854625  38.3636865
  29.2946280  68.5358119  46.9878111  28.3696776  68.4034333  47.1955803
  29.5430693  69.3152338  47.4848053  33.0647686  66.0785000  40.2722243
  32.9447311  66.5242051  41.1107723  32.3700274  66.4270318  39.7135781
  26.6555091  68.1791392  47.8221900  26.7847472  68.4325871  48.7361312
  25.9752542  68.7719100  47.5026555  30.8254578  78.8488642  43.9212374
  30.7478608  79.7996467  44.0000855  30.2216222  78.5034515  44.5787300
  32.9230296  71.2706700  45.7566243  33.3868642  71.5494403  44.9670866
  32.6587094  70.3690145  45.5739334  29.8154377  70.8178182  48.6946007
  30.3855734  71.2465450  48.0563491  30.4062489  70.5360766  49.3930192
  31.8599182  67.3929853  42.5655809  32.5623226  67.8450896  43.0329735
  31.5279811  66.7513671  43.1935702  30.3079544  65.9841609  56.9407018
  29.6778204  66.6657890  57.1742415  30.2015632  65.8724691  55.9960156
  25.6024516  65.6513405  47.8672942  24.8123570  65.9070934  47.3913053
  26.0935764  66.4661743  47.9724983  27.5539262  66.0157984  44.8256419
  26.7570425  66.1276679  45.3439914  27.3264854  66.3544637  43.9597309
  23.8862219  65.9043896  50.2987933  24.1370258  66.7890906  50.5645509
  24.4221768  65.7248497  49.5263025  47.7094319  69.3357393  46.9663194
  46.9558027  68.7664791  46.8107199  47.8441860  69.3020057  47.9133829
  33.0992947  74.2070795  42.6417914  32.9638622  75.0522331  43.0702762
  33.6402759  74.4090073  41.8783848  26.5522344  71.7246233  43.2145839
  27.0646865  72.5189483  43.3651404  27.2045057  71.0272524  43.1479440
  28.3617229  74.8411990  45.2968592  28.5383857  75.7629954  45.1089576
  29.1574062  74.5270409  45.7262972  27.6469585  66.8876621  55.1730755
  27.5323101  65.9861879  55.4737854  26.7914103  67.1340318  54.8215572
  29.4848544  76.3590163  51.2978934  30.0355970  76.2307227  50.5255928
  28.6460020  76.6585052  50.9473827  24.5171261  70.0534888  43.9905409
  25.3546483  70.4631896  43.7739117  24.6949529  69.1134330  43.9605603
  36.4135693  67.7209968  39.6789242  35.8982317  68.4914573  39.9177630
  36.1413002  67.0475104  40.3022304  41.3869967  70.4742323  41.6142416
  40.6099410  70.1353482  41.1697578  42.0661448  70.4794946  40.9397381
  34.6468428  71.7527284  43.1541977  34.1189790  71.0180043  42.8415215
  34.1455931  72.5301960  42.9081946  29.3787156  62.4146950  45.5148589
  29.9530908  62.1922131  44.7821782  29.9658138  62.4835644  46.2677190
  29.7056743  64.4451411  39.5344474  28.8694055  64.7826097  39.8553749
  29.5661513  64.3100391  38.5971611  32.7921028  69.5707494  36.1576950
  31.8848090  69.3396747  36.3568099  33.2892060  68.7745113  36.3450932
  35.6989107  78.2805001  39.0773637  35.0250806  78.5836698  39.6858594
  36.0854929  79.0834081  38.7279094  33.9709262  69.6720089  40.6800941
  33.0620481  69.3879122  40.7773410  34.0004346  70.0919167  39.8204247
  39.2028529  73.2826678  44.4492108  38.7490856  72.4417588  44.5057299
  38.5722496  73.9188077  44.7866888  37.6461468  75.1203175  45.3841926
  37.9384443  75.6808232  44.6654292  38.1560089  75.4131736  46.1395085
  24.5397432  67.3925603  44.6616143  24.3421832  66.7994964  43.9367209
  23.9844096  67.0877813  45.3792082  33.6685350  71.2128832  38.0189019
  33.2304779  70.4964691  37.5594657  34.4095790  71.4404947  37.4574111
  30.4586516  65.9025769  44.5401115  29.6454381  66.2019940  44.9466307
  30.9545510  65.5081458  45.2575597  32.6095094  75.8983526  46.4735380
  32.5671272  76.1244372  45.5443912  33.5257792  75.6646901  46.6221181
  29.9500590  63.4744125  50.1562350  30.5899970  63.3332884  49.4585313
  29.1178121  63.1878638  49.7800952  30.7260894  72.7746555  46.2697342
  31.5201493  72.2796875  46.0679917  30.0152587  72.2464418  45.9065048
  35.5455739  75.1564651  50.6209710  35.5992761  75.7255587  51.3887426
  34.6770520  75.3266536  50.2563747  27.0343658  66.9189637  42.3457095
  26.1041246  66.8574092  42.5627057  27.1301130  66.3965590  41.5493736
  26.9529207  63.4444450  44.9335337  27.2136024  64.3589783  44.8244497
  27.7746379  62.9768892  45.0831949  28.4254132  64.8582207  52.1034161
  29.0977186  64.6499569  51.4546810  27.5983919  64.6604293  51.6639393
  33.3032170  73.3475577  49.9495179  33.1643256  72.9794361  50.8221117
  32.5146767  73.8623216  49.7779137  33.8980322  78.4484673  41.2920716
  34.0732078  77.9772717  42.1066339  33.2113110  79.0750440  41.5201977
  34.8537386  72.7257180  47.3384017  34.5187218  72.6857950  48.2341667
  34.3541331  72.0601896  46.8654427  28.8281629  68.1324810  52.8636598
  28.6901427  67.4005049  53.4648137  29.7386553  68.0433710  52.5820786
  37.7896577  70.0713214  37.6121077  37.1725748  69.3460042  37.5154129
  37.3213066  70.8322574  37.2688151  30.1692864  64.8309987  54.1715917
  29.6330221  64.3800725  54.8237514  29.5809573  64.9655896  53.4286382
  28.4641408  81.5974036  48.0660576  28.7038006  82.2292560  48.7439595
  27.6210604  81.2462076  48.3525935  29.5795123  64.2898638  36.7342381
  28.7024589  64.1687439  36.3704628  30.0552876  63.4984717  36.4821270
  21.0997263  69.0775798  46.8283888  21.7868303  68.7637528  46.2404903
  20.9445392  69.9817163  46.5551140  25.9031985  63.9665995  51.2568912
  25.8190174  63.3591664  50.5219322  25.0814692  64.4575013  51.2578408
  32.9769270  77.4053159  50.4702080  32.9039441  78.2108130  50.9821385
  32.5346663  77.6045125  49.6450101  32.7659049  76.6424929  43.9804902
  31.9826571  77.1846609  44.0743126  33.4651794  77.1598908  44.3799143
  35.4367953  77.3039993  52.6260239  36.1495925  77.9387458  52.5536140
  34.9457982  77.4003859  51.8100240  37.1585480  71.2091245  44.1977530
  36.2241759  71.3292708  44.0282235  37.3362148  70.3063712  43.9337540
  38.6134262  73.3952386  41.7313717  38.8894106  73.2808981  42.6407591
  37.7438761  72.9969871  41.6925890  35.2488326  77.6438737  45.3746530
  35.4310721  76.8260393  45.8374282  36.0721312  77.8606429  44.9371420
  35.5830492  76.5706922  42.6361579  36.1118258  76.0599377  42.0231741
  35.8458711  76.2549452  43.5007112  26.0847585  74.5870791  50.3796912
  26.6701021  73.8414479  50.5124816  25.8872423  74.8974748  51.2633576
  28.9386240  77.6222039  45.3959355  28.2696615  78.1068166  44.9123395
  28.7999110  77.8691259  46.3102733  20.6765239  67.1576391  49.1001355
  20.7149339  66.6239982  49.8938473  20.1705532  66.6311597  48.4812332
  33.0791508  79.6565782  51.9942013  33.6309816  79.8197404  52.7591098
  33.4197702  80.2470220  51.3222038  28.0556002  62.0040932  52.5963898
  28.1197328  62.8655763  52.1841295  27.9923122  61.3914934  51.8636256
  27.5308274  64.0764064  56.2436932  28.1580313  63.6941142  56.8574456
  26.6736193  63.8578266  56.6092624  24.3073817  65.8840494  42.1755287
  24.6027258  64.9751172  42.1222340  23.4061853  65.8628233  41.8536289
  36.2159896  77.6047758  48.9805695  36.0911035  76.8037498  48.4716641
  36.8738987  78.0993951  48.4919665  27.8368064  63.9596490  48.1582835
  27.1154650  64.5732458  48.0190309  28.6261320  64.4954255  48.0799481
  26.0361659  63.5654591  42.2994612  25.7074365  62.6851970  42.1169718
  26.3901029  63.5102260  43.1871001  35.2841237  75.2009494  46.8089597
  35.1366200  74.2726201  46.9897167  36.1094731  75.2229585  46.3246673
  29.1503482  63.8527561  42.6670090  29.4899554  64.3813482  41.9448698
  29.5975602  64.1907967  43.4428656  38.8875359  76.0238053  47.8954470
  39.8121907  75.8180914  47.7578921  38.7190663  75.7754454  48.8043812
  31.1371629  62.3502183  40.8663382  31.8579991  62.7283435  40.3627099
  30.5136933  63.0691059  40.9698360  35.2802752  63.0547332  41.8021715
  35.4966366  63.9371969  41.5010543  34.7996819  62.6633545  41.0727357
  30.0201973  66.0133045  48.3792459  29.8746554  66.3273348  49.2716741
  29.5427177  66.6317945  47.8263358  38.6770675  76.5423720  43.2516562
  38.8507553  75.9770143  42.4990414  39.1699567  77.3424615  43.0696052
  24.4947635  68.5538389  51.3180120  23.9501103  69.3298197  51.4500395
  25.3726985  68.9009194  51.1599242  31.2835252  61.8849973  43.6960919
  31.4051163  60.9566619  43.8951806  30.9937294  61.8988659  42.7839234
  39.6645848  75.8590485  40.3513460  40.3596753  76.4797177  40.5700775
  40.0068998  75.0085836  40.6265838  25.2813657  67.6808286  54.2110277
  24.5395393  67.8290921  54.7974908  24.9606401  67.9416551  53.3477027
  41.5637271  73.3090190  41.8800791  42.0888595  73.6477463  41.1550111
  41.4759624  72.3737205  41.6963925  33.2257320  77.2224264  54.0090667
  33.5344446  76.9773410  54.8813367  34.0232802  77.4270902  53.5209538
  33.2477932  79.3762173  46.2396044  32.8082922  78.8838552  46.9328901
  33.9986049  78.8335141  45.9988119  25.7270271  75.5673714  46.2420672
  26.5528291  75.2677486  45.8619315  25.3764323  74.7981337  46.6910461
  30.6951804  74.9200182  48.3118346  30.0731813  74.2570887  48.0120573
  31.3656671  74.9461314  47.6291993  23.9278876  73.4860041  47.2009606
  23.0910784  73.0582215  47.0193607  23.9002521  73.6792484  48.1380397
  30.2565311  73.4704106  41.7876806  30.4053431  74.1539570  41.1343479
  31.0631754  73.4509196  42.3026262  28.0117944  69.4969283  42.7937875
  27.7663986  68.5931613  42.9918085  28.1813858  69.4986434  41.8517353
  27.2813591  65.2297641  40.2924036  26.5882836  65.3041996  39.6364072
  27.0365343  64.4657985  40.8145553  33.7560716  75.9652236  39.2588553
  33.1834683  76.5842423  38.8059025  34.3293510  76.5151598  39.7928475
  36.9757976  76.2489386  40.3897136  37.9088649  76.1834948  40.5930011
  36.8881189  77.0845653  39.9311668  39.6045993  75.5655257  37.3501083
  39.5259624  75.2315120  38.2436841  40.4255660  76.0577025  37.3492556
  34.1407515  67.3013049  36.6004606  35.0866620  67.1719257  36.6693024
  33.7621760  66.5627711  37.0774034  32.3250432  65.2263025  36.5359491
  31.4181887  64.9296138  36.6122205  32.6026413  64.9292843  35.6693777
  23.2428372  66.5469389  46.9858538  22.9231157  65.6934697  46.6932912
  22.6961801  66.7617967  47.7416505  27.0208280  69.2631830  50.7028044
  27.2394290  70.1948938  50.7216078  27.4334054  68.9039804  51.4882848
  31.0949217  62.0849961  36.6771470  31.9568381  62.4104859  36.9367288
  31.2799561  61.2981456  36.1644536  23.1116632  70.1672300  48.9551659
  22.4180104  69.7526253  48.4421614  23.8589623  70.2092837  48.3585078
  31.7567415  68.2662174  58.9095855  31.2734497  69.0662534  59.1159744
  31.8428354  68.2770119  57.9563299  25.0253375  70.0990554  46.8317674
  25.0024063  70.1978241  45.8799557  25.3354011  70.9455705  47.1534840
  27.6840753  72.1566709  50.9464288  28.6384006  72.1250651  50.8794220
  27.4853276  71.6957333  51.7614514  28.2740135  70.7267825  53.5135086
  29.0933024  71.2211904  53.5369923  28.5476943  69.8099793  53.4852654
  26.0390982  77.6986329  47.9634486  25.9045450  76.9386729  47.3972484
  25.6223044  78.4227228  47.4963275  37.1749945  72.8823252  36.9711062
  37.8785795  73.0873255  37.5868717  36.4512593  73.4500014  37.2360145
  29.1960107  78.5955646  48.1752929  29.0792492  79.5401078  48.0731619
  28.3752554  78.2929207  48.5638728  39.0836642  73.3205781  39.0209522
  39.9182246  72.8886980  38.8386996  38.9220985  73.1487795  39.9486416
  38.7382534  69.8237895  40.3865861  38.6831338  69.6582166  39.4454305
  38.1128589  70.5313928  40.5428051  23.5275049  65.0605959  54.2127283
  24.1733913  64.5504913  54.7014508  23.3192200  65.7974641  54.7870708
  32.0478660  59.3246004  39.9651179  32.0357329  60.2687844  40.1219450
  32.9402082  59.1416149  39.6710641  30.2214622  79.2483907  51.3908857
  31.1241868  79.2807518  51.7075352  29.9951992  78.3184358  51.4055193
  31.9768224  78.0014894  48.0518936  31.0263855  78.0016756  47.9383308
  32.2800710  77.2547629  47.5354971  35.8630779  55.9188780  44.2197116
  35.0963175  55.3647267  44.3653799  36.2741484  55.9910649  45.0811268
  27.8672540  62.2073576  58.3102297  28.7304002  61.8510381  58.5205622
  27.2937951  61.8687471  58.9977702  47.7120917  83.8375432  49.1164698
  48.3499327  83.7182180  48.4128039  47.5941760  84.7856276  49.1752651
  44.5210623  83.7902861  49.0526223  44.1829135  83.6743925  48.1646758
  45.3900392  83.3894026  49.0327229  40.3797439  85.6438337  45.0423114
  39.8162304  85.5528274  44.2739402  40.2649834  84.8238241  45.5225607
  45.0030406  84.9437712  55.0112429  44.9919047  84.5490511  54.1392932
  45.1651046  84.2103785  55.6046200  37.9261871  87.1389529  47.8807335
  38.7183163  86.7980353  47.4653634  38.1658521  87.2484504  48.8009488
  45.9596998  89.3109305  40.3537579  45.3084978  89.8963385  39.9671593
  46.7541361  89.8415500  40.4132616  39.8852625  86.3998442  40.7524713
  40.6583501  85.8527429  40.6137589  40.2378024  87.2642691  40.9639175
  41.7237668  87.7274824  53.9591613  41.4327534  88.6320455  53.8438279
  42.3594652  87.7691352  54.6735682  42.6493874  85.1051673  50.5492972
  43.2457447  84.8807695  49.8349935  42.7068846  84.3636418  51.1518420
  42.2218903  82.5591108  38.3843163  42.4744423  82.0372629  37.6226626
  41.2843462  82.3957253  38.4869847  47.2662186  81.5626886  46.1917906
  48.0525275  81.1446309  45.8408323  47.5300890  82.4672978  46.3599555
  47.4372263  86.9999737  40.8906563  46.8018096  87.0734363  41.6027468
  47.1069669  87.5893335  40.2125643  52.6670613  81.5002119  47.0950885
  53.3995785  80.9301336  47.3288714  51.9109968  81.1123720  47.5357391
  41.9415192  84.4619214  40.5867538  41.8251450  83.7864117  41.2548623
  42.0517451  83.9751588  39.7699691  44.2846732  83.9229361  44.2914227
  43.9204940  83.3959982  45.0027149  45.1413848  83.5327830  44.1180713
  50.1896033  75.2123694  51.5545494  49.8579358  76.0819105  51.3306709
  49.5941646  74.8959978  52.2339524  43.9252219  78.9519261  39.2875576
  44.0926622  79.8199497  39.6546047  43.7349389  79.1146542  38.3636865
  46.6827553  87.4136240  50.9541406  46.3828276  88.3161278  50.8457214
  46.3378612  87.1468423  51.8062559  40.1340034  83.8650036  46.9878111
  39.2090531  83.7326251  47.1955803  40.3824447  84.6444256  47.4848053
  50.0824696  79.9318780  48.6338844  49.1741574  79.8634188  48.3397605
  50.0312292  80.4090725  49.4620669  43.9041440  81.4076918  40.2722243
  43.7841066  81.8533969  41.1107723  43.2094029  81.7562236  39.7135781
  37.4948845  83.5083310  47.8221900  37.6241226  83.7617789  48.7361312
  36.8146296  84.1011018  47.5026555  41.6648332  94.1780560  43.9212374
  41.5872362  95.1288385  44.0000855  41.0609976  93.8326432  44.5787300
  44.1565562  81.3508425  56.5773741  43.3798896  81.9102345  56.5676606
  44.7956125  81.8365208  57.0988611  51.9486343  78.1335218  50.4116718
  51.3060723  78.4267751  49.7656512  51.4441271  78.0188138  51.2169914
  49.6026506  81.8798391  41.1002577  50.5144363  82.1125778  40.9250274
  49.0936154  82.4635436  40.5377655  42.4111934  84.1593879  56.1391708
  43.1526619  84.6978923  55.8626532  41.7048920  84.7860167  56.2963260
  47.8867274  86.3023019  54.7363869  48.2950630  85.8605430  53.9918502
  47.1644536  85.7275647  54.9898062  44.2398344  81.2395626  52.1097426
  45.0859539  81.6635040  52.2532075  44.1796982  80.5829250  52.8035989
  48.2096089  86.8624210  48.4916158  47.5804951  87.0269924  47.7892226
  47.8221751  87.2765819  49.2627122  52.0885321  87.7978648  45.8460522
  51.4036359  88.1777549  45.2957555  52.1729170  88.4073974  46.5792470
  47.3897790  78.8999994  53.7678600  47.1458721  79.6542055  53.2312876
  47.6657720  79.2785342  54.6025847  49.3436252  85.4438607  52.4455866
  49.5553148  86.0870367  51.7690247  49.2966001  84.6100923  51.9777796
  46.9462481  78.0556427  49.3492438  46.0846960  78.3537681  49.6409175
  46.9724916  78.2726826  48.4173470  43.7624051  86.5998618  45.7566243
  44.2262396  86.8786321  44.9670866  43.4980849  85.6982062  45.5739334
  40.6548132  86.1470099  48.6946007  41.2249489  86.5757368  48.0563491
  41.2456244  85.8652684  49.3930192  42.6992937  82.7221770  42.5655809
  43.4016980  83.1742814  43.0329735  42.3673565  82.0805589  43.1935702
  41.1473298  81.3133527  56.9407018  40.5171959  81.9949808  57.1742415
  41.0409386  81.2016608  55.9960156  36.4418271  80.9805323  47.8672942
  35.6517325  81.2362851  47.3913053  36.9329518  81.7953661  47.9724983
  50.4582080  88.3210562  50.6178223  51.2799524  87.9190749  50.3360905
  50.4544483  88.2178796  51.5694339  38.3933016  81.3449902  44.8256419
  37.5964179  81.4568596  45.3439914  38.1658608  81.6836554  43.9597309
  44.2238684  87.8694605  52.7738933  44.2883116  88.3315013  53.6097105
  43.5149608  87.2391970  52.9021243  34.7255974  81.2335813  50.2987933
  34.9764012  82.1182823  50.5645509  35.2615522  81.0540415  49.5263025
  58.5488073  84.6649311  46.9663194  57.7951782  84.0956709  46.8107199
  58.6835614  84.6311975  47.9133829  43.9386701  89.5362713  42.6417914
  43.8032376  90.3814249  43.0702762  44.4796514  89.7381991  41.8783848
  37.3916099  87.0538151  43.2145839  37.9040619  87.8481401  43.3651404
  38.0438812  86.3564441  43.1479440  39.2010983  90.1703907  45.2968592
  39.3777612  91.0921872  45.1089576  39.9967817  89.8562326  45.7262972
  43.3422002  77.0312172  56.8952526  44.0831715  77.6319325  56.8156988
  43.5739925  76.2889810  56.3370568  38.4863340  82.2168539  55.1730755
  38.3716855  81.3153796  55.4737854  37.6307858  82.4632236  54.8215572
  45.5655178  90.1586279  56.7718256  45.1219032  89.3722658  56.4539160
  46.2272391  90.3465430  56.1062147  40.3242299  91.6882081  51.2978934
  40.8749724  91.5599144  50.5255928  39.4853775  91.9876970  50.9473827
  47.6636416  90.4389079  54.7999657  47.6454891  91.2597960  54.3079926
  48.5856336  90.3143155  55.0249798  44.1209470  87.9533209  55.6423165
  44.6537807  87.1921497  55.4122473  43.5923551  87.6606861  56.3847320
  47.2879165  73.0593275  51.1716807  46.9443434  73.9494916  51.0955918
  47.6558127  72.8694932  50.3086392  35.3565016  85.3826805  43.9905409
  36.1940238  85.7923814  43.7739117  35.5343283  84.4426247  43.9605603
  47.2529448  83.0501886  39.6789242  46.7376071  83.8206491  39.9177630
  46.9806756  82.3767022  40.3022304  44.8376559  77.8951587  44.7374481
  43.9818155  77.5058437  44.5580119  45.2503510  77.9743547  43.8774266
  46.3675705  75.4297930  49.1366040  45.8640501  75.3928065  48.3233846
  46.6606312  76.3390673  49.1962697  52.2263722  85.8034241  41.6142416
  51.4493165  85.4645400  41.1697578  52.9055203  85.8086864  40.9397381
  47.0415751  80.9228978  41.5049023  46.7365886  81.2375127  42.3559167
  47.9946193  81.0010398  41.5476356  45.4862183  87.0819201  43.1541977
  44.9583544  86.3471961  42.8415215  44.9849685  87.8593878  42.9081946
  50.4655029  85.2768222  48.2709024  49.8078703  85.9667483  48.3589152
  51.2695428  85.6664654  48.6143010  40.2180910  77.7438868  45.5148589
  40.7924662  77.5214049  44.7821782  40.8051893  77.8127562  46.2677190
  49.2760487  83.6312594  46.3212966  49.7892369  84.2642586  46.8234675
  49.9261711  83.0313790  45.9556326  40.5450497  79.7743329  39.5344474
  39.7087810  80.1118015  39.8553749  40.4055267  79.6392308  38.5971611
  42.5203578  74.6180116  44.2423658  41.8667990  74.3029134  43.6180273
  42.4784052  73.9955857  44.9683481  43.6314783  84.8999412  36.1576950
  42.7241845  84.6688665  36.3568099  44.1285815  84.1037031  36.3450932
  46.5382862  93.6096919  39.0773637  45.8644560  93.9128615  39.6858594
  46.9248684  94.4125999  38.7279094  45.7541318  81.1062050  48.5671306
  44.8363880  81.3276997  48.4092994  46.1701462  81.1808360  47.7083013
  46.5376366  82.5053466  43.6973986  47.2848185  83.0174863  43.3881108
  46.8067956  82.1837518  44.5578380  44.8103016  85.0012006  40.6800941
  43.9014236  84.7171039  40.7773410  44.8398100  85.4211085  39.8204247
  50.0422284  88.6118596  44.4492108  49.5884611  87.7709506  44.5057299
  49.4116250  89.2479994  44.7866888  48.9855203  79.5410582  45.6792776
  48.2477960  79.0287968  46.0103018  49.2381977  79.1010964  44.8676052
  48.4855223  90.4495093  45.3841926  48.7778197  91.0100150  44.6654292
  48.9953843  90.7423654  46.1395085  49.0866831  72.3186834  46.2734545
  49.3925707  71.4584197  45.9860460  49.8119435  72.9104454  46.0733539
  35.3791187  82.7217521  44.6616143  35.1815586  82.1286881  43.9367209
  34.8237851  82.4169731  45.3792082  43.3587910  82.6140627  46.7810736
  43.4136520  81.6614463  46.7053213  42.5479112  82.7700066  47.2652034
  44.5079104  86.5420750  38.0189019  44.0698534  85.8256609  37.5594657
  45.2489545  86.7696865  37.4574111  41.2980270  81.2317687  44.5401115
  40.4848136  81.5311857  44.9466307  41.7939264  80.8373376  45.2575597
  43.4488848  91.2275444  46.4735380  43.4065027  91.4536290  45.5443912
  44.3651547  90.9938818  46.6221181  46.8954482  81.6959511  53.3716009
  47.2503870  81.9230984  54.2310474  47.5426613  82.0277888  52.7493264
  52.6252219  84.8177947  44.0765338  52.4870117  85.0079543  43.1486527
  52.2688438  85.5797330  44.5333389  40.7894345  78.8036042  50.1562350
  41.4293724  78.6624801  49.4585313  39.9571876  78.5170556  49.7800952
  52.6521598  86.8854474  49.0876609  53.0858105  86.7929763  49.9359663
  53.3653179  86.8611975  48.4496625  41.5654649  88.1038473  46.2697342
  42.3595247  87.6088793  46.0679917  40.8546341  87.5756336  45.9065048
  46.3849493  90.4856568  50.6209710  46.4386516  91.0547505  51.3887426
  45.5164275  90.6558453  50.2563747  37.8737412  82.2481554  42.3457095
  36.9435000  82.1866010  42.5627057  37.9694884  81.7257507  41.5493736
  37.7922961  78.7736367  44.9335337  38.0529779  79.6881701  44.8244497
  38.6140134  78.3060810  45.0831949  39.2647887  80.1874124  52.1034161
  39.9370940  79.9791487  51.4546810  38.4377673  79.9896210  51.6639393
  53.5137148  86.9278175  51.6209495  53.7073038  87.8323985  51.8668770
  53.4137766  86.4685594  52.4548080  45.1673459  76.8136065  54.1199822
  44.5201374  77.5126015  54.0264298  45.9374474  77.2472209  54.4876070
  45.3437593  84.6516830  52.1796642  46.2729653  84.8027990  52.0065609
  44.9228623  84.7400851  51.3245288  44.1425925  88.6767495  49.9495179
  44.0037011  88.3086279  50.8221117  43.3540521  89.1915134  49.7779137
  44.7374077  93.7776591  41.2920716  44.9125833  93.3064634  42.1066339
  44.0506865  94.4042357  41.5201977  45.6931140  88.0549097  47.3384017
  45.3580973  88.0149867  48.2341667  45.1935086  87.3893813  46.8654427
  39.6675384  83.4616727  52.8636598  39.5295182  82.7296966  53.4648137
  40.5780307  83.3725628  52.5820786  48.6290332  85.4005132  37.6121077
  48.0119502  84.6751960  37.5154129  48.1606820  86.1614492  37.2688151
  42.2957685  83.1736687  52.3520278  43.0057303  82.5329879  52.3106896
  42.2526993  83.4249582  53.2746459  50.2844463  90.1104040  55.2726857
  50.2257009  89.4263260  54.6057440  50.6863982  90.8523030  54.8207483
  41.0086619  80.1601905  54.1715917  40.4723976  79.7092643  54.8237514
  40.4203327  80.2947813  53.4286382  39.3035162  96.9265954  48.0660576
  39.5431760  97.5584478  48.7439595  38.4604359  96.5753994  48.3525935
  40.4188878  79.6190556  36.7342381  39.5418344  79.4979357  36.3704628
  40.8946631  78.8276634  36.4821270  50.2861871  88.0743624  53.5040837
  49.3988649  87.7369546  53.6267236  50.8560422  87.3426655  53.7409602
  31.9391018  84.4067716  46.8283888  32.6262058  84.0929446  46.2404903
  31.7839146  85.3109080  46.5551140  36.7425740  79.2957912  51.2568912
  36.6583929  78.6883582  50.5219322  35.9208446  79.7866931  51.2578408
  43.8163024  92.7345076  50.4702080  43.7433195  93.5400048  50.9821385
  43.3740417  92.9337042  49.6450101  43.6052804  91.9716846  43.9804902
  42.8220326  92.5138527  44.0743126  44.3045549  92.4890826  44.3799143
  46.9149454  77.7811476  46.6239107  47.4118153  77.0281438  46.3040177
  46.1436435  77.8175793  46.0582316  54.7679211  83.4851841  48.2657398
  54.7569087  84.3676557  47.8951332  53.8996591  83.1323392  48.0711935
  46.2761708  92.6331910  52.6260239  46.9889680  93.2679375  52.5536140
  45.7851736  92.7295776  51.8100240  47.9979234  86.5383163  44.1977530
  47.0635513  86.6584626  44.0282235  48.1755903  85.6355630  43.9337540
  43.4984422  79.9228859  46.3510792  43.1282210  79.3699899  47.0391697
  43.9943515  79.3186992  45.7985792  51.3851786  82.3800482  44.7327564
  51.8512238  83.2128474  44.6587867  51.8359286  81.9145464  45.4372823
  41.3273621  90.3826354  53.4465809  42.0283081  91.0162837  53.5995204
  40.8568736  90.7241085  52.6861449  49.4528017  88.7244304  41.7313717
  49.7287861  88.6100898  42.6407591  48.5832516  88.3261788  41.6925890
  49.3568449  74.7481069  48.7718466  48.4431528  74.9785296  48.9400673
  49.7861550  74.8319513  49.6232498  49.1274907  82.9370961  51.2718360
  48.4746357  83.1846869  50.6170813  49.5055287  82.1235099  50.9380837
  46.0882081  92.9730654  45.3746530  46.2704475  92.1552310  45.8374282
  46.9115067  93.1898347  44.9371420  46.4224246  91.8998840  42.6361579
  46.9512013  91.3891294  42.0231741  46.6852466  91.5841370  43.5007112
  45.1762480  83.6790772  57.7584397  44.5003117  83.5784902  58.4286772
  45.9990114  83.5229986  58.2220394  36.9241339  89.9162709  50.3796912
  37.5094776  89.1706397  50.5124816  36.7266178  90.2266666  51.2633576
  39.7779994  92.9513956  45.3959355  39.1090370  93.4360084  44.9123395
  39.6392864  93.1983177  46.3102733  31.5158994  82.4868309  49.1001355
  31.5543093  81.9531900  49.8938473  31.0099287  81.9603515  48.4812332
  43.9185263  94.9857700  51.9942013  44.4703571  95.1489321  52.7591098
  44.2591456  95.5762138  51.3222038  38.3702029  79.4055982  56.2436932
  38.9974067  79.0233059  56.8574456  37.5129948  79.1870184  56.6092624
  48.7696137  89.8118957  57.8490667  49.3136041  90.4248916  57.3545622
  48.1882982  90.3698536  58.3657680  35.1467571  81.2132411  42.1755287
  35.4421013  80.3043090  42.1222340  34.2455607  81.1920151  41.8536289
  47.0553650  92.9339675  48.9805695  46.9304790  92.1329415  48.4716641
  47.7132741  93.4285869  48.4919665  38.6761818  79.2888408  48.1582835
  37.9548404  79.9024376  48.0190309  39.4655074  79.8246173  48.0799481
  49.1188559  90.7348695  50.6085245  48.1718894  90.6154047  50.5363572
  49.4671332  89.8471193  50.6911507  41.4788132  76.6242834  54.4323487
  42.0022534  76.8705131  55.1949796  41.2600465  77.4562869  54.0126624
  36.8755413  78.8946509  42.2994612  36.5468119  78.0143888  42.1169718
  37.2294784  78.8394178  43.1871001  46.1234992  90.5301412  46.8089597
  45.9759954  89.6018119  46.9897167  46.9488485  90.5521502  46.3246673
  39.9897236  79.1819479  42.6670090  40.3293309  79.7105400  41.9448698
  40.4369357  79.5199885  43.4428656  49.7269114  91.3529970  47.8954470
  50.6515661  91.1472832  47.7578921  49.5584417  91.1046372  48.8043812
  42.6840677  77.5656529  52.1173158  42.3437497  76.7664343  52.5193837
  41.9779683  77.8658240  51.5449991  41.9765383  77.6794100  40.8663382
  42.6973746  78.0575353  40.3627099  41.3530687  78.3982977  40.9698360
  46.1196506  78.3839249  41.8021715  46.3360121  79.2663887  41.5010543
  45.6390573  77.9925463  41.0727357  40.8595728  81.3424963  48.3792459
  40.7140308  81.6565266  49.2716741  40.3820931  81.9609863  47.8263358
  42.7192110  78.3327511  48.4273349  42.7053679  77.4368604  48.0905647
  43.4364539  78.3398174  49.0611635  44.5718241  78.7664851  50.4726476
  44.3136019  79.6881921  50.4710807  44.0403282  78.3695285  51.1626940
  49.5164430  91.8715638  43.2516562  49.6901307  91.3062060  42.4990414
  50.0093321  92.6716533  43.0696052  35.3341390  83.8830307  51.3180120
  34.7894858  84.6590115  51.4500395  36.2120740  84.2301111  51.1599242
  42.1229006  77.2141891  43.6960919  42.2444918  76.2858537  43.8951806
  41.8331049  77.2280577  42.7839234  55.3703821  84.6352061  44.8706861
  55.8134967  83.8859386  44.4725985  54.4930331  84.6262197  44.4880593
  50.5039602  91.1882402  40.3513460  51.1990507  91.8089095  40.5700775
  50.8462753  90.3377753  40.6265838  36.1207412  83.0100203  54.2110277
  35.3789148  83.1582839  54.7974908  35.8000156  83.2708469  53.3477027
  52.4031026  88.6382108  41.8800791  52.9282350  88.9769381  41.1550111
  52.3153378  87.7029123  41.6963925  44.0651074  92.5516181  54.0090667
  44.3738201  92.3065328  54.8813367  44.8626556  92.7562820  53.5209538
  44.0871686  94.7054091  46.2396044  43.6476677  94.2130470  46.9328901
  44.8379803  94.1627059  45.9988119  36.5664025  90.8965632  46.2420672
  37.3922045  90.5969404  45.8619315  36.2158077  90.1273254  46.6910461
  41.5345558  90.2492100  48.3118346  40.9125568  89.5862805  48.0120573
  42.2050425  90.2753232  47.6291993  34.7672630  88.8151958  47.2009606
  33.9304539  88.3874133  47.0193607  34.7396276  89.0084402  48.1380397
  41.6070086  78.7273888  57.9050852  41.6558241  79.6036011  57.5228621
  42.1492600  78.1851281  57.3322495  52.0924932  89.2715011  57.1851989
  51.3020475  89.2539150  56.6456488  51.8558286  89.8103305  57.9401025
  52.2122807  86.1207478  54.4984717  52.2620812  85.9557485  55.4400240
  52.1036730  85.2534737  54.1082598  41.0959065  88.7996023  41.7876806
  41.2447186  89.4831488  41.1343479  41.9025509  88.7801114  42.3026262
  43.8369374  79.4805261  54.6597210  42.9672684  79.7738827  54.3879799
  44.0728855  80.0645706  55.3804474  54.9136686  86.1057299  47.2629309
  55.7483577  86.5447103  47.4266869  55.0495815  85.6295952  46.4437555
  51.9628192  83.6637034  53.2106797  52.4382313  83.8564680  52.4025648
  51.0393757  83.7196220  52.9650180  38.8511698  84.8261201  42.7937875
  38.6057740  83.9223531  42.9918085  39.0207613  84.8278352  41.8517353
  46.5408408  75.6984877  52.1762631  47.0590352  76.4345904  51.8509119
  46.1863541  76.0048871  53.0109390  38.1207346  80.5589559  40.2924036
  37.4276591  80.6333914  39.6364072  37.8759098  79.7949902  40.8145553
  46.7921002  72.1185160  47.6963527  47.0722756  71.4508349  48.3223954
  47.5771609  72.3114256  47.1838191  44.5954471  91.2944154  39.2588553
  44.0228438  91.9134341  38.8059025  45.1687265  91.8443516  39.7928475
  50.6629861  80.5402794  51.4435102  51.6147284  80.6400892  51.4647326
  50.4933311  79.7481063  51.9533187  48.6844240  77.6258377  51.6294503
  48.0894172  77.9063390  50.9340992  48.3993937  78.1152278  52.4011244
  47.8151731  91.5781304  40.3897136  48.7482404  91.5126866  40.5930011
  47.7274943  92.4137571  39.9311668  50.4439747  90.8947174  37.3501083
  50.3653379  90.5607038  38.2436841  51.2649414  91.3868942  37.3492556
  53.1417939  83.7608914  50.5577402  53.1094259  82.8224914  50.7437086
  53.7518562  83.8392950  49.8243227  44.9801269  82.6304967  36.6004606
  45.9260374  82.5011175  36.6693024  44.6015514  81.8919629  37.0774034
  53.2912427  80.5519957  50.6035685  52.7751476  79.7678414  50.4165614
  54.1752376  80.2238674  50.7682205  50.9523154  74.2960973  46.5631498
  50.7547975  73.9876061  47.4474830  51.5622859  75.0222612  46.6929428
  58.9594488  84.8224921  49.6983439  59.6897877  84.5610209  50.2591142
  58.3501434  84.0853642  49.7385507  57.0409785  82.9632783  50.2957890
  56.3142949  82.8288748  49.6874382  56.6257072  83.2709612  51.1014608
  44.8639962  86.6822713  58.0605263  45.7842971  86.8601312  58.2545309
  44.8289545  85.7378758  57.9084962  43.1644187  80.5554943  36.5359491
  42.2575642  80.2588056  36.6122205  43.4420168  80.2584761  35.6693777
  34.0822127  81.8761306  46.9858538  33.7624911  81.0226615  46.6932912
  33.5355555  82.0909885  47.7416505  37.8602034  84.5923747  50.7028044
  38.0788044  85.5240855  50.7216078  38.2727808  84.2331722  51.4882848
  44.7806252  75.0991833  42.6903732  43.9706981  74.7538918  43.0658979
  45.4690669  74.7899377  43.2791344  46.7096801  74.1769880  44.3128029
  47.2627839  74.5965333  44.9718052  46.9466887  73.2505628  44.3550985
  42.7329900  80.1656953  60.0930793  42.6326627  81.1151310  60.0242884
  42.5151442  79.8375192  59.2206863  41.9342971  77.4141878  36.6771470
  42.7962135  77.7396777  36.9367288  42.1193315  76.6273374  36.1644536
  33.9510387  85.4964218  48.9551659  33.2573858  85.0818171  48.4421614
  34.6983378  85.5384754  48.3585078  50.0875608  76.2870405  43.8206693
  49.5074277  76.9455209  43.4384746  49.8211540  75.4647749  43.4094111
  48.5379174  75.6875462  46.0228014  49.0378952  75.7991997  45.2142333
  49.1814782  75.3836515  46.6628822  42.5961170  83.5954092  58.9095855
  42.1128252  84.3954452  59.1159744  42.6822109  83.6062037  57.9563299
  35.8647129  85.4282472  46.8317674  35.8417818  85.5270159  45.8799557
  36.1747766  86.2747623  47.1534840  38.5234507  87.4858627  50.9464288
  39.4777761  87.4542569  50.8794220  38.3247031  87.0249251  51.7614514
  39.1133889  86.0559743  53.5135086  39.9326778  86.5503821  53.5369923
  39.3870697  85.1391711  53.4852654  48.8700486  78.4470495  42.8763042
  47.9826341  78.7320146  42.6583236  49.2854475  78.2864258  42.0290319
  52.2215022  78.4717016  46.5917381  52.9975412  78.9613469  46.8641998
  51.4963156  78.8975070  47.0489250  54.6587580  79.1844635  47.6491322
  55.2532071  78.9440371  46.9384630  54.7314164  78.4651766  48.2764858
  36.8784736  93.0278246  47.9634486  36.7439204  92.2678647  47.3972484
  36.4616798  93.7519146  47.4963275  48.0143699  88.2115170  36.9711062
  48.7179549  88.4165172  37.5868717  47.2906348  88.7791932  37.2360145
  48.8441509  83.9625031  43.0913332  48.7876711  84.4193582  42.2520964
  49.3969852  83.2015716  42.9136175  52.6546315  79.7514763  43.9163451
  52.3983250  79.3511399  44.7471659  52.0299183  80.4658557  43.7913590
  56.9658653  82.4910836  46.4234743  56.4058211  82.5604025  47.1966305
  56.3602157  82.3151821  45.7034239  40.0353862  93.9247563  48.1752929
  39.9186246  94.8692996  48.0731619  39.2146308  93.6221125  48.5638728
  49.9230397  88.6497699  39.0209522  50.7576000  88.2178897  38.8386996
  49.7614739  88.4779713  39.9486416  49.5776289  85.1529812  40.3865861
  49.5225092  84.9874084  39.4454305  48.9522344  85.8605845  40.5428051
  34.3668804  80.3897877  54.2127283  35.0127667  79.8796831  54.7014508
  34.1585955  81.1266558  54.7870708  42.8872414  74.6537921  39.9651179
  42.8751084  75.5979761  40.1219450  43.7795836  74.4708067  39.6710641
  41.0608376  94.5775825  51.3908857  41.9635623  94.6099435  51.7075352
  40.8345746  93.6476276  51.4055193  42.8161978  93.3306812  48.0518936
  41.8657609  93.3308673  47.9383308  43.1194464  92.5839546  47.5354971
  46.7024534  71.2480698  44.2197116  45.9356929  70.6939185  44.3653799
  47.1135239  71.3202567  45.0811268  58.5514672  99.1667350  49.1164698
  59.1893082  99.0474097  48.4128039  58.4335514 100.1148194  49.1752651
  55.3604378  99.1194778  49.0526223  55.0222889  99.0035843  48.1646758
  56.2294146  98.7185943  49.0327229  51.2191194 100.9730255  45.0423114
  50.6556059 100.8820192  44.2739402  51.1043589 100.1530159  45.5225607
  55.8424161 100.2729630  55.0112429  55.8312802  99.8782428  54.1392932
  56.0044800  99.5395703  55.6046200  48.7655626 102.4681446  47.8807335
  49.5576917 102.1272271  47.4653634  49.0052276 102.5776421  48.8009488
  56.7990752 104.6401222  40.3537579  56.1478732 105.2255303  39.9671593
  57.5935115 105.1707417  40.4132616  50.7246379 101.7290359  40.7524713
  51.4977255 101.1819347  40.6137589  51.0771778 102.5934609  40.9639175
  52.5631422 103.0566742  53.9591613  52.2721288 103.9612373  53.8438279
  53.1988406 103.0983269  54.6735682  53.4887629 100.4343590  50.5492972
  54.0851201 100.2099613  49.8349935  53.5462600  99.6928336  51.1518420
  53.0612657  97.8883026  38.3843163  53.3138178  97.3664547  37.6226626
  52.1237216  97.7249171  38.4869847  58.1055940  96.8918804  46.1917906
  58.8919029  96.4738227  45.8408323  58.3694644  97.7964896  46.3599555
  58.2766017 102.3291654  40.8906563  57.6411850 102.4026281  41.6027468
  57.9463424 102.9185253  40.2125643  63.5064367  96.8294037  47.0950885
  64.2389539  96.2593254  47.3288714  62.7503723  96.4415638  47.5357391
  52.7808946  99.7911132  40.5867538  52.6645204  99.1156035  41.2548623
  52.8911206  99.3043505  39.7699691  55.1240487  99.2521279  44.2914227
  54.7598694  98.7251900  45.0027149  55.9807603  98.8619748  44.1180713
  61.0289788  90.5415611  51.5545494  60.6973112  91.4111022  51.3306709
  60.4335401  90.2251895  52.2339524  54.7645974  94.2811178  39.2875576
  54.9320376  95.1491415  39.6546047  54.5743143  94.4438460  38.3636865
  57.5221307 102.7428157  50.9541406  57.2222030 103.6453196  50.8457214
  57.1772367 102.4760340  51.8062559  50.9733789  99.1941954  46.9878111
  50.0484285  99.0618168  47.1955803  51.2218202  99.9736173  47.4848053
  60.9218451  95.2610697  48.6338844  60.0135328  95.1926106  48.3397605
  60.8706047  95.7382642  49.4620669  54.7435195  96.7368836  40.2722243
  54.6234820  97.1825887  41.1107723  54.0487783  97.0854154  39.7135781
  48.3342600  98.8375228  47.8221900  48.4634981  99.0909707  48.7361312
  47.6540051  99.4302936  47.5026555  52.5042087 109.5072478  43.9212374
  52.4266117 110.4580303  44.0000855  51.9003730 109.1618350  44.5787300
  54.9959317  96.6800343  56.5773741  54.2192651  97.2394263  56.5676606
  55.6349880  97.1657126  57.0988611  62.7880097  93.4627136  50.4116718
  62.1454478  93.7559669  49.7656512  62.2835026  93.3480056  51.2169914
  60.4420261  97.2090309  41.1002577  61.3538117  97.4417696  40.9250274
  59.9329908  97.7927353  40.5377655  53.2505689  99.4885796  56.1391708
  53.9920373 100.0270840  55.8626532  52.5442674 100.1152085  56.2963260
  58.7261029 101.6314937  54.7363869  59.1344385 101.1897347  53.9918502
  58.0038290 101.0567564  54.9898062  55.0792099  96.5687544  52.1097426
  55.9253294  96.9926957  52.2532075  55.0190736  95.9121168  52.8035989
  59.0489843 102.1916127  48.4916158  58.4198706 102.3561842  47.7892226
  58.6615505 102.6057737  49.2627122  62.9279075 103.1270565  45.8460522
  62.2430113 103.5069467  45.2957555  63.0122924 103.7365892  46.5792470
  58.2291544  94.2291912  53.7678600  57.9852476  94.9833973  53.2312876
  58.5051475  94.6077260  54.6025847  60.1830007 100.7730524  52.4455866
  60.3946902 101.4162284  51.7690247  60.1359755  99.9392841  51.9777796
  57.7856236  93.3848345  49.3492438  56.9240715  93.6829599  49.6409175
  57.8118670  93.6018744  48.4173470  54.6017805 101.9290536  45.7566243
  55.0656151 102.2078239  44.9670866  54.3374603 101.0273980  45.5739334
  51.4941886 101.4762017  48.6946007  52.0643243 101.9049285  48.0563491
  52.0849998 101.1944602  49.3930192  53.5386691  98.0513688  42.5655809
  54.2410735  98.5034732  43.0329735  53.2067320  97.4097507  43.1935702
  51.9867053  96.6425445  56.9407018  51.3565713  97.3241725  57.1742415
  51.8803141  96.5308526  55.9960156  47.2812025  96.3097241  47.8672942
  46.4911079  96.5654769  47.3913053  47.7723273  97.1245578  47.9724983
  61.2975835 103.6502480  50.6178223  62.1193278 103.2482667  50.3360905
  61.2938238 103.5470714  51.5694339  49.2326771  96.6741820  44.8256419
  48.4357934  96.7860514  45.3439914  49.0052363  97.0128472  43.9597309
  55.0632438 103.1986523  52.7738933  55.1276871 103.6606930  53.6097105
  54.3543362 102.5683888  52.9021243  45.5649728  96.5627731  50.2987933
  45.8157767  97.4474741  50.5645509  46.1009277  96.3832333  49.5263025
  69.3881828  99.9941228  46.9663194  68.6345536  99.4248626  46.8107199
  69.5229369  99.9603893  47.9133829  54.7780456 104.8654631  42.6417914
  54.6426131 105.7106166  43.0702762  55.3190268 105.0673908  41.8783848
  51.2647795  90.9446210  59.3032269  50.8714741  90.3912409  59.9779913
  52.0813936  91.2556789  59.6938786  48.2309853 102.3830069  43.2145839
  48.7434374 103.1773319  43.3651404  48.8832566 101.6856359  43.1479440
  50.0404738 105.4995825  45.2968592  50.2171366 106.4213790  45.1089576
  50.8361571 105.1854244  45.7262972  54.1815756  92.3604089  56.8952526
  54.9225470  92.9611243  56.8156988  54.4133679  91.6181727  56.3370568
  49.3257094  97.5460457  55.1730755  49.2110610  96.6445714  55.4737854
  48.4701612  97.7924154  54.8215572  56.4048932 105.4878197  56.7718256
  55.9612786 104.7014576  56.4539160  57.0666146 105.6757348  56.1062147
  51.1636053 107.0173999  51.2978934  51.7143478 106.8891062  50.5255928
  50.3247529 107.3168888  50.9473827  58.5030170 105.7680997  54.7999657
  58.4848646 106.5889878  54.3079926  59.4250090 105.6435072  55.0249798
  54.9603224 103.2825126  55.6423165  55.4931561 102.5213415  55.4122473
  54.4317306 102.9898778  56.3847320  58.1272919  88.3885192  51.1716807
  57.7837189  89.2786834  51.0955918  58.4951882  88.1986850  50.3086392
  46.1958770 100.7118723  43.9905409  47.0333992 101.1215731  43.7739117
  46.3737038  99.7718165  43.9605603  58.0923202  98.3793804  39.6789242
  57.5769826  99.1498408  39.9177630  57.8200511  97.7058940  40.3022304
  55.6770313  93.2243504  44.7374481  54.8211909  92.8350355  44.5580119
  56.0897265  93.3035465  43.8774266  57.2069460  90.7589848  49.1366040
  56.7034255  90.7219983  48.3233846  57.5000067  91.6682590  49.1962697
  53.4512346  90.8428577  48.1432222  54.3165342  90.6471386  47.7838112
  53.5189855  90.6138929  49.0701579  63.0657476 101.1326158  41.6142416
  62.2886919 100.7937318  41.1697578  63.7448957 101.1378781  40.9397381
  57.8809505  96.2520896  41.5049023  57.5759641  96.5667045  42.3559167
  58.8339947  96.3302316  41.5476356  56.3255937 102.4111119  43.1541977
  55.7977299 101.6763879  42.8415215  55.8243440 103.1885795  42.9081946
  61.3048783 100.6060139  48.2709024  60.6472458 101.2959401  48.3589152
  62.1089182 100.9956571  48.6143010  51.0574665  93.0730785  45.5148589
  51.6318417  92.8505967  44.7821782  51.6445647  93.1419480  46.2677190
  60.1154242  98.9604512  46.3212966  60.6286124  99.5934504  46.8234675
  60.7655466  98.3605708  45.9556326  51.3844252  95.1035246  39.5344474
  50.5481564  95.4409933  39.8553749  51.2449021  94.9684226  38.5971611
  53.3597332  89.9472034  44.2423658  52.7061745  89.6321051  43.6180273
  53.3177807  89.3247775  44.9683481  54.4708537 100.2291329  36.1576950
  53.5635599  99.9980583  36.3568099  54.9679569  99.4328948  36.3450932
  57.3776616 108.9388836  39.0773637  56.7038315 109.2420533  39.6858594
  57.7642438 109.7417917  38.7279094  56.5935073  96.4353968  48.5671306
  55.6757634  96.6568915  48.4092994  57.0095216  96.5100278  47.7083013
  57.3770121  97.8345383  43.6973986  58.1241940  98.3466781  43.3881108
  57.6461710  97.5129436  44.5578380  55.6496771 100.3303924  40.6800941
  54.7407990 100.0462957  40.7773410  55.6791855 100.7503003  39.8204247
  60.8816038 103.9410514  44.4492108  60.4278365 103.1001423  44.5057299
  60.2510005 104.5771912  44.7866888  59.8248958  94.8702500  45.6792776
  59.0871715  94.3579886  46.0103018  60.0775731  94.4302881  44.8676052
  59.3248977 105.7787010  45.3841926  59.6171952 106.3392067  44.6654292
  59.8347598 106.0715571  46.1395085  59.9260585  87.6478752  46.2734545
  60.2319462  86.7876115  45.9860460  60.6513190  88.2396372  46.0733539
  46.2184941  98.0509438  44.6616143  46.0209341  97.4578799  43.9367209
  45.6631605  97.7461648  45.3792082  54.1981665  97.9432545  46.7810736
  54.2530275  96.9906381  46.7053213  53.3872867  98.0991984  47.2652034
  55.3472859 101.8712668  38.0189019  54.9092288 101.1548527  37.5594657
  56.0883299 102.0988783  37.4574111  52.1374025  96.5609604  44.5401115
  51.3241890  96.8603775  44.9466307  52.6333019  96.1665293  45.2575597
  54.2882603 106.5567361  46.4735380  54.2458781 106.7828208  45.5443912
  55.2045301 106.3230736  46.6221181  57.7348236  97.0251429  53.3716009
  58.0897624  97.2522902  54.2310474  58.3820368  97.3569806  52.7493264
  63.4645973 100.1469865  44.0765338  63.3263872 100.3371461  43.1486527
  63.1082192 100.9089248  44.5333389  51.6288099  94.1327960  50.1562350
  52.2687479  93.9916719  49.4585313  50.7965630  93.8462473  49.7800952
  63.4915353 102.2146392  49.0876609  63.9251860 102.1221681  49.9359663
  64.2046934 102.1903892  48.4496625  52.4048403 103.4330390  46.2697342
  53.1989002 102.9380711  46.0679917  51.6940096 102.9048254  45.9065048
  57.2243248 105.8148486  50.6209710  57.2780270 106.3839422  51.3887426
  56.3558029 105.9850371  50.2563747  48.7131167  97.5773472  42.3457095
  47.7828755  97.5157928  42.5627057  48.8088639  97.0549425  41.5493736
  48.6316716  94.1028285  44.9335337  48.8923533  95.0173618  44.8244497
  49.4533888  93.6352728  45.0831949  50.1041641  95.5166042  52.1034161
  50.7764695  95.3083404  51.4546810  49.2771428  95.3188128  51.6639393
  64.3530903 102.2570092  51.6209495  64.5466793 103.1615903  51.8668770
  64.2531521 101.7977512  52.4548080  56.0067213  92.1427983  54.1199822
  55.3595128  92.8417933  54.0264298  56.7768229  92.5764127  54.4876070
  59.4146011 102.4076835  57.1950375  59.2631518 102.1787387  56.2780459
  59.4050691 103.3647437  57.2081720  56.1831348  99.9808748  52.1796642
  57.1123408 100.1319908  52.0065609  55.7622378 100.0692769  51.3245288
  54.9819679 104.0059412  49.9495179  54.8430765 103.6378197  50.8221117
  54.1934276 104.5207052  49.7779137  55.5767831 109.1068509  41.2920716
  55.7519587 108.6356552  42.1066339  54.8900619 109.7334275  41.5201977
  56.5324895 103.3841015  47.3384017  56.1974727 103.3441785  48.2341667
  56.0328840 102.7185731  46.8654427  50.5069138  98.7908645  52.8636598
  50.3688936  98.0588884  53.4648137  51.4174062  98.7017545  52.5820786
  59.4684086 100.7297049  37.6121077  58.8513257 100.0043878  37.5154129
  59.0000575 101.4906410  37.2688151  53.1351439  98.5028604  52.3520278
  53.8451058  97.8621797  52.3106896  53.0920747  98.7541499  53.2746459
  61.1238218 105.4395958  55.2726857  61.0650764 104.7555178  54.6057440
  61.5257736 106.1814948  54.8207483  51.8480373  95.4893822  54.1715917
  51.3117730  95.0384561  54.8237514  51.2597082  95.6239731  53.4286382
  50.1428917 112.2557872  48.0660576  50.3825515 112.8876396  48.7439595
  49.2998113 111.9045912  48.3525935  51.2582632  94.9482474  36.7342381
  50.3812098  94.8271274  36.3704628  51.7340385  94.1568552  36.4821270
  61.1255625 103.4035542  53.5040837  60.2382404 103.0661463  53.6267236
  61.6954176 102.6718573  53.7409602  42.7784772  99.7359633  46.8283888
  43.4655812  99.4221363  46.2404903  42.6232901 100.6400998  46.5551140
  47.5819494  94.6249830  51.2568912  47.4977683  94.0175500  50.5219322
  46.7602201  95.1158848  51.2578408  54.6556778 108.0636994  50.4702080
  54.5826950 108.8691966  50.9821385  54.2134172 108.2628960  49.6450101
  54.4446558 107.3008764  43.9804902  53.6614080 107.8430444  44.0743126
  55.1439303 107.8182744  44.3799143  57.7543208  93.1103394  46.6239107
  58.2511908  92.3573356  46.3040177  56.9830190  93.1467710  46.0582316
  65.6072966  98.8143759  48.2657398  65.5962842  99.6968474  47.8951332
  64.7390345  98.4615310  48.0711935  57.1155462 107.9623828  52.6260239
  57.8283434 108.5971293  52.5536140  56.6245491 108.0587694  51.8100240
  58.8372989 101.8675081  44.1977530  57.9029268 101.9876543  44.0282235
  59.0149657 100.9647548  43.9337540  54.3378177  95.2520777  46.3510792
  53.9675964  94.6991817  47.0391697  54.8337269  94.6478910  45.7985792
  62.2245540  97.7092400  44.7327564  62.6905992  98.5420392  44.6587867
  62.6753041  97.2437382  45.4372823  52.1667376 105.7118272  53.4465809
  52.8676835 106.3454755  53.5995204  51.6962491 106.0533003  52.6861449
  60.2921771 104.0536221  41.7313717  60.5681615 103.9392816  42.6407591
  59.4226270 103.6553706  41.6925890  60.1962203  90.0772987  48.7718466
  59.2825283  90.3077214  48.9400673  60.6255304  90.1611431  49.6232498
  59.9668662  98.2662879  51.2718360  59.3140112  98.5138786  50.6170813
  60.3449041  97.4527017  50.9380837  56.9275835 108.3022572  45.3746530
  57.1098230 107.4844228  45.8374282  57.7508821 108.5190264  44.9371420
  57.2618001 107.2290757  42.6361579  57.7905767 106.7183212  42.0231741
  57.5246220 106.9133288  43.5007112  56.0156235  99.0082690  57.7584397
  55.3396872  98.9076819  58.4286772  56.8383868  98.8521904  58.2220394
  47.7635094 105.2454627  50.3796912  48.3488530 104.4998314  50.5124816
  47.5659932 105.5558583  51.2633576  50.6173749 108.2805874  45.3959355
  49.9484124 108.7652002  44.9123395  50.4786619 108.5275094  46.3102733
  42.3552748  97.8160227  49.1001355  42.3936848  97.2823817  49.8938473
  41.8493041  97.2895432  48.4812332  54.7579017 110.3149617  51.9942013
  55.3097325 110.4781239  52.7591098  55.0985211 110.9054055  51.3222038
  49.7343511  92.6624767  52.5963898  49.7984837  93.5239598  52.1841295
  49.6710631  92.0498769  51.8636256  49.2095783  94.7347900  56.2436932
  49.8367822  94.3524977  56.8574456  48.3523702  94.5162102  56.6092624
  59.6089892 105.1410875  57.8490667  60.1529796 105.7540833  57.3545622
  59.0276737 105.6990453  58.3657680  45.9861326  96.5424329  42.1755287
  46.2814767  95.6335007  42.1222340  45.0849362  96.5212068  41.8536289
  57.8947405 108.2631593  48.9805695  57.7698544 107.4621333  48.4716641
  58.5526496 108.7577786  48.4919665  49.5155573  94.6180326  48.1582835
  48.7942159  95.2316293  48.0190309  50.3048829  95.1538090  48.0799481
  59.9582313 106.0640613  50.6085245  59.0112649 105.9445964  50.5363572
  60.3065086 105.1763111  50.6911507  52.3181886  91.9534752  54.4323487
  52.8416288  92.1997049  55.1949796  52.0994220  92.7854787  54.0126624
  47.7149168  94.2238427  42.2994612  47.3861874  93.3435806  42.1169718
  48.0688538  94.1686095  43.1871001  56.9628746 105.8593329  46.8089597
  56.8153709 104.9310037  46.9897167  57.7882240 105.8813420  46.3246673
  50.8290991  94.5111396  42.6670090  51.1687063  95.0397318  41.9448698
  51.2763111  94.8491803  43.4428656  60.5662868 106.6821888  47.8954470
  61.4909416 106.4764749  47.7578921  60.3978172 106.4338289  48.8043812
  53.5234431  92.8948447  52.1173158  53.1831252  92.0956260  52.5193837
  52.8173438  93.1950158  51.5449991  54.1750903  89.9797760  50.5700481
  54.9976973  89.5058238  50.4479371  54.4188967  90.7588243  51.0699167
  52.8159138  93.0086018  40.8663382  53.5367500  93.3867271  40.3627099
  52.1924442  93.7274895  40.9698360  56.9590261  93.7131167  41.8021715
  57.1753875  94.5955805  41.5010543  56.4784328  93.3217380  41.0727357
  51.6989482  96.6716880  48.3792459  51.5534063  96.9857183  49.2716741
  51.2214686  97.2901781  47.8263358  53.5585865  93.6619428  48.4273349
  53.5447434  92.7660521  48.0905647  54.2758293  93.6690092  49.0611635
  55.4111996  94.0956768  50.4726476  55.1529773  95.0173839  50.4710807
  54.8797036  93.6987203  51.1626940  60.3558184 107.2007555  43.2516562
  60.5295062 106.6353978  42.4990414  60.8487076 108.0008450  43.0696052
  46.1735144  99.2122225  51.3180120  45.6288612  99.9882033  51.4500395
  47.0514494  99.5593029  51.1599242  52.9622761  92.5433808  43.6960919
  53.0838672  91.6150455  43.8951806  52.6724803  92.5572494  42.7839234
  55.8313951  90.2288719  46.8327639  55.8535648  90.2928052  45.8779618
  56.2482010  89.3893228  47.0268145  66.2097576  99.9643978  44.8706861
  66.6528722  99.2151304  44.4725985  65.3324086  99.9554115  44.4880593
  61.3433357 106.5174320  40.3513460  62.0384262 107.1381013  40.5700775
  61.6856507 105.6669671  40.6265838  46.9601166  98.3392121  54.2110277
  46.2182902  98.4874756  54.7974908  46.6393910  98.6000386  53.3477027
  63.2424780 103.9674025  41.8800791  63.7676104 104.3061298  41.1550111
  63.1547133 103.0321041  41.6963925  54.9044829 107.8808099  54.0090667
  55.2131955 107.6357246  54.8813367  55.7020311 108.0854738  53.5209538
  54.9265441 110.0346009  46.2396044  54.4870431 109.5422387  46.9328901
  55.6773558 109.4918976  45.9988119  47.4057780 106.2257550  46.2420672
  48.2315800 105.9261321  45.8619315  47.0551832 105.4565172  46.6910461
  52.3739313 105.5784018  48.3118346  51.7519322 104.9154723  48.0120573
  53.0444180 105.6045150  47.6291993  45.6066385 104.1443876  47.2009606
  44.7698293 103.7166050  47.0193607  45.5790030 104.3376319  48.1380397
  52.4463840  94.0565806  57.9050852  52.4951996  94.9327929  57.5228621
  52.9886355  93.5143199  57.3322495  62.9318686 104.6006929  57.1851989
  62.1414230 104.5831068  56.6456488  62.6952041 105.1395223  57.9401025
  63.0516561 101.4499395  54.4984717  63.1014566 101.2849403  55.4400240
  62.9430484 100.5826654  54.1082598  51.9352820 104.1287941  41.7876806
  52.0840940 104.8123406  41.1343479  52.7419263 104.1093031  42.3026262
  60.3420324  97.4330323  55.8144024  61.2430186  97.2936788  55.5228022
  60.4168298  97.5984778  56.7542201  54.6763129  94.8097178  54.6597210
  53.8066438  95.1030744  54.3879799  54.9122609  95.3937623  55.3804474
  64.5534758 103.8696337  54.7426739  64.2619566 104.2326318  55.5790200
  63.9406889 103.1563345  54.5640071  65.7530440 101.4349217  47.2629309
  66.5877332 101.8739021  47.4266869  65.8889569 100.9587870  46.4437555
  62.8021946  98.9928952  53.2106797  63.2776068  99.1856598  52.4025648
  61.8787512  99.0488137  52.9650180  49.6905453 100.1553119  42.7937875
  49.4451495  99.2515449  42.9918085  49.8601367 100.1570269  41.8517353
  57.3802163  91.0276795  52.1762631  57.8984107  91.7637822  51.8509119
  57.0257295  91.3340788  53.0109390  48.9601100  95.8881476  40.2924036
  48.2670345  95.9625831  39.6364072  48.7152852  95.1241820  40.8145553
  57.6314757  87.4477078  47.6963527  57.9116511  86.7800267  48.3223954
  58.4165364  87.6406173  47.1838191  55.4348225 106.6236072  39.2588553
  54.8622192 107.2426259  38.8059025  56.0081019 107.1735433  39.7928475
  61.5023615  95.8694712  51.4435102  62.4541038  95.9692809  51.4647326
  61.3327066  95.0772980  51.9533187  59.5237995  92.9550295  51.6294503
  58.9287927  93.2355308  50.9340992  59.2387691  93.4444196  52.4011244
  58.6545485 106.9073222  40.3897136  59.5876158 106.8418783  40.5930011
  58.5668698 107.7429489  39.9311668  61.2833502 106.2239092  37.3501083
  61.2047133 105.8898956  38.2436841  62.1043169 106.7160860  37.3492556
  63.9811693  99.0900831  50.5577402  63.9488013  98.1516832  50.7437086
  64.5912317  99.1684868  49.8243227  55.8195024  97.9596884  36.6004606
  56.7654129  97.8303092  36.6693024  55.4409269  97.2211546  37.0774034
  64.1306181  95.8811875  50.6035685  63.6145230  95.0970331  50.4165614
  65.0146130  95.5530591  50.7682205  61.7916908  89.6252890  46.5631498
  61.5941730  89.3167979  47.4474830  62.4016614  90.3514529  46.6929428
  69.7988243 100.1516838  49.6983439  70.5291631  99.8902126  50.2591142
  69.1895188  99.4145560  49.7385507  67.8803540  98.2924701  50.2957890
  67.1536704  98.1580666  49.6874382  67.4650827  98.6001529  51.1014608
  55.7033716 102.0114630  58.0605263  56.6236726 102.1893229  58.2545309
  55.6683299 101.0670676  57.9084962  54.0037941  95.8846861  36.5359491
  53.0969396  95.5879973  36.6122205  54.2813922  95.5876679  35.6693777
  44.9215881  97.2053224  46.9858538  44.6018666  96.3518532  46.6932912
  44.3749310  97.4201802  47.7416505  48.6995789  99.9215665  50.7028044
  48.9181799 100.8532773  50.7216078  49.1121563  99.5623640  51.4882848
  55.6200007  90.4283750  42.6903732  54.8100735  90.0830835  43.0658979
  56.3084424  90.1191294  43.2791344  57.5490555  89.5061797  44.3128029
  58.1021594  89.9257251  44.9718052  57.7860641  88.5797545  44.3550985
  53.5723654  95.4948871  60.0930793  53.4720381  96.4443228  60.0242884
  53.3545196  95.1667110  59.2206863  52.7736726  92.7433796  36.6771470
  53.6355890  93.0688694  36.9367288  52.9587070  91.9565292  36.1644536
  44.7904141 100.8256136  48.9551659  44.0967613 100.4110088  48.4421614
  45.5377132 100.8676672  48.3585078  60.9269362  91.6162322  43.8206693
  60.3468031  92.2747126  43.4384746  60.6605295  90.7939667  43.4094111
  59.3772928  91.0167380  46.0228014  59.8772707  91.1283915  45.2142333
  60.0208536  90.7128433  46.6628822  53.4354924  98.9246010  58.9095855
  52.9522006  99.7246370  59.1159744  53.5215863  98.9353955  57.9563299
  46.7040884 100.7574389  46.8317674  46.6811572 100.8562077  45.8799557
  47.0141520 101.6039540  47.1534840  49.3628262 102.8150544  50.9464288
  50.3171515 102.7834487  50.8794220  49.1640785 102.3541168  51.7614514
  49.9527644 101.3851660  53.5135086  50.7720533 101.8795739  53.5369923
  50.2264452 100.4683629  53.4852654  59.7094240  93.7762413  42.8763042
  58.8220095  94.0612063  42.6583236  60.1248229  93.6156176  42.0290319
  63.0608776  93.8008934  46.5917381  63.8369166  94.2905386  46.8641998
  62.3356910  94.2266988  47.0489250  65.4981335  94.5136553  47.6491322
  66.0925826  94.2732289  46.9384630  65.5707919  93.7943684  48.2764858
  47.7178491 108.3570164  47.9634486  47.5832959 107.5970565  47.3972484
  47.3010553 109.0811064  47.4963275  58.8537454 103.5407087  36.9711062
  59.5573304 103.7457090  37.5868717  58.1300102 104.1083849  37.2360145
  59.6835264  99.2916949  43.0913332  59.6270465  99.7485500  42.2520964
  60.2363606  98.5307633  42.9136175  63.4940070  95.0806681  43.9163451
  63.2377004  94.6803316  44.7471659  62.8692938  95.7950475  43.7913590
  67.8052408  97.8202754  46.4234743  67.2451966  97.8895943  47.1966305
  67.1995911  97.6443738  45.7034239  50.8747616 109.2539481  48.1752929
  50.7580001 110.1984913  48.0731619  50.0540063 108.9513043  48.5638728
  60.7624151 103.9789617  39.0209522  61.5969755 103.5470815  38.8386996
  60.6008494 103.8071630  39.9486416  60.4170043 100.4821730  40.3865861
  60.3618847 100.3166001  39.4454305  59.7916098 101.1897763  40.5428051
  45.2062558  95.7189794  54.2127283  45.8521422  95.2088748  54.7014508
  44.9979709  96.4558476  54.7870708  57.7315950 102.7870642  59.7119424
  58.6007110 102.9611294  59.3506059  57.2522702 103.6065059  59.5895153
  53.7266169  89.9829839  39.9651179  53.7144838  90.9271679  40.1219450
  54.6189591  89.7999984  39.6710641  51.9002131 109.9067743  51.3908857
  52.8029377 109.9391353  51.7075352  51.6739501 108.9768194  51.4055193
  53.6555733 108.6598729  48.0518936  52.7051364 108.6600591  47.9383308
  53.9588219 107.9131464  47.5354971  57.5418288  86.5772616  44.2197116
  56.7750684  86.0231102  44.3653799  57.9528993  86.6494484  45.0811268
  49.5460049  92.8657411  58.3102297  50.4091511  92.5094216  58.5205622
  48.9725460  92.5271306  58.9977702  69.3908426 114.4959268  49.1164698
  70.0286836 114.3766015  48.4128039  69.2729269 115.4440112  49.1752651
  66.1998132 114.4486696  49.0526223  65.8616644 114.3327761  48.1646758
  67.0687901 114.0477861  49.0327229  62.0584948 116.3022172  45.0423114
  61.4949813 116.2112109  44.2739402  61.9437343 115.4822077  45.5225607
  66.6817915 115.6021548  55.0112429  66.6706556 115.2074346  54.1392932
  66.8438555 114.8687620  55.6046200  59.6049380 117.7973364  47.8807335
  60.3970672 117.4564189  47.4653634  59.8446030 117.9068339  48.8009488
  67.6384507 119.9693140  40.3537579  66.9872487 120.5547220  39.9671593
  68.4328870 120.4999335  40.4132616  61.5640134 117.0582277  40.7524713
  62.3371010 116.5111264  40.6137589  61.9165533 117.9226526  40.9639175
  63.4025177 118.3858659  53.9591613  63.1115042 119.2904290  53.8438279
  64.0382161 118.4275187  54.6735682  64.3281383 115.7635508  50.5492972
  64.9244956 115.5391530  49.8349935  64.3856355 115.0220253  51.1518420
  63.9006412 113.2174943  38.3843163  64.1531932 112.6956465  37.6226626
  62.9630971 113.0541089  38.4869847  68.9449695 112.2210722  46.1917906
  69.7312784 111.8030145  45.8408323  69.2088399 113.1256814  46.3599555
  69.1159772 117.6583572  40.8906563  68.4805605 117.7318198  41.6027468
  68.7857178 118.2477171  40.2125643  74.3458122 112.1585955  47.0950885
  75.0783294 111.5885172  47.3288714  73.5897477 111.7707555  47.5357391
  63.6202701 115.1203049  40.5867538  63.5038959 114.4447953  41.2548623
  63.7304960 114.6335423  39.7699691  65.9634241 114.5813196  44.2914227
  65.5992449 114.0543817  45.0027149  66.8201357 114.1911665  44.1180713
  71.8683542 105.8707529  51.5545494  71.5366867 106.7402940  51.3306709
  71.2729155 105.5543813  52.2339524  65.6039728 109.6103096  39.2875576
  65.7714131 110.4783332  39.6546047  65.4136897 109.7730378  38.3636865
  68.3615062 118.0720075  50.9541406  68.0615785 118.9745114  50.8457214
  68.0166121 117.8052258  51.8062559  61.8127543 114.5233872  46.9878111
  60.8878040 114.3910086  47.1955803  62.0611956 115.3028091  47.4848053
  71.7612205 110.5902615  48.6338844  70.8529083 110.5218024  48.3397605
  71.7099801 111.0674560  49.4620669  65.5828949 112.0660754  40.2722243
  65.4628574 112.5117804  41.1107723  64.8881538 112.4146071  39.7135781
  59.1736354 114.1667145  47.8221900  59.3028735 114.4201624  48.7361312
  58.4933805 114.7594853  47.5026555  63.3435841 124.8364395  43.9212374
  63.2659871 125.7872220  44.0000855  62.7397485 124.4910268  44.5787300
  65.8353071 112.0092261  56.5773741  65.0586405 112.5686181  56.5676606
  66.4743634 112.4949044  57.0988611  73.6273852 108.7919054  50.4116718
  72.9848232 109.0851587  49.7656512  73.1228780 108.6771974  51.2169914
  71.2814015 112.5382227  41.1002577  72.1931872 112.7709613  40.9250274
  70.7723663 113.1219271  40.5377655  64.0899443 114.8177714  56.1391708
  64.8314128 115.3562758  55.8626532  63.3836429 115.4444003  56.2963260
  69.5654783 116.9606855  54.7363869  69.9738139 116.5189265  53.9918502
  68.8432045 116.3859482  54.9898062  65.9185853 111.8979461  52.1097426
  66.7647048 112.3218875  52.2532075  65.8584491 111.2413086  52.8035989
  69.8883598 117.5208045  48.4916158  69.2592460 117.6853759  47.7892226
  69.5009260 117.9349655  49.2627122  73.7672830 118.4562483  45.8460522
  73.0823868 118.8361384  45.2957555  73.8516679 119.0657810  46.5792470
  69.0685298 109.5583830  53.7678600  68.8246230 110.3125890  53.2312876
  69.3445229 109.9369177  54.6025847  71.0223761 116.1022442  52.4455866
  71.2340656 116.7454202  51.7690247  70.9753510 115.2684759  51.9777796
  68.6249990 108.7140263  49.3492438  67.7634469 109.0121516  49.6409175
  68.6512425 108.9310662  48.4173470  65.4411560 117.2582453  45.7566243
  65.9049905 117.5370156  44.9670866  65.1768358 116.3565898  45.5739334
  62.3335641 116.8053935  48.6946007  62.9036998 117.2341203  48.0563491
  62.9243753 116.5236519  49.3930192  64.3780446 113.3805606  42.5655809
  65.0804489 113.8326649  43.0329735  64.0461074 112.7389424  43.1935702
  62.8260807 111.9717362  56.9407018  62.1959468 112.6533643  57.1742415
  62.7196895 111.8600444  55.9960156  58.1205780 111.6389158  47.8672942
  57.3304834 111.8946687  47.3913053  58.6117027 112.4537496  47.9724983
  72.1369589 118.9794397  50.6178223  72.9587033 118.5774585  50.3360905
  72.1331992 118.8762632  51.5694339  60.0720525 112.0033738  44.8256419
  59.2751688 112.1152432  45.3439914  59.8446117 112.3420390  43.9597309
  65.9026193 118.5278441  52.7738933  65.9670625 118.9898848  53.6097105
  65.1937117 117.8975806  52.9021243  56.4043483 111.8919649  50.2987933
  56.6551521 112.7766659  50.5645509  56.9403031 111.7124250  49.5263025
  80.2275582 115.3233146  46.9663194  79.4739291 114.7540544  46.8107199
  80.3623123 115.2895810  47.9133829  65.6174210 120.1946548  42.6417914
  65.4819885 121.0398084  43.0702762  66.1584023 120.3965826  41.8783848
  62.1041550 106.2738128  59.3032269  61.7108496 105.7204327  59.9779913
  62.9207690 106.5848707  59.6938786  59.0703608 117.7121986  43.2145839
  59.5828128 118.5065237  43.3651404  59.7226321 117.0148277  43.1479440
  60.8798492 120.8287743  45.2968592  61.0565121 121.7505707  45.1089576
  61.6755326 120.5146162  45.7262972  65.0209511 107.6896007  56.8952526
  65.7619224 108.2903160  56.8156988  65.2527434 106.9473645  56.3370568
  60.1650849 112.8752374  55.1730755  60.0504364 111.9737632  55.4737854
  59.3095367 113.1216071  54.8215572  67.2442687 120.8170115  56.7718256
  66.8006541 120.0306493  56.4539160  67.9059900 121.0049265  56.1062147
  62.0029808 122.3465916  51.2978934  62.5537233 122.2182980  50.5255928
  61.1641284 122.6460805  50.9473827  69.3423925 121.0972915  54.7999657
  69.3242400 121.9181796  54.3079926  70.2643845 120.9726990  55.0249798
  65.7996979 118.6117044  55.6423165  66.3325316 117.8505332  55.4122473
  65.2711060 118.3190696  56.3847320  68.9666674 103.7177110  51.1716807
  68.6230943 104.6078752  51.0955918  69.3345636 103.5278768  50.3086392
  57.0352524 116.0410641  43.9905409  57.8727746 116.4507649  43.7739117
  57.2130792 115.1010083  43.9605603  68.9316957 113.7085721  39.6789242
  68.4163580 114.4790326  39.9177630  68.6594265 113.0350857  40.3022304
  66.5164068 108.5535422  44.7374481  65.6605664 108.1642272  44.5580119
  66.9291019 108.6327383  43.8774266  68.0463214 106.0881765  49.1366040
  67.5428010 106.0511900  48.3233846  68.3393821 106.9974508  49.1962697
  64.2906100 106.1720495  48.1432222  65.1559097 105.9763304  47.7838112
  64.3583609 105.9430847  49.0701579  73.9051231 116.4618076  41.6142416
  73.1280673 116.1229235  41.1697578  74.5842712 116.4670699  40.9397381
  68.7203260 111.5812813  41.5049023  68.4153395 111.8958962  42.3559167
  69.6733702 111.6594233  41.5476356  67.1649692 117.7403037  43.1541977
  66.6371053 117.0055796  42.8415215  66.6637194 118.5177713  42.9081946
  72.1442538 115.9352057  48.2709024  71.4866212 116.6251319  48.3589152
  72.9482937 116.3248489  48.6143010  61.8968419 108.4022703  45.5148589
  62.4712171 108.1797884  44.7821782  62.4839402 108.4711397  46.2677190
  70.9547996 114.2896430  46.3212966  71.4679878 114.9226422  46.8234675
  71.6049220 113.6897625  45.9556326  62.2238006 110.4327164  39.5344474
  61.3875319 110.7701850  39.8553749  62.0842776 110.2976144  38.5971611
  64.1991087 105.2763952  44.2423658  63.5455499 104.9612969  43.6180273
  64.1571561 104.6539692  44.9683481  65.3102292 115.5583247  36.1576950
  64.4029354 115.3272500  36.3568099  65.8073324 114.7620866  36.3450932
  68.2170371 124.2680754  39.0773637  67.5432069 124.5712451  39.6858594
  68.6036193 125.0709834  38.7279094  67.4328827 111.7645885  48.5671306
  66.5151389 111.9860832  48.4092994  67.8488971 111.8392196  47.7083013
  68.2163875 113.1637301  43.6973986  68.9635694 113.6758698  43.3881108
  68.4855465 112.8421354  44.5578380  66.4890525 115.6595842  40.6800941
  65.5801744 115.3754875  40.7773410  66.5185609 116.0794920  39.8204247
  71.7209793 119.2702431  44.4492108  71.2672120 118.4293341  44.5057299
  71.0903759 119.9063830  44.7866888  70.6642712 110.1994417  45.6792776
  69.9265469 109.6871804  46.0103018  70.9169486 109.7594799  44.8676052
  70.1642732 121.1078928  45.3841926  70.4565706 121.6683985  44.6654292
  70.6741352 121.4007489  46.1395085  70.7654340 102.9770669  46.2734545
  71.0713216 102.1168033  45.9860460  71.4906944 103.5688289  46.0733539
  57.0578696 113.3801356  44.6616143  56.8603095 112.7870717  43.9367209
  56.5025360 113.0753566  45.3792082  65.0375419 113.2724462  46.7810736
  65.0924029 112.3198299  46.7053213  64.2266621 113.4283901  47.2652034
  66.1866613 117.2004585  38.0189019  65.7486043 116.4840444  37.5594657
  66.9277054 117.4280700  37.4574111  62.9767779 111.8901522  44.5401115
  62.1635645 112.1895693  44.9466307  63.4726773 111.4957211  45.2575597
  65.1276357 121.8859279  46.4735380  65.0852536 122.1120125  45.5443912
  66.0439056 121.6522654  46.6221181  68.5741991 112.3543347  53.3716009
  68.9291379 112.5814820  54.2310474  69.2214122 112.6861723  52.7493264
  74.3039728 115.4761782  44.0765338  74.1657626 115.6663378  43.1486527
  73.9475947 116.2381165  44.5333389  62.4681854 109.4619878  50.1562350
  63.1081233 109.3208637  49.4585313  61.6359384 109.1754391  49.7800952
  74.3309107 117.5438309  49.0876609  74.7645614 117.4513599  49.9359663
  75.0440688 117.5195810  48.4496625  63.2442158 118.7622308  46.2697342
  64.0382756 118.2672628  46.0679917  62.5333850 118.2340171  45.9065048
  68.0637002 121.1440404  50.6209710  68.1174025 121.7131340  51.3887426
  67.1951784 121.3142289  50.2563747  59.5524921 112.9065390  42.3457095
  58.6222509 112.8449845  42.5627057  59.6482393 112.3841343  41.5493736
  59.4710470 109.4320203  44.9335337  59.7317288 110.3465536  44.8244497
  60.2927643 108.9644645  45.0831949  60.9435396 110.8457960  52.1034161
  61.6158449 110.6375322  51.4546810  60.1165182 110.6480046  51.6639393
  75.1924657 117.5862010  51.6209495  75.3860547 118.4907821  51.8668770
  75.0925275 117.1269429  52.4548080  66.8460968 107.4719901  54.1199822
  66.1988883 108.1709850  54.0264298  67.6161983 107.9056045  54.4876070
  70.2539766 117.7368753  57.1950375  70.1025272 117.5079305  56.2780459
  70.2444445 118.6939354  57.2081720  67.0225102 115.3100666  52.1796642
  67.9517162 115.4611825  52.0065609  66.6016132 115.3984686  51.3245288
  65.8213434 119.3351330  49.9495179  65.6824520 118.9670114  50.8221117
  65.0328030 119.8498969  49.7779137  66.4161586 124.4360427  41.2920716
  66.5913342 123.9648470  42.1066339  65.7294374 125.0626193  41.5201977
  67.3718649 118.7132933  47.3384017  67.0368482 118.6733703  48.2341667
  66.8722595 118.0477649  46.8654427  61.3462893 114.1200563  52.8636598
  61.2082691 113.3880802  53.4648137  62.2567816 114.0309463  52.5820786
  70.3077841 116.0588967  37.6121077  69.6907011 115.3335795  37.5154129
  69.8394329 116.8198327  37.2688151  63.9745194 113.8320522  52.3520278
  64.6844812 113.1913714  52.3106896  63.9314502 114.0833417  53.2746459
  71.9631972 120.7687875  55.2726857  71.9044518 120.0847096  54.6057440
  72.3651491 121.5106865  54.8207483  62.6874128 110.8185740  54.1715917
  62.1511485 110.3676478  54.8237514  62.0990836 110.9531649  53.4286382
  62.0976387 110.2774391  36.7342381  61.2205853 110.1563192  36.3704628
  62.5734140 109.4860470  36.4821270  71.9649380 118.7327459  53.5040837
  71.0776158 118.3953381  53.6267236  72.5347931 118.0010491  53.7409602
  53.6178527 115.0651551  46.8283888  54.3049567 114.7513281  46.2404903
  53.4626655 115.9692916  46.5551140  58.4213249 109.9541748  51.2568912
  58.3371438 109.3467417  50.5219322  57.5995955 110.4450766  51.2578408
  65.4950533 123.3928912  50.4702080  65.4220704 124.1983883  50.9821385
  65.0527926 123.5920878  49.6450101  65.2840313 122.6300682  43.9804902
  64.5007834 123.1722362  44.0743126  65.9833058 123.1474661  44.3799143
  68.5936963 108.4395311  46.6239107  69.0905662 107.6865274  46.3040177
  67.8223944 108.4759628  46.0582316  76.4466720 114.1435677  48.2657398
  76.4356596 115.0260392  47.8951332  75.5784100 113.7907228  48.0711935
  67.9549216 123.2915746  52.6260239  68.6677189 123.9263211  52.5536140
  67.4639245 123.3879612  51.8100240  69.6766743 117.1966998  44.1977530
  68.7423022 117.3168461  44.0282235  69.8543412 116.2939465  43.9337540
  65.1771931 110.5812694  46.3510792  64.8069719 110.0283735  47.0391697
  65.6731024 109.9770828  45.7985792  73.0639295 113.0384318  44.7327564
  73.5299747 113.8712309  44.6587867  73.5146795 112.5729299  45.4372823
  63.0061130 121.0410189  53.4465809  63.7070590 121.6746672  53.5995204
  62.5356245 121.3824921  52.6861449  71.1315526 119.3828139  41.7313717
  71.4075370 119.2684734  42.6407591  70.2620025 118.9845624  41.6925890
  71.0355957 105.4064905  48.7718466  70.1219037 105.6369132  48.9400673
  71.4649059 105.4903349  49.6232498  70.8062416 113.5954797  51.2718360
  70.1533866 113.8430704  50.6170813  71.1842796 112.7818935  50.9380837
  67.7669590 123.6314490  45.3746530  67.9491984 122.8136146  45.8374282
  68.5902576 123.8482182  44.9371420  68.1011755 122.5582675  42.6361579
  68.6299522 122.0475130  42.0231741  68.3639975 122.2425205  43.5007112
  66.8549989 114.3374608  57.7584397  66.1790626 114.2368737  58.4286772
  67.6777623 114.1813821  58.2220394  58.6028848 120.5746544  50.3796912
  59.1882285 119.8290232  50.5124816  58.4053687 120.8850501  51.2633576
  61.4567503 123.6097792  45.3959355  60.7877879 124.0943919  44.9123395
  61.3180373 123.8567012  46.3102733  53.1946503 113.1452144  49.1001355
  53.2330602 112.6115735  49.8938473  52.6886796 112.6187350  48.4812332
  65.5972772 125.6441535  51.9942013  66.1491080 125.8073157  52.7591098
  65.9378965 126.2345973  51.3222038  60.5737265 107.9916685  52.5963898
  60.6378592 108.8531516  52.1841295  60.5104385 107.3790687  51.8636256
  60.0489538 110.0639818  56.2436932  60.6761576 109.6816895  56.8574456
  59.1917457 109.8454019  56.6092624  70.4483646 120.4702793  57.8490667
  70.9923550 121.0832751  57.3545622  69.8670491 121.0282371  58.3657680
  56.8255080 111.8716247  42.1755287  57.1208521 110.9626925  42.1222340
  55.9243116 111.8503986  41.8536289  68.7341159 123.5923511  48.9805695
  68.6092299 122.7913251  48.4716641  69.3920250 124.0869704  48.4919665
  60.3549327 109.9472243  48.1582835  59.6335913 110.5608211  48.0190309
  61.1442583 110.4830008  48.0799481  70.7976068 121.3932531  50.6085245
  69.8506403 121.2737882  50.5363572  71.1458841 120.5055029  50.6911507
  63.1575641 107.2826670  54.4323487  63.6810043 107.5288966  55.1949796
  62.9387974 108.1146705  54.0126624  58.5542922 109.5530344  42.2994612
  58.2255628 108.6727723  42.1169718  58.9082293 109.4978013  43.1871001
  67.8022501 121.1885247  46.8089597  67.6547463 120.2601954  46.9897167
  68.6275994 121.2105338  46.3246673  61.6684745 109.8403314  42.6670090
  62.0080818 110.3689235  41.9448698  62.1156866 110.1783720  43.4428656
  71.4056623 122.0113806  47.8954470  72.3303170 121.8056667  47.7578921
  71.2371926 121.7630207  48.8043812  64.3628186 108.2240365  52.1173158
  64.0225006 107.4248178  52.5193837  63.6567192 108.5242076  51.5449991
  65.0144658 105.3089677  50.5700481  65.8370727 104.8350155  50.4479371
  65.2582721 106.0880161  51.0699167  63.6552892 108.3377936  40.8663382
  64.3761255 108.7159188  40.3627099  63.0318196 109.0566812  40.9698360
  67.7984015 109.0423085  41.8021715  68.0147630 109.9247723  41.5010543
  67.3178082 108.6509298  41.0727357  62.5383237 112.0008798  48.3792459
  62.3927817 112.3149101  49.2716741  62.0608440 112.6193698  47.8263358
  64.3979619 108.9911346  48.4273349  64.3841188 108.0952439  48.0905647
  65.1152048 108.9982010  49.0611635  66.2505750 109.4248686  50.4726476
  65.9923528 110.3465757  50.4710807  65.7190791 109.0279121  51.1626940
  71.1951939 122.5299473  43.2516562  71.3688816 121.9645896  42.4990414
  71.6880830 123.3300368  43.0696052  57.0128899 114.5414142  51.3180120
  56.4682367 115.3173950  51.4500395  57.8908249 114.8884947  51.1599242
  63.8016515 107.8725726  43.6960919  63.9232427 106.9442372  43.8951806
  63.5118558 107.8864412  42.7839234  66.6707706 105.5580637  46.8327639
  66.6929403 105.6219970  45.8779618  67.0875765 104.7185145  47.0268145
  77.0491330 115.2935896  44.8706861  77.4922476 114.5443221  44.4725985
  76.1717840 115.2846032  44.4880593  72.1827111 121.8466238  40.3513460
  72.8778016 122.4672930  40.5700775  72.5250262 120.9961589  40.6265838
  57.7994921 113.6684039  54.2110277  57.0576657 113.8166674  54.7974908
  57.4787665 113.9292304  53.3477027  74.0818535 119.2965943  41.8800791
  74.6069859 119.6353216  41.1550111  73.9940887 118.3612958  41.6963925
  65.7438583 123.2100017  54.0090667  66.0525710 122.9649164  54.8813367
  66.5414065 123.4146655  53.5209538  65.7659195 125.3637926  46.2396044
  65.3264186 124.8714305  46.9328901  66.5167312 124.8210894  45.9988119
  58.2451534 121.5549467  46.2420672  59.0709554 121.2553239  45.8619315
  57.8945586 120.7857090  46.6910461  63.2133067 120.9075935  48.3118346
  62.5913077 120.2446641  48.0120573  63.8837934 120.9337067  47.6291993
  56.4460139 119.4735794  47.2009606  55.6092048 119.0457968  47.0193607
  56.4183785 119.6668237  48.1380397  63.2857595 109.3857724  57.9050852
  63.3345750 110.2619846  57.5228621  63.8280109 108.8435117  57.3322495
  73.7712441 119.9298847  57.1851989  72.9807984 119.9122986  56.6456488
  73.5345795 120.4687140  57.9401025  73.8910316 116.7791313  54.4984717
  73.9408321 116.6141321  55.4400240  73.7824239 115.9118572  54.1082598
  62.7746574 119.4579859  41.7876806  62.9234695 120.1415323  41.1343479
  63.5813018 119.4384949  42.3026262  71.1814078 112.7622241  55.8144024
  72.0823941 112.6228706  55.5228022  71.2562053 112.9276696  56.7542201
  65.5156883 110.1389096  54.6597210  64.6460193 110.4322662  54.3879799
  65.7516364 110.7229541  55.3804474  75.3928512 119.1988255  54.7426739
  75.1013321 119.5618235  55.5790200  74.7800644 118.4855263  54.5640071
  76.5924195 116.7641134  47.2629309  77.4271086 117.2030938  47.4266869
  76.7283324 116.2879788  46.4437555  73.6415701 114.3220869  53.2106797
  74.1169822 114.5148516  52.4025648  72.7181266 114.3780055  52.9650180
  60.5299207 115.4845036  42.7937875  60.2845249 114.5807366  42.9918085
  60.6995122 115.4862187  41.8517353  68.2195917 106.3568713  52.1762631
  68.7377861 107.0929740  51.8509119  67.8651050 106.6632706  53.0109390
  59.7994855 111.2173394  40.2924036  59.1064100 111.2917749  39.6364072
  59.5546607 110.4533738  40.8145553  68.4708511 102.7768995  47.6963527
  68.7510265 102.1092184  48.3223954  69.2559118 102.9698091  47.1838191
  66.2741980 121.9527989  39.2588553  65.7015947 122.5718176  38.8059025
  66.8474774 122.5027351  39.7928475  72.3417370 111.1986629  51.4435102
  73.2934793 111.2984727  51.4647326  72.1720820 110.4064898  51.9533187
  70.3631749 108.2842213  51.6294503  69.7681681 108.5647225  50.9340992
  70.0781446 108.7736114  52.4011244  69.4939240 122.2365139  40.3897136
  70.4269913 122.1710701  40.5930011  69.4062452 123.0721406  39.9311668
  72.1227256 121.5531010  37.3501083  72.0440888 121.2190873  38.2436841
  72.9436923 122.0452778  37.3492556  74.8205447 114.4192749  50.5577402
  74.7881768 113.4808750  50.7437086  75.4306071 114.4976786  49.8243227
  66.6588778 113.2888802  36.6004606  67.6047883 113.1595010  36.6693024
  66.2803023 112.5503464  37.0774034  74.9699936 111.2103792  50.6035685
  74.4538985 110.4262249  50.4165614  75.8539884 110.8822509  50.7682205
  72.6310663 104.9544808  46.5631498  72.4335484 104.6459896  47.4474830
  73.2410368 105.6806447  46.6929428  80.6381997 115.4808756  49.6983439
  81.3685386 115.2194044  50.2591142  80.0288943 114.7437478  49.7385507
  78.7197294 113.6216618  50.2957890  77.9930458 113.4872583  49.6874382
  78.3044581 113.9293447  51.1014608  66.5427471 117.3406548  58.0605263
  67.4630480 117.5185147  58.2545309  66.5077054 116.3962594  57.9084962
  64.8431696 111.2138778  36.5359491  63.9363151 110.9171891  36.6122205
  65.1207677 110.9168596  35.6693777  55.7609636 112.5345142  46.9858538
  55.4412420 111.6810450  46.6932912  55.2143064 112.7493720  47.7416505
  59.5389543 115.2507583  50.7028044  59.7575553 116.1824691  50.7216078
  59.9515317 114.8915557  51.4882848  66.4593761 105.7575668  42.6903732
  65.6494490 105.4122753  43.0658979  67.1478178 105.4483212  43.2791344
  68.3884310 104.8353715  44.3128029  68.9415348 105.2549168  44.9718052
  68.6254396 103.9089463  44.3550985  64.4117409 110.8240789  60.0930793
  64.3114136 111.7735146  60.0242884  64.1938951 110.4959027  59.2206863
  63.6130480 108.0725714  36.6771470  64.4749644 108.3980612  36.9367288
  63.7980824 107.2857210  36.1644536  55.6297896 116.1548053  48.9551659
  54.9361367 115.7402006  48.4421614  56.3770887 116.1968590  48.3585078
  71.7663117 106.9454240  43.8206693  71.1861786 107.6039044  43.4384746
  71.4999049 106.1231585  43.4094111  70.2166683 106.3459298  46.0228014
  70.7166461 106.4575832  45.2142333  70.8602291 106.0420351  46.6628822
  64.2748679 114.2537927  58.9095855  63.7915761 115.0538288  59.1159744
  64.3609618 114.2645872  57.9563299  57.5434638 116.0866307  46.8317674
  57.5205327 116.1853994  45.8799557  57.8535275 116.9331458  47.1534840
  60.2022016 118.1442462  50.9464288  61.1565270 118.1126404  50.8794220
  60.0034540 117.6833086  51.7614514  60.7921398 116.7143578  53.5135086
  61.6114287 117.2087657  53.5369923  61.0658206 115.7975546  53.4852654
  70.5487995 109.1054330  42.8763042  69.6613850 109.3903981  42.6583236
  70.9641984 108.9448094  42.0290319  73.9002531 109.1300851  46.5917381
  74.6762921 109.6197304  46.8641998  73.1750665 109.5558906  47.0489250
  76.3375089 109.8428471  47.6491322  76.9319580 109.6024207  46.9384630
  76.4101673 109.1235601  48.2764858  69.6931208 118.8699005  36.9711062
  70.3967058 119.0749008  37.5868717  68.9693857 119.4375767  37.2360145
  70.5229018 114.6208866  43.0913332  70.4664220 115.0777418  42.2520964
  71.0757361 113.8599551  42.9136175  74.3333824 110.4098598  43.9163451
  74.0770759 110.0095234  44.7471659  73.7086692 111.1242392  43.7913590
  78.6446162 113.1494672  46.4234743  78.0845720 113.2187861  47.1966305
  78.0389665 112.9735656  45.7034239  71.6017905 119.3081534  39.0209522
  72.4363509 118.8762733  38.8386996  71.4402248 119.1363548  39.9486416
  71.2563798 115.8113648  40.3865861  71.2012601 115.6457919  39.4454305
  70.6309853 116.5189681  40.5428051  56.0456313 111.0481712  54.2127283
  56.6915176 110.5380666  54.7014508  55.8373464 111.7850394  54.7870708
  68.5709705 118.1162560  59.7119424  69.4400864 118.2903212  59.3506059
  68.0916456 118.9356976  59.5895153  64.5659923 105.3121757  39.9651179
  64.5538593 106.2563597  40.1219450  65.4583345 105.1291902  39.6710641
  62.7395885 125.2359661  51.3908857  63.6423132 125.2683271  51.7075352
  62.5133255 124.3060111  51.4055193  64.4949487 123.9890647  48.0518936
  63.5445118 123.9892509  47.9383308  64.7981973 123.2423382  47.5354971
  68.3812043 101.9064533  44.2197116  67.6144438 101.3523020  44.3653799
  68.7922748 101.9786402  45.0811268  60.3853804 108.1949329  58.3102297
  61.2485265 107.8386134  58.5205622  59.8119214 107.8563224  58.9977702
  80.2302181 129.8251185  49.1164698  80.8680591 129.7057933  48.4128039
  80.1123023 130.7732029  49.1752651  77.0391887 129.7778614  49.0526223
  76.7010398 129.6619678  48.1646758  77.9081655 129.3769779  49.0327229
  77.5211670 130.9313465  55.0112429  77.5100311 130.5366264  54.1392932
  77.6832309 130.1979538  55.6046200  74.7400166 128.5466861  38.3843163
  74.9925687 128.0248382  37.6226626  73.8024725 128.3833006  38.4869847
  79.7843449 127.5502639  46.1917906  80.5706538 127.1322062  45.8408323
  80.0482153 128.4548731  46.3599555  85.1851876 127.4877873  47.0950885
  85.9177048 126.9177089  47.3288714  84.4291232 127.0999473  47.5357391
  76.8027996 129.9105114  44.2914227  76.4386203 129.3835735  45.0027149
  77.6595112 129.5203583  44.1180713  82.7077297 121.1999447  51.5545494
  82.3760621 122.0694858  51.3306709  82.1122910 120.8835731  52.2339524
  76.4433483 124.9395014  39.2875576  76.6107885 125.8075250  39.6546047
  76.2530652 125.1022295  38.3636865  82.6005960 125.9194533  48.6338844
  81.6922837 125.8509941  48.3397605  82.5493556 126.3966478  49.4620669
  76.4222704 127.3952671  40.2722243  76.3022329 127.8409722  41.1107723
  75.7275292 127.7437989  39.7135781  76.6746826 127.3384178  56.5773741
  75.8980160 127.8978099  56.5676606  77.3137389 127.8240961  57.0988611
  84.4667606 124.1210971  50.4116718  83.8241987 124.4143504  49.7656512
  83.9622535 124.0063892  51.2169914  82.1207770 127.8674144  41.1002577
  83.0325626 128.1001531  40.9250274  81.6117417 128.4511189  40.5377655
  76.7579608 127.2271379  52.1097426  77.6040803 127.6510793  52.2532075
  76.6978245 126.5705003  52.8035989  79.9079053 124.8875747  53.7678600
  79.6639985 125.6417808  53.2312876  80.1838983 125.2661095  54.6025847
  79.4643745 124.0432180  49.3492438  78.6028224 124.3413434  49.6409175
  79.4906179 124.2602579  48.4173470  75.2174200 128.7097523  42.5655809
  75.9198244 129.1618567  43.0329735  74.8854829 128.0681342  43.1935702
  73.6654562 127.3009280  56.9407018  73.0353222 127.9825561  57.1742415
  73.5590650 127.1892362  55.9960156  68.9599534 126.9681076  47.8672942
  68.1698588 127.2238604  47.3913053  69.4510782 127.7829414  47.9724983
  70.9114280 127.3325655  44.8256419  70.1145443 127.4444349  45.3439914
  70.6839872 127.6712307  43.9597309  72.9435304 121.6030046  59.3032269
  72.5502250 121.0496244  59.9779913  73.7601445 121.9140624  59.6938786
  75.8603265 123.0187925  56.8952526  76.6012979 123.6195078  56.8156988
  76.0921188 122.2765563  56.3370568  79.8060428 119.0469028  51.1716807
  79.4624698 119.9370669  51.0955918  80.1739391 118.8570685  50.3086392
  79.7710711 129.0377639  39.6789242  79.2557335 129.8082244  39.9177630
  79.4988020 128.3642775  40.3022304  77.3557822 123.8827340  44.7374481
  76.4999418 123.4934190  44.5580119  77.7684774 123.9619300  43.8774266
  78.8856969 121.4173683  49.1366040  78.3821764 121.3803818  48.3233846
  79.1787576 122.3266426  49.1962697  75.1299855 121.5012413  48.1432222
  75.9952851 121.3055221  47.7838112  75.1977364 121.2722764  49.0701579
  79.5597014 126.9104731  41.5049023  79.2547150 127.2250880  42.3559167
  80.5127456 126.9886151  41.5476356  72.7362174 123.7314621  45.5148589
  73.3105926 123.5089802  44.7821782  73.3233156 123.8003315  46.2677190
  81.7941751 129.6188347  46.3212966  82.3073633 130.2518339  46.8234675
  82.4442975 129.0189543  45.9556326  73.0631761 125.7619082  39.5344474
  72.2269073 126.0993768  39.8553749  72.9236530 125.6268061  38.5971611
  75.0384841 120.6055869  44.2423658  74.3849254 120.2904887  43.6180273
  74.9965316 119.9831610  44.9683481  78.2722582 127.0937803  48.5671306
  77.3545143 127.3152750  48.4092994  78.6882725 127.1684114  47.7083013
  79.0557630 128.4929219  43.6973986  79.8029448 129.0050616  43.3881108
  79.3249219 128.1713271  44.5578380  81.5036467 125.5286335  45.6792776
  80.7659223 125.0163721  46.0103018  81.7563240 125.0886717  44.8676052
  81.6048094 118.3062587  46.2734545  81.9106971 117.4459950  45.9860460
  82.3300699 118.8980207  46.0733539  75.8769174 128.6016380  46.7810736
  75.9317784 127.6490216  46.7053213  75.0660376 128.7575819  47.2652034
  73.8161534 127.2193440  44.5401115  73.0029399 127.5187610  44.9466307
  74.3120528 126.8249129  45.2575597  79.4135745 127.6835264  53.3716009
  79.7685133 127.9106737  54.2310474  80.0607877 128.0153641  52.7493264
  73.3075608 124.7911795  50.1562350  73.9474988 124.6500554  49.4585313
  72.4753139 124.5046309  49.7800952  70.3918676 128.2357307  42.3457095
  69.4616264 128.1741763  42.5627057  70.4876148 127.7133260  41.5493736
  70.3104225 124.7612120  44.9335337  70.5711042 125.6757454  44.8244497
  71.1321397 124.2936563  45.0831949  71.7829150 126.1749877  52.1034161
  72.4552204 125.9667240  51.4546810  70.9558937 125.9771963  51.6639393
  77.6854722 122.8011818  54.1199822  77.0382637 123.5001768  54.0264298
  78.4555738 123.2347962  54.4876070  77.8618857 130.6392583  52.1796642
  78.7910917 130.7903743  52.0065609  77.4409887 130.7276604  51.3245288
  81.1471595 131.3880885  37.6121077  80.5300766 130.6627713  37.5154129
  80.6788084 132.1490245  37.2688151  74.8138948 129.1612440  52.3520278
  75.5238567 128.5205632  52.3106896  74.7708256 129.4125335  53.2746459
  73.5267882 126.1477658  54.1715917  72.9905239 125.6968396  54.8237514
  72.9384591 126.2823566  53.4286382  72.9370141 125.6066309  36.7342381
  72.0599607 125.4855110  36.3704628  73.4127894 124.8152387  36.4821270
  69.2607003 125.2833665  51.2568912  69.1765192 124.6759335  50.5219322
  68.4389710 125.7742684  51.2578408  79.4330717 123.7687229  46.6239107
  79.9299417 123.0157191  46.3040177  78.6617699 123.8051546  46.0582316
  76.0165686 125.9104612  46.3510792  75.6463473 125.3575652  47.0391697
  76.5124778 125.3062745  45.7985792  83.9033049 128.3676235  44.7327564
  84.3693501 129.2004227  44.6587867  84.3540550 127.9021217  45.4372823
  81.8749712 120.7356822  48.7718466  80.9612792 120.9661049  48.9400673
  82.3042813 120.8195266  49.6232498  81.6456170 128.9246714  51.2718360
  80.9927621 129.1722622  50.6170813  82.0236550 128.1110853  50.9380837
  77.6943744 129.6666525  57.7584397  77.0184381 129.5660655  58.4286772
  78.5171377 129.5105739  58.2220394  71.4131020 123.3208603  52.5963898
  71.4772346 124.1823434  52.1841295  71.3498140 122.7082604  51.8636256
  70.8883292 125.3931735  56.2436932  71.5155331 125.0108813  56.8574456
  70.0311211 125.1745937  56.6092624  67.6648835 127.2008164  42.1755287
  67.9602276 126.2918843  42.1222340  66.7636871 127.1795904  41.8536289
  71.1943082 125.2764161  48.1582835  70.4729668 125.8900129  48.0190309
  71.9836338 125.8121926  48.0799481  73.9969395 122.6118587  54.4323487
  74.5203797 122.8580884  55.1949796  73.7781729 123.4438622  54.0126624
  69.3936676 124.8822262  42.2994612  69.0649383 124.0019641  42.1169718
  69.7476047 124.8269931  43.1871001  72.5078500 125.1695232  42.6670090
  72.8474572 125.6981153  41.9448698  72.9550620 125.5075638  43.4428656
  75.2021940 123.5532282  52.1173158  74.8618761 122.7540096  52.5193837
  74.4960947 123.8533993  51.5449991  75.8538412 120.6381595  50.5700481
  76.6764482 120.1642073  50.4479371  76.0976476 121.4172079  51.0699167
  74.4946647 123.6669853  40.8663382  75.2155009 124.0451106  40.3627099
  73.8711951 124.3858730  40.9698360  78.6377770 124.3715002  41.8021715
  78.8541384 125.2539640  41.5010543  78.1571837 123.9801216  41.0727357
  73.3776991 127.3300716  48.3792459  73.2321572 127.6441019  49.2716741
  72.9002195 127.9485616  47.8263358  75.2373374 124.3203264  48.4273349
  75.2234943 123.4244357  48.0905647  75.9545802 124.3273927  49.0611635
  77.0899505 124.7540604  50.4726476  76.8317282 125.6757674  50.4710807
  76.5584545 124.3571038  51.1626940  74.6410270 123.2017644  43.6960919
  74.7626181 122.2734290  43.8951806  74.3512312 123.2156330  42.7839234
  77.5101460 120.8872554  46.8327639  77.5323157 120.9511887  45.8779618
  77.9269519 120.0477063  47.0268145  74.1251349 124.7149641  57.9050852
  74.1739505 125.5911764  57.5228621  74.6673864 124.1727034  57.3322495
  82.0207833 128.0914159  55.8144024  82.9217695 127.9520624  55.5228022
  82.0955807 128.2568614  56.7542201  76.3550638 125.4681014  54.6597210
  75.4853947 125.7614580  54.3879799  76.5910118 126.0521459  55.3804474
  79.0589672 121.6860631  52.1762631  79.5771616 122.4221657  51.8509119
  78.7044804 121.9924624  53.0109390  70.6388609 126.5465312  40.2924036
  69.9457854 126.6209667  39.6364072  70.3940361 125.7825655  40.8145553
  79.3102266 118.1060913  47.6963527  79.5904020 117.4384102  48.3223954
  80.0952873 118.2990009  47.1838191  83.1811124 126.5278547  51.4435102
  84.1328547 126.6276645  51.4647326  83.0114575 125.7356816  51.9533187
  81.2025504 123.6134130  51.6294503  80.6075436 123.8939143  50.9340992
  80.9175200 124.1028031  52.4011244  77.4982533 128.6180720  36.6004606
  78.4441638 128.4886928  36.6693024  77.1196778 127.8795382  37.0774034
  85.8093690 126.5395710  50.6035685  85.2932739 125.7554167  50.4165614
  86.6933639 126.2114427  50.7682205  83.4704417 120.2836726  46.5631498
  83.2729239 119.9751814  47.4474830  84.0804123 121.0098365  46.6929428
  75.6825450 126.5430696  36.5359491  74.7756905 126.2463809  36.6122205
  75.9601431 126.2460514  35.6693777  77.2987516 121.0867586  42.6903732
  76.4888244 120.7414671  43.0658979  77.9871933 120.7775130  43.2791344
  79.2278064 120.1645633  44.3128029  79.7809103 120.5841086  44.9718052
  79.4648150 119.2381381  44.3550985  75.2511163 126.1532706  60.0930793
  75.1507890 127.1027063  60.0242884  75.0332705 125.8250945  59.2206863
  74.4524235 123.4017631  36.6771470  75.3143399 123.7272530  36.9367288
  74.6374579 122.6149127  36.1644536  82.6056871 122.2746158  43.8206693
  82.0255540 122.9330962  43.4384746  82.3392804 121.4523502  43.4094111
  81.0560437 121.6751215  46.0228014  81.5560216 121.7867750  45.2142333
  81.6996045 121.3712268  46.6628822  81.3881749 124.4346248  42.8763042
  80.5007604 124.7195899  42.6583236  81.8035738 124.2740012  42.0290319
  84.7396285 124.4592769  46.5917381  85.5156675 124.9489222  46.8641998
  84.0144419 124.8850823  47.0489250  87.1768844 125.1720388  47.6491322
  87.7713335 124.9316124  46.9384630  87.2495428 124.4527519  48.2764858
  81.3622773 129.9500784  43.0913332  81.3057974 130.4069336  42.2520964
  81.9151115 129.1891469  42.9136175  85.1727579 125.7390516  43.9163451
  84.9164513 125.3387152  44.7471659  84.5480447 126.4534310  43.7913590
  82.0957552 131.1405565  40.3865861  82.0406356 130.9749837  39.4454305
  81.4703607 131.8481598  40.5428051  66.8850067 126.3773630  54.2127283
  67.5308931 125.8672584  54.7014508  66.6767218 127.1142311  54.7870708
  75.4053678 120.6413674  39.9651179  75.3932347 121.5855514  40.1219450
  76.2977099 120.4583820  39.6710641  79.2205797 117.2356451  44.2197116
  78.4538193 116.6814938  44.3653799  79.6316502 117.3078320  45.0811268
  71.2247558 123.5241247  58.3102297  72.0879020 123.1678052  58.5205622
  70.6512969 123.1855142  58.9977702  15.1939655  14.8561802  35.8410005
  15.8318065  14.7368549  35.1373345  15.0760498  15.8042646  35.8997957
  12.0029361  14.8089230  35.7771530  11.6647873  14.6930295  34.8892065
  12.8719129  14.4080395  35.7572536  12.4849144  15.9624082  41.7357735
  12.4737785  15.5676880  40.8638239  12.6469784  15.2290154  42.3291507
   5.4080609  18.1575898  34.6052641   6.2001901  17.8166723  34.1898940
   5.6477259  18.2670873  35.5254794   9.2056405  18.7461194  40.6836919
   8.9146271  19.6506824  40.5683586   9.8413390  18.7877721  41.3980989
  10.1312612  16.1238042  37.2738279  10.7276184  15.8994065  36.5595242
  10.1887584  15.3822788  37.8763727  20.1489351  12.5188489  33.8196192
  20.8814522  11.9487706  34.0534021  19.3928706  12.1310089  34.2602697
  14.1646290  18.4322609  37.6786713  13.8647013  19.3347648  37.5702520
  13.8197350  18.1654792  38.5307866  17.5643434  10.9505149  35.3584150
  16.6560312  10.8820558  35.0642911  17.5131030  11.4277094  36.1865976
   9.1467070  25.1966929  30.6457681   9.0691100  26.1474755  30.7246161
   8.5428714  24.8512802  31.3032607  11.6384300  12.3694795  43.3019048
  10.8617634  12.9288715  43.2921912  12.2774863  12.8551578  43.8233918
  19.4305081   9.1521588  37.1362024  18.7879461   9.4454121  36.4901819
  18.9260009   9.0374508  37.9415221   9.8930672  15.1780248  42.8637015
  10.6345357  15.7165292  42.5871838   9.1867658  15.8046537  43.0208566
  15.3686012  17.3209389  41.4609176  15.7769368  16.8791799  40.7163808
  14.6463273  16.7462016  41.7143369  11.7217082  12.2581996  38.8342733
  12.5678277  12.6821409  38.9777382  11.6615720  11.6015620  39.5281296
  15.6914827  17.8810579  35.2161465  15.0623689  18.0456293  34.5137533
  15.3040489  18.2952189  35.9872429  19.5704058  18.8165017  32.5705829
  18.8855097  19.1963919  32.0202862  19.6547908  19.4260344  33.3037776
  14.8716527   9.9186364  40.4923907  14.6277459  10.6728424  39.9558182
  15.1476458  10.2971711  41.3271154  16.8254990  16.4624976  39.1701172
  17.0371885  17.1056736  38.4935553  16.7784738  15.6287293  38.7023102
   8.1366870  17.1656469  35.4191313   8.7068227  17.5943737  34.7808798
   8.7274981  16.8839054  36.1175499  17.9400818  19.3396932  37.3423530
  18.7618262  18.9377119  37.0606211  17.9363221  19.2365166  38.2939645
  11.7057421  18.8880975  39.4984240  11.7701854  19.3501382  40.3342412
  10.9968345  18.2578340  39.6266550  26.0306811  15.6835680  33.6908501
  25.2770519  15.1143078  33.5352505  26.1654352  15.6498345  34.6379136
   6.6829721  21.1890277  32.0213899   6.8596350  22.1108241  31.8334883
   7.4786555  20.8748696  32.4508278  13.0473915  21.1772649  43.4963562
  12.6037770  20.3909028  43.1784467  13.7091129  21.3651799  42.8307453
   7.8061037  22.7068451  38.0224241   8.3568462  22.5785514  37.2501235
   6.9672513  23.0063340  37.6719134  15.1455154  21.4575449  41.5244964
  15.1273629  22.2784330  41.0325233  16.0675074  21.3329524  41.7495105
  11.6028208  18.9719578  42.3668472  12.1356545  18.2107867  42.1367780
  11.0742289  18.6793230  43.1092627  17.9473766  16.2954591  34.9954330
  17.2897441  16.9853853  35.0834459  18.7514166  16.6851023  35.3388317
  16.7579225  14.6498964  33.0458272  17.2711107  15.2828956  33.5479982
  17.4080449  14.0500160  32.6801632  13.2360056  12.1248420  35.2916613
  12.3182617  12.3463367  35.1338301  13.6520200  12.1994730  34.4328320
  17.5241021  19.6304965  31.1737415  17.0703349  18.7895875  31.2302605
  16.8934988  20.2666364  31.5112195  15.9673961  21.4681462  32.1087233
  16.2596935  22.0286519  31.3899599  16.4772581  21.7610023  32.8640392
  10.9307586  22.2461813  33.1980686  10.8883765  22.4722660  32.2689218
  11.8470285  22.0125188  33.3466487  14.3773220  12.7145881  40.0961315
  14.7322607  12.9417354  40.9555781  15.0245351  13.0464258  39.4738571
  20.1070957  15.8364317  30.8010644  19.9688855  16.0265913  29.8731834
  19.7507175  16.5983700  31.2578696  20.1340336  17.9040844  35.8121916
  20.5676843  17.8116133  36.6604970  20.8471917  17.8798344  35.1741932
  13.8668231  21.5042938  37.3455016  13.9205253  22.0733874  38.1132732
  12.9983013  21.6744823  36.9809054  20.9955886  17.9464544  38.3454801
  21.1891776  18.8510355  38.5914076  20.8956504  17.4871963  39.1793386
  16.0570994  18.0971287  43.9195682  15.9056501  17.8681839  43.0025766
  16.0475674  19.0541889  43.9327027  12.8256331  15.6703200  38.9041948
  13.7548391  15.8214359  38.7310916  12.4047361  15.7587221  38.0490595
  11.6244663  19.6953864  36.6740486  11.4855748  19.3272649  37.5466424
  10.8359259  20.2101504  36.5024444  12.2192815  24.7962961  28.0166022
  12.3944570  24.3251004  28.8311645  11.5325603  25.4228727  28.2447283
  13.1749878  19.0735467  34.0629324  12.8399710  19.0336237  34.9586974
  12.6753823  18.4080183  33.5899734   7.1494122  14.4803097  39.5881905
   7.0113920  13.7483336  40.1893444   8.0599045  14.3911997  39.3066093
   9.7776422  14.1923056  39.0765585  10.4876041  13.5516249  39.0352203
   9.7345731  14.4435951  39.9991765  17.7663201  21.1290410  41.9972164
  17.7075747  20.4449630  41.3302747  18.1682719  21.8709400  41.5452790
   6.7853900  27.9452323  34.7905883   7.0250498  28.5770848  35.4684901
   5.9423096  27.5940364  35.0771242  17.7680608  19.0929994  40.2286143
  16.8807387  18.7555915  40.3512542  18.3379159  18.3613025  40.4654909
  11.2981762  23.7531446  37.1947387  11.2251933  24.5586417  37.7066691
  10.8559155  23.9523412  36.3695408  11.0871541  22.9903216  30.7050208
  10.3039063  23.5324896  30.7988433  11.7864287  23.5077196  31.1044449
  22.2497949  14.5038211  34.9902705  22.2387825  15.3862926  34.6196638
  21.3815328  14.1509762  34.7957242  13.7580445  23.6518280  39.3505545
  14.4708418  24.2865745  39.2781447  13.2670474  23.7482146  38.5345547
   8.8092359  21.4012723  40.1711116   9.5101818  22.0349206  40.3240510
   8.3387474  21.7427455  39.4106755  16.6093645  13.9557331  37.9963666
  15.9565095  14.2033238  37.3416119  16.9874025  13.1421469  37.6626144
  13.5700819  23.9917024  32.0991837  13.7523213  23.1738680  32.5619589
  14.3933805  24.2084716  31.6616727  13.9042984  22.9185209  29.3606885
  14.4330751  22.4077664  28.7477047  14.1671204  22.6027739  30.2252418
  12.6581218  14.6977142  44.4829704  11.9821855  14.5971271  45.1532079
  13.4808852  14.5416356  44.9465701   4.4060077  20.9349078  37.1042219
   4.9913514  20.1892766  37.2370123   4.2084915  21.2453035  37.9878883
   7.2598732  23.9700326  32.1204661   6.5909107  24.4546453  31.6368701
   7.1211602  24.2169546  33.0348040  11.4004001  26.0044069  38.7187320
  11.9522309  26.1675691  39.4836405  11.7410194  26.5948507  38.0467344
  16.2514875  20.8305327  44.5735974  16.7954779  21.4435285  44.0790929
  15.6701720  21.3884905  45.0902987  14.5372388  23.9526045  35.7051002
  14.4123527  23.1515785  35.1961947  15.1951479  24.4472238  35.2164972
  16.6007296  21.7535065  37.3330552  15.6537632  21.6340416  37.2608879
  16.9490069  20.8657563  37.4156813  13.6053730  21.5487781  33.5334904
  13.4578692  20.6204489  33.7142474  14.4307223  21.5707872  33.0491979
  17.2087851  22.3716340  34.6199777  18.1334399  22.1659201  34.4824228
  17.0403155  22.1232741  35.5289118  16.9983168  22.8902007  29.9761868
  17.1720045  22.3248430  29.2235721  17.4912059  23.6902902  29.7941358
  22.8522559  15.6538430  31.5952168  23.2953705  14.9045756  31.1971291
  21.9749069  15.6448567  31.2125900  17.9858340  22.2068772  27.0758767
  18.6809245  22.8275464  27.2946081  18.3281490  21.3564123  27.3511144
  19.8849763  19.6568477  28.6046097  20.4101087  19.9955750  27.8795417
  19.7972116  18.7215493  28.4209232  11.5469812  23.5702551  40.7335974
  11.8556938  23.3251698  41.6058673  12.3445294  23.7749189  40.2454844
  11.5690424  25.7240461  32.9641350  11.1295414  25.2316839  33.6574207
  12.3198541  25.1813428  32.7233426   4.0482763  21.9152001  32.9665979
   4.8740783  21.6155773  32.5864622   3.6976815  21.1459624  33.4155767
   9.0164296  21.2678470  35.0363652   8.3944306  20.6049175  34.7365880
   9.6869163  21.2939602  34.3537300  19.5743669  20.2901381  43.9097295
  18.7839213  20.2725520  43.3701795  19.3377024  20.8289675  44.6646332
  19.6941544  17.1393847  41.2230024  19.7439549  16.9743855  42.1645547
  19.5855468  16.2721106  40.8327905  16.9845307  13.1224775  42.5389330
  17.8855170  12.9831240  42.2473328  17.0593281  13.2879230  43.4787508
  21.1959741  19.5590789  41.4672045  20.9044550  19.9220769  42.3035506
  20.5831873  18.8457797  41.2885377  22.3955424  17.1243669  33.9874616
  23.2302315  17.5633473  34.1512176  22.5314552  16.6482322  33.1682861
  19.4446930  14.6823403  39.9352103  19.9201051  14.8751050  39.1270955
  18.5212495  14.7382589  39.6895487  18.1448599  11.5589164  38.1680409
  19.0966021  11.6587261  38.1892633  17.9752049  10.7667432  38.6778493
  16.1662978   8.6444747  38.3539810  15.5712910   8.9249760  37.6586298
  15.8812675   9.1338648  39.1256551  20.6236676  14.7795283  37.2822709
  20.5912996  13.8411284  37.4682392  21.2337300  14.8579320  36.5488533
  20.7731165  11.5706327  37.3280992  20.2570213  10.7864783  37.1410921
  21.6571113  11.2425043  37.4927511  26.4413226  15.8411290  36.4228745
  27.1716615  15.5796578  36.9836449  25.8320172  15.1040012  36.4630813
  24.5228523  13.9819153  37.0203197  23.7961687  13.8475118  36.4119688
  24.1075810  14.2895981  37.8259915  12.3458700  17.7009082  44.7850570
  13.2661709  17.8787681  44.9790616  12.3108283  16.7565128  44.6330269
   5.3420772  15.6110117  37.4273351   5.5606782  16.5427225  37.4461385
   5.7546546  15.2518091  38.2128155  10.0779908  14.6140462  45.6341161
   9.5946989  15.4140822  45.8405050  10.1640847  14.6248406  44.6808605
   6.0053245  18.5044996  37.6709595   6.9596499  18.4728939  37.6039527
   5.8065769  18.0435620  38.4859821   6.5952627  17.0746112  40.2380393
   7.4145516  17.5690191  40.2615230   6.8689435  16.1578081  40.2097960
  22.1406318  10.2031005  34.3736628  22.7350809   9.9626741  33.6629936
  22.2132902   9.4838135  35.0010164   4.3603474  24.0464616  34.6879793
   4.2257942  23.2865017  34.1217791   3.9435536  24.7705516  34.2208582
  24.4477391  13.5097206  33.1480049  23.8876949  13.5790395  33.9211611
  23.8420894  13.3338190  32.4279546   7.5172600  24.9433933  34.8998236
   7.4004984  25.8879365  34.7976926   6.6965046  24.6407494  35.2884035
  14.3740934  18.4765094  46.4364730  15.2432093  18.6505746  46.0751365
  13.8947685  19.2959511  46.3140460   8.5427114  25.5962195  38.1154164
   9.4454361  25.6285805  38.4320659   8.3164484  24.6662646  38.1300500
  10.2980716  24.3493181  34.7764243   9.3476347  24.3495043  34.6628615
  10.6013202  23.6025916  34.2600277  26.0333409  30.1853720  35.8410005
  26.6711819  30.0660467  35.1373345  25.9154252  31.1334564  35.8997957
  22.8423116  30.1381148  35.7771530  22.5041627  30.0222212  34.8892065
  23.7112884  29.7372313  35.7572536  18.7009931  31.9916624  31.7668421
  18.1374797  31.9006561  30.9984708  18.5862326  31.1716529  32.2470913
  23.3242899  31.2915999  41.7357735  23.3131539  30.8968798  40.8638239
  23.4863538  30.5582072  42.3291507  16.2474363  33.4867816  34.6052641
  17.0395655  33.1458640  34.1898940  16.4871013  33.5962791  35.5254794
  24.2809490  35.6587592  27.0782886  23.6297470  36.2441672  26.6916899
  25.0753853  36.1893787  27.1377923  18.2065117  32.7476729  27.4770020
  18.9795993  32.2005716  27.3382896  18.5590516  33.6120978  27.6884481
  20.0450160  34.0753111  40.6836919  19.7540026  34.9798742  40.5683586
  20.6807144  34.1169639  41.3980989  20.9706367  31.4529960  37.2738279
  21.5669939  31.2285982  36.5595242  21.0281338  30.7114705  37.8763727
  20.5431395  28.9069395  25.1088470  20.7956916  28.3850916  24.3471933
  19.6055954  28.7435541  25.2115153  25.5874678  27.9105174  32.9163213
  26.3737767  27.4924597  32.5653630  25.8513382  28.8151266  33.0844861
  25.7584755  33.3478024  27.6151870  25.1230588  33.4212650  28.3272775
  25.4282162  33.9371623  26.9370949  30.9883105  27.8480407  33.8196192
  31.7208277  27.2779624  34.0534021  30.2322461  27.4602007  34.2602697
  20.2627684  30.8097501  27.3112845  20.1463942  30.1342404  27.9793929
  20.3729944  30.3229875  26.4944998  22.6059225  30.2707648  31.0159534
  22.2417432  29.7438269  31.7272456  23.4626341  29.8806117  30.8426019
  28.5108525  21.5601981  38.2790800  28.1791850  22.4297392  38.0552015
  27.9154139  21.2438265  38.9584831  22.2464712  25.2997548  26.0120883
  22.4139114  26.1677784  26.3791354  22.0561881  25.4624830  25.0882172
  25.0040045  33.7614527  37.6786713  24.7040768  34.6639566  37.5702520
  24.6591104  33.4946710  38.5307866  18.4552526  30.2128324  33.7123417
  17.5303023  30.0804538  33.9201109  18.7036940  30.9922543  34.2093360
  28.4037189  26.2797067  35.3584150  27.4954066  26.2112475  35.0642911
  28.3524784  26.7569012  36.1865976  22.2253933  27.7555205  26.9967549
  22.1053558  28.2012256  27.8353030  21.5306521  28.1040523  26.4381088
  15.8161337  29.8561597  34.5467206  15.9453719  30.1096076  35.4606618
  15.1358789  30.4489305  34.2271862  19.9860825  40.5258847  30.6457681
  19.9084854  41.4766672  30.7246161  19.3822468  40.1804720  31.3032607
  22.4778054  27.6986713  43.3019048  21.7011389  28.2580633  43.2921912
  23.1168618  28.1843496  43.8233918  30.2698835  24.4813505  37.1362024
  29.6273215  24.7746039  36.4901819  29.7653764  24.3666426  37.9415221
  27.9238999  28.2276679  27.8247883  28.8356855  28.4604065  27.6495581
  27.4148646  28.8113723  27.2622962  20.7324427  30.5072166  42.8637015
  21.4739111  31.0457210  42.5871838  20.0261412  31.1338455  43.0208566
  26.2079766  32.6501306  41.4609176  26.6163122  32.2083717  40.7163808
  25.4857028  32.0753934  41.7143369  22.5610836  27.5873913  38.8342733
  23.4072032  28.0113327  38.9777382  22.5009474  26.9307538  39.5281296
  26.5308581  33.2102497  35.2161465  25.9017443  33.3748211  34.5137533
  26.1434243  33.6244107  35.9872429  30.4097813  34.1456935  32.5705829
  29.7248851  34.5255836  32.0202862  30.4941662  34.7552262  33.3037776
  25.7110282  25.2478282  40.4923907  25.4671214  26.0020342  39.9558182
  25.9870212  25.6263629  41.3271154  27.6648745  31.7916894  39.1701172
  27.8765640  32.4348654  38.4935553  27.6178493  30.9579210  38.7023102
  25.2674974  24.4034715  36.0737744  24.4059453  24.7015968  36.3654482
  25.2937408  24.6205113  35.1418777  22.0836543  32.9476905  32.4811550
  22.5474888  33.2264608  31.6916173  21.8193341  32.0460350  32.2984641
  18.9760624  32.4948387  35.4191313  19.5461981  32.9235655  34.7808798
  19.5668736  32.2130971  36.1175499  21.0205429  29.0700058  29.2901115
  21.7229472  29.5221101  29.7575042  20.6886057  28.4283876  29.9181008
  19.4685791  27.6611814  43.6652325  18.8384451  28.3428095  43.8987721
  19.3621878  27.5494896  42.7205463  14.7630763  27.3283610  34.5918249
  13.9729817  27.5841139  34.1158359  15.2542010  28.1431948  34.6970289
  28.7794573  34.6688849  37.3423530  29.6012016  34.2669037  37.0606211
  28.7756975  34.5657084  38.2939645  16.7145508  27.6928189  31.5501725
  15.9176672  27.8046884  32.0685221  16.4871101  28.0314842  30.6842616
  22.5451176  34.2172893  39.4984240  22.6095608  34.6793300  40.3342412
  21.8362100  33.5870258  39.6266550  13.0468466  27.5814101  37.0233240
  13.2976504  28.4661111  37.2890815  13.5828014  27.4018702  36.2508331
  36.8700566  31.0127598  33.6908501  36.1164274  30.4434996  33.5352505
  37.0048107  30.9790262  34.6379136  22.2599194  35.8841000  29.3663220
  22.1244868  36.7292536  29.7948068  22.8009006  36.0860278  28.6029154
  18.7466533  21.9632580  46.0277576  18.3533479  21.4098779  46.7025220
  19.5632674  22.2743158  46.4184093  15.7128591  33.4016438  29.9391145
  16.2253112  34.1959688  30.0896710  16.3651304  32.7042729  29.8724747
  17.5223476  36.5182194  32.0213899  17.6990104  37.4400159  31.8334883
  18.3180309  36.2040614  32.4508278  21.6634494  23.3790459  43.6197832
  22.4044208  23.9797612  43.5402295  21.8952417  22.6368097  43.0615875
  16.8075832  28.5646826  41.8976062  16.6929347  27.6632084  42.1983161
  15.9520350  28.8110523  41.5460878  23.8867670  36.5064567  43.4963562
  23.4431524  35.7200945  43.1784467  24.5484884  36.6943717  42.8307453
  18.6454791  38.0360368  38.0224241  19.1962216  37.9077432  37.2501235
  17.8066267  38.3355257  37.6719134  25.9848908  36.7867367  41.5244964
  25.9667383  37.6076248  41.0325233  26.9068828  36.6621442  41.7495105
  22.4421962  34.3011496  42.3668472  22.9750299  33.5399784  42.1367780
  21.9136043  34.0085148  43.1092627  25.6091657  19.4071562  37.8962114
  25.2655927  20.2973204  37.8201224  25.9770620  19.2173220  37.0331699
  13.6777508  31.7305092  30.7150716  14.5152730  32.1402101  30.4984424
  13.8555775  30.7904535  30.6850910  25.5741940  29.3980173  26.4034549
  25.0588563  30.1684778  26.6422936  25.3019248  28.7245309  27.0267610
  23.1589051  24.2429874  31.4619787  22.3030647  23.8536724  31.2825426
  23.5716003  24.3221835  30.6019573  24.6888198  21.7776217  35.8611347
  24.1852993  21.7406352  35.0479152  24.9818804  22.6868960  35.9208004
  20.9331083  21.8614947  34.8677529  21.7984080  21.6657756  34.5083418
  21.0008592  21.6325299  35.7946886  30.5476214  32.1512528  28.3387722
  29.7705657  31.8123687  27.8942885  31.2267695  32.1565151  27.6642687
  25.3628243  27.2707265  28.2294330  25.0578379  27.5853414  29.0804473
  26.3158685  27.3488685  28.2721663  23.8074675  33.4297489  29.8787284
  23.2796036  32.6950248  29.5660522  23.3062178  34.2072165  29.6327252
  28.7867521  31.6246509  34.9954330  28.1291195  32.3145770  35.0834459
  29.5907920  32.0142941  35.3388317  18.5393403  24.0917155  32.2393896
  19.1137154  23.8692336  31.5067089  19.1264385  24.1605849  32.9922497
  27.5972980  29.9790882  33.0458272  28.1104861  30.6120874  33.5479982
  28.2474204  29.3792077  32.6801632  18.8662990  26.1221616  26.2589781
  18.0300302  26.4596302  26.5799056  18.7267759  25.9870596  25.3216918
  20.8416070  20.9658404  30.9668965  20.1880483  20.6507421  30.3425580
  20.7996544  20.3434144  31.6928788  21.9527275  31.2477699  22.8822257
  21.0454337  31.0166952  23.0813406  22.4498307  30.4515318  23.0696239
  24.8595354  39.9575206  25.8018943  24.1857053  40.2606903  26.4103901
  25.2461176  40.7604286  25.4524400  24.0753811  27.4540337  35.2916613
  23.1576372  27.6755284  35.1338301  24.4913954  27.5286648  34.4328320
  24.8588858  28.8531753  30.4219293  25.6060677  29.3653150  30.1126415
  25.1280448  28.5315806  31.2823687  23.1315509  31.3490294  27.4046247
  22.2226728  31.0649326  27.5018717  23.1610592  31.7689372  26.5449554
  28.3634776  34.9596883  31.1737415  27.9097103  34.1187793  31.2302605
  27.7328743  35.5958282  31.5112195  27.3067696  25.8888869  32.4038082
  26.5690452  25.3766255  32.7348325  27.5594469  25.4489251  31.5921359
  26.8067715  36.7973380  32.1087233  27.0990690  37.3578437  31.3899599
  27.3166336  37.0901941  32.8640392  27.4079323  18.6665121  32.9979852
  27.7138200  17.8062485  32.7105767  28.1331928  19.2582741  32.7978845
  13.7003679  29.0695808  31.3861449  13.5028079  28.4765168  30.6612516
  13.1450343  28.7648018  32.1037388  21.6800403  28.9618914  33.5056043
  21.7349012  28.0092751  33.4298519  20.8691605  29.1178353  33.9897341
  22.8291596  32.8899037  24.7434326  22.3911026  32.1734896  24.2839963
  23.5702037  33.1175152  24.1819417  19.6192762  27.5795974  31.2646421
  18.8060628  27.8790145  31.6711614  20.1151757  27.1851663  31.9820904
  21.7701340  37.5753731  33.1980686  21.7277519  37.8014577  32.2689218
  22.6864039  37.3417106  33.3466487  25.2166974  28.0437798  40.0961315
  25.5716362  28.2709272  40.9555781  25.8639105  28.3756175  39.4738571
  30.9464711  31.1656234  30.8010644  30.8082610  31.3557830  29.8731834
  30.5900930  31.9275617  31.2578696  19.1106837  25.1514330  36.8807656
  19.7506217  25.0103089  36.1830620  18.2784368  24.8648843  36.5046258
  30.9734091  33.2332761  35.8121916  31.4070597  33.1408050  36.6604970
  31.6865671  33.2090262  35.1741932  19.8867141  34.4516760  32.9942649
  20.6807740  33.9567080  32.7925224  19.1758834  33.9234623  32.6310354
  24.7061986  36.8334855  37.3455016  24.7599008  37.4025792  38.1132732
  23.8376767  37.0036741  36.9809054  16.1949905  28.5959842  29.0702402
  15.2647493  28.5344297  29.2872364  16.2907377  28.0735794  28.2739043
  16.1135454  25.1214655  31.6580643  16.3742271  26.0359988  31.5489804
  16.9352626  24.6539097  31.8077256  17.5860379  26.5352412  38.8279468
  18.2583432  26.3269774  38.1792117  16.7590166  26.3374498  38.3884700
  31.8349640  33.2756462  38.3454801  32.0285530  34.1802273  38.5914076
  31.7350258  32.8163881  39.1793386  23.4885951  23.1614353  40.8445129
  22.8413866  23.8604302  40.7509605  24.2586966  23.5950497  41.2121377
  26.8964749  33.4263205  43.9195682  26.7450255  33.1973756  43.0025766
  26.8869428  34.3833806  43.9327027  23.6650085  30.9995118  38.9041948
  24.5942145  31.1506277  38.7310916  23.2441115  31.0879138  38.0490595
  22.4638417  35.0245782  36.6740486  22.3249503  34.6564566  37.5466424
  21.6753013  35.5393421  36.5024444  23.0586569  40.1254878  28.0166022
  23.2338325  39.6542922  28.8311645  22.3719357  40.7520645  28.2447283
  24.0143632  34.4027385  34.0629324  23.6793465  34.3628155  34.9586974
  23.5147578  33.7372101  33.5899734  17.9887876  29.8095015  39.5881905
  17.8507674  29.0775253  40.1893444  18.8992800  29.7203915  39.3066093
  26.9502824  31.7483419  24.3366383  26.3331995  31.0230247  24.2399436
  26.4819312  32.5092779  23.9933458  20.6170177  29.5214974  39.0765585
  21.3269795  28.8808166  39.0352203  20.5739485  29.7727869  39.9991765
  28.6056956  36.4582327  41.9972164  28.5469502  35.7741547  41.3302747
  29.0076474  37.2001317  41.5452790  19.3299111  26.5080192  40.8961224
  18.7936468  26.0570930  41.5482820  18.7415819  26.6426101  40.1531688
  17.6247654  43.2744241  34.7905883  17.8644253  43.9062765  35.4684901
  16.7816851  42.9232281  35.0771242  28.6074363  34.4221911  40.2286143
  27.7201142  34.0847833  40.3512542  29.1772914  33.6904942  40.4654909
  10.2603510  30.7546003  33.5529195  10.9474550  30.4407733  32.9650210
  10.1051639  31.6587368  33.2796446  15.0638232  25.6436200  37.9814219
  14.9796421  25.0361869  37.2464628  14.2420939  26.1345218  37.9823715
  22.1375516  39.0823364  37.1947387  22.0645688  39.8878335  37.7066691
  21.6952909  39.2815329  36.3695408  21.9265296  38.3195134  30.7050208
  21.1432818  38.8616814  30.7988433  22.6258041  38.8369113  31.1044449
  25.2361946  24.1289763  33.3484414  25.7330646  23.3759725  33.0285484
  24.4648928  24.1654080  32.7827623  33.0891703  29.8330129  34.9902705
  33.0781580  30.7154844  34.6196638  32.2209083  29.4801679  34.7957242
  24.5974200  38.9810198  39.3505545  25.3102172  39.6157662  39.2781447
  24.1064228  39.0774064  38.5345547  26.3191727  32.8861450  30.9222837
  25.3848005  33.0062913  30.7527541  26.4968395  31.9833917  30.6582847
  21.8196915  26.2707146  33.0756098  21.4494702  25.7178186  33.7637004
  22.3156007  25.6665280  32.5231098  29.7064278  28.7278770  31.4572871
  30.1724730  29.5606761  31.3833174  30.1571779  28.2623751  32.1618130
  19.6486113  36.7304641  40.1711116  20.3495573  37.3641124  40.3240510
  19.1781228  37.0719373  39.4106755  27.7740509  35.0722591  28.4559023
  28.0500353  34.9579185  29.3652897  26.9045008  34.6740076  28.4171196
  27.6780941  21.0959357  35.4963772  26.7644021  21.3263583  35.6645979
  28.1074042  21.1797801  36.3477805  27.4487399  29.2849249  37.9963666
  26.7958850  29.5325156  37.3416119  27.8267779  28.4713387  37.6626144
  24.4094573  39.3208942  32.0991837  24.5916968  38.5030598  32.5619589
  25.2327559  39.5376634  31.6616727  24.7436739  38.2477127  29.3606885
  25.2724505  37.7369581  28.7477047  25.0064958  37.9319657  30.2252418
  23.4974972  30.0269060  44.4829704  22.8215609  29.9263189  45.1532079
  24.3202606  29.8708273  44.9465701  15.2453831  36.2640996  37.1042219
  15.8307268  35.5184684  37.2370123  15.0478670  36.5744953  37.9878883
  18.0992487  39.2992244  32.1204661  17.4302862  39.7838371  31.6368701
  17.9605356  39.5461464  33.0348040   9.8371486  28.8346596  35.8246662
   9.8755586  28.3010187  36.6183780   9.3311779  28.3081802  35.2057639
  22.2397755  41.3335987  38.7187320  22.7916063  41.4967609  39.4836405
  22.5803949  41.9240425  38.0467344  17.2162248  23.6811137  39.3209204
  17.2803575  24.5425968  38.9086602  17.1529369  23.0685139  38.5881563
  16.6914521  25.7534269  42.9682239  17.3186560  25.3711347  43.5819763
  15.8342440  25.5348471  43.3337931  27.0908630  36.1597245  44.5735974
  27.6348533  36.7727203  44.0790929  26.5095474  36.7176823  45.0902987
  13.4680064  27.5610699  28.9000593  13.7633505  26.6521377  28.8467647
  12.5668099  27.5398438  28.5781596  25.3766142  39.2817963  35.7051002
  25.2517282  38.4807702  35.1961947  26.0345234  39.7764156  35.2164972
  16.9974311  25.6366695  34.8828142  16.2760896  26.2502663  34.7435615
  17.7867566  26.1724460  34.8044788  27.4401051  37.0826983  37.3330552
  26.4931386  36.9632334  37.2608879  27.7883824  36.1949481  37.4156813
  19.8000624  22.9721122  41.1568794  20.3235026  23.2183418  41.9195103
  19.5812957  23.8041156  40.7371931  15.1967905  25.2424796  29.0239918
  14.8680611  24.3622175  28.8415024  15.5507276  25.1872465  29.9116308
  24.4447484  36.8779699  33.5334904  24.2972447  35.9496406  33.7142474
  25.2700978  36.8999790  33.0491979  18.3109728  25.5297766  29.3915396
  18.6505801  26.0583687  28.6694005  18.7581849  25.8678172  30.1673963
  28.0481606  37.7008258  34.6199777  28.9728153  37.4951119  34.4824228
  27.8796909  37.4524659  35.5289118  21.0053169  23.9134817  38.8418464
  20.6649990  23.1142630  39.2439144  20.2992176  24.2136528  38.2695297
  21.6569641  20.9984129  37.2945787  22.4795710  20.5244607  37.1724678
  21.9007705  21.7774613  37.7944474  20.2977876  24.0272388  27.5908689
  21.0186238  24.4053640  27.0872406  19.6743180  24.7461264  27.6943667
  24.4408998  24.7317537  28.5267021  24.6572613  25.6142174  28.2255849
  23.9603066  24.3403750  27.7972663  19.1808220  27.6903250  35.1037766
  19.0352801  28.0043553  35.9962047  18.7033423  28.3088150  34.5508664
  21.0404603  24.6805798  35.1518655  21.0266171  23.7846891  34.8150953
  21.7577031  24.6876461  35.7856941  22.8930733  25.1143138  37.1971783
  22.6348511  26.0360209  37.1956113  22.3615774  24.7173572  37.8872247
  27.8376922  38.2193925  29.9761868  28.0113800  37.6540348  29.2235721
  28.3305813  39.0194820  29.7941358  13.6553882  30.2308594  38.0425427
  13.1107350  31.0068402  38.1745701  14.5333232  30.5779399  37.8844548
  20.4441499  23.5620178  30.4206226  20.5657410  22.6336824  30.6197113
  20.1543541  23.5758864  29.5084541  23.3132689  21.2475088  33.5572945
  23.3354386  21.3114422  32.6024925  23.7300748  20.4079597  33.7513452
  33.6916313  30.9830348  31.5952168  34.1347459  30.2337673  31.1971291
  32.8142824  30.9740484  31.2125900  28.8252095  37.5360689  27.0758767
  29.5202999  38.1567382  27.2946081  29.1675245  36.6856041  27.3511144
  14.4419904  29.3578490  40.9355584  13.7001640  29.5061126  41.5220214
  14.1212648  29.6186756  40.0722333  30.7243518  34.9860395  28.6046097
  31.2494842  35.3247668  27.8795417  30.6365870  34.0507410  28.4209232
  22.3863567  38.8994469  40.7335974  22.6950693  38.6543615  41.6058673
  23.1839049  39.1041107  40.2454844  22.4084179  41.0532378  32.9641350
  21.9689169  40.5608757  33.6574207  23.1592296  40.5105346  32.7233426
  14.8876518  37.2443919  32.9665979  15.7134537  36.9447691  32.5864622
  14.5370570  36.4751542  33.4155767  19.8558051  36.5970387  35.0363652
  19.2338060  35.9341092  34.7365880  20.5262918  36.6231519  34.3537300
  13.0885123  35.1630246  33.9254912  12.2517031  34.7352420  33.7438913
  13.0608768  35.3562689  34.8625703  19.9282578  25.0752175  44.6296158
  19.9770734  25.9514298  44.2473928  20.4705092  24.5329568  44.0567801
  30.4137424  35.6193299  43.9097295  29.6232968  35.6017437  43.3701795
  30.1770778  36.1581592  44.6646332  30.5335299  32.4685765  41.2230024
  30.5833304  32.3035772  42.1645547  30.4249222  31.6013024  40.8327905
  19.4171558  35.1474311  28.5122113  19.5659678  35.8309775  27.8588785
  20.2238001  35.1279401  29.0271568  27.8239061  28.4516693  42.5389330
  28.7248924  28.3123158  42.2473328  27.8987036  28.6171148  43.4787508
  22.1581867  25.8283548  41.3842517  21.2885176  26.1217114  41.1125105
  22.3941347  26.4123993  42.1049780  32.0353496  34.8882707  41.4672045
  31.7438304  35.2512687  42.3035506  31.4225627  34.1749715  41.2885377
  33.2349178  32.4535586  33.9874616  34.0696069  32.8925390  34.1512176
  33.3708307  31.9774240  33.1682861  30.2840684  30.0115321  39.9352103
  30.7594806  30.2042967  39.1270955  29.3606249  30.0674507  39.6895487
  17.1724191  31.1739488  29.5183182  16.9270233  30.2701818  29.7163392
  17.3420105  31.1756639  28.5762660  24.8620900  22.0463165  38.9007937
  25.3802844  22.7824192  38.5754426  24.5076033  22.3527158  39.7354696
  16.4419838  26.9067846  27.0169343  15.7489083  26.9812201  26.3609379
  16.1971590  26.1428190  27.5390860  25.1133495  18.4663447  34.4208834
  25.3935248  17.7986636  35.0469260  25.8984102  18.6592543  33.9083498
  22.9166963  37.6422441  25.9833860  22.3440930  38.2612628  25.5304332
  23.4899757  38.1921803  26.5173782  28.9842353  26.8881081  38.1680409
  29.9359776  26.9879179  38.1892633  28.8145803  26.0959350  38.6778493
  27.0056732  23.9736664  38.3539810  26.4106665  24.2541677  37.6586298
  26.7206429  24.4630565  39.1256551  26.1364223  37.9259591  27.1142442
  27.0694896  37.8605153  27.3175318  26.0487436  38.7615858  26.6556975
  28.7652240  37.2425462  24.0746390  28.6865871  36.9085325  24.9682148
  29.5861906  37.7347230  24.0737862  31.4630431  30.1087201  37.2822709
  31.4306751  29.1703202  37.4682392  32.0731054  30.1871238  36.5488533
  23.3013762  28.9783254  23.3249913  24.2472866  28.8489462  23.3938331
  22.9228007  28.2397916  23.8019341  31.6124919  26.8998244  37.3280992
  31.0963968  26.1156701  37.1410921  32.4964868  26.5716961  37.4927511
  29.2735646  20.6439260  33.2876804  29.0760467  20.3354348  34.1720136
  29.8835352  21.3700899  33.4174734  37.2806981  31.1703208  36.4228745
  38.0110369  30.9088496  36.9836449  36.6713926  30.4331930  36.4630813
  35.3622278  29.3111070  37.0203197  34.6355441  29.1767035  36.4119688
  34.9469565  29.6187899  37.8259915  23.1852454  33.0301000  44.7850570
  24.1055464  33.2079599  44.9790616  23.1502037  32.0857045  44.6330269
  12.4034619  28.2239594  33.7103844  12.0837404  27.3704902  33.4178218
  11.8568047  28.4388172  34.4661812  16.1814527  30.9402035  37.4273351
  16.4000537  31.8719143  37.4461385  16.5940301  30.5810009  38.2128155
  23.1018745  21.4470120  29.4149039  22.2919473  21.1017205  29.7904285
  23.7903161  21.1377664  30.0036651  25.0309293  20.5248167  31.0373336
  25.5840331  20.9443620  31.6963359  25.2679379  19.5983915  31.0796292
  21.0542392  26.5135240  46.8176100  20.9539119  27.4629597  46.7488191
  20.8363934  26.1853479  45.9452170  12.2722879  31.8442505  35.6796966
  11.5786351  31.4296458  35.1666920  13.0195870  31.8863042  35.0830385
  28.4088100  22.6348692  30.5452000  27.8286769  23.2933496  30.1630052
  28.1424033  21.8126037  30.1339418  26.8591666  22.0353750  32.7473320
  27.3591445  22.1470284  31.9387639  27.5027274  21.7314803  33.3874129
  20.9173662  29.9432379  45.6341161  20.4340744  30.7432739  45.8405050
  21.0034601  29.9540324  44.6808605  14.1859622  31.7760759  33.5562981
  14.1630310  31.8748446  32.6044864  14.4960258  32.6225910  33.8780147
  16.8447000  33.8336914  37.6709595  17.7990253  33.8020856  37.6039527
  16.6459523  33.3727538  38.4859821  17.4346382  32.4038030  40.2380393
  18.2539271  32.8982109  40.2615230  17.7083189  31.4869998  40.2097960
  27.1912978  24.7948782  29.6008348  26.3038833  25.0798433  29.3828543
  27.6066967  24.6342546  28.7535625  30.5427514  24.8195303  33.3162688
  31.3187904  25.3091756  33.5887304  29.8175648  25.2453358  33.7734557
  32.9800073  25.5322923  34.3736628  33.5744563  25.2918659  33.6629936
  33.0526656  24.8130053  35.0010164  15.1997228  39.3756534  34.6879793
  15.0651696  38.6156934  34.1217791  14.7829291  40.0997433  34.2208582
  26.3356191  34.5593457  23.6956368  27.0392042  34.7643460  24.3114024
  25.6118840  35.1270219  23.9605452  27.1654002  30.3103318  29.8158638
  27.1089203  30.7671870  28.9766271  27.7182344  29.5494003  29.6381481
  30.9758808  26.0993050  30.6408758  30.7195742  25.6989686  31.4716966
  30.3511676  26.8136844  30.5158897  35.2871145  28.8389123  33.1480049
  34.7270703  28.9082313  33.9211611  34.6814649  28.6630108  32.4279546
  18.3566354  40.2725851  34.8998236  18.2398738  41.2171283  34.7976926
  17.5358801  39.9699412  35.2884035  28.2442889  34.9975986  25.7454828
  29.0788493  34.5657185  25.5632303  28.0827232  34.8258000  26.6731723
  27.8988781  31.5008100  27.1111168  27.8437585  31.3352371  26.1699612
  27.2734836  32.2084132  27.2673357  12.6881296  26.7376164  40.9372590
  13.3340160  26.2275118  41.4259815  12.4798447  27.4744846  41.5116015
  25.2134688  33.8057011  46.4364730  26.0825848  33.9797664  46.0751365
  24.7341440  34.6251428  46.3140460  21.2084906  21.0016209  26.6896486
  21.1963576  21.9458048  26.8464757  22.1008328  20.8186354  26.3955947
  19.3820868  40.9254112  38.1154164  20.2848115  40.9577723  38.4320659
  19.1558238  39.9954563  38.1300500  21.1374470  39.6785099  34.7764243
  20.1870101  39.6786961  34.6628615  21.4406957  38.9317834  34.2600277
  25.0237026  17.5958985  30.9442423  24.2569422  17.0417472  31.0899105
  25.4347731  17.6680854  31.8056574  17.0278787  23.8843781  45.0347604
  17.8910249  23.5280586  45.2450929  16.4544198  23.5457676  45.7223008
  36.8727164  45.5145637  35.8410005  37.5105574  45.3952385  35.1373345
  36.7548007  46.4626481  35.8997957  33.6816870  45.4673065  35.7771530
  33.3435382  45.3514130  34.8892065  34.5506638  45.0664231  35.7572536
  29.5403686  47.3208542  31.7668421  28.9768551  47.2298479  30.9984708
  29.4256081  46.5008446  32.2470913  34.1636653  46.6207917  41.7357735
  34.1525294  46.2260715  40.8638239  34.3257293  45.8873990  42.3291507
  27.0868118  48.8159733  34.6052641  27.8789410  48.4750558  34.1898940
  27.3264768  48.9254709  35.5254794  35.1203245  50.9879510  27.0782886
  34.4691224  51.5733590  26.6916899  35.9147607  51.5185704  27.1377923
  29.0458872  48.0768647  27.4770020  29.8189748  47.5297634  27.3382896
  29.3984271  48.9412896  27.6884481  30.8843914  49.4045029  40.6836919
  30.5933780  50.3090660  40.5683586  31.5200899  49.4461557  41.3980989
  31.8100121  46.7821878  37.2738279  32.4063693  46.5577900  36.5595242
  31.8675093  46.0406623  37.8763727  31.3825150  44.2361313  25.1088470
  31.6350670  43.7142834  24.3471933  30.4449709  44.0727458  25.2115153
  36.4268432  43.2397091  32.9163213  37.2131522  42.8216514  32.5653630
  36.6907137  44.1443183  33.0844861  36.5978510  48.6769942  27.6151870
  35.9624343  48.7504568  28.3272775  36.2675916  49.2663540  26.9370949
  41.8276860  43.1772324  33.8196192  42.5602031  42.6071541  34.0534021
  41.0716215  42.7893925  34.2602697  31.1021438  46.1389419  27.3112845
  30.9857696  45.4634322  27.9793929  31.2123698  45.6521793  26.4944998
  33.4452979  45.5999566  31.0159534  33.0811186  45.0730187  31.7272456
  34.3020095  45.2098035  30.8426019  39.3502280  36.8893899  38.2790800
  39.0185605  37.7589309  38.0552015  38.7547893  36.5730183  38.9584831
  33.0858466  40.6289466  26.0120883  33.2532869  41.4969702  26.3791354
  32.8955635  40.7916747  25.0882172  35.8433799  49.0906444  37.6786713
  35.5434522  49.9931483  37.5702520  35.4984859  48.8238628  38.5307866
  29.2946281  45.5420241  33.7123417  28.3696777  45.4096455  33.9201109
  29.5430694  46.3214461  34.2093360  39.2430943  41.6088985  35.3584150
  38.3347821  41.5404393  35.0642911  39.1918539  42.0860930  36.1865976
  33.0647687  43.0847123  26.9967549  32.9447312  43.5304174  27.8353030
  32.3700275  43.4332441  26.4381088  26.6555092  45.1853515  34.5467206
  26.7847473  45.4387994  35.4606618  25.9752543  45.7781223  34.2271862
  30.8254579  55.8550765  30.6457681  30.7478609  56.8058590  30.7246161
  30.2216223  55.5096637  31.3032607  33.3171809  43.0278630  43.3019048
  32.5405143  43.5872550  43.2921912  33.9562372  43.5135413  43.8233918
  41.1092590  39.8105423  37.1362024  40.4666970  40.1037956  36.4901819
  40.6047518  39.6958343  37.9415221  38.7632753  43.5568596  27.8247883
  39.6750609  43.7895983  27.6495581  38.2542400  44.1405640  27.2622962
  31.5718181  45.8364084  42.8637015  32.3132866  46.3749128  42.5871838
  30.8655167  46.4630372  43.0208566  37.0473521  47.9793224  41.4609176
  37.4556877  47.5375635  40.7163808  36.3250782  47.4045852  41.7143369
  33.4004591  42.9165831  38.8342733  34.2465786  43.3405244  38.9777382
  33.3403229  42.2599455  39.5281296  37.3702336  48.5394415  35.2161465
  36.7411198  48.7040129  34.5137533  36.9827998  48.9536024  35.9872429
  41.2491567  49.4748853  32.5705829  40.5642606  49.8547754  32.0202862
  41.3335417  50.0844179  33.3037776  36.5504036  40.5770199  40.4923907
  36.3064968  41.3312260  39.9558182  36.8263967  40.9555547  41.3271154
  38.5042499  47.1208812  39.1701172  38.7159394  47.7640571  38.4935553
  38.4572247  46.2871128  38.7023102  36.1068728  39.7326632  36.0737744
  35.2453207  40.0307886  36.3654482  36.1331163  39.9497031  35.1418777
  32.9230297  48.2768823  32.4811550  33.3868643  48.5556526  31.6916173
  32.6587096  47.3752267  32.2984641  29.8154378  47.8240304  35.4191313
  30.3855736  48.2527573  34.7808798  30.4062490  47.5422889  36.1175499
  31.8599183  44.3991975  29.2901115  32.5623227  44.8513019  29.7575042
  31.5279812  43.7575794  29.9181008  30.3079545  42.9903732  43.6652325
  29.6778206  43.6720013  43.8987721  30.2015633  42.8786813  42.7205463
  25.6024517  42.6575528  34.5918249  24.8123571  42.9133056  34.1158359
  26.0935765  43.4723866  34.6970289  39.6188327  49.9980767  37.3423530
  40.4405771  49.5960954  37.0606211  39.6150730  49.8949001  38.2939645
  27.5539263  43.0220107  31.5501725  26.7570426  43.1338801  32.0685221
  27.3264855  43.3606759  30.6842616  33.3844930  49.5464810  39.4984240
  33.4489363  50.0085218  40.3342412  32.6755854  48.9162175  39.6266550
  23.8862220  42.9106018  37.0233240  24.1370259  43.7953028  37.2890815
  24.4221769  42.7310620  36.2508331  47.7094320  46.3419515  33.6908501
  46.9558028  45.7726914  33.5352505  47.8441861  46.3082180  34.6379136
  33.0992948  51.2132918  29.3663220  32.9638623  52.0584454  29.7948068
  33.6402761  51.4152195  28.6029154  29.5860288  37.2924498  46.0277576
  29.1927233  36.7390696  46.7025220  30.4026428  37.6035076  46.4184093
  26.5522345  48.7308356  29.9391145  27.0646866  49.5251606  30.0896710
  27.2045058  48.0334646  29.8724747  28.3617230  51.8474112  32.0213899
  28.5383859  52.7692077  31.8334883  29.1574064  51.5332531  32.4508278
  32.5028249  38.7082377  43.6197832  33.2437962  39.3089530  43.5402295
  32.7346172  37.9660015  43.0615875  27.6469587  43.8938744  41.8976062
  27.5323102  42.9924001  42.1983161  26.7914104  44.1402441  41.5460878
  34.7261424  51.8356484  43.4963562  34.2825279  51.0492863  43.1784467
  35.3878638  52.0235635  42.8307453  29.4848546  53.3652286  38.0224241
  30.0355971  53.2369349  37.2501235  28.6460022  53.6647175  37.6719134
  36.8242663  52.1159284  41.5244964  36.8061138  52.9368165  41.0325233
  37.7462583  51.9913359  41.7495105  33.2815717  49.6303414  42.3668472
  33.8144053  48.8691702  42.1367780  32.7529798  49.3377066  43.1092627
  36.4485412  34.7363480  37.8962114  36.1049681  35.6265121  37.8201224
  36.8164374  34.5465137  37.0331699  24.5171262  47.0597010  30.7150716
  25.3546484  47.4694019  30.4984424  24.6949530  46.1196452  30.6850910
  36.4135694  44.7272091  26.4034549  35.8982318  45.4976695  26.6422936
  36.1413003  44.0537227  27.0267610  33.9982805  39.5721792  31.4619787
  33.1424402  39.1828642  31.2825426  34.4109757  39.6513752  30.6019573
  35.5281952  37.1068135  35.8611347  35.0246748  37.0698270  35.0479152
  35.8212559  38.0160878  35.9208004  31.7724838  37.1906865  34.8677529
  32.6377835  36.9949673  34.5083418  31.8402347  36.9617216  35.7946886
  41.3869969  47.4804445  28.3387722  40.6099411  47.1415605  27.8942885
  42.0661449  47.4857069  27.6642687  36.2021998  42.5999183  28.2294330
  35.8972133  42.9145332  29.0804473  37.1552440  42.6780603  28.2721663
  34.6468429  48.7589406  29.8787284  34.1189791  48.0242166  29.5660522
  34.1455932  49.5364083  29.6327252  39.6261275  46.9538427  34.9954330
  38.9684950  47.6437688  35.0834459  40.4301675  47.3434859  35.3388317
  29.3787157  39.4209072  32.2393896  29.9530909  39.1984254  31.5067089
  29.9658139  39.4897767  32.9922497  38.4366734  45.3082799  33.0458272
  38.9498616  45.9412791  33.5479982  39.0867958  44.7083995  32.6801632
  29.7056744  41.4513534  26.2589781  28.8694056  41.7888220  26.5799056
  29.5661514  41.3162513  25.3216918  31.6809825  36.2950321  30.9668965
  31.0274237  35.9799339  30.3425580  31.6390299  35.6726062  31.6928788
  32.7921030  46.5769616  22.8822257  31.8848091  46.3458870  23.0813406
  33.2892062  45.7807236  23.0696239  35.6989108  55.2867124  25.8018943
  35.0250807  55.5898820  26.4103901  36.0854930  56.0896204  25.4524400
  34.9147565  42.7832255  35.2916613  33.9970126  43.0047202  35.1338301
  35.3307709  42.8578565  34.4328320  35.6982613  44.1823671  30.4219293
  36.4454432  44.6945068  30.1126415  35.9674202  43.8607723  31.2823687
  33.9709263  46.6782211  27.4046247  33.0620482  46.3941244  27.5018717
  34.0004347  47.0981290  26.5449554  39.2028530  50.2888801  31.1737415
  38.7490858  49.4479711  31.2302605  38.5722497  50.9250199  31.5112195
  38.1461450  41.2180787  32.4038082  37.4084207  40.7058173  32.7348325
  38.3988224  40.7781168  31.5921359  37.6461470  52.1265298  32.1087233
  37.9384444  52.6870355  31.3899599  38.1560090  52.4193859  32.8640392
  38.2473077  33.9957039  32.9979852  38.5531954  33.1354402  32.7105767
  38.9725682  34.5874659  32.7978845  24.5397433  44.3987725  31.3861449
  24.3421833  43.8057086  30.6612516  23.9844097  44.0939936  32.1037388
  32.5194157  44.2910832  33.5056043  32.5742767  43.3384668  33.4298519
  31.7085359  44.4470271  33.9897341  33.6685351  48.2190955  24.7434326
  33.2304781  47.5026814  24.2839963  34.4095792  48.4467070  24.1819417
  30.4586517  42.9087892  31.2646421  29.6454383  43.2082062  31.6711614
  30.9545511  42.5143580  31.9820904  32.6095095  52.9045649  33.1980686
  32.5671274  53.1306495  32.2689218  33.5257794  52.6709023  33.3466487
  36.0560729  43.3729716  40.0961315  36.4110116  43.6001189  40.9555781
  36.7032860  43.7048093  39.4738571  41.7858466  46.4948152  30.8010644
  41.6476364  46.6849748  29.8731834  41.4294684  47.2567535  31.2578696
  29.9500592  40.4806247  36.8807656  30.5899971  40.3395006  36.1830620
  29.1178122  40.1940761  36.5046258  41.8127845  48.5624679  35.8121916
  42.2464352  48.4699968  36.6604970  42.5259426  48.5382180  35.1741932
  30.7260896  49.7808678  32.9942649  31.5201494  49.2858998  32.7925224
  30.0152588  49.2526541  32.6310354  35.5455740  52.1626773  37.3455016
  35.5992762  52.7317709  38.1132732  34.6770521  52.3328658  36.9809054
  27.0343659  43.9251759  29.0702402  26.1041247  43.8636215  29.2872364
  27.1301131  43.4027712  28.2739043  26.9529208  40.4506572  31.6580643
  27.2136025  41.3651905  31.5489804  27.7746380  39.9831015  31.8077256
  28.4254133  41.8644329  38.8279468  29.0977187  41.6561691  38.1792117
  27.5983920  41.6666415  38.3884700  42.6743395  48.6048380  38.3454801
  42.8679285  49.5094190  38.5914076  42.5744013  48.1455799  39.1793386
  34.3279706  38.4906270  40.8445129  33.6807621  39.1896220  40.7509605
  35.0980721  38.9242414  41.2121377  37.7358503  48.7555122  43.9195682
  37.5844010  48.5265674  43.0025766  37.7263183  49.7125724  43.9327027
  34.5043840  46.3287035  38.9041948  35.4335900  46.4798195  38.7310916
  34.0834870  46.4171056  38.0490595  33.3032172  50.3537700  36.6740486
  33.1643257  49.9856484  37.5466424  32.5146768  50.8685339  36.5024444
  33.8980324  55.4546796  28.0166022  34.0732079  54.9834839  28.8311645
  33.2113112  56.0812562  28.2447283  34.8537387  49.7319302  34.0629324
  34.5187219  49.6920072  34.9586974  34.3541332  49.0664018  33.5899734
  28.8281631  45.1386932  39.5881905  28.6901429  44.4067171  40.1893444
  29.7386554  45.0495832  39.3066093  37.7896578  47.0775337  24.3366383
  37.1725749  46.3522165  24.2399436  37.3213067  47.8384697  23.9933458
  31.4563931  44.8506892  39.0765585  32.1663550  44.2100084  39.0352203
  31.4133240  45.1019787  39.9991765  39.4450710  51.7874245  41.9972164
  39.3863256  51.1033465  41.3302747  39.8470228  52.5293235  41.5452790
  30.1692865  41.8372110  40.8961224  29.6330222  41.3862848  41.5482820
  29.5809574  41.9718018  40.1531688  28.4641409  58.6036159  34.7905883
  28.7038007  59.2354683  35.4684901  27.6210605  58.2524199  35.0771242
  29.5795124  41.2960761  23.4587688  28.7024591  41.1749562  23.0949934
  30.0552877  40.5046839  23.2066576  39.4468117  49.7513829  40.2286143
  38.5594896  49.4139751  40.3512542  40.0166668  49.0196860  40.4654909
  21.0997264  46.0837921  33.5529195  21.7868304  45.7699651  32.9650210
  20.9445393  46.9879285  33.2796446  25.9031987  40.9728117  37.9814219
  25.8190175  40.3653787  37.2464628  25.0814693  41.4637136  37.9823715
  32.9769271  54.4115281  37.1947387  32.9039442  55.2170253  37.7066691
  32.5346664  54.6107247  36.3695408  32.7659050  53.6487051  30.7050208
  31.9826572  54.1908731  30.7988433  33.4651796  54.1661031  31.1044449
  36.0755700  39.4581681  33.3484414  36.5724400  38.7051643  33.0285484
  35.3042682  39.4945997  32.7827623  43.9285458  45.1622046  34.9902705
  43.9175334  46.0446762  34.6196638  43.0602837  44.8093597  34.7957242
  35.4367954  54.3102115  39.3505545  36.1495926  54.9449580  39.2781447
  34.9457983  54.4065981  38.5345547  37.1585481  48.2153368  30.9222837
  36.2241760  48.3354830  30.7527541  37.3362150  47.3125835  30.6582847
  32.6590669  41.5999064  33.0756098  32.2888457  41.0470104  33.7637004
  33.1549762  40.9957197  32.5231098  40.5458033  44.0570687  31.4572871
  41.0118485  44.8898679  31.3833174  40.9965533  43.5915669  32.1618130
  30.4879868  52.0596559  40.1711116  31.1889327  52.6933042  40.3240510
  30.0174983  52.4011290  39.4106755  38.6134264  50.4014509  28.4559023
  38.8894108  50.2871103  29.3652897  37.7438762  50.0031993  28.4171196
  38.5174695  36.4251274  35.4963772  37.6037775  36.6555501  35.6645979
  38.9467797  36.5089718  36.3477805  38.2881154  44.6141166  37.9963666
  37.6352604  44.8617074  37.3416119  38.6661534  43.8005304  37.6626144
  35.2488328  54.6500859  32.0991837  35.4310722  53.8322515  32.5619589
  36.0721314  54.8668552  31.6616727  35.5830493  53.5769045  29.3606885
  36.1118260  53.0661499  28.7477047  35.8458713  53.2611575  30.2252418
  34.3368727  45.3560977  44.4829704  33.6609364  45.2555107  45.1532079
  35.1596361  45.2000191  44.9465701  26.0847586  51.5932914  37.1042219
  26.6701023  50.8476602  37.2370123  25.8872424  51.9036871  37.9878883
  28.9386241  54.6284161  32.1204661  28.2696616  55.1130289  31.6368701
  28.7999111  54.8753382  33.0348040  20.6765241  44.1638514  35.8246662
  20.7149340  43.6302105  36.6183780  20.1705533  43.6373720  35.2057639
  33.0791510  56.6627905  38.7187320  33.6309818  56.8259526  39.4836405
  33.4197703  57.2532343  38.0467344  28.0556003  39.0103055  39.3209204
  28.1197329  39.8717885  38.9086602  27.9923123  38.3977056  38.5881563
  27.5308275  41.0826187  42.9682239  28.1580314  40.7003264  43.5819763
  26.6736194  40.8640389  43.3337931  37.9302384  51.4889162  44.5735974
  38.4742288  52.1019121  44.0790929  37.3489229  52.0468741  45.0902987
  24.3073818  42.8902616  28.9000593  24.6027259  41.9813295  28.8467647
  23.4061854  42.8690356  28.5781596  36.2159897  54.6109880  35.7051002
  36.0911036  53.8099620  35.1961947  36.8738988  55.1056074  35.2164972
  27.8368065  40.9658613  34.8828142  27.1154651  41.5794580  34.7435615
  28.6261321  41.5016378  34.8044788  38.2794805  52.4118900  37.3330552
  37.3325141  52.2924252  37.2608879  38.6277578  51.5241398  37.4156813
  30.6394379  38.3013039  41.1568794  31.1628781  38.5475336  41.9195103
  30.4206712  39.1333074  40.7371931  26.0361660  40.5716714  29.0239918
  25.7074366  39.6914093  28.8415024  26.3901030  40.5164383  29.9116308
  35.2841239  52.2071617  33.5334904  35.1366201  51.2788324  33.7142474
  36.1094732  52.2291707  33.0491979  29.1503483  40.8589684  29.3915396
  29.4899555  41.3875605  28.6694005  29.5975603  41.1970090  30.1673963
  38.8875360  53.0300175  34.6199777  39.8121908  52.8243037  34.4824228
  38.7190664  52.7816576  35.5289118  31.8446924  39.2426734  38.8418464
  31.5043744  38.4434547  39.2439144  31.1385930  39.5428445  38.2695297
  32.4963396  36.3276047  37.2945787  33.3189465  35.8536525  37.1724678
  32.7401459  37.1066531  37.7944474  31.1371630  39.3564305  27.5908689
  31.8579993  39.7345558  27.0872406  30.5136934  40.0753182  27.6943667
  35.2802753  40.0609454  28.5267021  35.4966367  40.9434092  28.2255849
  34.7996820  39.6695668  27.7972663  30.0201974  43.0195167  35.1037766
  29.8746555  43.3335471  35.9962047  29.5427178  43.6380068  34.5508664
  31.8798357  40.0097715  35.1518655  31.8659926  39.1138809  34.8150953
  32.5970785  40.0168379  35.7856941  33.7324488  40.4435056  37.1971783
  33.4742266  41.3652126  37.1956113  33.2009528  40.0465490  37.8872247
  38.6770677  53.5485843  29.9761868  38.8507554  52.9832265  29.2235721
  39.1699568  54.3486738  29.7941358  24.4947636  45.5600512  38.0425427
  23.9501105  46.3360320  38.1745701  25.3726986  45.9071316  37.8844548
  31.2835253  38.8912096  30.4206226  31.4051164  37.9628742  30.6197113
  30.9937296  38.9050782  29.5084541  34.1526444  36.5767006  33.5572945
  34.1748140  36.6406339  32.6024925  34.5694503  35.7371515  33.7513452
  44.5310068  46.3122266  31.5952168  44.9741214  45.5629591  31.1971291
  43.6536578  46.3032402  31.2125900  39.6645849  52.8652607  27.0758767
  40.3596754  53.4859300  27.2946081  40.0068999  52.0147958  27.3511144
  25.2813658  44.6870408  40.9355584  24.5395394  44.8353043  41.5220214
  24.9606403  44.9478674  40.0722333  41.5637272  50.3152313  28.6046097
  42.0888596  50.6539585  27.8795417  41.4759625  49.3799328  28.4209232
  33.2257321  54.2286386  40.7335974  33.5344447  53.9835533  41.6058673
  34.0232803  54.4333025  40.2454844  33.2477933  56.3824296  32.9641350
  32.8082923  55.8900675  33.6574207  33.9986050  55.8397264  32.7233426
  25.7270272  52.5735837  32.9665979  26.5528292  52.2739609  32.5864622
  25.3764324  51.8043459  33.4155767  30.6951805  51.9262305  35.0363652
  30.0731814  51.2633010  34.7365880  31.3656672  51.9523437  34.3537300
  23.9278877  50.4922163  33.9254912  23.0910785  50.0644338  33.7438913
  23.9002523  50.6854607  34.8625703  30.7676333  40.4044093  44.6296158
  30.8164488  41.2806216  44.2473928  31.3098847  39.8621486  44.0567801
  41.3729053  47.7977683  41.2230024  41.4227058  47.6327690  42.1645547
  41.2642977  46.9304942  40.8327905  30.2565312  50.4766228  28.5122113
  30.4053432  51.1601693  27.8588785  31.0631756  50.4571318  29.0271568
  38.6632816  43.7808611  42.5389330  39.5642679  43.6415076  42.2473328
  38.7380790  43.9463066  43.4787508  32.9975621  41.1575465  41.3842517
  32.1278931  41.4509032  41.1125105  33.2335101  41.7415910  42.1049780
  42.8747250  50.2174624  41.4672045  42.5832059  50.5804605  42.3035506
  42.2619382  49.5041632  41.2885377  44.0742933  47.7827504  33.9874616
  44.9089824  48.2217308  34.1512176  44.2102061  47.3066157  33.1682861
  41.1234438  45.3407239  39.9352103  41.5988560  45.5334885  39.1270955
  40.2000004  45.3966425  39.6895487  28.0117945  46.5031406  29.5183182
  27.7663987  45.5993736  29.7163392  28.1813860  46.5048556  28.5762660
  35.7014655  37.3755082  38.9007937  36.2196599  38.1116109  38.5754426
  35.3469788  37.6819076  39.7354696  27.2813593  42.2359764  27.0169343
  26.5882838  42.3104119  26.3609379  27.0365345  41.4720107  27.5390860
  35.9527249  33.7955365  34.4208834  36.2329003  33.1278554  35.0469260
  36.7377856  33.9884461  33.9083498  33.7560718  52.9714359  25.9833860
  33.1834685  53.5904546  25.5304332  34.3293511  53.5213721  26.5173782
  39.8236107  42.2172999  38.1680409  40.7753530  42.3171097  38.1892633
  39.6539558  41.4251267  38.6778493  37.8450487  39.3028582  38.3539810
  37.2500419  39.5833595  37.6586298  37.5600184  39.7922483  39.1256551
  36.9757977  53.2551509  27.1142442  37.9088651  53.1897071  27.3175318
  36.8881190  54.0907776  26.6556975  39.6045994  52.5717379  24.0746390
  39.5259626  52.2377243  24.9682148  40.4255661  53.0639147  24.0737862
  42.3024185  45.4379119  37.2822709  42.2700505  44.4995119  37.4682392
  42.9124809  45.5163155  36.5488533  34.1407516  44.3075172  23.3249913
  35.0866621  44.1781380  23.3938331  33.7621761  43.5689833  23.8019341
  42.4518674  42.2290162  37.3280992  41.9357722  41.4448619  37.1410921
  43.3358622  41.9008879  37.4927511  40.1129401  35.9731178  33.2876804
  39.9154222  35.6646266  34.1720136  40.7229106  36.6992817  33.4174734
  48.1200735  46.4995125  36.4228745  48.8504124  46.2380414  36.9836449
  47.5107681  45.7623847  36.4630813  46.2016032  44.6402988  37.0203197
  45.4749196  44.5058953  36.4119688  45.7863319  44.9479817  37.8259915
  34.0246209  48.3592918  44.7850570  34.9449218  48.5371517  44.9790616
  33.9895792  47.4148963  44.6330269  32.3250433  42.2325148  23.2604798
  31.4181889  41.9358261  23.3367511  32.6026414  41.9354966  22.3939084
  23.2428374  43.5531511  33.7103844  22.9231158  42.6996820  33.4178218
  22.6961802  43.7680090  34.4661812  27.0208281  46.2693952  37.4273351
  27.2394291  47.2011060  37.4461385  27.4334055  45.9101927  38.2128155
  33.9412499  36.7762038  29.4149039  33.1313227  36.4309123  29.7904285
  34.6296916  36.4669581  30.0036651  35.8703047  35.8540085  31.0373336
  36.4234086  36.2735538  31.6963359  36.1073134  34.9275833  31.0796292
  31.8936147  41.8427158  46.8176100  31.7932873  42.7921515  46.7488191
  31.6757689  41.5145397  45.9452170  31.0949218  39.0912083  23.4016777
  31.9568382  39.4166982  23.6612594  31.2799562  38.3043579  22.8889843
  23.1116634  47.1734423  35.6796966  22.4180105  46.7588376  35.1666920
  23.8589625  47.2154959  35.0830385  39.2481854  37.9640610  30.5452000
  38.6680523  38.6225414  30.1630052  38.9817787  37.1417954  30.1339418
  37.6985421  37.3645667  32.7473320  38.1985199  37.4762202  31.9387639
  38.3421029  37.0606720  33.3874129  31.7567417  45.2724297  45.6341161
  31.2734498  46.0724657  45.8405050  31.8428356  45.2832242  44.6808605
  25.0253376  47.1052677  33.5562981  25.0024064  47.2040364  32.6044864
  25.3354013  47.9517827  33.8780147  27.6840754  49.1628832  37.6709595
  28.6384008  49.1312774  37.6039527  27.4853278  48.7019455  38.4859821
  28.2740136  47.7329948  40.2380393  29.0933025  48.2274026  40.2615230
  28.5476944  46.8161916  40.2097960  38.0306732  40.1240700  29.6008348
  37.1432587  40.4090351  29.3828543  38.4460721  39.9634463  28.7535625
  41.3821269  40.1487221  33.3162688  42.1581659  40.6383673  33.5887304
  40.6569403  40.5745275  33.7734557  43.8193827  40.8614840  34.3736628
  44.4138318  40.6210576  33.6629936  43.8920411  40.1421971  35.0010164
  26.0390983  54.7048451  34.6879793  25.9045451  53.9448852  34.1217791
  25.6223045  55.4289351  34.2208582  37.1749946  49.8885375  23.6956368
  37.8785796  50.0935377  24.3114024  36.4512595  50.4562137  23.9605452
  38.0047756  45.6395236  29.8158638  37.9482958  46.0963787  28.9766271
  38.5576099  44.8785921  29.6381481  41.8152562  41.4284968  30.6408758
  41.5589496  41.0281604  31.4716966  41.1905430  42.1428762  30.5158897
  46.1264900  44.1681041  33.1480049  45.5664458  44.2374230  33.9211611
  45.5208403  43.9922026  32.4279546  29.1960109  55.6017768  34.8998236
  29.0792493  56.5463201  34.7976926  28.3752555  55.2991330  35.2884035
  39.0836643  50.3267904  25.7454828  39.9182247  49.8949102  25.5632303
  38.9220986  50.1549918  26.6731723  38.7382535  46.8300017  27.1111168
  38.6831339  46.6644289  26.1699612  38.1128591  47.5376050  27.2673357
  23.5275050  42.0668082  40.9372590  24.1733914  41.5567036  41.4259815
  23.3192202  42.8036763  41.5116015  36.0528443  49.1348929  46.4364730
  36.9219602  49.3089581  46.0751365  35.5735194  49.9543346  46.3140460
  32.0478661  36.3308126  26.6896486  32.0357331  37.2749966  26.8464757
  32.9402083  36.1478272  26.3955947  30.2214623  56.2546030  38.1154164
  31.1241870  56.2869640  38.4320659  29.9951993  55.3246481  38.1300500
  31.9768225  55.0077017  34.7764243  31.0263856  55.0078878  34.6628615
  32.2800711  54.2609751  34.2600277  35.8630780  32.9250903  30.9442423
  35.0963176  32.3709390  31.0899105  36.2741485  32.9972772  31.8056574
  27.8672541  39.2135699  45.0347604  28.7304003  38.8572504  45.2450929
  27.2937952  38.8749593  45.7223008  44.5210625  60.7964983  35.7771530
  44.1829136  60.6806048  34.8892065  45.3900393  60.3956148  35.7572536
  40.3797440  62.6500460  31.7668421  39.8162305  62.5590396  30.9984708
  40.2649835  61.8300364  32.2470913  37.9261872  64.1451651  34.6052641
  38.7183164  63.8042476  34.1898940  38.1658522  64.2546626  35.5254794
  45.9596999  66.3171427  27.0782886  45.3084979  66.9025508  26.6916899
  46.7541362  66.8477622  27.1377923  39.8852626  63.4060564  27.4770020
  40.6583502  62.8589551  27.3382896  40.2378025  64.2704814  27.6884481
  42.6493876  62.1113795  37.2738279  43.2457448  61.8869818  36.5595242
  42.7068847  61.3698541  37.8763727  42.2218904  59.5653231  25.1088470
  42.4744425  59.0434752  24.3471933  41.2843463  59.4019376  25.2115153
  47.2662187  58.5689009  32.9163213  48.0525276  58.1508432  32.5653630
  47.5300891  59.4735101  33.0844861  47.4372264  64.0061859  27.6151870
  46.8018097  64.0796486  28.3272775  47.1069671  64.5955458  26.9370949
  41.9415193  61.4681336  27.3112845  41.8251451  60.7926240  27.9793929
  42.0517453  60.9813710  26.4944998  44.2846734  60.9291484  31.0159534
  43.9204941  60.4022105  31.7272456  45.1413850  60.5389953  30.8426019
  50.1896034  52.2185816  38.2790800  49.8579359  53.0881227  38.0552015
  49.5941648  51.9022100  38.9584831  43.9252221  55.9581383  26.0120883
  44.0926623  56.8261620  26.3791354  43.7349390  56.1208665  25.0882172
  40.1340035  60.8712159  33.7123417  39.2090532  60.7388373  33.9201109
  40.3824449  61.6506378  34.2093360  43.9041442  58.4139041  26.9967549
  43.7841067  58.8596092  27.8353030  43.2094030  58.7624358  26.4381088
  37.4948846  60.5145433  34.5467206  37.6241228  60.7679911  35.4606618
  36.8146298  61.1073141  34.2271862  41.6648334  71.1842683  30.6457681
  41.5872363  72.1350508  30.7246161  41.0609977  70.8388555  31.3032607
  49.6026508  58.8860514  27.8247883  50.5144364  59.1187901  27.6495581
  49.0936155  59.4697558  27.2622962  44.2398345  58.2457749  38.8342733
  45.0859541  58.6697162  38.9777382  44.1796983  57.5891373  39.5281296
  46.9462482  55.0618550  36.0737744  46.0846962  55.3599803  36.3654482
  46.9724917  55.2788949  35.1418777  43.7624052  63.6060740  32.4811550
  44.2262397  63.8848443  31.6916173  43.4980850  62.7044185  32.2984641
  40.6548133  63.1532222  35.4191313  41.2249490  63.5819490  34.7808798
  41.2456245  62.8714807  36.1175499  42.6992938  59.7283893  29.2901115
  43.4016981  60.1804937  29.7575042  42.3673566  59.0867712  29.9181008
  36.4418272  57.9867446  34.5918249  35.6517326  58.2424974  34.1158359
  36.9329519  58.8015783  34.6970289  38.3933017  58.3512025  31.5501725
  37.5964181  58.4630719  32.0685221  38.1658610  58.6898677  30.6842616
  44.2238685  64.8756728  39.4984240  44.2883117  65.3377135  40.3342412
  43.5149609  64.2454093  39.6266550  34.7255975  58.2397936  37.0233240
  34.9764013  59.1244946  37.2890815  35.2615523  58.0602537  36.2508331
  43.9386703  66.5424835  29.3663220  43.8032377  67.3876371  29.7948068
  44.4796515  66.7444113  28.6029154  37.3916100  64.0600274  29.9391145
  37.9040621  64.8543524  30.0896710  38.0438813  63.3626564  29.8724747
  39.2010985  67.1766030  32.0213899  39.3777613  68.0983994  31.8334883
  39.9967818  66.8624449  32.4508278  40.3242300  68.6944204  38.0224241
  40.8749725  68.5661267  37.2501235  39.4853776  68.9939093  37.6719134
  47.6636417  67.4451202  41.5244964  47.6454892  68.2660083  41.0325233
  48.5856337  67.3205277  41.7495105  47.2879166  50.0655397  37.8962114
  46.9443436  50.9557039  37.8201224  47.6558129  49.8757055  37.0331699
  35.3565017  62.3888928  30.7150716  36.1940239  62.7985936  30.4984424
  35.5343284  61.4488370  30.6850910  47.2529449  60.0564008  26.4034549
  46.7376072  60.8268613  26.6422936  46.9806757  59.3829145  27.0267610
  44.8376560  54.9013709  31.4619787  43.9818156  54.5120560  31.2825426
  45.2503512  54.9805670  30.6019573  46.3675707  52.4360053  35.8611347
  45.8640502  52.3990188  35.0479152  46.6606313  53.3452795  35.9208004
  42.6118592  52.5198782  34.8677529  43.4771589  52.3241591  34.5083418
  42.6796101  52.2909134  35.7946886  47.0415752  57.9291101  28.2294330
  46.7365888  58.2437250  29.0804473  47.9946194  58.0072520  28.2721663
  45.4862184  64.0881324  29.8787284  44.9583545  63.3534083  29.5660522
  44.9849687  64.8656000  29.6327252  40.2180912  54.7500990  32.2393896
  40.7924663  54.5276172  31.5067089  40.8051894  54.8189685  32.9922497
  40.5450499  56.7805451  26.2589781  39.7087811  57.1180138  26.5799056
  40.4055268  56.6454431  25.3216918  42.5203579  51.6242239  30.9668965
  41.8667992  51.3091256  30.3425580  42.4784053  51.0017980  31.6928788
  43.6314784  61.9061534  22.8822257  42.7241846  61.6750788  23.0813406
  44.1285816  61.1099153  23.0696239  46.5382863  70.6159041  25.8018943
  45.8644562  70.9190738  26.4103901  46.9248685  71.4188122  25.4524400
  45.7541320  58.1124173  35.2916613  44.8363881  58.3339120  35.1338301
  46.1701463  58.1870483  34.4328320  46.5376367  59.5115588  30.4219293
  47.2848186  60.0236985  30.1126415  46.8067957  59.1899641  31.2823687
  44.8103018  62.0074129  27.4046247  43.9014237  61.7233162  27.5018717
  44.8398101  62.4273208  26.5449554  48.4855224  67.4557215  32.1087233
  48.7778199  68.0162272  31.3899599  48.9953845  67.7485776  32.8640392
  49.0866832  49.3248957  32.9979852  49.3925709  48.4646320  32.7105767
  49.8119437  49.9166577  32.7978845  35.3791188  59.7279643  31.3861449
  35.1815588  59.1349004  30.6612516  34.8237852  59.4231853  32.1037388
  43.3587912  59.6202750  33.5056043  43.4136521  58.6676586  33.4298519
  42.5479114  59.7762189  33.9897341  44.5079105  63.5482873  24.7434326
  44.0698535  62.8318732  24.2839963  45.2489546  63.7758987  24.1819417
  41.2980271  58.2379809  31.2646421  40.4848137  58.5373980  31.6711614
  41.7939266  57.8435498  31.9820904  43.4488849  68.2337566  33.1980686
  43.4065028  68.4598413  32.2689218  44.3651548  68.0000941  33.3466487
  40.7894346  55.8098165  36.8807656  41.4293726  55.6686924  36.1830620
  39.9571877  55.5232678  36.5046258  41.5654650  65.1100595  32.9942649
  42.3595249  64.6150915  32.7925224  40.8546343  64.5818458  32.6310354
  46.3849495  67.4918691  37.3455016  46.4386517  68.0609627  38.1132732
  45.5164276  67.6620576  36.9809054  37.8737414  59.2543677  29.0702402
  36.9435002  59.1928133  29.2872364  37.9694886  58.7319630  28.2739043
  37.7922963  55.7798490  31.6580643  38.0529780  56.6943823  31.5489804
  38.6140135  55.3122932  31.8077256  39.2647888  57.1936247  38.8279468
  39.9370941  56.9853609  38.1792117  38.4377675  56.9958333  38.3884700
  44.1425926  65.6829617  36.6740486  44.0037012  65.3148402  37.5466424
  43.3540522  66.1977257  36.5024444  44.7374078  70.7838714  28.0166022
  44.9125834  70.3126757  28.8311645  44.0506866  71.4104480  28.2447283
  45.6931141  65.0611220  34.0629324  45.3580974  65.0211990  34.9586974
  45.1935087  64.3955936  33.5899734  39.6675385  60.4678850  39.5881905
  39.5295183  59.7359089  40.1893444  40.5780309  60.3787750  39.3066093
  48.6290333  62.4067254  24.3366383  48.0119504  61.6814082  24.2399436
  48.1606821  63.1676615  23.9933458  42.2957686  60.1798809  39.0765585
  43.0057304  59.5392002  39.0352203  42.2526994  60.4311704  39.9991765
  50.2844465  67.1166163  41.9972164  50.2257011  66.4325383  41.3302747
  50.6863983  67.8585153  41.5452790  39.3035163  73.9328077  34.7905883
  39.5431762  74.5646601  35.4684901  38.4604360  73.5816117  35.0771242
  40.4188879  56.6252679  23.4587688  39.5418345  56.5041479  23.0949934
  40.8946632  55.8338757  23.2066576  31.9391019  61.4129838  33.5529195
  32.6262059  61.0991568  32.9650210  31.7839148  62.3171203  33.2796446
  36.7425741  56.3020035  37.9814219  36.6583930  55.6945704  37.2464628
  35.9208448  56.7929053  37.9823715  43.8163025  69.7407199  37.1947387
  43.7433197  70.5462170  37.7066691  43.3740418  69.9399165  36.3695408
  43.6052805  68.9778969  30.7050208  42.8220327  69.5200649  30.7988433
  44.3045550  69.4952949  31.1044449  46.9149455  54.7873598  33.3484414
  47.4118155  54.0343561  33.0285484  46.1436436  54.8237915  32.7827623
  46.2761709  69.6394033  39.3505545  46.9889681  70.2741498  39.2781447
  45.7851737  69.7357899  38.5345547  43.4984424  56.9290981  33.0756098
  43.1282211  56.3762022  33.7637004  43.9943516  56.3249115  32.5231098
  41.3273622  67.3888476  40.1711116  42.0283082  68.0224959  40.3240510
  40.8568737  67.7303208  39.4106755  49.4528018  65.7306426  28.4559023
  49.7287862  65.6163021  29.3652897  48.5832517  65.3323911  28.4171196
  49.3568450  51.7543192  35.4963772  48.4431530  51.9847419  35.6645979
  49.7861551  51.8381636  36.3477805  46.0882082  69.9792777  32.0991837
  46.2704477  69.1614433  32.5619589  46.9115068  70.1960469  31.6616727
  46.4224248  68.9060962  29.3606885  46.9512014  68.3953417  28.7477047
  46.6852467  68.5903492  30.2252418  36.9241340  66.9224831  37.1042219
  37.5094777  66.1768519  37.2370123  36.7266179  67.2328788  37.9878883
  39.7779996  69.9576079  32.1204661  39.1090371  70.4422207  31.6368701
  39.6392865  70.2045299  33.0348040  31.5158995  59.4930432  35.8246662
  31.5543095  58.9594022  36.6183780  31.0099288  58.9665637  35.2057639
  43.9185264  71.9919822  38.7187320  44.4703572  72.1551444  39.4836405
  44.2591458  72.5824260  38.0467344  38.8949757  54.3394972  39.3209204
  38.9591084  55.2009803  38.9086602  38.8316878  53.7268974  38.5881563
  48.7696138  66.8181080  44.5735974  49.3136042  67.4311038  44.0790929
  48.1882983  67.3760658  45.0902987  35.1467573  58.2194534  28.9000593
  35.4421014  57.3105212  28.8467647  34.2455608  58.1982273  28.5781596
  47.0553651  69.9401798  35.7051002  46.9304791  69.1391538  35.1961947
  47.7132743  70.4347991  35.2164972  38.6761820  56.2950530  34.8828142
  37.9548405  56.9086498  34.7435615  39.4655075  56.8308295  34.8044788
  41.4788133  53.6304957  41.1568794  42.0022535  53.8767253  41.9195103
  41.2600466  54.4624992  40.7371931  36.8755414  55.9008632  29.0239918
  36.5468120  55.0206010  28.8415024  37.2294785  55.8456300  29.9116308
  46.1234993  67.5363534  33.5334904  45.9759956  66.6080242  33.7142474
  46.9488487  67.5583625  33.0491979  39.9897237  56.1881601  29.3915396
  40.3293310  56.7167523  28.6694005  40.4369358  56.5262007  30.1673963
  49.7269115  68.3592093  34.6199777  50.6515662  68.1534954  34.4824228
  49.5584418  68.1108494  35.5289118  42.6840678  54.5718652  38.8418464
  42.3437499  53.7726465  39.2439144  41.9779685  54.8720363  38.2695297
  43.3357150  51.6567964  37.2945787  44.1583219  51.1828443  37.1724678
  43.5795214  52.4358448  37.7944474  41.9765385  54.6856223  27.5908689
  42.6973747  55.0637476  27.0872406  41.3530689  55.4045100  27.6943667
  46.1196507  55.3901372  28.5267021  46.3360122  56.2726010  28.2255849
  45.6390575  54.9987585  27.7972663  40.8595729  58.3487085  35.1037766
  40.7140310  58.6627388  35.9962047  40.3820932  58.9671985  34.5508664
  42.7192112  55.3389633  35.1518655  42.7053680  54.4430726  34.8150953
  43.4364540  55.3460297  35.7856941  44.5718242  55.7726973  37.1971783
  44.3136020  56.6944044  37.1956113  44.0403283  55.3757408  37.8872247
  49.5164431  68.8777760  29.9761868  49.6901309  68.3124183  29.2235721
  50.0093322  69.6778655  29.7941358  35.3341391  60.8892430  38.0425427
  34.7894859  61.6652237  38.1745701  36.2120741  61.2363234  37.8844548
  42.1229008  54.2204013  30.4206226  42.2444919  53.2920660  30.6197113
  41.8331050  54.2342699  29.5084541  44.9920198  51.9058924  33.5572945
  45.0141895  51.9698257  32.6024925  45.4088257  51.0663432  33.7513452
  50.5039604  68.1944525  27.0758767  51.1990508  68.8151218  27.2946081
  50.8462754  67.3439876  27.3511144  36.1207413  60.0162326  40.9355584
  35.3789149  60.1644961  41.5220214  35.8000157  60.2770591  40.0722333
  52.4031027  65.6444230  28.6046097  52.9282351  65.9831503  27.8795417
  52.3153379  64.7091246  28.4209232  44.0651075  69.5578304  40.7335974
  44.3738202  69.3127451  41.6058673  44.8626558  69.7624942  40.2454844
  44.0871688  71.7116214  32.9641350  43.6476678  71.2192592  33.6574207
  44.8379804  71.1689181  32.7233426  36.5664027  67.9027754  32.9665979
  37.3922046  67.6031526  32.5864622  36.2158079  67.1335377  33.4155767
  41.5345560  67.2554223  35.0363652  40.9125569  66.5924928  34.7365880
  42.2050427  67.2815355  34.3537300  34.7672632  65.8214081  33.9254912
  33.9304540  65.3936255  33.7438913  34.7396277  66.0146524  34.8625703
  52.0924933  66.2777134  43.9097295  51.3020477  66.2601273  43.3701795
  51.8558287  66.8165428  44.6646332  41.0959067  65.8058146  28.5122113
  41.2447187  66.4893610  27.8588785  41.9025510  65.7863236  29.0271568
  38.8511700  61.8323324  29.5183182  38.6057742  60.9285654  29.7163392
  39.0207614  61.8340474  28.5762660  46.5408409  52.7047000  38.9007937
  47.0590353  53.4408027  38.5754426  46.1863542  53.0110993  39.7354696
  38.1207347  57.5651681  27.0169343  37.4276592  57.6396036  26.3609379
  37.8759099  56.8012025  27.5390860  46.7921004  49.1247283  34.4208834
  47.0722757  48.4570472  35.0469260  47.5771611  49.3176378  33.9083498
  44.5954472  68.3006276  25.9833860  44.0228439  68.9196464  25.5304332
  45.1687266  68.8505638  26.5173782  48.6844241  54.6320500  38.3539810
  48.0894174  54.9125513  37.6586298  48.3993938  55.1214401  39.1256551
  47.8151732  68.5843427  27.1142442  48.7482405  68.5188988  27.3175318
  47.7274945  69.4199693  26.6556975  50.4439749  67.9009297  24.0746390
  50.3653380  67.5669161  24.9682148  51.2649415  68.3931065  24.0737862
  44.9801271  59.6367089  23.3249913  45.9260375  59.5073297  23.3938331
  44.6015516  58.8981751  23.8019341  50.9523155  51.3023095  33.2876804
  50.7547976  50.9938183  34.1720136  51.5622861  52.0284734  33.4174734
  43.1644188  57.5617066  23.2604798  42.2575643  57.2650178  23.3367511
  43.4420169  57.2646884  22.3939084  34.0822128  58.8823429  33.7103844
  33.7624913  58.0288737  33.4178218  33.5355556  59.0972007  34.4661812
  37.8602036  61.5985870  37.4273351  38.0788045  62.5302978  37.4461385
  38.2727810  61.2393844  38.2128155  44.7806254  52.1053955  29.4149039
  43.9706982  51.7601040  29.7904285  45.4690670  51.7961499  30.0036651
  46.7096802  51.1832002  31.0373336  47.2627840  51.6027456  31.6963359
  46.9466888  50.2567750  31.0796292  41.9342972  54.4204001  23.4016777
  42.7962136  54.7458899  23.6612594  42.1193317  53.6335497  22.8889843
  33.9510388  62.5026341  35.6796966  33.2573860  62.0880293  35.1666920
  34.6983379  62.5446877  35.0830385  50.0875609  53.2932527  30.5452000
  49.5074278  53.9517331  30.1630052  49.8211542  52.4709872  30.1339418
  48.5379175  52.6937585  32.7473320  49.0378954  52.8054120  31.9387639
  49.1814783  52.3898638  33.3874129  35.8647131  62.4344594  33.5562981
  35.8417819  62.5332282  32.6044864  36.1747767  63.2809745  33.8780147
  38.5234509  64.4920749  37.6709595  39.4777762  64.4604692  37.6039527
  38.3247032  64.0311373  38.4859821  39.1133891  63.0621865  40.2380393
  39.9326780  63.5565944  40.2615230  39.3870698  62.1453834  40.2097960
  48.8700487  55.4532618  29.6008348  47.9826342  55.7382268  29.3828543
  49.2854476  55.2926381  28.7535625  52.2215023  55.4779139  33.3162688
  52.9975413  55.9675591  33.5887304  51.4963157  55.9037193  33.7734557
  36.8784737  70.0340369  34.6879793  36.7439205  69.2740770  34.1217791
  36.4616800  70.7581269  34.2208582  48.0143700  65.2177292  23.6956368
  48.7179550  65.4227295  24.3114024  47.2906349  65.7854054  23.9605452
  40.0353863  70.9309686  34.8998236  39.9186247  71.8755118  34.7976926
  39.2146309  70.6283247  35.2884035  49.9230398  65.6559822  25.7454828
  50.7576002  65.2241020  25.5632303  49.7614741  65.4841835  26.6731723
  49.5776290  62.1591935  27.1111168  49.5225094  61.9936206  26.1699612
  48.9522345  62.8667968  27.2673357  34.3668805  57.3959999  40.9372590
  35.0127669  56.8858953  41.4259815  34.1585956  58.1328681  41.5116015
  42.8872415  51.6600044  26.6896486  42.8751085  52.6041884  26.8464757
  43.7795837  51.4770189  26.3955947  41.0608377  71.5837948  38.1154164
  41.9635624  71.6161558  38.4320659  40.8345747  70.6538399  38.1300500
  42.8161979  70.3368934  34.7764243  41.8657610  70.3370796  34.6628615
  43.1194466  69.5901669  34.2600277  46.7024535  48.2542821  30.9442423
  45.9356931  47.7001307  31.0899105  47.1135240  48.3264689  31.8056574
  58.5514673  76.1729473  35.8410005  59.1893083  76.0536220  35.1373345
  58.4335516  77.1210317  35.8997957  55.3604379  76.1256901  35.7771530
  55.0222891  76.0097966  34.8892065  56.2294147  75.7248066  35.7572536
  51.2191195  77.9792377  31.7668421  50.6556060  77.8882314  30.9984708
  51.1043590  77.1592282  32.2470913  55.8424162  77.2791753  41.7357735
  55.8312803  76.8844551  40.8638239  56.0044802  76.5457825  42.3291507
  48.7655627  79.4743569  34.6052641  49.5576919  79.1334393  34.1898940
  49.0052277  79.5838544  35.5254794  56.7990754  81.6463345  27.0782886
  56.1478733  82.2317425  26.6916899  57.5935116  82.1769540  27.1377923
  50.7246381  78.7352482  27.4770020  51.4977257  78.1881469  27.3382896
  51.0771780  79.5996731  27.6884481  52.5631423  80.0628864  40.6836919
  52.2721289  80.9674495  40.5683586  53.1988408  80.1045392  41.3980989
  53.4887630  77.4405713  37.2738279  54.0851202  77.2161735  36.5595242
  53.5462602  76.6990458  37.8763727  53.0612659  74.8945148  25.1088470
  53.3138179  74.3726669  24.3471933  52.1237218  74.7311294  25.2115153
  58.1055941  73.8980927  32.9163213  58.8919031  73.4800350  32.5653630
  58.3694646  74.8027019  33.0844861  58.2766019  79.3353777  27.6151870
  57.6411852  79.4088403  28.3272775  57.9463425  79.9247376  26.9370949
  52.7808947  76.7973254  27.3112845  52.6645205  76.1218158  27.9793929
  52.8911207  76.3105628  26.4944998  55.1240488  76.2583401  31.0159534
  54.7598695  75.7314022  31.7272456  55.9807604  75.8681870  30.8426019
  54.7645975  71.2873301  26.0120883  54.9320378  72.1553537  26.3791354
  54.5743144  71.4500583  25.0882172  57.5221308  79.7490280  37.6786713
  57.2222031  80.6515319  37.5702520  57.1772368  79.4822463  38.5307866
  50.9733790  76.2004077  33.7123417  50.0484286  76.0680291  33.9201109
  51.2218203  76.9798296  34.2093360  54.7435196  73.7430958  26.9967549
  54.6234821  74.1888009  27.8353030  54.0487784  74.0916276  26.4381088
  48.3342601  75.8437350  34.5467206  48.4634982  76.0971829  35.4606618
  47.6540052  76.4365058  34.2271862  52.5042088  86.5134600  30.6457681
  52.4266118  87.4642425  30.7246161  51.9003732  86.1680473  31.3032607
  54.9959318  73.6862466  43.3019048  54.2192652  74.2456386  43.2921912
  55.6349881  74.1719249  43.8233918  60.4420262  74.2152432  27.8247883
  61.3538118  74.4479818  27.6495581  59.9329909  74.7989476  27.2622962
  53.2505690  76.4947919  42.8637015  53.9920375  77.0332963  42.5871838
  52.5442676  77.1214208  43.0208566  58.7261030  78.6377059  41.4609176
  59.1344386  78.1959470  40.7163808  58.0038291  78.0629687  41.7143369
  55.0792100  73.5749666  38.8342733  55.9253295  73.9989080  38.9777382
  55.0190738  72.9183291  39.5281296  59.0489845  79.1978250  35.2161465
  58.4198707  79.3623964  34.5137533  58.6615507  79.6119860  35.9872429
  62.9279076  80.1332688  32.5705829  62.2430115  80.5131589  32.0202862
  63.0122926  80.7428015  33.3037776  58.2291545  71.2354035  40.4923907
  57.9852477  71.9896095  39.9558182  58.5051476  71.6139382  41.3271154
  60.1830008  77.7792647  39.1701172  60.3946903  78.4224407  38.4935553
  60.1359756  76.9454964  38.7023102  57.7856237  70.3910468  36.0737744
  56.9240716  70.6891721  36.3654482  57.8118672  70.6080866  35.1418777
  54.6017806  78.9352658  32.4811550  55.0656152  79.2140361  31.6916173
  54.3374605  78.0336103  32.2984641  51.4941887  78.4824140  35.4191313
  52.0643245  78.9111408  34.7808798  52.0849999  78.2006724  36.1175499
  53.5386692  75.0575811  29.2901115  54.2410736  75.5096854  29.7575042
  53.2067321  74.4159629  29.9181008  51.9867054  73.6487567  43.6652325
  51.3565715  74.3303848  43.8987721  51.8803142  73.5370649  42.7205463
  47.2812026  73.3159363  34.5918249  46.4911080  73.5716892  34.1158359
  47.7723274  74.1307701  34.6970289  61.2975836  80.6564602  37.3423530
  62.1193280  80.2544790  37.0606211  61.2938239  80.5532837  38.2939645
  49.2326772  73.6803942  31.5501725  48.4357935  73.7922637  32.0685221
  49.0052364  74.0190595  30.6842616  55.0632439  80.2048646  39.4984240
  55.1276872  80.6669053  40.3342412  54.3543363  79.5746011  39.6266550
  45.5649729  73.5689854  37.0233240  45.8157768  74.4536864  37.2890815
  46.1009278  73.3894455  36.2508331  69.3881829  77.0003351  33.6908501
  68.6345537  76.4310749  33.5352505  69.5229370  76.9666015  34.6379136
  54.7780457  81.8716753  29.3663220  54.6426132  82.7168289  29.7948068
  55.3190270  82.0736031  28.6029154  51.2647797  67.9508333  46.0277576
  50.8714742  67.3974532  46.7025220  52.0813937  68.2618911  46.4184093
  48.2309854  79.3892191  29.9391145  48.7434375  80.1835441  30.0896710
  48.8832567  78.6918482  29.8724747  50.0404739  82.5057947  32.0213899
  50.2171368  83.4275912  31.8334883  50.8361573  82.1916367  32.4508278
  54.1815758  69.3666212  43.6197832  54.9225471  69.9673365  43.5402295
  54.4133681  68.6243850  43.0615875  49.3257096  74.5522579  41.8976062
  49.2110611  73.6507837  42.1983161  48.4701613  74.7986276  41.5460878
  56.4048933  82.4940320  43.4963562  55.9612788  81.7076698  43.1784467
  57.0666147  82.6819470  42.8307453  51.1636055  84.0236121  38.0224241
  51.7143480  83.8953185  37.2501235  50.3247531  84.3231010  37.6719134
  58.5030172  82.7743120  41.5244964  58.4848647  83.5952001  41.0325233
  59.4250092  82.6497195  41.7495105  54.9603226  80.2887249  42.3668472
  55.4931562  79.5275537  42.1367780  54.4317307  79.9960901  43.1092627
  46.1958771  77.7180845  30.7150716  47.0333993  78.1277854  30.4984424
  46.3737039  76.7780288  30.6850910  58.0923203  75.3855926  26.4034549
  57.5769827  76.1560531  26.6422936  57.8200512  74.7121062  27.0267610
  55.6770314  70.2305627  31.4619787  54.8211911  69.8412477  31.2825426
  56.0897266  70.3097588  30.6019573  57.2069461  67.7651970  35.8611347
  56.7034257  67.7282105  35.0479152  57.5000068  68.6744713  35.9208004
  53.4512347  67.8490700  34.8677529  54.3165344  67.6533509  34.5083418
  53.5189856  67.6201052  35.7946886  63.0657477  78.1388281  28.3387722
  62.2886920  77.7999440  27.8942885  63.7448958  78.1440904  27.6642687
  57.8809507  73.2583018  28.2294330  57.5759642  73.5729167  29.0804473
  58.8339949  73.3364438  28.2721663  56.3255938  79.4173242  29.8787284
  55.7977300  78.6826001  29.5660522  55.8243441  80.1947918  29.6327252
  61.3048784  77.6122262  34.9954330  60.6472459  78.3021523  35.0834459
  62.1089184  78.0018694  35.3388317  51.0574666  70.0792908  32.2393896
  51.6318418  69.8568089  31.5067089  51.6445648  70.1481602  32.9922497
  60.1154243  75.9666635  33.0458272  60.6286125  76.5996627  33.5479982
  60.7655467  75.3667830  32.6801632  51.3844253  72.1097369  26.2589781
  50.5481565  72.4472055  26.5799056  51.2449023  71.9746349  25.3216918
  53.3597334  66.9534157  30.9668965  52.7061746  66.6383174  30.3425580
  53.3177808  66.3309897  31.6928788  54.4708539  77.2353452  22.8822257
  53.5635600  77.0042705  23.0813406  54.9679571  76.4391071  23.0696239
  57.3776617  85.9450959  25.8018943  56.7038316  86.2482656  26.4103901
  57.7642439  86.7480039  25.4524400  56.5935074  73.4416090  35.2916613
  55.6757635  73.6631037  35.1338301  57.0095218  73.5162401  34.4328320
  57.3770122  74.8407506  30.4219293  58.1241941  75.3528903  30.1126415
  57.6461711  74.5191559  31.2823687  55.6496772  77.3366047  27.4046247
  54.7407991  77.0525079  27.5018717  55.6791856  77.7565125  26.5449554
  60.8816039  80.9472636  31.1737415  60.4278367  80.1063546  31.2302605
  60.2510006  81.5834035  31.5112195  59.3248979  82.7849133  32.1087233
  59.6171953  83.3454190  31.3899599  59.8347599  83.0777694  32.8640392
  46.2184942  75.0571561  31.3861449  46.0209342  74.4640922  30.6612516
  45.6631606  74.7523771  32.1037388  54.1981666  74.9494667  33.5056043
  54.2530276  73.9968504  33.4298519  53.3872868  75.1054106  33.9897341
  55.3472860  78.8774790  24.7434326  54.9092290  78.1610649  24.2839963
  56.0883301  79.1050905  24.1819417  52.1374026  73.5671727  31.2646421
  51.3241891  73.8665898  31.6711614  52.6333020  73.1727416  31.9820904
  54.2882604  83.5629484  33.1980686  54.2458783  83.7890330  32.2689218
  55.2045303  83.3292859  33.3466487  57.7348238  74.0313552  40.0961315
  58.0897625  74.2585025  40.9555781  58.3820369  74.3631928  39.4738571
  63.4645975  77.1531987  30.8010644  63.3263873  77.3433583  29.8731834
  63.1082193  77.9151370  31.2578696  51.6288101  71.1390083  36.8807656
  52.2687480  70.9978842  36.1830620  50.7965631  70.8524596  36.5046258
  63.4915354  79.2208514  35.8121916  63.9251861  79.1283803  36.6604970
  64.2046935  79.1966015  35.1741932  52.4048405  80.4392513  32.9942649
  53.1989003  79.9442833  32.7925224  51.6940097  79.9110376  32.6310354
  57.2243249  82.8210609  37.3455016  57.2780271  83.3901545  38.1132732
  56.3558030  82.9912494  36.9809054  48.7131168  74.5835595  29.0702402
  47.7828756  74.5220050  29.2872364  48.8088640  74.0611547  28.2739043
  48.6316717  71.1090408  31.6580643  48.8923534  72.0235741  31.5489804
  49.4533889  70.6414850  31.8077256  50.1041642  72.5228165  38.8279468
  50.7764696  72.3145527  38.1792117  49.2771429  72.3250251  38.3884700
  64.3530904  79.2632215  38.3454801  64.5466794  80.1678026  38.5914076
  64.2531522  78.8039634  39.1793386  56.0067214  69.1490106  40.8445129
  55.3595130  69.8480055  40.7509605  56.7768230  69.5826250  41.2121377
  59.4146012  79.4138958  43.9195682  59.2631519  79.1849509  43.0025766
  59.4050692  80.3709559  43.9327027  56.1831349  76.9870871  38.9041948
  57.1123409  77.1382030  38.7310916  55.7622379  77.0754891  38.0490595
  54.9819681  81.0121535  36.6740486  54.8430766  80.6440319  37.5466424
  54.1934277  81.5269174  36.5024444  55.5767833  86.1130631  28.0166022
  55.7519588  85.6418675  28.8311645  54.8900621  86.7396398  28.2447283
  56.5324896  80.3903138  34.0629324  56.1974728  80.3503908  34.9586974
  56.0328841  79.7247854  33.5899734  50.5069140  75.7970768  39.5881905
  50.3688938  75.0651007  40.1893444  51.4174063  75.7079668  39.3066093
  59.4684087  77.7359172  24.3366383  58.8513258  77.0106000  24.2399436
  59.0000576  78.4968532  23.9933458  53.1351440  75.5090727  39.0765585
  53.8451059  74.8683919  39.0352203  53.0920749  75.7603622  39.9991765
  61.1238219  82.4458080  41.9972164  61.0650765  81.7617300  41.3302747
  61.5257737  83.1877070  41.5452790  51.8480374  72.4955945  40.8961224
  51.3117731  72.0446683  41.5482820  51.2597083  72.6301854  40.1531688
  50.1428918  89.2619994  34.7905883  50.3825516  89.8938518  35.4684901
  49.2998114  88.9108034  35.0771242  51.2582633  71.9544596  23.4587688
  50.3812100  71.8333397  23.0949934  51.7340386  71.1630675  23.2066576
  61.1255626  80.4097664  40.2286143  60.2382405  80.0723586  40.3512542
  61.6954177  79.6780696  40.4654909  42.7784773  76.7421756  33.5529195
  43.4655813  76.4283486  32.9650210  42.6232902  77.6463121  33.2796446
  47.5819496  71.6311953  37.9814219  47.4977684  71.0237622  37.2464628
  46.7602202  72.1220971  37.9823715  54.6556780  85.0699117  37.1947387
  54.5826951  85.8754088  37.7066691  54.2134173  85.2691082  36.3695408
  54.4446559  84.3070887  30.7050208  53.6614081  84.8492567  30.7988433
  55.1439305  84.8244866  31.1044449  65.6072967  75.8205882  34.9902705
  65.5962843  76.7030597  34.6196638  64.7390346  75.4677432  34.7957242
  57.1155463  84.9685951  39.3505545  57.8283435  85.6033415  39.2781447
  56.6245492  85.0649817  38.5345547  58.8372990  78.8737203  30.9222837
  57.9029269  78.9938666  30.7527541  59.0149659  77.9709670  30.6582847
  54.3378178  72.2582899  33.0756098  53.9675966  71.7053939  33.7637004
  54.8337271  71.6541033  32.5231098  62.2245542  74.7154523  31.4572871
  62.6905994  75.5482514  31.3833174  62.6753042  74.2499504  32.1618130
  52.1667377  82.7180394  40.1711116  52.8676836  83.3516877  40.3240510
  51.6962492  83.0595126  39.4106755  60.2921773  81.0598344  28.4559023
  60.5681617  80.9454938  29.3652897  59.4226271  80.6615829  28.4171196
  59.9668663  75.2725002  37.9963666  59.3140113  75.5200909  37.3416119
  60.3449043  74.4589140  37.6626144  56.9275837  85.3084695  32.0991837
  57.1098231  84.4906351  32.5619589  57.7508823  85.5252387  31.6616727
  57.2618002  84.2352880  29.3606885  57.7905769  83.7245334  28.7477047
  57.5246222  83.9195410  30.2252418  56.0156236  76.0144813  44.4829704
  55.3396873  75.9138942  45.1532079  56.8383870  75.8584026  44.9465701
  47.7635095  82.2516749  37.1042219  48.3488532  81.5060437  37.2370123
  47.5659933  82.5620706  37.9878883  50.6173750  85.2867997  32.1204661
  49.9484125  85.7714124  31.6368701  50.4786620  85.5337217  33.0348040
  42.3552750  74.8222349  35.8246662  42.3936849  74.2885940  36.6183780
  41.8493042  74.2957555  35.2057639  54.7579019  87.3211740  38.7187320
  55.3097327  87.4843362  39.4836405  55.0985212  87.9116178  38.0467344
  49.7343512  69.6686890  39.3209204  49.7984838  70.5301721  38.9086602
  49.6710632  69.0560892  38.5881563  49.2095784  71.7410022  42.9682239
  49.8367823  71.3587100  43.5819763  48.3523703  71.5224224  43.3337931
  59.6089893  82.1472998  44.5735974  60.1529797  82.7602956  44.0790929
  59.0276738  82.7052576  45.0902987  45.9861327  73.5486452  28.9000593
  46.2814768  72.6397130  28.8467647  45.0849363  73.5274191  28.5781596
  57.8947406  85.2693716  35.7051002  57.7698545  84.4683455  35.1961947
  58.5526497  85.7639909  35.2164972  49.5155574  71.6242448  34.8828142
  48.7942160  72.2378416  34.7435615  50.3048830  72.1600213  34.8044788
  59.9582314  83.0702736  37.3330552  59.0112650  82.9508087  37.2608879
  60.3065087  82.1825234  37.4156813  52.3181888  68.9596875  41.1568794
  52.8416290  69.2059171  41.9195103  52.0994221  69.7916909  40.7371931
  47.7149169  71.2300549  29.0239918  47.3861875  70.3497928  28.8415024
  48.0688539  71.1748218  29.9116308  56.9628748  82.8655452  33.5334904
  56.8153710  81.9372159  33.7142474  57.7882241  82.8875543  33.0491979
  50.8290992  71.5173519  29.3915396  51.1687064  72.0459440  28.6694005
  51.2763112  71.8553925  30.1673963  60.5662869  83.6884011  34.6199777
  61.4909417  83.4826872  34.4824228  60.3978173  83.4400412  35.5289118
  53.5234433  69.9010570  38.8418464  53.1831253  69.1018383  39.2439144
  52.8173439  70.2012281  38.2695297  54.1750905  66.9859882  37.2945787
  54.9976974  66.5120360  37.1724678  54.4188968  67.7650366  37.7944474
  52.8159139  70.0148141  27.5908689  53.5367502  70.3929393  27.0872406
  52.1924443  70.7337017  27.6943667  56.9590262  70.7193290  28.5267021
  57.1753876  71.6017927  28.2255849  56.4784329  70.3279503  27.7972663
  51.6989483  73.6779003  35.1037766  51.5534064  73.9919306  35.9962047
  51.2214687  74.2963903  34.5508664  53.5585866  70.6681551  35.1518655
  53.5447435  69.7722644  34.8150953  54.2758294  70.6752215  35.7856941
  55.4111997  71.1018891  37.1971783  55.1529775  72.0235962  37.1956113
  54.8797037  70.7049326  37.8872247  60.3558186  84.2069678  29.9761868
  60.5295063  83.6416101  29.2235721  60.8487077  85.0070573  29.7941358
  46.1735145  76.2184347  38.0425427  45.6288614  76.9944155  38.1745701
  47.0514495  76.5655152  37.8844548  52.9622762  69.5495931  30.4206226
  53.0838673  68.6212577  30.6197113  52.6724805  69.5634617  29.5084541
  55.8313953  67.2350841  33.5572945  55.8535649  67.2990175  32.6024925
  56.2482012  66.3955350  33.7513452  66.2097577  76.9706101  31.5952168
  66.6528723  76.2213426  31.1971291  65.3324087  76.9616237  31.2125900
  61.3433358  83.5236443  27.0758767  62.0384263  84.1443135  27.2946081
  61.6856508  82.6731794  27.3511144  46.9601167  75.3454243  40.9355584
  46.2182903  75.4936879  41.5220214  46.6393912  75.6062509  40.0722333
  63.2424781  80.9736148  28.6046097  63.7676105  81.3123421  27.8795417
  63.1547134  80.0383163  28.4209232  54.9044830  84.8870222  40.7335974
  55.2131956  84.6419368  41.6058673  55.7020312  85.0916860  40.2454844
  54.9265442  87.0408131  32.9641350  54.4870432  86.5484510  33.6574207
  55.6773559  86.4981099  32.7233426  47.4057781  83.2319672  32.9665979
  48.2315801  82.9323444  32.5864622  47.0551833  82.4627295  33.4155767
  52.3739314  82.5846140  35.0363652  51.7519323  81.9216845  34.7365880
  53.0444181  82.6107272  34.3537300  45.6066386  81.1505999  33.9254912
  44.7698294  80.7228173  33.7438913  45.5790031  81.3438442  34.8625703
  52.4463842  71.0627928  44.6296158  52.4951997  71.9390051  44.2473928
  52.9886356  70.5205321  44.0567801  62.9318687  81.6069052  43.9097295
  62.1414231  81.5893191  43.3701795  62.6952042  82.1457345  44.6646332
  63.0516562  78.4561518  41.2230024  63.1014567  78.2911525  42.1645547
  62.9430486  77.5888777  40.8327905  51.9352821  81.1350064  28.5122113
  52.0840941  81.8185528  27.8588785  52.7419265  81.1155154  29.0271568
  60.3420325  74.4392446  42.5389330  61.2430188  74.2998911  42.2473328
  60.4168299  74.6046901  43.4787508  54.6763130  71.8159301  41.3842517
  53.8066440  72.1092867  41.1125105  54.9122610  72.3999746  42.1049780
  64.5534759  80.8758460  41.4672045  64.2619568  81.2388440  42.3035506
  63.9406891  80.1625468  41.2885377  65.7530442  78.4411339  33.9874616
  66.5877333  78.8801143  34.1512176  65.8889570  77.9649993  33.1682861
  62.8021947  75.9991074  39.9352103  63.2776069  76.1918720  39.1270955
  61.8787513  76.0550260  39.6895487  49.6905454  77.1615241  29.5183182
  49.4451496  76.2577571  29.7163392  49.8601369  77.1632392  28.5762660
  48.9601102  72.8943599  27.0169343  48.2670347  72.9687954  26.3609379
  48.7152854  72.1303943  27.5390860  55.4348227  83.6298194  25.9833860
  54.8622194  84.2488381  25.5304332  56.0081020  84.1797556  26.5173782
  58.6545486  83.9135344  27.1142442  59.5876160  83.8480906  27.3175318
  58.5668699  84.7491611  26.6556975  61.2833503  83.2301215  24.0746390
  61.2047135  82.8961078  24.9682148  62.1043170  83.7222983  24.0737862
  63.9811694  76.0962954  37.2822709  63.9488014  75.1578955  37.4682392
  64.5912318  76.1746991  36.5488533  55.8195025  74.9659007  23.3249913
  56.7654130  74.8365215  23.3938331  55.4409270  74.2273669  23.8019341
  69.7988244  77.1578961  36.4228745  70.5291633  76.8964249  36.9836449
  69.1895190  76.4207683  36.4630813  55.7033718  79.0176753  44.7850570
  56.6236727  79.1955352  44.9790616  55.6683301  78.0732798  44.6330269
  54.0037942  72.8908983  23.2604798  53.0969398  72.5942096  23.3367511
  54.2813923  72.5938801  22.3939084  44.9215883  74.2115347  33.7103844
  44.6018667  73.3580655  33.4178218  44.3749311  74.4263925  34.4661812
  48.6995790  76.9277788  37.4273351  48.9181800  77.8594896  37.4461385
  49.1121564  76.5685762  38.2128155  55.6200008  67.4345873  29.4149039
  54.8100736  67.0892958  29.7904285  56.3084425  67.1253417  30.0036651
  53.5723656  72.5010993  46.8176100  53.4720382  73.4505350  46.7488191
  53.3545198  72.1729232  45.9452170  52.7736727  69.7495919  23.4016777
  53.6355891  70.0750817  23.6612594  52.9587071  68.9627414  22.8889843
  44.7904143  77.8318258  35.6796966  44.0967614  77.4172211  35.1666920
  45.5377134  77.8738795  35.0830385  53.4354926  75.9308132  45.6341161
  52.9522007  76.7308492  45.8405050  53.5215865  75.9416077  44.6808605
  46.7040885  77.7636512  33.5562981  46.6811573  77.8624199  32.6044864
  47.0141522  78.6101663  33.8780147  49.3628263  79.8212667  37.6709595
  50.3171517  79.7896609  37.6039527  49.1640787  79.3603291  38.4859821
  49.9527645  78.3913783  40.2380393  50.7720534  78.8857862  40.2615230
  50.2264453  77.4745751  40.2097960  47.7178492  85.3632287  34.6879793
  47.5832960  84.6032687  34.1217791  47.3010554  86.0873186  34.2208582
  58.8537455  80.5469210  23.6956368  59.5573305  80.7519213  24.3114024
  58.1300104  81.1145972  23.9605452  59.6835265  76.2979071  29.8158638
  59.6270467  76.7547623  28.9766271  60.2363608  75.5369756  29.6381481
  50.8747618  86.2601604  34.8998236  50.7580002  87.2047036  34.7976926
  50.0540064  85.9575165  35.2884035  60.7624152  80.9851739  25.7454828
  61.5969756  80.5532938  25.5632303  60.6008495  80.8133753  26.6731723
  60.4170044  77.4883853  27.1111168  60.3618848  77.3228124  26.1699612
  59.7916100  78.1959885  27.2673357  45.2062559  72.7251917  40.9372590
  45.8521423  72.2150871  41.4259815  44.9979711  73.4620599  41.5116015
  57.7315952  79.7932764  46.4364730  58.6007111  79.9673417  46.0751365
  57.2522703  80.6127181  46.3140460  53.7266170  66.9891962  26.6896486
  53.7144840  67.9333801  26.8464757  54.6189592  66.8062107  26.3955947
  51.9002132  86.9129865  38.1154164  52.8029379  86.9453476  38.4320659
  51.6739502  85.9830316  38.1300500  53.6555734  85.6660852  34.7764243
  52.7051365  85.6662714  34.6628615  53.9588220  84.9193587  34.2600277
  49.5460050  69.8719534  45.0347604  50.4091512  69.5156339  45.2450929
  48.9725461  69.5333429  45.7223008  69.3908427  91.5021390  35.8410005
  70.0286837  91.3828138  35.1373345  69.2729270  92.4502234  35.8997957
  66.1998134  91.4548818  35.7771530  65.8616645  91.3389883  34.8892065
  67.0687902  91.0539984  35.7572536  62.0584949  93.3084295  31.7668421
  61.4949814  93.2174232  30.9984708  61.9437344  92.4884199  32.2470913
  66.6817917  92.6083670  41.7357735  66.6706557  92.2136468  40.8638239
  66.8438556  91.8749743  42.3291507  59.6049381  94.8035486  34.6052641
  60.3970673  94.4626311  34.1898940  59.8446031  94.9130462  35.5254794
  67.6384508  96.9755263  27.0782886  66.9872488  97.5609343  26.6916899
  68.4328871  97.5061458  27.1377923  61.5640135  94.0644400  27.4770020
  62.3371011  93.5173387  27.3382896  61.9165534  94.9288649  27.6884481
  63.4025178  95.3920782  40.6836919  63.1115044  96.2966413  40.5683586
  64.0382162  95.4337310  41.3980989  64.3281385  92.7697631  37.2738279
  64.9244957  92.5453653  36.5595242  64.3856356  92.0282376  37.8763727
  63.9006413  90.2237066  25.1088470  64.1531934  89.7018587  24.3471933
  62.9630972  90.0603211  25.2115153  68.9449696  89.2272844  32.9163213
  69.7312785  88.8092267  32.5653630  69.2088400  90.1318936  33.0844861
  69.1159773  94.6645695  27.6151870  68.4805606  94.7380321  28.3272775
  68.7857180  95.2539293  26.9370949  74.3458123  89.1648077  33.8196192
  75.0783295  88.5947294  34.0534021  73.5897479  88.7769678  34.2602697
  63.6202702  92.1265172  27.3112845  63.5038960  91.4510075  27.9793929
  63.7304962  91.6397546  26.4944998  65.9634243  91.5875319  31.0159534
  65.5992450  91.0605940  31.7272456  66.8201359  91.1973788  30.8426019
  71.8683543  82.8769652  38.2790800  71.5366868  83.7465062  38.0552015
  71.2729157  82.5605936  38.9584831  65.6039730  86.6165219  26.0120883
  65.7714132  87.4845455  26.3791354  65.4136899  86.7792500  25.0882172
  68.3615063  95.0782198  37.6786713  68.0615786  95.9807236  37.5702520
  68.0166122  94.8114381  38.5307866  61.8127544  91.5295994  33.7123417
  60.8878041  91.3972208  33.9201109  62.0611958  92.3090214  34.2093360
  71.7612207  87.5964738  35.3584150  70.8529084  87.5280146  35.0642911
  71.7099802  88.0736683  36.1865976  65.5828951  89.0722876  26.9967549
  65.4628576  89.5179927  27.8353030  64.8881539  89.4208194  26.4381088
  59.1736355  91.1729268  34.5467206  59.3028737  91.4263747  35.4606618
  58.4933807  91.7656976  34.2271862  63.3435843 101.8426518  30.6457681
  63.2659872 102.7934343  30.7246161  62.7397486 101.4972390  31.3032607
  65.8353072  89.0154383  43.3019048  65.0586406  89.5748303  43.2921912
  66.4743635  89.5011166  43.8233918  73.6273853  85.7981176  37.1362024
  72.9848233  86.0913709  36.4901819  73.1228782  85.6834096  37.9415221
  71.2814017  89.5444349  27.8247883  72.1931873  89.7771736  27.6495581
  70.7723664  90.1281394  27.2622962  64.0899445  91.8239837  42.8637015
  64.8314129  92.3624881  42.5871838  63.3836430  92.4506125  43.0208566
  69.5654784  93.9668977  41.4609176  69.9738140  93.5251388  40.7163808
  68.8432046  93.3921605  41.7143369  65.9185854  88.9041584  38.8342733
  66.7647050  89.3280997  38.9777382  65.8584492  88.2475208  39.5281296
  69.8883599  94.5270168  35.2161465  69.2592461  94.6915882  34.5137533
  69.5009261  94.9411777  35.9872429  73.7672831  95.4624606  32.5705829
  73.0823869  95.8423507  32.0202862  73.8516680  96.0719932  33.3037776
  69.0685300  86.5645952  40.4923907  68.8246232  87.3188013  39.9558182
  69.3445230  86.9431300  41.3271154  71.0223763  93.1084565  39.1701172
  71.2340658  93.7516325  38.4935553  70.9753511  92.2746881  38.7023102
  68.6249991  85.7202385  36.0737744  67.7634471  86.0183639  36.3654482
  68.6512426  85.9372784  35.1418777  65.4411561  94.2644576  32.4811550
  65.9049906  94.5432279  31.6916173  65.1768359  93.3628020  32.2984641
  62.3335642  93.8116057  35.4191313  62.9036999  94.2403326  34.7808798
  62.9243754  93.5298642  36.1175499  64.3780447  90.3867728  29.2901115
  65.0804490  90.8388772  29.7575042  64.0461075  89.7451547  29.9181008
  62.8260808  88.9779485  43.6652325  62.1959469  89.6595766  43.8987721
  62.7196896  88.8662566  42.7205463  58.1205781  88.6451281  34.5918249
  57.3304835  88.9008809  34.1158359  58.6117028  89.4599619  34.6970289
  72.1369590  95.9856520  37.3423530  72.9587034  95.5836707  37.0606211
  72.1331993  95.8824754  38.2939645  60.0720526  89.0095860  31.5501725
  59.2751690  89.1214554  32.0685221  59.8446118  89.3482512  30.6842616
  65.9026194  95.5340563  39.4984240  65.9670626  95.9960971  40.3342412
  65.1937118  94.9037928  39.6266550  56.4043484  88.8981771  37.0233240
  56.6551522  89.7828781  37.2890815  56.9403032  88.7186373  36.2508331
  80.2275584  92.3295269  33.6908501  79.4739292  91.7602667  33.5352505
  80.3623125  92.2957933  34.6379136  65.6174212  97.2008671  29.3663220
  65.4819886  98.0460207  29.7948068  66.1584024  97.4027948  28.6029154
  62.1041551  83.2800251  46.0277576  61.7108497  82.7266449  46.7025220
  62.9207692  83.5910829  46.4184093  59.0703609  94.7184109  29.9391145
  59.5828130  95.5127359  30.0896710  59.7226322  94.0210399  29.8724747
  60.8798494  97.8349865  32.0213899  61.0565122  98.7567830  31.8334883
  61.6755327  97.5208284  32.4508278  65.0209512  84.6958130  43.6197832
  65.7619226  85.2965283  43.5402295  65.2527435  83.9535768  43.0615875
  60.1650850  89.8814497  41.8976062  60.0504365  88.9799754  42.1983161
  59.3095368  90.1278194  41.5460878  67.2442688  97.8232237  43.4963562
  66.8006542  97.0368616  43.1784467  67.9059902  98.0111388  42.8307453
  62.0029809  99.3528039  38.0224241  62.5537234  99.2245102  37.2501235
  61.1641285  99.6522928  37.6719134  69.3423926  98.1035037  41.5244964
  69.3242401  98.9243918  41.0325233  70.2643846  97.9789112  41.7495105
  65.7996980  95.6179167  42.3668472  66.3325317  94.8567455  42.1367780
  65.2711061  95.3252819  43.1092627  68.9666675  80.7239233  37.8962114
  68.6230945  81.6140874  37.8201224  69.3345638  80.5340890  37.0331699
  57.0352526  93.0472763  30.7150716  57.8727748  93.4569772  30.4984424
  57.2130793  92.1072205  30.6850910  68.9316958  90.7147844  26.4034549
  68.4163581  91.4852448  26.6422936  68.6594266  90.0412980  27.0267610
  66.5164069  85.5597545  31.4619787  65.6605665  85.1704395  31.2825426
  66.9291021  85.6389505  30.6019573  68.0463216  83.0943888  35.8611347
  67.5428011  83.0574023  35.0479152  68.3393822  84.0036631  35.9208004
  64.2906101  83.1782618  34.8677529  65.1559098  82.9825426  34.5083418
  64.3583610  82.9492969  35.7946886  73.9051232  93.4680198  28.3387722
  73.1280675  93.1291358  27.8942885  74.5842713  93.4732822  27.6642687
  68.7203261  88.5874936  28.2294330  68.4153397  88.9021085  29.0804473
  69.6733703  88.6656356  28.2721663  67.1649693  94.7465159  29.8787284
  66.6371054  94.0117919  29.5660522  66.6637196  95.5239836  29.6327252
  72.1442539  92.9414180  34.9954330  71.4866213  93.6313441  35.0834459
  72.9482938  93.3310612  35.3388317  61.8968420  85.4084826  32.2393896
  62.4712172  85.1860007  31.5067089  62.4839403  85.4773520  32.9922497
  70.9547998  91.2958552  33.0458272  71.4679879  91.9288544  33.5479982
  71.6049222  90.6959748  32.6801632  62.2238008  87.4389287  26.2589781
  61.3875320  87.7763973  26.5799056  62.0842777  87.3038266  25.3216918
  64.1991088  82.2826074  30.9668965  63.5455501  81.9675092  30.3425580
  64.1571562  81.6601815  31.6928788  65.3102293  92.5645369  22.8822257
  64.4029355  92.3334623  23.0813406  65.8073325  91.7682989  23.0696239
  68.2170372 101.2742877  25.8018943  67.5432071 101.5774573  26.4103901
  68.6036194 102.0771957  25.4524400  67.4328829  88.7708008  35.2916613
  66.5151390  88.9922955  35.1338301  67.8488972  88.8454318  34.4328320
  68.2163876  90.1699424  30.4219293  68.9635695  90.6820821  30.1126415
  68.4855466  89.8483476  31.2823687  66.4890526  92.6657964  27.4046247
  65.5801746  92.3816997  27.5018717  66.5185610  93.0857043  26.5449554
  71.7209794  96.2764554  31.1737415  71.2672121  95.4355464  31.2302605
  71.0903761  96.9125952  31.5112195  70.6642713  87.2056540  32.4038082
  69.9265470  86.6933926  32.7348325  70.9169487  86.7656921  31.5921359
  70.1642733  98.1141051  32.1087233  70.4565708  98.6746108  31.3899599
  70.6741354  98.4069612  32.8640392  70.7654341  79.9832792  32.9979852
  71.0713218  79.1230155  32.7105767  71.4906946  80.5750412  32.7978845
  57.0578697  90.3863478  31.3861449  56.8603097  89.7932839  30.6612516
  56.5025361  90.0815689  32.1037388  65.0375421  90.2786585  33.5056043
  65.0924030  89.3260421  33.4298519  64.2266623  90.4346024  33.9897341
  66.1866614  94.2066708  24.7434326  65.7486044  93.4902567  24.2839963
  66.9277055  94.4342823  24.1819417  62.9767780  88.8963645  31.2646421
  62.1635646  89.1957815  31.6711614  63.4726775  88.5019333  31.9820904
  65.1276358  98.8921402  33.1980686  65.0852537  99.1182248  32.2689218
  66.0439057  98.6584776  33.3466487  68.5741992  89.3605469  40.0961315
  68.9291380  89.5876942  40.9555781  69.2214123  89.6923846  39.4738571
  74.3039729  92.4823905  30.8010644  74.1657628  92.6725501  29.8731834
  73.9475948  93.2443288  31.2578696  62.4681855  86.4682000  36.8807656
  63.1081235  86.3270759  36.1830620  61.6359386  86.1816514  36.5046258
  74.3309109  94.5500432  35.8121916  74.7645615  94.4575721  36.6604970
  75.0440689  94.5257933  35.1741932  63.2442159  95.7684431  32.9942649
  64.0382758  95.2734751  32.7925224  62.5333851  95.2402294  32.6310354
  68.0637004  98.1502526  37.3455016  68.1174026  98.7193462  38.1132732
  67.1951785  98.3204411  36.9809054  59.5524923  89.9127512  29.0702402
  58.6222511  89.8511968  29.2872364  59.6482395  89.3903465  28.2739043
  59.4710472  86.4382325  31.6580643  59.7317289  87.3527658  31.5489804
  60.2927644  85.9706768  31.8077256  60.9435397  87.8520082  38.8279468
  61.6158450  87.6437445  38.1792117  60.1165183  87.6542168  38.3884700
  75.1924658  94.5924133  38.3454801  75.3860548  95.4969943  38.5914076
  75.0925276  94.1331552  39.1793386  66.8460969  84.4782023  40.8445129
  66.1988884  85.1771973  40.7509605  67.6161984  84.9118167  41.2121377
  70.2539767  94.7430875  43.9195682  70.1025273  94.5141427  43.0025766
  70.2444446  95.7001477  43.9327027  67.0225103  92.3162788  38.9041948
  67.9517163  92.4673948  38.7310916  66.6016133  92.4046809  38.0490595
  65.8213435  96.3413453  36.6740486  65.6824521  95.9732237  37.5466424
  65.0328031  96.8561092  36.5024444  66.4161587 101.4422549  28.0166022
  66.5913343 100.9710592  28.8311645  65.7294375 102.0688315  28.2447283
  67.3718650  95.7195055  34.0629324  67.0368483  95.6795825  34.9586974
  66.8722596  95.0539771  33.5899734  61.3462894  91.1262685  39.5881905
  61.2082692  90.3942924  40.1893444  62.2567818  91.0371585  39.3066093
  70.3077842  93.0651090  24.3366383  69.6907013  92.3397918  24.2399436
  69.8394330  93.8260450  23.9933458  63.9745195  90.8382645  39.0765585
  64.6844813  90.1975837  39.0352203  63.9314503  91.0895540  39.9991765
  71.9631974  97.7749998  41.9972164  71.9044520  97.0909218  41.3302747
  72.3651492  98.5168988  41.5452790  62.6874129  87.8247863  40.8961224
  62.1511486  87.3738601  41.5482820  62.0990837  87.9593771  40.1531688
  60.9822672 104.5911912  34.7905883  61.2219271 105.2230436  35.4684901
  60.1391869 104.2399952  35.0771242  62.0976388  87.2836514  23.4587688
  61.2205854  87.1625315  23.0949934  62.5734141  86.4922592  23.2066576
  71.9649381  95.7389582  40.2286143  71.0776160  95.4015504  40.3512542
  72.5347932  95.0072613  40.4654909  53.6178528  92.0713674  33.5529195
  54.3049568  91.7575404  32.9650210  53.4626657  92.9755038  33.2796446
  58.4213250  86.9603870  37.9814219  58.3371439  86.3529540  37.2464628
  57.5995956  87.4512889  37.9823715  65.4950534 100.3991034  37.1947387
  65.4220706 101.2046006  37.7066691  65.0527927 100.5983000  36.3695408
  65.2840314  99.6362804  30.7050208  64.5007836 100.1784485  30.7988433
  65.9833059 100.1536784  31.1044449  68.5936964  85.4457434  33.3484414
  69.0905664  84.6927396  33.0285484  67.8223945  85.4821750  32.7827623
  76.4466721  91.1497799  34.9902705  76.4356598  92.0322515  34.6196638
  75.5784101  90.7969350  34.7957242  67.9549218 100.2977868  39.3505545
  68.6677190 100.9325333  39.2781447  67.4639246 100.3941734  38.5345547
  69.6766745  94.2029121  30.9222837  68.7423023  94.3230583  30.7527541
  69.8543413  93.3001588  30.6582847  65.1771933  87.5874817  33.0756098
  64.8069720  87.0345857  33.7637004  65.6731025  86.9832950  32.5231098
  73.0639296  90.0446440  31.4572871  73.5299748  90.8774432  31.3833174
  73.5146797  89.5791422  32.1618130  63.0061131  98.0472312  40.1711116
  63.7070591  98.6808795  40.3240510  62.5356246  98.3887043  39.4106755
  71.1315527  96.3890262  28.4559023  71.4075371  96.2746856  29.3652897
  70.2620026  95.9907746  28.4171196  71.0355959  82.4127027  35.4963772
  70.1219039  82.6431254  35.6645979  71.4649060  82.4965471  36.3477805
  70.8062417  90.6016919  37.9963666  70.1533867  90.8492827  37.3416119
  71.1842797  89.7881057  37.6626144  67.7669591 100.6376612  32.0991837
  67.9491986  99.8198268  32.5619589  68.5902577 100.8544305  31.6616727
  68.1011757  99.5644798  29.3606885  68.6299523  99.0537252  28.7477047
  68.3639976  99.2487328  30.2252418  66.8549990  91.3436730  44.4829704
  66.1790627  91.2430860  45.1532079  67.6777624  91.1875944  44.9465701
  58.6028849  97.5808667  37.1042219  59.1882286  96.8352355  37.2370123
  58.4053688  97.8912624  37.9878883  61.4567505 100.6159914  32.1204661
  60.7877880 101.1006042  31.6368701  61.3180374 100.8629135  33.0348040
  53.1946504  90.1514267  35.8246662  53.2330604  89.6177858  36.6183780
  52.6886797  89.6249473  35.2057639  65.5972773 102.6503658  38.7187320
  66.1491081 102.8135279  39.4836405  65.9378967 103.2408096  38.0467344
  60.5737266  84.9978808  39.3209204  60.6378593  85.8593638  38.9086602
  60.5104387  84.3852809  38.5881563  60.0489539  87.0701940  42.9682239
  60.6761578  86.6879017  43.5819763  59.1917458  86.8516142  43.3337931
  70.4483647  97.4764915  44.5735974  70.9923551  98.0894874  44.0790929
  69.8670492  98.0344494  45.0902987  56.8255082  88.8778369  28.9000593
  57.1208523  87.9689048  28.8467647  55.9243117  88.8566109  28.5781596
  68.7341160 100.5985633  35.7051002  68.6092300  99.7975373  35.1961947
  69.3920252 101.0931827  35.2164972  60.3549329  86.9534366  34.8828142
  59.6335914  87.5670334  34.7435615  61.1442584  87.4892131  34.8044788
  70.7976069  98.3994653  37.3330552  69.8506404  98.2800005  37.2608879
  71.1458842  97.5117151  37.4156813  63.1575642  84.2888792  41.1568794
  63.6810044  84.5351089  41.9195103  62.9387975  85.1208827  40.7371931
  58.5542923  86.5592467  29.0239918  58.2255629  85.6789846  28.8415024
  58.9082294  86.5040136  29.9116308  67.8022502  98.1947370  33.5334904
  67.6547465  97.2664077  33.7142474  68.6275996  98.2167460  33.0491979
  61.6684746  86.8465437  29.3915396  62.0080819  87.3751358  28.6694005
  62.1156867  87.1845843  30.1673963  71.4056624  99.0175928  34.6199777
  72.3303171  98.8118790  34.4824228  71.2371927  98.7692329  35.5289118
  64.3628187  85.2302487  38.8418464  64.0225008  84.4310300  39.2439144
  63.6567193  85.5304198  38.2695297  65.0144659  82.3151800  37.2945787
  65.8370728  81.8412278  37.1724678  65.2582723  83.0942284  37.7944474
  63.6552894  85.3440058  27.5908689  64.3761256  85.7221311  27.0872406
  63.0318198  86.0628935  27.6943667  67.7984016  86.0485207  28.5267021
  68.0147631  86.9309845  28.2255849  67.3178084  85.6571421  27.7972663
  62.5383238  89.0070920  35.1037766  62.3927819  89.3211224  35.9962047
  62.0608441  89.6255821  34.5508664  64.3979621  85.9973468  35.1518655
  64.3841189  85.1014562  34.8150953  65.1152049  86.0044132  35.7856941
  66.2505751  86.4310809  37.1971783  65.9923529  87.3527879  37.1956113
  65.7190792  86.0341243  37.8872247  71.1951940  99.5361596  29.9761868
  71.3688818  98.9708018  29.2235721  71.6880831 100.3362491  29.7941358
  57.0128900  91.5476265  38.0425427  56.4682368  92.3236073  38.1745701
  57.8908250  91.8947069  37.8844548  63.8016517  84.8787849  30.4206226
  63.9232428  83.9504495  30.6197113  63.5118559  84.8926535  29.5084541
  66.6707707  82.5642759  33.5572945  66.6929404  82.6282092  32.6024925
  67.0875766  81.7247268  33.7513452  77.0491331  92.2998019  31.5952168
  77.4922477  91.5505344  31.1971291  76.1717842  92.2908155  31.2125900
  72.1827113  98.8528360  27.0758767  72.8778017  99.4735053  27.2946081
  72.5250263  98.0023711  27.3511144  57.7994922  90.6746161  40.9355584
  57.0576658  90.8228796  41.5220214  57.4787666  90.9354427  40.0722333
  74.0818536  96.3028066  28.6046097  74.6069860  96.6415338  27.8795417
  73.9940888  95.3675081  28.4209232  65.7438584 100.2162139  40.7335974
  66.0525711  99.9711286  41.6058673  66.5414066 100.4208778  40.2454844
  65.7659197 102.3700049  32.9641350  65.3264187 101.8776428  33.6574207
  66.5167313 101.8273017  32.7233426  58.2451536  98.5611590  32.9665979
  59.0709555  98.2615362  32.5864622  57.8945587  97.7919212  33.4155767
  63.2133069  97.9138058  35.0363652  62.5913078  97.2508763  34.7365880
  63.8837936  97.9399190  34.3537300  56.4460141  96.4797916  33.9254912
  55.6092049  96.0520091  33.7438913  56.4183786  96.6730360  34.8625703
  63.2857596  86.3919846  44.6296158  63.3345752  87.2681969  44.2473928
  63.8280110  85.8497239  44.0567801  73.7712442  96.9360969  43.9097295
  72.9807986  96.9185108  43.3701795  73.5345796  97.4749263  44.6646332
  73.8910317  93.7853436  41.2230024  73.9408322  93.6203443  42.1645547
  73.7824240  92.9180695  40.8327905  62.7746576  96.4641981  28.5122113
  62.9234696  97.1477446  27.8588785  63.5813019  96.4447071  29.0271568
  71.1814079  89.7684364  42.5389330  72.0823942  89.6290829  42.2473328
  71.2562054  89.9338819  43.4787508  65.5156885  87.1451219  41.3842517
  64.6460194  87.4384785  41.1125105  65.7516365  87.7291664  42.1049780
  75.3928514  96.2050377  41.4672045  75.1013322  96.5680358  42.3035506
  74.7800645  95.4917386  41.2885377  76.5924196  93.7703257  33.9874616
  77.4271087  94.2093061  34.1512176  76.7283325  93.2941910  33.1682861
  73.6415702  91.3282992  39.9352103  74.1169824  91.5210638  39.1270955
  72.7181267  91.3842178  39.6895487  60.5299209  92.4907159  29.5183182
  60.2845250  91.5869489  29.7163392  60.6995123  92.4924309  28.5762660
  68.2195918  83.3630835  38.9007937  68.7377862  84.0991862  38.5754426
  67.8651051  83.6694829  39.7354696  59.7994856  88.2235517  27.0169343
  59.1064101  88.2979872  26.3609379  59.5546608  87.4595860  27.5390860
  68.4708513  79.7831118  34.4208834  68.7510266  79.1154307  35.0469260
  69.2559120  79.9760214  33.9083498  66.2741981  98.9590112  25.9833860
  65.7015948  99.5780299  25.5304332  66.8474775  99.5089474  26.5173782
  72.3417371  88.2048752  38.1680409  73.2934794  88.3046850  38.1892633
  72.1720821  87.4127021  38.6778493  70.3631750  85.2904335  38.3539810
  69.7681683  85.5709348  37.6586298  70.0781447  85.7798236  39.1256551
  69.4939241  99.2427262  27.1142442  70.4269914  99.1772824  27.3175318
  69.4062454 100.0783529  26.6556975  72.1227258  98.5593132  24.0746390
  72.0440889  98.2252996  24.9682148  72.9436924  99.0514900  24.0737862
  74.8205449  91.4254872  37.2822709  74.7881769  90.4870872  37.4682392
  75.4306072  91.5038908  36.5488533  66.6588780  90.2950925  23.3249913
  67.6047884  90.1657133  23.3938331  66.2803025  89.5565587  23.8019341
  74.9699937  88.2165915  37.3280992  74.4538986  87.4324372  37.1410921
  75.8539886  87.8884632  37.4927511  72.6310664  81.9606931  33.2876804
  72.4335485  81.6522019  34.1720136  73.2410370  82.6868570  33.4174734
  80.6381999  92.4870878  36.4228745  81.3685387  92.2256167  36.9836449
  80.0288944  91.7499600  36.4630813  78.7197296  90.6278741  37.0203197
  77.9930459  90.4934706  36.4119688  78.3044583  90.9355570  37.8259915
  66.5427472  94.3468671  44.7850570  67.4630482  94.5247270  44.9790616
  66.5077055  93.4024716  44.6330269  64.8431697  88.2200901  23.2604798
  63.9363152  87.9234014  23.3367511  65.1207678  87.9230719  22.3939084
  55.7609637  89.5407264  33.7103844  55.4412421  88.6872573  33.4178218
  55.2143065  89.7555843  34.4661812  59.5389545  92.2569705  37.4273351
  59.7575554  93.1886813  37.4461385  59.9515319  91.8977680  38.2128155
  66.4593762  82.7637791  29.4149039  65.6494491  82.4184876  29.7904285
  67.1478179  82.4545334  30.0036651  68.3884311  81.8415838  31.0373336
  68.9415349  82.2611291  31.6963359  68.6254397  80.9151586  31.0796292
  64.4117410  87.8302911  46.8176100  64.3114137  88.7797268  46.7488191
  64.1938952  87.5021150  45.9452170  63.6130481  85.0787836  23.4016777
  64.4749645  85.4042735  23.6612594  63.7980826  84.2919332  22.8889843
  55.6297897  93.1610176  35.6796966  54.9361369  92.7464129  35.1666920
  56.3770888  93.2030712  35.0830385  71.7663118  83.9516363  30.5452000
  71.1861787  84.6101167  30.1630052  71.4999051  83.1293707  30.1339418
  70.2166684  83.3521420  32.7473320  70.7166463  83.4637955  31.9387639
  70.8602292  83.0482473  33.3874129  64.2748680  91.2600050  45.6341161
  63.7915762  92.0600410  45.8405050  64.3609619  91.2707995  44.6808605
  57.5434640  93.0928430  33.5562981  57.5205328  93.1916117  32.6044864
  57.8535276  93.9393580  33.8780147  60.2022018  95.1504585  37.6709595
  61.1565271  95.1188527  37.6039527  60.0034541  94.6895208  38.4859821
  60.7921400  93.7205701  40.2380393  61.6114289  94.2149779  40.2615230
  61.0658207  92.8037669  40.2097960  70.5487996  86.1116453  29.6008348
  69.6613851  86.3966104  29.3828543  70.9641985  85.9510216  28.7535625
  73.9002532  86.1362974  33.3162688  74.6762922  86.6259426  33.5887304
  73.1750666  86.5621028  33.7734557  76.3375091  86.8490593  34.3736628
  76.9319581  86.6086329  33.6629936  76.4101674  86.1297724  35.0010164
  58.5572246 100.6924204  34.6879793  58.4226714  99.9324605  34.1217791
  58.1404309 101.4165104  34.2208582  69.6931209  95.8761128  23.6956368
  70.3967059  96.0811130  24.3114024  68.9693858  96.4437890  23.9605452
  70.5229020  91.6270989  29.8158638  70.4664221  92.0839540  28.9766271
  71.0757362  90.8661674  29.6381481  74.3333826  87.4160721  30.6408758
  74.0770760  87.0157357  31.4716966  73.7086694  88.1304515  30.5158897
  78.6446163  90.1556794  33.1480049  78.0845721  90.2249983  33.9211611
  78.0389667  89.9797779  32.4279546  61.7141372 101.5893521  34.8998236
  61.5973756 102.5338954  34.7976926  60.8933818 101.2867083  35.2884035
  71.6017907  96.3143657  25.7454828  72.4363511  95.8824855  25.5632303
  71.4402250  96.1425671  26.6731723  71.2563799  92.8175770  27.1111168
  71.2012603  92.6520042  26.1699612  70.6309854  93.5251803  27.2673357
  56.0456314  88.0543835  40.9372590  56.6915178  87.5442789  41.4259815
  55.8373465  88.7912516  41.5116015  68.5709706  95.1224682  46.4364730
  69.4400866  95.2965334  46.0751365  68.0916458  95.9419099  46.3140460
  64.5659924  82.3183879  26.6896486  64.5538594  83.2625719  26.8464757
  65.4583346  82.1354025  26.3955947  62.7395886 102.2421783  38.1154164
  63.6423133 102.2745393  38.4320659  62.5133256 101.3122234  38.1300500
  64.4949488 100.9952770  34.7764243  63.5445119 100.9954631  34.6628615
  64.7981974 100.2485504  34.2600277  68.3812044  78.9126656  30.9442423
  67.6144440  78.3585143  31.0899105  68.7922749  78.9848525  31.8056574
  60.3853805  85.2011452  45.0347604  61.2485266  84.8448257  45.2450929
  59.8119216  84.8625347  45.7223008  80.2302182 106.8313308  35.8410005
  80.8680592 106.7120055  35.1373345  80.1123025 107.7794152  35.8997957
  77.0391888 106.7840736  35.7771530  76.7010400 106.6681801  34.8892065
  77.9081656 106.3831901  35.7572536  72.8978704 108.6376213  31.7668421
  72.3343569 108.5466150  30.9984708  72.7831099 107.8176117  32.2470913
  77.5211671 107.9375588  41.7357735  77.5100312 107.5428386  40.8638239
  77.6832311 107.2041660  42.3291507  70.4443136 110.1327404  34.6052641
  71.2364428 109.7918229  34.1898940  70.6839786 110.2422379  35.5254794
  78.4778263 112.3047180  27.0782886  77.8266242 112.8901261  26.6916899
  79.2722625 112.8353375  27.1377923  72.4033890 109.3936317  27.4770020
  73.1764766 108.8465305  27.3382896  72.7559289 110.2580567  27.6884481
  74.2418932 110.7212700  40.6836919  73.9508798 111.6258331  40.5683586
  74.8775917 110.7629227  41.3980989  75.1675139 108.0989548  37.2738279
  75.7638711 107.8745571  36.5595242  75.2250111 107.3574294  37.8763727
  74.7400168 105.5528984  25.1088470  74.9925688 105.0310505  24.3471933
  73.8024727 105.3895129  25.2115153  79.7843450 104.5564762  32.9163213
  80.5706540 104.1384185  32.5653630  80.0482155 105.4610854  33.0844861
  79.9553528 109.9937612  27.6151870  79.3199361 110.0672239  28.3272775
  79.6250934 110.5831211  26.9370949  85.1851877 104.4939995  33.8196192
  85.9177049 103.9239212  34.0534021  84.4291233 104.1061596  34.2602697
  74.4596456 107.4557089  27.3112845  74.3432714 106.7801993  27.9793929
  74.5698716 106.9689463  26.4944998  76.8027997 106.9167237  31.0159534
  76.4386204 106.3897858  31.7272456  77.6595113 106.5265706  30.8426019
  82.7077298  98.2061569  38.2790800  82.3760623  99.0756980  38.0552015
  82.1122911  97.8897853  38.9584831  76.4433484 101.9457136  26.0120883
  76.6107887 102.8137373  26.3791354  76.2530653 102.1084418  25.0882172
  79.2008817 110.4074115  37.6786713  78.9009540 111.3099154  37.5702520
  78.8559877 110.1406298  38.5307866  72.6521299 106.8587912  33.7123417
  71.7271795 106.7264126  33.9201109  72.9005712 107.6382131  34.2093360
  82.6005961 102.9256655  35.3584150  81.6922838 102.8572064  35.0642911
  82.5493557 103.4028600  36.1865976  76.4222705 104.4014794  26.9967549
  76.3022330 104.8471845  27.8353030  75.7275293 104.7500111  26.4381088
  70.0130110 106.5021186  34.5467206  70.1422491 106.7555665  35.4606618
  69.3327561 107.0948894  34.2271862  74.1829597 117.1718436  30.6457681
  74.1053627 118.1226261  30.7246161  73.5791241 116.8264308  31.3032607
  76.6746827 104.3446301  43.3019048  75.8980161 104.9040221  43.2921912
  77.3137390 104.8303084  43.8233918  84.4667608 101.1273094  37.1362024
  83.8241988 101.4205627  36.4901819  83.9622536 101.0126014  37.9415221
  82.1207771 104.8736267  27.8247883  83.0325627 105.1063654  27.6495581
  81.6117418 105.4573311  27.2622962  74.9293199 107.1531754  42.8637015
  75.6707884 107.6916798  42.5871838  74.2230185 107.7798043  43.0208566
  80.4048539 109.2960895  41.4609176  80.8131895 108.8543305  40.7163808
  79.6825800 108.7213522  41.7143369  76.7579609 104.2333502  38.8342733
  77.6040804 104.6572915  38.9777382  76.6978247 103.5767126  39.5281296
  80.7277354 109.8562085  35.2161465  80.0986216 110.0207800  34.5137533
  80.3403016 110.2703695  35.9872429  84.6066585 110.7916523  32.5705829
  83.9217624 111.1715425  32.0202862  84.6910435 111.4011850  33.3037776
  79.9079054 101.8937870  40.4923907  79.6639986 102.6479930  39.9558182
  80.1838985 102.2723218  41.3271154  81.8617517 108.4376482  39.1701172
  82.0734412 109.0808242  38.4935553  81.8147265 107.6038799  38.7023102
  79.4643746 101.0494303  36.0737744  78.6028225 101.3475557  36.3654482
  79.4906181 101.2664702  35.1418777  76.2805315 109.5936494  32.4811550
  76.7443661 109.8724197  31.6916173  76.0162113 108.6919938  32.2984641
  73.1729396 109.1407975  35.4191313  73.7430754 109.5695243  34.7808798
  73.7637508 108.8590560  36.1175499  75.2174201 105.7159646  29.2901115
  75.9198245 106.1680690  29.7575042  74.8854830 105.0743465  29.9181008
  73.6654563 104.3071403  43.6652325  73.0353224 104.9887683  43.8987721
  73.5590651 104.1954484  42.7205463  68.9599535 103.9743199  34.5918249
  68.1698589 104.2300727  34.1158359  69.4510783 104.7891536  34.6970289
  82.9763345 111.3148438  37.3423530  83.7980789 110.9128625  37.0606211
  82.9725748 111.2116672  38.2939645  70.9114281 104.3387778  31.5501725
  70.1145444 104.4506472  32.0685221  70.6839873 104.6774430  30.6842616
  76.7419948 110.8632481  39.4984240  76.8064381 111.3252888  40.3342412
  76.0330872 110.2329846  39.6266550  67.2437238 104.2273689  37.0233240
  67.4945277 105.1120699  37.2890815  67.7796787 104.0478291  36.2508331
  91.0669338 107.6587186  33.6908501  90.3133046 107.0894584  33.5352505
  91.2016879 107.6249851  34.6379136  76.4567966 112.5300589  29.3663220
  76.3213641 113.3752124  29.7948068  76.9977779 112.7319866  28.6029154
  72.9435306  98.6092168  46.0277576  72.5502251  98.0558367  46.7025220
  73.7601446  98.9202747  46.4184093  69.9097363 110.0476027  29.9391145
  70.4221884 110.8419277  30.0896710  70.5620076 109.3502317  29.8724747
  71.7192248 113.1641783  32.0213899  71.8958876 114.0859748  31.8334883
  72.5149082 112.8500202  32.4508278  75.8603267 100.0250047  43.6197832
  76.6012980 100.6257201  43.5402295  76.0921190  99.2827685  43.0615875
  71.0044605 105.2106415  41.8976062  70.8898120 104.3091672  42.1983161
  70.1489122 105.4570111  41.5460878  78.0836442 113.1524155  43.4963562
  77.6400297 112.3660534  43.1784467  78.7453656 113.3403306  42.8307453
  72.8423564 114.6819957  38.0224241  73.3930989 114.5537020  37.2501235
  72.0035040 114.9814846  37.6719134  80.1817680 113.4326955  41.5244964
  80.1636156 114.2535836  41.0325233  81.1037601 113.3081030  41.7495105
  76.6390735 110.9471084  42.3668472  77.1719071 110.1859373  42.1367780
  76.1104816 110.6544736  43.1092627  79.8060430  96.0531150  37.8962114
  79.4624699  96.9432792  37.8201224  80.1739392  95.8632808  37.0331699
  67.8746280 108.3764681  30.7150716  68.7121502 108.7861689  30.4984424
  68.0524548 107.4364123  30.6850910  79.7710712 106.0439761  26.4034549
  79.2557336 106.8144366  26.6422936  79.4988021 105.3704898  27.0267610
  77.3557823 100.8889462  31.4619787  76.4999420 100.4996313  31.2825426
  77.7684775 100.9681423  30.6019573  78.8856970  98.4235806  35.8611347
  78.3821766  98.3865941  35.0479152  79.1787577  99.3328548  35.9208004
  75.1299856  98.5074535  34.8677529  75.9952853  98.3117344  34.5083418
  75.1977365  98.2784887  35.7946886  84.7444986 108.7972116  28.3387722
  83.9674429 108.4583276  27.8942885  85.4236467 108.8024739  27.6642687
  79.5597016 103.9166854  28.2294330  79.2547151 104.2313003  29.0804473
  80.5127458 103.9948273  28.2721663  78.0043447 110.0757077  29.8787284
  77.4764809 109.3409836  29.5660522  77.5030950 110.8531753  29.6327252
  82.9836293 108.2706097  34.9954330  82.3259968 108.9605359  35.0834459
  83.7876693 108.6602529  35.3388317  72.7362175 100.7376743  32.2393896
  73.3105927 100.5151925  31.5067089  73.3233157 100.8065438  32.9922497
  81.7941752 106.6250470  33.0458272  82.3073634 107.2580462  33.5479982
  82.4442976 106.0251666  32.6801632  73.0631762 102.7681204  26.2589781
  72.2269074 103.1055891  26.5799056  72.9236532 102.6330184  25.3216918
  75.0384843  97.6117992  30.9668965  74.3849255  97.2967009  30.3425580
  74.9965317  96.9893733  31.6928788  76.1496048 107.8937287  22.8822257
  75.2423109 107.6626541  23.0813406  76.6467080 107.0974906  23.0696239
  78.2722583 104.0999926  35.2916613  77.3545144 104.3214873  35.1338301
  78.6882727 104.1746236  34.4328320  79.0557631 105.4991341  30.4219293
  79.8029450 106.0112739  30.1126415  79.3249220 105.1775394  31.2823687
  77.3284281 107.9949882  27.4046247  76.4195500 107.7108915  27.5018717
  77.3579365 108.4148961  26.5449554  82.5603548 111.6056472  31.1737415
  82.1065875 110.7647381  31.2302605  81.9297515 112.2417870  31.5112195
  81.5036468 102.5348458  32.4038082  80.7659225 102.0225844  32.7348325
  81.7563241 102.0948839  31.5921359  81.0036488 113.4432968  32.1087233
  81.2959462 114.0038025  31.3899599  81.5135108 113.7361529  32.8640392
  81.6048095  95.3124710  32.9979852  81.9106972  94.4522073  32.7105767
  82.3300700  95.9042330  32.7978845  67.8972451 105.7155396  31.3861449
  67.6996851 105.1224757  30.6612516  67.3419115 105.4107606  32.1037388
  75.8769175 105.6078503  33.5056043  75.9317785 104.6552339  33.4298519
  75.0660377 105.7637942  33.9897341  77.0260369 109.5358626  24.7434326
  76.5879799 108.8194485  24.2839963  77.7670810 109.7634741  24.1819417
  73.8161535 104.2255562  31.2646421  73.0029400 104.5249733  31.6711614
  74.3120529 103.8311251  31.9820904  75.9670113 114.2213319  33.1980686
  75.9246292 114.4474166  32.2689218  76.8832812 113.9876694  33.3466487
  79.4135747 104.6897387  40.0961315  79.7685134 104.9168860  40.9555781
  80.0607878 105.0215764  39.4738571  85.1433484 107.8115823  30.8010644
  85.0051382 108.0017419  29.8731834  84.7869702 108.5735206  31.2578696
  73.3075610 101.7973918  36.8807656  73.9474989 101.6562677  36.1830620
  72.4753140 101.5108431  36.5046258  85.1702863 109.8792350  35.8121916
  85.6039370 109.7867639  36.6604970  85.8834444 109.8549850  35.1741932
  74.0835914 111.0976348  32.9942649  74.8776512 110.6026668  32.7925224
  73.3727606 110.5694211  32.6310354  78.9030758 113.4794444  37.3455016
  78.9567780 114.0485380  38.1132732  78.0345539 113.6496329  36.9809054
  70.3918677 105.2419430  29.0702402  69.4616265 105.1803886  29.2872364
  70.4876149 104.7195383  28.2739043  70.3104226 101.7674243  31.6580643
  70.5711043 102.6819576  31.5489804  71.1321398 101.2998685  31.8077256
  71.7829151 103.1812000  38.8279468  72.4552205 102.9729362  38.1792117
  70.9558938 102.9834086  38.3884700  86.0318413 109.9216050  38.3454801
  86.2254303 110.8261861  38.5914076  85.9319031 109.4623469  39.1793386
  77.6854723  99.8073941  40.8445129  77.0382639 100.5063891  40.7509605
  78.4555739 100.2410085  41.2121377  81.0933521 110.0722793  43.9195682
  80.9419028 109.8433345  43.0025766  81.0838201 111.0293395  43.9327027
  77.8618858 107.6454706  38.9041948  78.7910918 107.7965866  38.7310916
  77.4409888 107.7338727  38.0490595  76.6607190 111.6705370  36.6740486
  76.5218275 111.3024155  37.5466424  75.8721786 112.1853010  36.5024444
  77.2555342 116.7714467  28.0166022  77.4307097 116.3002510  28.8311645
  76.5688130 117.3980233  28.2447283  78.2112405 111.0486973  34.0629324
  77.8762237 111.0087743  34.9586974  77.7116350 110.3831689  33.5899734
  72.1856649 106.4554603  39.5881905  72.0476447 105.7234842  40.1893444
  73.0961572 106.3663503  39.3066093  81.1471596 108.3943007  24.3366383
  80.5300767 107.6689836  24.2399436  80.6788085 109.1552368  23.9933458
  74.8138949 106.1674562  39.0765585  75.5238568 105.5267755  39.0352203
  74.7708258 106.4187457  39.9991765  82.8025728 113.1041916  41.9972164
  82.7438274 112.4201136  41.3302747  83.2045246 113.8460906  41.5452790
  73.5267883 103.1539780  40.8961224  72.9905240 102.7030519  41.5482820
  72.9384592 103.2885689  40.1531688  71.8216427 119.9203830  34.7905883
  72.0613025 120.5522354  35.4684901  70.9785623 119.5691870  35.0771242
  72.9370142 102.6128432  23.4587688  72.0599609 102.4917232  23.0949934
  73.4127895 101.8214510  23.2066576  82.8043135 111.0681500  40.2286143
  81.9169914 110.7307421  40.3512542  83.3741686 110.3364531  40.4654909
  64.4572282 107.4005591  33.5529195  65.1443322 107.0867321  32.9650210
  64.3020411 108.3046956  33.2796446  69.2607005 102.2895788  37.9814219
  69.1765193 101.6821458  37.2464628  68.4389711 102.7804806  37.9823715
  76.3344289 115.7282952  37.1947387  76.2614460 116.5337923  37.7066691
  75.8921682 115.9274918  36.3695408  76.1234068 114.9654722  30.7050208
  75.3401590 115.5076402  30.7988433  76.8226814 115.4828702  31.1044449
  79.4330718 100.7749351  33.3484414  79.9299418 100.0219314  33.0285484
  78.6617700 100.8113668  32.7827623  87.2860476 106.4789717  34.9902705
  87.2750352 107.3614432  34.6196638  86.4177855 106.1261268  34.7957242
  78.7942972 115.6269786  39.3505545  79.5070944 116.2617251  39.2781447
  78.3033001 115.7233652  38.5345547  80.5160499 109.5321039  30.9222837
  79.5816778 109.6522501  30.7527541  80.6937168 108.6293505  30.6582847
  76.0165687 102.9166734  33.0756098  75.6463475 102.3637775  33.7637004
  76.5124780 102.3124868  32.5231098  83.9033050 105.3738358  31.4572871
  84.3693503 106.2066350  31.3833174  84.3540551 104.9083340  32.1618130
  73.8454886 113.3764229  40.1711116  74.5464345 114.0100712  40.3240510
  73.3750001 113.7178961  39.4106755  81.9709282 111.7182179  28.4559023
  82.2469126 111.6038774  29.3652897  81.1013780 111.3199664  28.4171196
  81.8749713  97.7418945  35.4963772  80.9612793  97.9723172  35.6645979
  82.3042815  97.8257389  36.3477805  81.6456172 105.9308837  37.9963666
  80.9927622 106.1784744  37.3416119  82.0236552 105.1172975  37.6626144
  78.6063346 115.9668530  32.0991837  78.7885740 115.1490186  32.5619589
  79.4296332 116.1836222  31.6616727  78.9405511 114.8936715  29.3606885
  79.4693278 114.3829170  28.7477047  79.2033731 114.5779245  30.2252418
  77.6943745 106.6728648  44.4829704  77.0184382 106.5722777  45.1532079
  78.5171379 106.5167862  44.9465701  69.4422604 112.9100585  37.1042219
  70.0276041 112.1644272  37.2370123  69.2447442 113.2204541  37.9878883
  72.2961259 115.9451832  32.1204661  71.6271634 116.4297960  31.6368701
  72.1574129 116.1921052  33.0348040  64.0340259 105.4806185  35.8246662
  64.0724358 104.9469775  36.6183780  63.5280551 104.9541390  35.2057639
  76.4366528 117.9795575  38.7187320  76.9884836 118.1427197  39.4836405
  76.7772721 118.5700013  38.0467344  71.4131021 100.3270725  39.3209204
  71.4772347 101.1885556  38.9086602  71.3498141  99.7144727  38.5881563
  70.8883293 102.3993858  42.9682239  71.5155332 102.0170935  43.5819763
  70.0311212 102.1808060  43.3337931  81.2877402 112.8056833  44.5735974
  81.8317306 113.4186791  44.0790929  80.7064247 113.3636411  45.0902987
  67.6648836 104.2070287  28.9000593  67.9602277 103.2980965  28.8467647
  66.7636872 104.1858026  28.5781596  79.5734915 115.9277551  35.7051002
  79.4486054 115.1267291  35.1961947  80.2314006 116.4223744  35.2164972
  71.1943083 102.2826283  34.8828142  70.4729669 102.8962251  34.7435615
  71.9836339 102.8184048  34.8044788  81.6369823 113.7286571  37.3330552
  80.6900159 113.6091922  37.2608879  81.9852596 112.8409069  37.4156813
  73.9969397  99.6180710  41.1568794  74.5203798  99.8643007  41.9195103
  73.7781730 100.4500745  40.7371931  69.3936678 101.8884385  29.0239918
  69.0649384 101.0081763  28.8415024  69.7476048 101.8332053  29.9116308
  78.6416257 113.5239287  33.5334904  78.4941219 112.5955995  33.7142474
  79.4669750 113.5459378  33.0491979  72.5078501 102.1757354  29.3915396
  72.8474573 102.7043276  28.6694005  72.9550621 102.5137760  30.1673963
  82.2450378 114.3467846  34.6199777  83.1696926 114.1410707  34.4824228
  82.0765682 114.0984247  35.5289118  75.2021942 100.5594405  38.8418464
  74.8618762  99.7602218  39.2439144  74.4960948 100.8596116  38.2695297
  75.8538414  97.6443717  37.2945787  76.6764483  97.1704196  37.1724678
  76.0976477  98.4234201  37.7944474  74.4946648 100.6731976  27.5908689
  75.2155011 101.0513229  27.0872406  73.8711952 101.3920853  27.6943667
  78.6377771 101.3777125  28.5267021  78.8541385 102.2601763  28.2255849
  78.1571838 100.9863338  27.7972663  73.3776992 104.3362838  35.1037766
  73.2321573 104.6503141  35.9962047  72.9002196 104.9547738  34.5508664
  75.2373375 101.3265386  35.1518655  75.2234944 100.4306479  34.8150953
  75.9545803 101.3336050  35.7856941  77.0899506 101.7602726  37.1971783
  76.8317284 102.6819797  37.1956113  76.5584546 101.3633161  37.8872247
  82.0345695 114.8653513  29.9761868  82.2082572 114.2999936  29.2235721
  82.5274586 115.6654408  29.7941358  67.8522654 106.8768183  38.0425427
  67.3076123 107.6527990  38.1745701  68.7302004 107.2238987  37.8844548
  74.6410271 100.2079766  30.4206226  74.7626182  99.2796413  30.6197113
  74.3512313 100.2218452  29.5084541  77.5101461  97.8934677  33.5572945
  77.5323158  97.9574010  32.6024925  77.9269521  97.0539185  33.7513452
  87.8885086 107.6289936  31.5952168  88.3316232 106.8797262  31.1971291
  87.0111596 107.6200073  31.2125900  83.0220867 114.1820278  27.0758767
  83.7171772 114.8026971  27.2946081  83.3644017 113.3315629  27.3511144
  68.6388676 106.0038079  40.9355584  67.8970412 106.1520714  41.5220214
  68.3181421 106.2646344  40.0722333  84.9212290 111.6319983  28.6046097
  85.4463614 111.9707256  27.8795417  84.8334643 110.6966999  28.4209232
  76.5832339 115.5454057  40.7335974  76.8919465 115.3003204  41.6058673
  77.3807821 115.7500695  40.2454844  76.6052951 117.6991967  32.9641350
  76.1657941 117.2068345  33.6574207  77.3561068 117.1564934  32.7233426
  69.0845290 113.8903508  32.9665979  69.9103310 113.5907279  32.5864622
  68.7339342 113.1211130  33.4155767  74.0526823 113.2429976  35.0363652
  73.4306832 112.5800681  34.7365880  74.7231690 113.2691108  34.3537300
  67.2853895 111.8089834  33.9254912  66.4485803 111.3812008  33.7438913
  67.2577540 112.0022277  34.8625703  74.1251351 101.7211764  44.6296158
  74.1739506 102.5973887  44.2473928  74.6673865 101.1789157  44.0567801
  84.6106196 112.2652887  43.9097295  83.8201740 112.2477026  43.3701795
  84.3739551 112.8041181  44.6646332  84.7304071 109.1145353  41.2230024
  84.7802076 108.9495361  42.1645547  84.6217995 108.2472612  40.8327905
  73.6140330 111.7933899  28.5122113  73.7628450 112.4769363  27.8588785
  74.4206774 111.7738989  29.0271568  82.0207834 105.0976281  42.5389330
  82.9217697 104.9582746  42.2473328  82.0955808 105.2630736  43.4787508
  76.3550639 102.4743136  41.3842517  75.4853949 102.7676702  41.1125105
  76.5910119 103.0583581  42.1049780  86.2322268 111.5342295  41.4672045
  85.9407077 111.8972275  42.3035506  85.6194399 110.8209303  41.2885377
  87.4317951 109.0995175  33.9874616  88.2664842 109.5384979  34.1512176
  87.5677079 108.6233828  33.1682861  84.4809456 106.6574910  39.9352103
  84.9563578 106.8502556  39.1270955  83.5575022 106.7134095  39.6895487
  71.3692963 107.8199077  29.5183182  71.1239005 106.9161407  29.7163392
  71.5388878 107.8216227  28.5762660  79.0589673  98.6922753  38.9007937
  79.5771617  99.4283780  38.5754426  78.7044806  98.9986746  39.7354696
  70.6388611 103.5527434  27.0169343  69.9457856 103.6271789  26.3609379
  70.3940362 102.7887778  27.5390860  79.3102267  95.1123036  34.4208834
  79.5904021  94.4446225  35.0469260  80.0952874  95.3052131  33.9083498
  77.1135736 114.2882030  25.9833860  76.5409703 114.9072217  25.5304332
  77.6868529 114.8381391  26.5173782  83.1811125 103.5340670  38.1680409
  84.1328548 103.6338767  38.1892633  83.0114576 102.7418938  38.6778493
  81.2025505 100.6196253  38.3539810  80.6075437 100.9001266  37.6586298
  80.9175202 101.1090154  39.1256551  80.3332995 114.5719180  27.1142442
  81.2663669 114.5064741  27.3175318  80.2456208 115.4075447  26.6556975
  85.6599203 106.7546789  37.2822709  85.6275523 105.8162790  37.4682392
  86.2699827 106.8330826  36.5488533  77.4982534 105.6242842  23.3249913
  78.4441639 105.4949050  23.3938331  77.1196779 104.8857504  23.8019341
  85.8093692 103.5457833  37.3280992  85.2932740 102.7616289  37.1410921
  86.6933640 103.2176549  37.4927511  83.4704419  97.2898848  33.2876804
  83.2729240  96.9813937  34.1720136  84.0804124  98.0160487  33.4174734
  91.4775753 107.8162796  36.4228745  92.2079142 107.5548084  36.9836449
  90.8682699 107.0791518  36.4630813  89.5591050 105.9570659  37.0203197
  88.8324214 105.8226624  36.4119688  89.1438337 106.2647487  37.8259915
  77.3821227 109.6760588  44.7850570  78.3024236 109.8539187  44.9790616
  77.3470810 108.7316634  44.6330269  75.6825451 103.5492819  23.2604798
  74.7756907 103.2525931  23.3367511  75.9601432 103.2522637  22.3939084
  66.6003392 104.8699182  33.7103844  66.2806176 104.0164490  33.4178218
  66.0536820 105.0847760  34.4661812  70.3783299 107.5861623  37.4273351
  70.5969309 108.5178731  37.4461385  70.7909073 107.2269597  38.2128155
  77.2987517  98.0929708  29.4149039  76.4888245  97.7476793  29.7904285
  77.9871934  97.7837252  30.0036651  79.2278065  97.1707755  31.0373336
  79.7809104  97.5903209  31.6963359  79.4648152  96.2443503  31.0796292
  75.2511164 103.1594829  46.8176100  75.1507891 104.1089186  46.7488191
  75.0332707 102.8313068  45.9452170  74.4524236 100.4079754  23.4016777
  75.3143400 100.7334652  23.6612594  74.6374580  99.6211250  22.8889843
  66.4691652 108.4902094  35.6796966  65.7755123 108.0756046  35.1666920
  67.2164643 108.5322630  35.0830385  82.6056872  99.2808280  30.5452000
  82.0255541  99.9393084  30.1630052  82.3392805  98.4585625  30.1339418
  81.0560439  98.6813338  32.7473320  81.5560217  98.7929873  31.9387639
  81.6996047  98.3774391  33.3874129  75.1142435 106.5891968  45.6341161
  74.6309516 107.3892328  45.8405050  75.2003374 106.5999913  44.6808605
  68.3828394 108.4220347  33.5562981  68.3599082 108.5208035  32.6044864
  68.6929031 109.2685498  33.8780147  71.0415772 110.4796502  37.6709595
  71.9959026 110.4480445  37.6039527  70.8428296 110.0187126  38.4859821
  71.6315154 109.0497618  40.2380393  72.4508043 109.5441697  40.2615230
  71.9051962 108.1329587  40.2097960  81.3881750 101.4408371  29.6008348
  80.5007605 101.7258021  29.3828543  81.8035739 101.2802134  28.7535625
  84.7396287 101.4654892  33.3162688  85.5156677 101.9551344  33.5887304
  84.0144421 101.8912946  33.7734557  87.1768845 102.1782511  34.3736628
  87.7713336 101.9378247  33.6629936  87.2495429 101.4589642  35.0010164
  69.3966001 116.0216122  34.6879793  69.2620469 115.2616523  34.1217791
  68.9798063 116.7457022  34.2208582  81.3622774 106.9562907  29.8158638
  81.3057976 107.4131458  28.9766271  81.9151117 106.1953591  29.6381481
  85.1727580 102.7452639  30.6408758  84.9164514 102.3449274  31.4716966
  84.5480448 103.4596432  30.5158897  89.4839918 105.4848712  33.1480049
  88.9239476 105.5541901  33.9211611  88.8783421 105.3089696  32.4279546
  72.5535127 116.9185439  34.8998236  72.4367511 117.8630871  34.7976926
  71.7327573 116.6159000  35.2884035  82.4411661 111.6435575  25.7454828
  83.2757265 111.2116773  25.5632303  82.2796004 111.4717588  26.6731723
  82.0957553 108.1467688  27.1111168  82.0406357 107.9811959  26.1699612
  81.4703609 108.8543721  27.2673357  66.8850068 103.3835752  40.9372590
  67.5308932 102.8734706  41.4259815  66.6767220 104.1204434  41.5116015
  79.4103461 110.4516600  46.4364730  80.2794620 110.6257252  46.0751365
  78.9310212 111.2711017  46.3140460  75.4053679  97.6475797  26.6896486
  75.3932349  98.5917637  26.8464757  76.2977101  97.4645942  26.3955947
  73.5789641 117.5713701  38.1154164  74.4816888 117.6037311  38.4320659
  73.3527011 116.6414152  38.1300500  75.3343243 116.3244687  34.7764243
  74.3838874 116.3246549  34.6628615  75.6375729 115.5777422  34.2600277
  79.2205798  94.2418574  30.9442423  78.4538194  93.6877060  31.0899105
  79.6316503  94.3140442  31.8056574  71.2247559 100.5303369  45.0347604
  72.0879021 100.1740174  45.2450929  70.6512970 100.1917264  45.7223008
  91.0695936 122.1605226  35.8410005  91.7074346 122.0411973  35.1373345
  90.9516779 123.1086070  35.8997957  87.8785643 122.1132654  35.7771530
  87.5404154 121.9973719  34.8892065  88.7475411 121.7123819  35.7572536
  88.3605426 123.2667506  41.7357735  88.3494066 122.8720304  40.8638239
  88.5226065 122.5333578  42.3291507  81.2836890 125.4619322  34.6052641
  82.0758182 125.1210146  34.1898940  81.5233540 125.5714297  35.5254794
  85.0812687 126.0504617  40.6836919  84.7902553 126.9550248  40.5683586
  85.7169671 126.0921145  41.3980989  86.0068894 123.4281466  37.2738279
  86.6032466 123.2037488  36.5595242  86.0643865 122.6866211  37.8763727
  93.5471052 113.5353487  38.2790800  93.2154377 114.4048898  38.0552015
  92.9516666 113.2189771  38.9584831  83.4915053 122.1879830  33.7123417
  82.5665550 122.0556044  33.9201109  83.7399467 122.9674049  34.2093360
  93.4399716 118.2548573  35.3584150  92.5316593 118.1863981  35.0642911
  93.3887311 118.7320518  36.1865976  80.8523864 121.8313103  34.5467206
  80.9816246 122.0847582  35.4606618  80.1721316 122.4240811  34.2271862
  87.5140581 119.6738219  43.3019048  86.7373915 120.2332139  43.2921912
  88.1531144 120.1595002  43.8233918  95.3061362 116.4565011  37.1362024
  94.6635742 116.7497545  36.4901819  94.8016291 116.3417932  37.9415221
  85.7686954 122.4823672  42.8637015  86.5101638 123.0208716  42.5871838
  85.0623939 123.1089961  43.0208566  91.2442293 124.6252812  41.4609176
  91.6525649 124.1835223  40.7163808  90.5219555 124.0505440  41.7143369
  87.5973363 119.5625419  38.8342733  88.4434559 119.9864833  38.9777382
  87.5372001 118.9059044  39.5281296  90.7472809 117.2229788  40.4923907
  90.5033741 117.9771848  39.9558182  91.0232739 117.6015135  41.3271154
  90.3037500 116.3786221  36.0737744  89.4421979 116.6767474  36.3654482
  90.3299935 116.5956620  35.1418777  84.0123151 124.4699893  35.4191313
  84.5824508 124.8987161  34.7808798  84.6031263 124.1882477  36.1175499
  84.5048317 119.6363320  43.6652325  83.8746978 120.3179601  43.8987721
  84.3984405 119.5246402  42.7205463  79.7993290 119.3035116  34.5918249
  79.0092344 119.5592645  34.1158359  80.2904537 120.1183454  34.6970289
  81.7508035 119.6679695  31.5501725  80.9539199 119.7798390  32.0685221
  81.5233627 120.0066348  30.6842616  87.5813703 126.1924399  39.4984240
  87.6458135 126.6544806  40.3342412  86.8724627 125.5621764  39.6266550
  78.0830993 119.5565607  37.0233240  78.3339031 120.4412617  37.2890815
  78.6190541 119.3770208  36.2508331  83.7829060 113.9384086  46.0277576
  83.3896006 113.3850285  46.7025220  84.5995201 114.2494665  46.4184093
  86.6997021 115.3541965  43.6197832  87.4406735 115.9549118  43.5402295
  86.9314944 114.6119603  43.0615875  81.8438359 120.5398332  41.8976062
  81.7291874 119.6383590  42.1983161  80.9882877 120.7862029  41.5460878
  83.6817318 130.0111874  38.0224241  84.2324743 129.8828938  37.2501235
  82.8428794 130.3106763  37.6719134  87.4784489 126.2763002  42.3668472
  88.0112826 125.5151290  42.1367780  86.9498570 125.9836654  43.1092627
  90.6454184 111.3823068  37.8962114  90.3018454 112.2724710  37.8201224
  91.0133147 111.1924726  37.0331699  88.1951578 116.2181380  31.4619787
  87.3393174 115.8288230  31.2825426  88.6078530 116.2973341  30.6019573
  89.7250724 113.7527723  35.8611347  89.2215520 113.7157858  35.0479152
  90.0181331 114.6620466  35.9208004  85.9693610 113.8366453  34.8677529
  86.8346607 113.6409262  34.5083418  86.0371119 113.6076805  35.7946886
  83.5755929 116.0668661  32.2393896  84.1499681 115.8443842  31.5067089
  84.1626912 116.1357355  32.9922497  85.8778597 112.9409910  30.9668965
  85.2243010 112.6258927  30.3425580  85.8359071 112.3185650  31.6928788
  89.1116338 119.4291843  35.2916613  88.1938899 119.6506790  35.1338301
  89.5276481 119.5038154  34.4328320  92.4441850 110.6416627  32.9979852
  92.7500727 109.7813991  32.7105767  93.1694455 111.2334247  32.7978845
  78.7366206 121.0447314  31.3861449  78.5390606 120.4516675  30.6612516
  78.1812870 120.7399524  32.1037388  86.7162930 120.9370420  33.5056043
  86.7711539 119.9844257  33.4298519  85.9054132 121.0929859  33.9897341
  84.6555289 119.5547480  31.2646421  83.8423155 119.8541651  31.6711614
  85.1514284 119.1603169  31.9820904  90.2529501 120.0189305  40.0961315
  90.6078889 120.2460778  40.9555781  90.9001632 120.3507681  39.4738571
  84.1469364 117.1265836  36.8807656  84.7868744 116.9854595  36.1830620
  83.3146895 116.8400349  36.5046258  81.1497981 117.0966161  31.6580643
  81.4104798 118.0111494  31.5489804  81.9715153 116.6290603  31.8077256
  82.6222906 118.5103918  38.8279468  83.2945959 118.3021280  38.1792117
  81.7952692 118.3126004  38.3884700  88.5248478 115.1365859  40.8445129
  87.8776393 115.8355808  40.7509605  89.2949493 115.5702003  41.2121377
  88.7012612 122.9746624  38.9041948  89.6304672 123.1257783  38.7310916
  88.2803642 123.0630644  38.0490595  87.5000944 126.9997288  36.6740486
  87.3612030 126.6316072  37.5466424  86.7115540 127.5144927  36.5024444
  83.0250403 121.7846521  39.5881905  82.8870201 121.0526760  40.1893444
  83.9355327 121.6955421  39.3066093  85.6532704 121.4966480  39.0765585
  86.3632322 120.8559672  39.0352203  85.6102012 121.7479375  39.9991765
  84.3661638 118.4831698  40.8961224  83.8298995 118.0322436  41.5482820
  83.7778346 118.6177607  40.1531688  75.2966037 122.7297509  33.5529195
  75.9837077 122.4159239  32.9650210  75.1414166 123.6338874  33.2796446
  80.1000759 117.6187706  37.9814219  80.0158948 117.0113375  37.2464628
  79.2783465 118.1096724  37.9823715  90.2724473 116.1041269  33.3484414
  90.7693172 115.3511231  33.0285484  89.5011454 116.1405586  32.7827623
  86.8559442 118.2458652  33.0756098  86.4857229 117.6929693  33.7637004
  87.3518534 117.6416786  32.5231098  84.6848640 128.7056147  40.1711116
  85.3858100 129.3392630  40.3240510  84.2143755 129.0470879  39.4106755
  92.7143468 113.0710863  35.4963772  91.8006548 113.3015089  35.6645979
  93.1436569 113.1549307  36.3477805  92.4849926 121.2600755  37.9963666
  91.8321376 121.5076662  37.3416119  92.8630306 120.4464893  37.6626144
  88.5337499 122.0020566  44.4829704  87.8578136 121.9014695  45.1532079
  89.3565133 121.8459779  44.9465701  80.2816358 128.2392502  37.1042219
  80.8669795 127.4936190  37.2370123  80.0841197 128.5496459  37.9878883
  74.8734013 120.8098102  35.8246662  74.9118113 120.2761693  36.6183780
  74.3674306 120.2833308  35.2057639  82.2524775 115.6562643  39.3209204
  82.3166102 116.5177474  38.9086602  82.1891896 115.0436645  38.5881563
  81.7277048 117.7285775  42.9682239  82.3549087 117.3462853  43.5819763
  80.8704967 117.5099977  43.3337931  78.5042591 119.5362205  28.9000593
  78.7996032 118.6272883  28.8467647  77.6030626 119.5149944  28.5781596
  82.0336838 117.6118201  34.8828142  81.3123423 118.2254169  34.7435615
  82.8230093 118.1475966  34.8044788  84.8363151 114.9472628  41.1568794
  85.3597553 115.1934924  41.9195103  84.6175484 115.7792662  40.7371931
  80.2330432 117.2176302  29.0239918  79.9043138 116.3373681  28.8415024
  80.5869803 117.1623971  29.9116308  86.0415696 115.8886323  38.8418464
  85.7012517 115.0894136  39.2439144  85.3354702 116.1888034  38.2695297
  86.6932168 112.9735635  37.2945787  87.5158237 112.4996113  37.1724678
  86.9370232 113.7526119  37.7944474  84.2170747 119.6654756  35.1037766
  84.0715328 119.9795059  35.9962047  83.7395950 120.2839656  34.5508664
  86.0767130 116.6557304  35.1518655  86.0628698 115.7598397  34.8150953
  86.7939558 116.6627968  35.7856941  87.9293260 117.0894644  37.1971783
  87.6711038 118.0111715  37.1956113  87.3978301 116.6925079  37.8872247
  78.6916409 122.2060100  38.0425427  78.1469877 122.9819908  38.1745701
  79.5695759 122.5530905  37.8844548  85.4804026 115.5371684  30.4206226
  85.6019937 114.6088330  30.6197113  85.1906068 115.5510370  29.5084541
  88.3495216 113.2226595  33.5572945  88.3716913 113.2865928  32.6024925
  88.7663275 112.3831103  33.7513452  79.4782431 121.3329996  40.9355584
  78.7364167 121.4812632  41.5220214  79.1575175 121.5938262  40.0722333
  78.1247650 127.1381752  33.9254912  77.2879558 126.7103926  33.7438913
  78.0971295 127.3314195  34.8625703  84.9645105 117.0503681  44.6296158
  85.0133261 117.9265804  44.2473928  85.5067619 116.5081075  44.0567801
  92.8601588 120.4268199  42.5389330  93.7611451 120.2874664  42.2473328
  92.9349563 120.5922654  43.4787508  87.1944394 117.8035054  41.3842517
  86.3247703 118.0968620  41.1125105  87.4303874 118.3875499  42.1049780
  89.8983427 114.0214671  38.9007937  90.4165371 114.7575698  38.5754426
  89.5438560 114.3278664  39.7354696  90.1496022 110.4414953  34.4208834
  90.4297775 109.7738142  35.0469260  90.9346629 110.6344049  33.9083498
  94.0204880 118.8632587  38.1680409  94.9722303 118.9630685  38.1892633
  93.8508330 118.0710856  38.6778493  92.0419259 115.9488171  38.3539810
  91.4469192 116.2293183  37.6586298  91.7568956 116.4382071  39.1256551
  96.6487446 118.8749750  37.3280992  96.1326495 118.0908207  37.1410921
  97.5327395 118.5468467  37.4927511  94.3098173 112.6190766  33.2876804
  94.1122994 112.3105854  34.1720136  94.9197879 113.3452405  33.4174734
  88.2214981 125.0052506  44.7850570  89.1417991 125.1831105  44.9790616
  88.1864564 124.0608551  44.6330269  77.4397146 120.1991100  33.7103844
  77.1199930 119.3456408  33.4178218  76.8930574 120.4139678  34.4661812
  81.2177054 122.9153541  37.4273351  81.4363063 123.8470649  37.4461385
  81.6302827 122.5561515  38.2128155  88.1381271 113.4221626  29.4149039
  87.3282000 113.0768711  29.7904285  88.8265688 113.1129170  30.0036651
  90.0671820 112.4999673  31.0373336  90.6202858 112.9195126  31.6963359
  90.3041906 111.5735421  31.0796292  86.0904919 118.4886747  46.8176100
  85.9901646 119.4381103  46.7488191  85.8726461 118.1604985  45.9452170
  77.3085406 123.8194011  35.6796966  76.6148878 123.4047964  35.1666920
  78.0558397 123.8614548  35.0830385  91.8954193 114.0105256  32.7473320
  92.3953972 114.1221790  31.9387639  92.5389801 113.7066309  33.3874129
  85.9536189 121.9183885  45.6341161  85.4703271 122.7184245  45.8405050
  86.0397128 121.9291830  44.6808605  79.2222149 123.7512265  33.5562981
  79.1992837 123.8499952  32.6044864  79.5322785 124.5977416  33.8780147
  81.8809527 125.8088420  37.6709595  82.8352780 125.7772362  37.6039527
  81.6822050 125.3479044  38.4859821  82.4708909 124.3789536  40.2380393
  83.2901798 124.8733615  40.2615230  82.7445716 123.4621504  40.2097960
  77.7243823 118.7127670  40.9372590  78.3702686 118.2026624  41.4259815
  77.5160974 119.4496352  41.5116015  90.0599553 109.5710491  30.9442423
  89.2931949 109.0168978  31.0899105  90.4710258 109.6432360  31.8056574
  82.0641314 115.8595287  45.0347604  82.9272775 115.5032092  45.2450929
  81.4906725 115.5209182  45.7223008  28.6056957  13.4644450  28.7217470
  28.5469503  12.7803670  28.0548053  29.0076475  14.2063440  28.2698096
  27.0908631  13.1659367  31.2981281  27.6348535  13.7789325  30.8036235
  26.5095476  13.7238946  31.8148294  30.4137425  12.6255421  30.6342602
  29.6232969  12.6079560  30.0947101  30.1770780  13.1643715  31.3891638
  32.0353497  11.8944829  28.1917352  31.7438305  12.2574810  29.0280813
  31.4225628  11.1811837  28.0130684  25.2134689  10.8119134  33.1610037
  26.0825849  10.9859786  32.7996672  24.7341441  11.6313551  33.0385766
  36.8727165  22.5207760  22.5655312  37.5105575  22.4014507  21.8618652
  36.7548008  23.4688604  22.6243264  33.6816871  22.4735188  22.5016836
  33.3435383  22.3576253  21.6137371  34.5506640  22.0726353  22.4817843
  34.1636654  23.6270040  28.4603042  34.1525295  23.2322838  27.5883546
  34.3257294  22.8936112  29.0536813  27.0868119  25.8221856  21.3297948
  27.8789411  25.4812681  20.9144247  27.3264769  25.9316831  22.2500101
  30.8843916  26.4107152  27.4082226  30.5933782  27.3152782  27.2928892
  31.5200900  26.4523679  28.1226295  31.8100122  23.7884000  23.9983586
  32.4063695  23.5640022  23.2840548  31.8675094  23.0468746  24.6009033
  41.8276861  20.1834447  20.5441498  42.5602033  19.6133664  20.7779328
  41.0716216  19.7956047  20.9848004  39.3502281  13.8956021  25.0036107
  39.0185606  14.7651432  24.7797322  38.7547894  13.5792305  25.6830137
  35.8433801  26.0968567  24.4032020  35.5434524  26.9993606  24.2947827
  35.4984860  25.8300750  25.2553172  39.2430944  18.6151107  22.0829457
  38.3347822  18.5466516  21.7888218  39.1918540  19.0923052  22.9111282
  30.8254580  32.8612887  17.3702987  30.7478610  33.8120713  17.4491468
  30.2216224  32.5158760  18.0277914  33.3171810  20.0340753  30.0264354
  32.5405144  20.5934673  30.0167219  33.9562373  20.5197536  30.5479224
  41.1092591  16.8167546  23.8607331  40.4666971  17.1100079  23.2147125
  40.6047519  16.7020466  24.6660527  31.5718183  22.8426206  29.5882321
  32.3132867  23.3811250  29.3117145  30.8655168  23.4692495  29.7453873
  37.0473522  24.9855347  28.1854483  37.4556878  24.5437757  27.4409115
  36.3250784  24.4107974  28.4388676  33.4004592  19.9227953  25.5588040
  34.2465787  20.3467367  25.7022689  33.3403230  19.2661578  26.2526603
  37.3702337  25.5456537  21.9406772  36.7411199  25.7102251  21.2382839
  36.9827999  25.9598147  22.7117736  41.2491569  26.4810975  19.2951135
  40.5642607  26.8609877  18.7448169  41.3335418  27.0906302  20.0283083
  36.5504038  17.5832322  27.2169213  36.3064969  18.3374382  26.6803489
  36.8263968  17.9617669  28.0516460  38.5042500  24.1270934  25.8946479
  38.7159396  24.7702694  25.2180860  38.4572249  23.2933251  25.4268409
  29.8154380  24.8302427  22.1436620  30.3855737  25.2589695  21.5054104
  30.4062492  24.5485012  22.8420806  30.3079546  19.9965854  30.3897631
  29.6778207  20.6782135  30.6233028  30.2015634  19.8848936  29.4450769
  39.6188328  27.0042890  24.0668836  40.4405772  26.6023077  23.7851518
  39.6150731  26.9011124  25.0184952  33.3844932  26.5526933  26.2229547
  33.4489364  27.0147340  27.0587719  32.6755856  25.9224298  26.3511857
  47.7094321  23.3481638  20.4153808  46.9558030  22.7789036  20.2597812
  47.8441863  23.3144303  21.3624442  29.5860289  14.2986620  32.7522882
  29.1927235  13.7452819  33.4270526  30.4026429  14.6097199  33.1429400
  28.3617231  28.8536235  18.7459205  28.5383860  29.7754199  18.5580189
  29.1574065  28.5394654  19.1753585  32.5028250  15.7144499  30.3443139
  33.2437963  16.3151652  30.2647601  32.7346173  14.9722137  29.7861181
  27.6469588  20.9000867  28.6221368  27.5323103  19.9986124  28.9228467
  26.7914106  21.1464563  28.2706185  34.7261426  28.8418607  30.2208869
  34.2825280  28.0554985  29.9029774  35.3878639  29.0297757  29.5552760
  29.4848547  30.3714408  24.7469548  30.0355972  30.2431472  23.9746542
  28.6460023  30.6709298  24.3964440  36.8242664  29.1221407  28.2490270
  36.8061139  29.9430288  27.7570540  37.7462584  28.9975482  28.4740412
  33.2815718  26.6365536  29.0913779  33.8144055  25.8753824  28.8613087
  32.7529799  26.3439188  29.8337933  39.6261277  23.9600549  21.7199637
  38.9684951  24.6499811  21.8079766  40.4301676  24.3496981  22.0633623
  38.4366735  22.3144922  19.7703579  38.9498617  22.9474914  20.2725289
  39.0867959  21.7146117  19.4046939  34.9147566  19.7894378  22.0161919
  33.9970128  20.0109325  21.8583607  35.3307710  19.8640688  21.1573627
  39.2028532  27.2950923  17.8982721  38.7490859  26.4541833  17.9547912
  38.5722498  27.9312322  18.2357502  37.6461471  29.1327420  18.8332540
  37.9384445  29.6932477  18.1144905  38.1560092  29.4255981  19.5885699
  32.6095096  29.9107771  19.9225993  32.5671275  30.1368618  18.9934525
  33.5257795  29.6771146  20.0711794  36.0560730  20.3791839  26.8206622
  36.4110118  20.6063312  27.6801088  36.7032861  20.7110216  26.1983877
  41.7858467  23.5010275  17.5255951  41.6476365  23.6911871  16.5977140
  41.4294686  24.2629657  17.9824002  41.8127846  25.5686802  22.5367223
  42.2464353  25.4762091  23.3850277  42.5259427  25.5444302  21.8987239
  35.5455741  29.1688896  24.0700323  35.5992764  29.7379832  24.8378039
  34.6770523  29.3390781  23.7054360  28.4254135  18.8706452  25.5524774
  29.0977188  18.6623814  24.9037423  27.5983921  18.6728538  25.1130007
  42.6743396  25.6110502  25.0700108  42.8679286  26.5156313  25.3159383
  42.5744014  25.1517921  25.9038693  34.3279707  15.4968393  27.5690435
  33.6807622  16.1958343  27.4754912  35.0980722  15.9304537  27.9366683
  37.7358505  25.7617245  30.6440989  37.5844011  25.5327797  29.7271072
  37.7263184  26.7187846  30.6572334  34.5043841  23.3349158  25.6287255
  35.4335901  23.4860317  25.4556222  34.0834871  23.4233179  24.7735901
  33.3032173  27.3599822  23.3985793  33.1643259  26.9918607  24.2711731
  32.5146769  27.8747462  23.2269750  33.8980325  32.4608919  14.7411329
  34.0732081  31.9896962  15.5556952  33.2113113  33.0874685  14.9692590
  34.8537388  26.7381425  20.7874630  34.5187221  26.6982195  21.6832280
  34.3541334  26.0726141  20.3145041  28.8281632  22.1449055  26.3127212
  28.6901430  21.4129294  26.9138751  29.7386555  22.0557955  26.0311399
  31.4563933  21.8569014  25.8010891  32.1663551  21.2162206  25.7597510
  31.4133241  22.1081909  26.7237072  39.4450711  28.7936368  28.7217470
  39.3863258  28.1095588  28.0548053  39.8470230  29.5355358  28.2698096
  30.1692867  18.8434232  27.6206531  29.6330224  18.3924971  28.2728127
  29.5809575  18.9780141  26.8776995  28.4641410  35.6098281  21.5151189
  28.7038008  36.2416806  22.1930208  27.6210607  35.2586321  21.8016549
  39.4468119  26.7575952  26.9531450  38.5594897  26.4201873  27.0757849
  40.0166670  26.0258983  27.1900215  32.9769272  31.4177404  23.9192693
  32.9039443  32.2232375  24.4311998  32.5346665  31.6169370  23.0940715
  32.7659052  30.6549174  17.4295515  31.9826574  31.1970854  17.5233739
  33.4651797  31.1723154  17.8289756  43.9285459  22.1684169  21.7148012
  43.9175335  23.0508884  21.3441945  43.0602839  21.8155720  21.5202549
  35.4367956  31.3164238  26.0750852  36.1495928  31.9511703  26.0026753
  34.9457984  31.4128104  25.2590854  30.4879869  29.0658681  26.8956423
  31.1889329  29.6995164  27.0485817  30.0174984  29.4073413  26.1352062
  38.2881155  21.6203289  24.7208973  37.6352605  21.8679196  24.0661426
  38.6661535  20.8067427  24.3871450  35.2488329  31.6562982  18.8237143
  35.4310723  30.8384638  19.2864896  36.0721315  31.8730674  18.3862033
  35.5830494  30.5831167  16.0852192  36.1118261  30.0723622  15.4722354
  35.8458714  30.2673697  16.9497725  34.3368728  22.3623100  31.2075010
  33.6609365  22.2617229  31.8777385  35.1596362  22.2062314  31.6711007
  26.0847587  28.5995036  23.8287525  26.6701024  27.8538724  23.9615430
  25.8872426  28.9098993  24.7124189  28.9386242  31.6346284  18.8449968
  28.2696618  32.1192411  18.3614008  28.7999112  31.8815504  19.7593346
  33.0791511  33.6690027  25.4432626  33.6309819  33.8321649  26.2081711
  33.4197704  34.2594465  24.7712651  27.5308277  18.0888310  29.6927545
  28.1580316  17.7065387  30.3065069  26.6736196  17.8702512  30.0583238
  37.9302385  28.4951285  31.2981281  38.4742289  29.1081243  30.8036235
  37.3489230  29.0530863  31.8148294  36.2159898  31.6172003  22.4296308
  36.0911038  30.8161743  21.9207254  36.8738989  32.1118196  21.9410278
  38.2794807  29.4181023  24.0575858  37.3325142  29.2986374  23.9854185
  38.6277580  28.5303521  24.1402120  30.6394380  15.3075162  27.8814100
  31.1628782  15.5537458  28.6440410  30.4206713  16.1395197  27.4617238
  35.2841240  29.2133739  20.2580211  35.1366202  28.2850447  20.4387781
  36.1094733  29.2353830  19.7737286  38.8875362  30.0362298  21.3445083
  39.8121909  29.8305159  21.2069535  38.7190665  29.7878699  22.2534425
  31.8446925  16.2488857  25.5663771  31.5043745  15.4496670  25.9684451
  31.1385931  16.5490568  24.9940604  33.7324489  17.4497178  23.9217089
  33.4742267  18.3714249  23.9201420  33.2009530  17.0527613  24.6117554
  38.6770678  30.5547965  16.7007175  38.8507555  29.9894388  15.9481027
  39.1699569  31.3548860  16.5186665  24.4947638  22.5662634  24.7670734
  23.9501106  23.3422442  24.8991008  25.3726988  22.9133439  24.6089855
  44.5310069  23.3184388  18.3197475  44.9741215  22.5691713  17.9216598
  43.6536579  23.3094525  17.9371207  39.6645850  29.8714730  13.8004073
  40.3596755  30.4921422  14.0191388  40.0069001  29.0210081  14.0756451
  25.2813660  21.6932531  27.6600891  24.5395396  21.8415166  28.2465521
  24.9606404  21.9540796  26.7967640  41.5637274  27.3214435  15.3291404
  42.0888598  27.6601708  14.6040724  41.4759626  26.3861451  15.1454539
  33.2257322  31.2348509  27.4581281  33.5344449  30.9897656  28.3303980
  34.0232804  31.4395147  26.9700151  33.2477934  33.3886419  19.6886657
  32.8082925  32.8962797  20.3819514  33.9986051  32.8459386  19.4478732
  25.7270273  29.5797959  19.6911285  26.5528293  29.2801731  19.3109929
  25.3764325  28.8105582  20.1401074  30.6951806  28.9324428  21.7608959
  30.0731816  28.2695133  21.4611187  31.3656673  28.9585560  21.0782607
  30.7676334  17.4106216  31.3541465  30.8164489  18.2868338  30.9719234
  31.3098848  16.8683609  30.7813108  41.2531180  27.9547339  30.6342602
  40.4626723  27.9371478  30.0947101  41.0164534  28.4935633  31.3891638
  41.3729055  24.8039805  27.9475330  41.4227060  24.6389813  28.8890853
  41.2642978  23.9367064  27.5573211  38.6632817  20.7870733  29.2634637
  39.5642680  20.6477198  28.9718635  38.7380792  20.9525188  30.2032815
  32.9975622  18.1637588  28.1087823  32.1278932  18.4571154  27.8370412
  33.2335103  18.7478033  28.8295087  42.8747252  27.2236747  28.1917352
  42.5832060  27.5866727  29.0280813  42.2619383  26.5103755  28.0130684
  44.0742934  24.7889627  20.7119922  44.9089825  25.2279431  20.8757483
  44.2102063  24.3128280  19.8928168  41.1234440  22.3469361  26.6597410
  41.5988561  22.5397008  25.8516261  40.2000005  22.4028547  26.4140794
  35.7014656  14.3817205  25.6253244  36.2196600  15.1178232  25.2999732
  35.3469789  14.6881198  26.4600003  39.8236109  19.2235122  24.8925716
  40.7753532  19.3233219  24.9137940  39.6539559  18.4313390  25.4023800
  37.8450488  16.3090705  25.0785116  37.2500420  16.5895717  24.3831605
  37.5600185  16.7984606  25.8501858  42.3024187  22.4441241  24.0068015
  42.2700507  21.5057242  24.1927699  42.9124810  22.5225278  23.2733840
  42.4518675  19.2352285  24.0526298  41.9357724  18.4510741  23.8656227
  43.3358624  18.9071001  24.2172818  48.1200736  23.5057248  23.1474052
  48.8504125  23.2442536  23.7081755  47.5107682  22.7685970  23.1876120
  46.2016034  21.6465111  23.7448503  45.4749197  21.5121076  23.1364995
  45.7863320  21.9541939  24.5505221  34.0246210  25.3655040  31.5095876
  34.9449219  25.5433639  31.7035923  33.9895793  24.4211086  31.3575575
  27.0208282  23.2756075  24.1518657  27.2394292  24.2073183  24.1706691
  27.4334056  22.9164049  24.9373461  31.8936148  18.8489281  33.5421406
  31.7932875  19.7983638  33.4733497  31.6757690  18.5207520  32.6697476
  31.7567418  22.2786420  32.3586468  31.2734500  23.0786780  32.5650357
  31.8428357  22.2894364  31.4053912  27.6840755  26.1690954  24.3954902
  28.6384009  26.1374897  24.3284833  27.4853279  25.7081578  25.2105128
  28.2740137  24.7392070  26.9625699  29.0933026  25.2336149  26.9860537
  28.5476945  23.8224038  26.9343267  43.8193828  17.8676963  21.0981935
  44.4138319  17.6272699  20.3875243  43.8920412  17.1484093  21.7255471
  26.0390984  31.7110574  21.4125100  25.9045452  30.9510975  20.8463098
  25.6223046  32.4351474  20.9453888  46.1264901  21.1743164  19.8725356
  45.5664459  21.2436353  20.6456918  45.5208405  20.9984148  19.1524852
  29.1960110  32.6079891  21.6243542  29.0792494  33.5525323  21.5222233
  28.3752556  32.3053452  22.0129341  23.5275052  19.0730204  27.6617896
  24.1733915  18.5629158  28.1505122  23.3192203  19.8098886  28.2361322
  36.0528444  26.1411052  33.1610037  36.9219604  26.3151704  32.7996672
  35.5735195  26.9605469  33.0385766  30.2214624  33.2608153  24.8399471
  31.1241871  33.2931763  25.1565966  29.9951994  32.3308604  24.8545806
  31.9768226  32.0139139  21.5009549  31.0263857  32.0141001  21.3873922
  32.2800712  31.2671874  20.9845584  27.8672543  16.2197821  31.7592911
  28.7304004  15.8634626  31.9696235  27.2937953  15.8811716  32.4468315
  47.7120920  37.8499678  22.5655312  48.3499330  37.7306425  21.8618652
  47.5941763  38.7980522  22.6243264  44.5210626  37.8027106  22.5016836
  44.1829137  37.6868170  21.6137371  45.3900394  37.4018271  22.4817843
  40.3797442  39.6562582  18.4913727  39.8162307  39.5652519  17.7230015
  40.2649837  38.8362487  18.9716220  45.0030409  38.9561957  28.4603042
  44.9919050  38.5614756  27.5883546  45.1651048  38.2228030  29.0536813
  37.9261874  41.1513774  21.3297948  38.7183165  40.8104598  20.9144247
  38.1658524  41.2608749  22.2500101  45.9597000  43.3233550  13.8028192
  45.3084980  43.9087630  13.4162206  46.7541363  43.8539745  13.8623230
  39.8852627  40.4122687  14.2015327  40.6583503  39.8651674  14.0628202
  40.2378026  41.2766936  14.4129788  41.7237670  41.7399069  27.4082226
  41.4327536  42.6444700  27.2928892  42.3594654  41.7815597  28.1226295
  42.6493877  39.1175918  23.9983586  43.2457449  38.8931940  23.2840548
  42.7068848  38.3760663  24.6009033  42.2218905  36.5715353  11.8333777
  42.4744426  36.0496874  11.0717240  41.2843464  36.4081499  11.9360460
  47.2662188  35.5751131  19.6408520  48.0525277  35.1570555  19.2898937
  47.5300892  36.4797224  19.8090168  47.4372265  41.0123982  14.3397177
  46.8018098  41.0858608  15.0518081  47.1069672  41.6017581  13.6616256
  52.6670615  35.5126365  20.5441498  53.3995787  34.9425581  20.7779328
  51.9109971  35.1247965  20.9848004  41.9415194  38.4743459  14.0358151
  41.8251452  37.7988362  14.7039236  42.0517454  37.9875833  13.2190305
  44.2846735  37.9353606  17.7404841  43.9204942  37.4084227  18.4517762
  45.1413851  37.5452075  17.5671326  50.1896036  29.2247939  25.0036107
  49.8579360  30.0943350  24.7797322  49.5941649  28.9084223  25.6830137
  43.9252222  32.9643506  12.7366189  44.0926624  33.8323742  13.1036660
  43.7349391  33.1270788  11.8127478  46.6827555  41.4260485  24.4032020
  46.3828278  42.3285524  24.2947827  46.3378615  41.1592668  25.2553172
  40.1340037  37.8774282  20.4368724  39.2090533  37.7450496  20.6446416
  40.3824450  38.6568501  20.9338666  50.0824699  33.9443025  22.0829457
  49.1741576  33.8758433  21.7888218  50.0312295  34.4214970  22.9111282
  43.9041443  35.4201163  13.7212856  43.7841068  35.8658214  14.5598336
  43.2094031  35.7686481  13.1626394  37.4948848  37.5207555  21.2712513
  37.6241229  37.7742034  22.1851925  36.8146299  38.1135263  20.9517168
  41.6648335  48.1904805  17.3702987  41.5872365  49.1412630  17.4491468
  41.0609979  47.8450678  18.0277914  44.1565565  35.3632671  30.0264354
  43.3798899  35.9226591  30.0167219  44.7956128  35.8489454  30.5479224
  51.9486345  32.1459463  23.8607331  51.3060726  32.4391997  23.2147125
  51.4441274  32.0312384  24.6660527  49.6026509  35.8922637  14.5493190
  50.5144365  36.1250023  14.3740888  49.0936156  36.4759681  13.9868269
  42.4111937  38.1718124  29.5882321  43.1526621  38.7103168  29.3117145
  41.7048922  38.7984413  29.7453873  47.8867277  40.3147264  28.1854483
  48.2950633  39.8729675  27.4409115  47.1644538  39.7399892  28.4388676
  44.2398347  35.2519871  25.5588040  45.0859542  35.6759285  25.7022689
  44.1796984  34.5953495  26.2526603  48.2096091  40.8748455  21.9406772
  47.5804954  41.0394169  21.2382839  47.8221753  41.2890065  22.7117736
  52.0885323  41.8102893  19.2951135  51.4036361  42.1901794  18.7448169
  52.1729172  42.4198219  20.0283083  47.3897792  32.9124239  27.2169213
  47.1458724  33.6666300  26.6803489  47.6657723  33.2909587  28.0516460
  49.3436255  39.4562852  25.8946479  49.5553150  40.0994612  25.2180860
  49.2966003  38.6225168  25.4268409  46.9462484  32.0680673  22.7983051
  46.0846963  32.3661926  23.0899789  46.9724918  32.2851071  21.8664084
  43.7624053  40.6122863  19.2056857  44.2262399  40.8910566  18.4161479
  43.4980851  39.7106308  19.0229947  40.6548134  40.1594345  22.1436620
  41.2249491  40.5881613  21.5054104  41.2456246  39.8776929  22.8420806
  42.6992939  36.7346015  16.0146422  43.4016983  37.1867059  16.4820348
  42.3673568  36.0929834  16.6426315  41.1473301  35.3257772  30.3897631
  40.5171961  36.0074053  30.6233028  41.0409389  35.2140854  29.4450769
  36.4418273  34.9929568  21.3163555  35.6517327  35.2487097  20.8403666
  36.9329521  35.8077906  21.4215596  50.4582083  42.3334807  24.0668836
  51.2799526  41.9314995  23.7851518  50.4544486  42.2303041  25.0184952
  38.3933019  35.3574147  18.2747032  37.5964182  35.4692842  18.7930528
  38.1658611  35.6960800  17.4087923  44.2238686  41.8818851  26.2229547
  44.2883119  42.3439258  27.0587719  43.5149610  41.2516216  26.3511857
  34.7255976  35.2460059  23.7478546  34.9764015  36.1307068  24.0136122
  35.2615525  35.0664660  22.9753638  58.5488076  38.6773556  20.4153808
  57.7951784  38.1080954  20.2597812  58.6835617  38.6436220  21.3624442
  43.9386704  43.5486958  16.0908527  43.8032379  44.3938494  16.5193375
  44.4796516  43.7506236  15.3274461  40.4254043  29.6278538  32.7522882
  40.0320989  29.0744736  33.4270526  41.2420184  29.9389116  33.1429400
  37.3916101  41.0662396  16.6636452  37.9040622  41.8605646  16.8142017
  38.0438814  40.3688687  16.5970054  39.2010986  44.1828152  18.7459205
  39.3777614  45.1046117  18.5580189  39.9967819  43.8686572  19.1753585
  43.3422004  31.0436417  30.3443139  44.0831718  31.6443570  30.2647601
  43.5739927  30.3014055  29.7861181  38.4863342  36.2292784  28.6221368
  38.3716858  35.3278042  28.9228467  37.6307860  36.4756481  28.2706185
  45.5655180  44.1710525  30.2208869  45.1219034  43.3846903  29.9029774
  46.2272394  44.3589675  29.5552760  40.3242301  45.7006326  24.7469548
  40.8749727  45.5723390  23.9746542  39.4853777  46.0001215  24.3964440
  47.6636418  44.4513325  28.2490270  47.6454894  45.2722206  27.7570540
  48.5856338  44.3267400  28.4740412  44.1209472  41.9657454  29.0913779
  44.6537809  41.2045742  28.8613087  43.5923554  41.6731106  29.8337933
  47.2879167  27.0717520  24.6207420  46.9443437  27.9619162  24.5446531
  47.6558130  26.8819178  23.7577005  35.3565018  39.3951050  17.4396023
  36.1940240  39.8048059  17.2229730  35.5343286  38.4550493  17.4096217
  47.2529450  37.0626131  13.1279856  46.7376074  37.8330736  13.3668243
  46.9806759  36.3891267  13.7512917  44.8376561  31.9075832  18.1865094
  43.9818158  31.5182682  18.0070733  45.2503513  31.9867793  17.3264879
  46.3675708  29.4422175  22.5856654  45.8640503  29.4052310  21.7724459
  46.6606315  30.3514918  22.6453310  42.6118594  29.5260905  21.5922835
  43.4771590  29.3303714  21.2328725  42.6796103  29.2971257  22.5192192
  52.2263724  39.8158486  15.0633029  51.4493167  39.4769645  14.6188191
  52.9055205  39.8211109  14.3887994  47.0415753  34.9353223  14.9539637
  46.7365889  35.2499372  15.8049780  47.9946195  35.0134643  14.9966970
  45.4862185  41.0943446  16.6032591  44.9583547  40.3596206  16.2905828
  44.9849688  41.8718123  16.3572559  50.4655031  39.2892467  21.7199637
  49.8078706  39.9791728  21.8079766  51.2695430  39.6788899  22.0633623
  40.2180913  31.7563113  18.9639202  40.7924665  31.5338294  18.2312395
  40.8051895  31.8251807  19.7167804  49.2760490  37.6436840  19.7703579
  49.7892372  38.2766831  20.2725289  49.9261714  37.0438035  19.4046939
  40.5450500  33.7867574  12.9835088  39.7087812  34.1242260  13.3044362
  40.4055270  33.6516554  12.0462225  42.5203580  28.6304362  17.6914272
  41.8667993  28.3153379  17.0670886  42.4784055  28.0080102  18.4174095
  43.6314785  38.9123657   9.6067564  42.7241847  38.6812910   9.8058713
  44.1285817  38.1161276   9.7941545  46.5382864  47.6221164  12.5264250
  45.8644563  47.9252861  13.1349208  46.9248686  48.4250244  12.1769707
  45.7541321  35.1186295  22.0161919  44.8363882  35.3401242  21.8583607
  46.1701464  35.1932606  21.1573627  46.5376369  36.5177711  17.1464600
  47.2848188  37.0299108  16.8371722  46.8067958  36.1961764  18.0068993
  44.8103019  39.0136252  14.1291554  43.9014238  38.7295284  14.2264024
  44.8398103  39.4335330  13.2694861  50.0422286  42.6242841  17.8982721
  49.5884613  41.7833751  17.9547912  49.4116253  43.2604239  18.2357502
  48.9855206  33.5534827  19.1283389  48.2477963  33.0412213  19.4593631
  49.2381979  33.1135209  18.3166666  48.4855225  44.4619338  18.8332540
  48.7778200  45.0224395  18.1144905  48.9953846  44.7547899  19.5885699
  49.0866833  26.3311079  19.7225158  49.3925710  25.4708443  19.4351073
  49.8119438  26.9228699  19.5224152  35.3791189  36.7341766  18.1106756
  35.1815589  36.1411126  17.3857823  34.8237853  36.4293976  18.8282695
  43.3587913  36.6264872  20.2301349  43.4136523  35.6738709  20.1543826
  42.5479115  36.7824311  20.7142648  44.5079107  40.5544995  11.4679632
  44.0698536  39.8380854  11.0085270  45.2489547  40.7821110  10.9064724
  41.2980273  35.2441932  17.9891728  40.4848138  35.5436103  18.3956920
  41.7939267  34.8497621  18.7066210  43.4488851  45.2399689  19.9225993
  43.4065029  45.4660535  18.9934525  44.3651549  45.0063063  20.0711794
  46.8954484  35.7083756  26.8206622  47.2503872  35.9355230  27.6801088
  47.5426616  36.0402133  26.1983877  52.6252221  38.8302192  17.5255951
  52.4870120  39.0203788  16.5977140  52.2688440  39.5921575  17.9824002
  40.7894347  32.8160287  23.6052963  41.4293727  32.6749047  22.9075926
  39.9571878  32.5294801  23.2291565  52.6521601  40.8978719  22.5367223
  53.0858108  40.8054008  23.3850277  53.3653182  40.8736220  21.8987239
  41.5654651  42.1162718  19.7187956  42.3595250  41.6213038  19.5170530
  40.8546344  41.5880581  19.3555661  46.3849496  44.4980813  24.0700323
  46.4386518  45.0671750  24.8378039  45.5164277  44.6682698  23.7054360
  37.8737415  36.2605800  15.7947708  36.9435003  36.1990255  16.0117670
  37.9694887  35.7381752  14.9984349  37.7922964  32.7860612  18.3825950
  38.0529781  33.7005946  18.2735110  38.6140136  32.3185055  18.5322563
  39.2647889  34.1998370  25.5524774  39.9370943  33.9915732  24.9037423
  38.4377676  34.0020456  25.1130007  53.5137151  40.9402420  25.0700108
  53.7073041  41.8448230  25.3159383  53.4137769  40.4809839  25.9038693
  45.1673461  30.8260311  27.5690435  44.5201376  31.5250260  27.4754912
  45.9374477  31.2596454  27.9366683  48.5752259  41.0909163  30.6440989
  48.4237766  40.8619714  29.7271072  48.5656939  42.0479764  30.6572334
  45.3437596  38.6641075  25.6287255  46.2729656  38.8152235  25.4556222
  44.9228626  38.7525096  24.7735901  44.1425927  42.6891740  23.3985793
  44.0037013  42.3210524  24.2711731  43.3540524  43.2039379  23.2269750
  44.7374079  47.7900836  14.7411329  44.9125835  47.3188880  15.5556952
  44.0506867  48.4166603  14.9692590  45.6931143  42.0673343  20.7874630
  45.3580975  42.0274113  21.6832280  45.1935088  41.4018058  20.3145041
  39.6675386  37.4740973  26.3127212  39.5295184  36.7421211  26.9138751
  40.5780310  37.3849873  26.0311399  48.6290334  39.4129377  11.0611690
  48.0119505  38.6876205  10.9644743  48.1606823  40.1738737  10.7178764
  42.2957687  37.1860932  25.8010891  43.0057306  36.5454124  25.7597510
  42.2526995  37.4373827  26.7237072  50.2844466  44.1228285  28.7217470
  50.2257012  43.4387505  28.0548053  50.6863984  44.8647275  28.2698096
  41.0086621  34.1726150  27.6206531  40.4723978  33.7216888  28.2728127
  40.4203330  34.3072059  26.8776995  39.3035165  50.9390199  21.5151189
  39.5431763  51.5708723  22.1930208  38.4604361  50.5878239  21.8016549
  50.2861873  42.0867869  26.9531450  49.3988652  41.7493791  27.0757849
  50.8560424  41.3550900  27.1900215  31.9391020  38.4191961  20.2774501
  32.6262060  38.1053691  19.6895517  31.7839149  39.3233326  20.0041753
  36.7425742  33.3082158  24.7059525  36.6583931  32.7007827  23.9709935
  35.9208449  33.7991176  24.7069021  43.8163027  46.7469322  23.9192693
  43.7433198  47.5524293  24.4311998  43.3740420  46.9461287  23.0940715
  43.6052806  45.9841092  17.4295515  42.8220328  46.5262772  17.5233739
  44.3045551  46.5015071  17.8289756  46.9149456  31.7935721  20.0729720
  47.4118156  31.0405683  19.7530790  46.1436438  31.8300038  19.5072930
  54.7679214  37.4976087  21.7148012  54.7569090  38.3800802  21.3441945
  53.8996593  37.1447637  21.5202549  46.2761710  46.6456156  26.0750852
  46.9889682  47.2803620  26.0026753  45.7851739  46.7420022  25.2590854
  47.9979237  40.5507408  17.6468144  47.0635516  40.6708871  17.4772848
  48.1755905  39.6479875  17.3828153  43.4984425  33.9353104  19.8001405
  43.1282213  33.3824144  20.4882310  43.9943517  33.3311238  19.2476405
  51.3851788  36.3924728  18.1818178  51.8512240  37.2252719  18.1078480
  51.8359289  35.9269709  18.8863436  41.3273624  44.3950599  26.8956423
  42.0283083  45.0287082  27.0485817  40.8568739  44.7365331  26.1352062
  49.4528019  42.7368549  15.1804330  49.7287863  42.6225143  16.0898204
  48.5832518  42.3386034  15.1416503  49.3568451  28.7605315  22.2209079
  48.4431531  28.9909541  22.3891286  49.7861552  28.8443759  23.0723111
  49.1274910  36.9495207  24.7208973  48.4746360  37.1971114  24.0661426
  49.5055289  36.1359345  24.3871450  46.0882083  46.9854900  18.8237143
  46.2704478  46.1676556  19.2864896  46.9115069  47.2022592  18.3862033
  46.4224249  45.9123085  16.0852192  46.9512015  45.4015539  15.4722354
  46.6852468  45.5965615  16.9497725  45.1762483  37.6915018  31.2075010
  44.5003120  37.5909147  31.8777385  45.9990116  37.5354231  31.6711007
  36.9241342  43.9286954  23.8287525  37.5094778  43.1830642  23.9615430
  36.7266180  44.2390911  24.7124189  39.7779997  46.9638201  18.8449968
  39.1090372  47.4484329  18.3614008  39.6392867  47.2107422  19.7593346
  31.5158996  36.4992554  22.5491969  31.5543096  35.9656145  23.3429087
  31.0099289  35.9727760  21.9302946  43.9185265  48.9981945  25.4432626
  44.4703573  49.1613567  26.2081711  44.2591459  49.5886383  24.7712651
  38.8949759  31.3457095  26.0454511  38.9591085  32.2071926  25.6331909
  38.8316879  30.7331096  25.3126869  38.3702031  33.4180227  29.6927545
  38.9974070  33.0357305  30.3065069  37.5129950  33.1994429  30.0583238
  48.7696140  43.8243203  31.2981281  49.3136044  44.4373161  30.8036235
  48.1882985  44.3822781  31.8148294  35.1467574  35.2256656  15.6245900
  35.4421015  34.3167335  15.5712954  34.2455610  35.2044396  15.3026902
  47.0553653  46.9463921  22.4296308  46.9304792  46.1453660  21.9207254
  47.7132744  47.4410114  21.9410278  38.6761821  33.3012653  21.6073449
  37.9548407  33.9148621  21.4680922  39.4655077  33.8370418  21.5290095
  49.1188561  44.7472941  24.0575858  48.1718897  44.6278292  23.9854185
  49.4671334  43.8595439  24.1402120  41.4788134  30.6367080  27.8814100
  42.0022536  30.8829376  28.6440410  41.2600468  31.4687114  27.4617238
  36.8755416  32.9070754  15.7485225  36.5468122  32.0268133  15.5660331
  37.2294786  32.8518423  16.6361614  46.1234994  44.5425657  20.2580211
  45.9759957  43.6142364  20.4387781  46.9488488  44.5645748  19.7737286
  39.9897239  33.1943724  16.1160703  40.3293311  33.7229645  15.3939311
  40.4369359  33.5324130  16.8919269  49.7269116  45.3654216  21.3445083
  50.6515664  45.1597077  21.2069535  49.5584420  45.1170617  22.2534425
  42.6840680  31.5780775  25.5663771  42.3437500  30.7788588  25.9684451
  41.9779686  31.8782485  24.9940604  43.3357151  28.6630087  24.0191094
  44.1583221  28.1890565  23.8969984  43.5795215  29.4420571  24.5189780
  41.9765386  31.6918346  14.3153996  42.6973748  32.0699598  13.8117712
  41.3530690  32.4107222  14.4188974  46.1196509  32.3963494  15.2512328
  46.3360123  33.2788132  14.9501156  45.6390576  32.0049708  14.5217970
  40.8595730  35.3549208  21.8283072  40.7140311  35.6689511  22.7207354
  40.3820934  35.9734108  21.2753971  42.7192113  32.3451756  21.8763962
  42.7053682  31.4492849  21.5396260  43.4364541  32.3522419  22.5102248
  44.5718244  32.7789096  23.9217089  44.3136022  33.7006167  23.9201420
  44.0403284  32.3819530  24.6117554  49.5164432  45.8839883  16.7007175
  49.6901310  45.3186306  15.9481027  50.0093324  46.6840778  16.5186665
  35.3341392  37.8954552  24.7670734  34.7894860  38.6714360  24.8991008
  36.2120742  38.2425357  24.6089855  42.1229009  31.2266136  17.1451532
  42.2444920  30.2982782  17.3442420  41.8331051  31.2404822  16.2329848
  44.9920199  28.9121046  20.2818252  45.0141896  28.9760379  19.3270232
  45.4088258  28.0725555  20.4758758  55.3703824  38.6476306  18.3197475
  55.8134970  37.8983631  17.9216598  54.4930334  38.6386442  17.9371207
  50.5039605  45.2006647  13.8004073  51.1990510  45.8213340  14.0191388
  50.8462755  44.3501999  14.0756451  36.1207414  37.0224448  27.6600891
  35.3789150  37.1707084  28.2465521  35.8000158  37.2832714  26.7967640
  52.4031028  42.6506353  15.3291404  52.9282352  42.9893626  14.6040724
  52.3153381  41.7153368  15.1454539  44.0651077  46.5640427  27.4581281
  44.3738203  46.3189573  28.3303980  44.8626559  46.7687065  26.9700151
  44.0871689  48.7178336  19.6886657  43.6476679  48.2254715  20.3819514
  44.8379806  48.1751304  19.4478732  36.5664028  44.9089877  19.6911285
  37.3922048  44.6093649  19.3109929  36.2158080  44.1397500  20.1401074
  41.5345561  44.2616345  21.7608959  40.9125570  43.5987050  21.4611187
  42.2050428  44.2877477  21.0782607  34.7672633  42.8276204  20.6500219
  33.9304541  42.3998378  20.4684220  34.7396278  43.0208647  21.5871010
  41.6070088  32.7398133  31.3541465  41.6558244  33.6160256  30.9719234
  42.1492603  32.1975526  30.7813108  52.0924934  43.2839257  30.6342602
  51.3020478  43.2663395  30.0947101  51.8558289  43.8227550  31.3891638
  52.2122809  40.1331723  27.9475330  52.2620814  39.9681730  28.8890853
  52.1036733  39.2658982  27.5573211  41.0959068  42.8120269  15.2367419
  41.2447188  43.4955733  14.5834092  41.9025511  42.7925359  15.7516875
  49.5026572  36.1162651  29.2634637  50.4036434  35.9769116  28.9718635
  49.5774546  36.2817106  30.2032815  43.8369377  33.4929506  28.1087823
  42.9672686  33.7863072  27.8370412  44.0728857  34.0769951  28.8295087
  53.7141006  42.5528664  28.1917352  53.4225814  42.9158645  29.0280813
  53.1013137  41.8395673  28.0130684  54.9136688  40.1181544  20.7119922
  55.7483580  40.5571348  20.8757483  55.0495817  39.6420197  19.8928168
  51.9628194  37.6761279  26.6597410  52.4382316  37.8688925  25.8516261
  51.0393760  37.7320465  26.4140794  38.8511701  38.8385446  16.2428488
  38.6057743  37.9347776  16.4408698  39.0207615  38.8402597  15.3007966
  46.5408411  29.7109123  25.6253244  47.0590355  30.4470150  25.2999732
  46.1863543  30.0173116  26.4600003  38.1207348  34.5713804  13.7414650
  37.4276593  34.6458159  13.0854686  37.8759100  33.8074148  14.2636167
  46.7921005  26.1309405  21.1454140  47.0722759  25.4632594  21.7714567
  47.5771612  26.3238501  20.6328804  44.5954473  45.3068399  12.7079167
  44.0228440  45.9258586  12.2549639  45.1687267  45.8567761  13.2419089
  50.6629863  34.5527039  24.8925716  51.6147286  34.6525137  24.9137940
  50.4933314  33.7605308  25.4023800  48.6844243  31.6382622  25.0785116
  48.0894175  31.9187635  24.3831605  48.3993939  32.1276523  25.8501858
  47.8151733  45.5905549  13.8387749  48.7482406  45.5251111  14.0420625
  47.7274946  46.4261816  13.3802282  50.4439750  44.9071420  10.7991697
  50.3653381  44.5731283  11.6927454  51.2649417  45.3993187  10.7983169
  53.1417941  37.7733159  24.0068015  53.1094261  36.8349160  24.1927699
  53.7518565  37.8517196  23.2733840  44.9801272  36.6429212  10.0495219
  45.9260377  36.5135420  10.1183637  44.6015517  35.9043874  10.5264647
  53.2912430  34.5644202  24.0526298  52.7751478  33.7802659  23.8656227
  54.1752378  34.2362919  24.2172818  50.9523156  28.3085218  20.0122111
  50.7547978  28.0000306  20.8965443  51.5622862  29.0346857  20.1420041
  58.9594491  38.8349166  23.1474052  59.6897879  38.5734454  23.7081755
  58.3501436  38.0977888  23.1876120  57.0409788  36.9757028  23.7448503
  56.3142952  36.8412993  23.1364995  56.6257075  37.2833857  24.5505221
  44.8639964  40.6946958  31.5095876  45.7842974  40.8725557  31.7035923
  44.8289547  39.7503003  31.3575575  34.0822129  35.8885552  20.4349151
  33.7624914  35.0350860  20.1423525  33.5355558  36.1034130  21.1907118
  37.8602037  38.6047993  24.1518657  38.0788047  39.5365100  24.1706691
  38.2727811  38.2455967  24.9373461  44.7806255  29.1116078  16.1394346
  43.9706983  28.7663163  16.5149592  45.4690672  28.8023622  16.7281957
  46.7096803  28.1894125  17.7618642  47.2627842  28.6089578  18.4208665
  46.9466889  27.2629873  17.8041598  42.7329902  34.1781198  33.5421406
  42.6326629  35.1275555  33.4733497  42.5151444  33.8499437  32.6697476
  33.9510389  39.5088463  22.4042272  33.2573861  39.0942416  21.8912227
  34.6983380  39.5509000  21.8075691  50.0875610  30.2994650  17.2697307
  49.5074279  30.9579454  16.8875359  49.8211543  29.4771995  16.8584724
  48.5379177  29.6999708  19.4718627  49.0378955  29.8116242  18.6632946
  49.1814784  29.3960760  20.1119435  42.5961172  37.6078337  32.3586468
  42.1128254  38.4078697  32.5650357  42.6822111  37.6186282  31.4053912
  35.8647132  39.4406717  20.2808287  35.8417820  39.5394404  19.3290170
  36.1747768  40.2871868  20.6025453  38.5234510  41.4982872  24.3954902
  39.4777763  41.4666814  24.3284833  38.3247033  41.0373496  25.2105128
  39.1133892  40.0683988  26.9625699  39.9326781  40.5628067  26.9860537
  39.3870700  39.1515956  26.9343267  48.8700488  32.4594740  16.3253655
  47.9826343  32.7444391  16.1073850  49.2854477  32.2988504  15.4780932
  52.2215024  32.4841261  20.0407994  52.9975414  32.9737714  20.3132611
  51.4963158  32.9099315  20.4979864  54.6587583  33.1968881  21.0981935
  55.2532074  32.9564616  20.3875243  54.7314167  32.4776011  21.7255471
  36.8784739  47.0402491  21.4125100  36.7439207  46.2802892  20.8463098
  36.4616801  47.7643391  20.9453888  48.0143702  42.2239415  10.4201675
  48.7179552  42.4289417  11.0359331  47.2906350  42.7916177  10.6850758
  48.8441512  37.9749276  16.5403945  48.7876713  38.4317828  15.7011577
  49.3969854  37.2139961  16.3626788  52.6546318  33.7639008  17.3654065
  52.3983252  33.3635644  18.1962272  52.0299186  34.4782802  17.2404204
  56.9658656  36.5035081  19.8725356  56.4058214  36.5728271  20.6456918
  56.3602159  36.3276066  19.1524852  40.0353864  47.9371808  21.6243542
  39.9186249  48.8817241  21.5222233  39.2146311  47.6345370  22.0129341
  49.9230399  42.6621944  12.4700135  50.7576003  42.2303143  12.2877610
  49.7614742  42.4903958  13.3977029  49.5776291  39.1654057  13.8356474
  49.5225095  38.9998329  12.8944918  48.9522346  39.8730090  13.9918664
  34.3668806  34.4022122  27.6617896  35.0127670  33.8921076  28.1505122
  34.1585957  35.1390804  28.2361322  46.8922198  41.4702969  33.1610037
  47.7613358  41.6443622  32.7996672  46.4128950  42.2897386  33.0385766
  42.8872417  28.6662166  13.4141793  42.8751086  29.6104006  13.5710064
  43.7795839  28.4832312  13.1201254  41.0608379  48.5900070  24.8399471
  41.9635625  48.6223681  25.1565966  40.8345749  47.6600521  24.8545806
  42.8161981  47.3431057  21.5009549  41.8657612  47.3432919  21.3873922
  43.1194467  46.5963791  20.9845584  46.7024536  25.2604943  17.6687729
  45.9356932  24.7063430  17.8144412  47.1135241  25.3326812  18.5301881
  38.7066297  31.5489739  31.7592911  39.5697759  31.1926544  31.9696235
  38.1331708  31.2103634  32.4468315  58.5514674  53.1791595  22.5655312
  59.1893084  53.0598343  21.8618652  58.4335517  54.1272439  22.6243264
  55.3604380  53.1319023  22.5016836  55.0222892  53.0160088  21.6137371
  56.2294149  52.7310188  22.4817843  51.2191196  54.9854500  18.4913727
  50.6556061  54.8944437  17.7230015  51.1043591  54.1654404  18.9716220
  48.7655628  56.4805691  21.3297948  49.5576920  56.1396516  20.9144247
  49.0052278  56.5900666  22.2500101  56.7990755  58.6525468  13.8028192
  56.1478735  59.2379548  13.4162206  57.5935118  59.1831662  13.8623230
  50.7246382  55.7414605  14.2015327  51.4977258  55.1943592  14.0628202
  51.0771781  56.6058854  14.4129788  53.4887631  54.4467835  23.9983586
  54.0851204  54.2223858  23.2840548  53.5462603  53.7052581  24.6009033
  53.0612660  51.9007271  11.8333777  53.3138180  51.3788792  11.0717240
  52.1237219  51.7373416  11.9360460  58.1055943  50.9043049  19.6408520
  58.8919032  50.4862472  19.2898937  58.3694647  51.8089141  19.8090168
  58.2766020  56.3415899  14.3397177  57.6411853  56.4150526  15.0518081
  57.9463426  56.9309498  13.6616256  63.5064370  50.8418282  20.5441498
  64.2389542  50.2717499  20.7779328  62.7503725  50.4539883  20.9848004
  52.7808949  53.8035377  14.0358151  52.6645207  53.1280280  14.7039236
  52.8911208  53.3167751  13.2190305  55.1240489  53.2645524  17.7404841
  54.7598697  52.7376145  18.4517762  55.9807605  52.8743993  17.5671326
  61.0289790  44.5539856  25.0036107  60.6973115  45.4235267  24.7797322
  60.4335403  44.2376140  25.6830137  54.7645976  48.2935424  12.7366189
  54.9320379  49.1615660  13.1036660  54.5743146  48.4562705  11.8127478
  57.5221310  56.7552402  24.4032020  57.2222033  57.6577441  24.2947827
  57.1772369  56.4884586  25.2553172  50.9733791  53.2066199  20.4368724
  50.0484288  53.0742413  20.6446416  51.2218204  53.9860419  20.9338666
  60.9218453  49.2734943  22.0829457  60.0135331  49.2050351  21.7888218
  60.8706049  49.7506888  22.9111282  54.7435197  50.7493081  13.7212856
  54.6234823  51.1950132  14.5598336  54.0487786  51.0978399  13.1626394
  48.3342602  52.8499473  21.2712513  48.4634983  53.1033952  22.1851925
  47.6540053  53.4427181  20.9517168  52.5042089  63.5196723  17.3702987
  52.4266119  64.4704548  17.4491468  51.9003733  63.1742595  18.0277914
  54.9959319  50.6924588  30.0264354  54.2192653  51.2518508  30.0167219
  55.6349882  51.1781371  30.5479224  62.7880100  47.4751381  23.8607331
  62.1454480  47.7683914  23.2147125  62.2835028  47.3604301  24.6660527
  60.4420263  51.2214554  14.5493190  61.3538120  51.4541941  14.3740888
  59.9329911  51.8051598  13.9868269  53.2505691  53.5010042  29.5882321
  53.9920376  54.0395086  29.3117145  52.5442677  54.1276330  29.7453873
  55.0792101  50.5811789  25.5588040  55.9253296  51.0051202  25.7022689
  55.0190739  49.9245413  26.2526603  59.0489846  56.2040373  21.9406772
  58.4198708  56.3686087  21.2382839  58.6615508  56.6181982  22.7117736
  62.9279078  57.1394811  19.2951135  62.2430116  57.5193712  18.7448169
  63.0122927  57.7490137  20.0283083  58.2291547  48.2416157  27.2169213
  57.9852478  48.9958218  26.6803489  58.5051477  48.6201505  28.0516460
  57.7856238  47.3972590  22.7983051  56.9240717  47.6953844  23.0899789
  57.8118673  47.6142989  21.8664084  54.6017808  55.9414781  19.2056857
  55.0656153  56.2202484  18.4161479  54.3374606  55.0398225  19.0229947
  51.4941889  55.4886262  22.1436620  52.0643246  55.9173531  21.5054104
  52.0850001  55.2068847  22.8420806  53.5386694  52.0637933  16.0146422
  54.2410737  52.5158977  16.4820348  53.2067322  51.4221752  16.6426315
  51.9867055  50.6549690  30.3897631  51.3565716  51.3365971  30.6233028
  51.8803143  50.5432771  29.4450769  47.2812028  50.3221486  21.3163555
  46.4911082  50.5779014  20.8403666  47.7723275  51.1369824  21.4215596
  61.2975837  57.6626725  24.0668836  62.1193281  57.2606912  23.7851518
  61.2938240  57.5594959  25.0184952  49.2326773  50.6866065  18.2747032
  48.4357936  50.7984759  18.7930528  49.0052365  51.0252717  17.4087923
  45.5649731  50.5751976  23.7478546  45.8157769  51.4598986  24.0136122
  46.1009279  50.3956578  22.9753638  69.3881830  54.0065473  20.4153808
  68.6345539  53.4372872  20.2597812  69.5229371  53.9728138  21.3624442
  54.7780458  58.8778876  16.0908527  54.6426133  59.7230411  16.5193375
  55.3190271  59.0798153  15.3274461  51.2647798  44.9570456  32.7522882
  50.8714744  44.4036654  33.4270526  52.0813938  45.2681034  33.1429400
  48.2309856  56.3954314  16.6636452  48.7434376  57.1897564  16.8142017
  48.8832569  55.6980604  16.5970054  50.0404740  59.5120070  18.7459205
  50.2171369  60.4338035  18.5580189  50.8361574  59.1978489  19.1753585
  54.1815759  46.3728335  30.3443139  54.9225472  46.9735488  30.2647601
  54.4133682  45.6305972  29.7861181  49.3257097  51.5584702  28.6221368
  49.2110612  50.6569959  28.9228467  48.4701615  51.8048399  28.2706185
  51.1636056  61.0298244  24.7469548  51.7143481  60.9015307  23.9746542
  50.3247532  61.3293133  24.3964440  58.1272922  42.4009438  24.6207420
  57.7837191  43.2911079  24.5446531  58.4951885  42.2111095  23.7577005
  46.1958773  54.7242968  17.4396023  47.0333995  55.1339976  17.2229730
  46.3737040  53.7842410  17.4096217  58.0923205  52.3918049  13.1279856
  57.5769828  53.1622653  13.3668243  57.8200513  51.7183185  13.7512917
  55.6770316  47.2367750  18.1865094  54.8211912  46.8474600  18.0070733
  56.0897267  47.3159710  17.3264879  57.2069462  44.7714093  22.5856654
  56.7034258  44.7344228  21.7724459  57.5000069  45.6806836  22.6453310
  53.4512348  44.8552823  21.5922835  54.3165345  44.6595631  21.2328725
  53.5189857  44.6263174  22.5192192  63.0657479  55.1450403  15.0633029
  62.2886922  54.8061563  14.6188191  63.7448960  55.1503027  14.3887994
  57.8809508  50.2645141  14.9539637  57.5759643  50.5791290  15.8049780
  58.8339950  50.3426561  14.9966970  56.3255940  56.4235364  16.6032591
  55.7977301  55.6888124  16.2905828  55.8243442  57.2010040  16.3572559
  61.3048786  54.6184385  21.7199637  60.6472460  55.3083646  21.8079766
  62.1089185  55.0080817  22.0633623  51.0574667  47.0855030  18.9639202
  51.6318419  46.8630212  18.2312395  51.6445650  47.1543725  19.7167804
  60.1154244  52.9728757  19.7703579  60.6286126  53.6058749  20.2725289
  60.7655468  52.3729953  19.4046939  51.3844254  49.1159491  12.9835088
  50.5481567  49.4534178  13.3044362  51.2449024  48.9808471  12.0462225
  53.3597335  43.9596279  17.6914272  52.7061747  43.6445297  17.0670886
  53.3177809  43.3372020  18.4174095  54.4708540  54.2415574   9.6067564
  53.5635602  54.0104828   9.8058713  54.9679572  53.4453194   9.7941545
  57.3776619  62.9513082  12.5264250  56.7038317  63.2544778  13.1349208
  57.7642441  63.7542162  12.1769707  56.5935075  50.4478213  22.0161919
  55.6757637  50.6693160  21.8583607  57.0095219  50.5224523  21.1573627
  57.3770123  51.8469629  17.1464600  58.1241942  52.3591026  16.8371722
  57.6461713  51.5253681  18.0068993  55.6496773  54.3428169  14.1291554
  54.7407993  54.0587202  14.2264024  55.6791857  54.7627248  13.2694861
  60.8816041  57.9534759  17.8982721  60.4278368  57.1125669  17.9547912
  60.2510007  58.5896157  18.2357502  59.8248960  48.8826745  19.1283389
  59.0871717  48.3704131  19.4593631  60.0775734  48.4427126  18.3166666
  59.3248980  59.7911255  18.8332540  59.6171954  60.3516313  18.1144905
  59.8347600  60.0839816  19.5885699  59.9260588  41.6602997  19.7225158
  60.2319464  40.8000360  19.4351073  60.6513192  42.2520617  19.5224152
  46.2184944  52.0633683  18.1106756  46.0209343  51.4703044  17.3857823
  45.6631608  51.7585894  18.8282695  54.1981667  51.9556790  20.2301349
  54.2530277  51.0030626  20.1543826  53.3872869  52.1116229  20.7142648
  55.3472861  55.8836913  11.4679632  54.9092291  55.1672772  11.0085270
  56.0883302  56.1113028  10.9064724  52.1374027  50.5733850  17.9891728
  51.3241893  50.8728020  18.3956920  52.6333021  50.1789538  18.7066210
  54.2882605  60.5691607  19.9225993  54.2458784  60.7952453  18.9934525
  55.2045304  60.3354981  20.0711794  57.7348239  51.0375674  26.8206622
  58.0897627  51.2647147  27.6801088  58.3820370  51.3694051  26.1983877
  63.4645976  54.1594110  17.5255951  63.3263874  54.3495706  16.5977140
  63.1082195  54.9213493  17.9824002  51.6288102  48.1452205  23.6052963
  52.2687481  48.0040964  22.9075926  50.7965633  47.8586719  23.2291565
  63.4915355  56.2270637  22.5367223  63.9251862  56.1345926  23.3850277
  64.2046936  56.2028137  21.8987239  52.4048406  57.4454636  19.7187956
  53.1989004  56.9504956  19.5170530  51.6940098  56.9172499  19.3555661
  57.2243250  59.8272731  24.0700323  57.2780273  60.3963667  24.8378039
  56.3558032  59.9974616  23.7054360  48.7131169  51.5897717  15.7947708
  47.7828757  51.5282173  16.0117670  48.8088641  51.0673670  14.9984349
  48.6316718  48.1152530  18.3825950  48.8923536  49.0297863  18.2735110
  49.4533891  47.6476973  18.5322563  50.1041644  49.5290287  25.5524774
  50.7764697  49.3207649  24.9037423  49.2771430  49.3312373  25.1130007
  56.0067216  46.1552228  27.5690435  55.3595131  46.8542178  27.4754912
  56.7768231  46.5888372  27.9366683  56.1831350  53.9932993  25.6287255
  57.1123410  54.1444153  25.4556222  55.7622380  54.0817014  24.7735901
  54.9819682  58.0183658  23.3985793  54.8430768  57.6502442  24.2711731
  54.1934278  58.5331297  23.2269750  55.5767834  63.1192754  14.7411329
  55.7519590  62.6480797  15.5556952  54.8900622  63.7458520  14.9692590
  56.5324897  57.3965260  20.7874630  56.1974730  57.3566030  21.6832280
  56.0328843  56.7309976  20.3145041  50.5069141  52.8032890  26.3127212
  50.3688939  52.0713129  26.9138751  51.4174064  52.7141790  26.0311399
  59.4684089  54.7421295  11.0611690  58.8513259  54.0168123  10.9644743
  59.0000577  55.5030655  10.7178764  53.1351442  52.5152850  25.8010891
  53.8451060  51.8746042  25.7597510  53.0920750  52.7665744  26.7237072
  51.8480376  49.5018067  27.6206531  51.3117733  49.0508806  28.2728127
  51.2597084  49.6363976  26.8776995  50.1428919  66.2682117  21.5151189
  50.3825517  66.9000641  22.1930208  49.2998116  65.9170157  21.8016549
  51.2582635  48.9606719  10.1832994  50.3812101  48.8395520   9.8195241
  51.7340388  48.1692797   9.9311883  42.7784775  53.7483879  20.2774501
  43.4655815  53.4345609  19.6895517  42.6232903  54.6525243  20.0041753
  47.5819497  48.6374075  24.7059525  47.4977686  48.0299745  23.9709935
  46.7602203  49.1283094  24.7069021  54.6556781  62.0761239  23.9192693
  54.5826952  62.8816211  24.4311998  54.2134174  62.2753205  23.0940715
  54.4446561  61.3133009  17.4295515  53.6614083  61.8554689  17.5233739
  55.1439306  61.8306989  17.8289756  57.7543211  47.1227639  20.0729720
  58.2511910  46.3697601  19.7530790  56.9830192  47.1591955  19.5072930
  65.6072968  52.8268004  21.7148012  65.5962844  53.7092720  21.3441945
  64.7390348  52.4739555  21.5202549  57.1155465  61.9748073  26.0750852
  57.8283437  62.6095538  26.0026753  56.6245493  62.0711939  25.2590854
  58.8372991  55.8799326  17.6468144  57.9029270  56.0000788  17.4772848
  59.0149660  54.9771793  17.3828153  54.3378179  49.2645022  19.8001405
  53.9675967  48.7116062  20.4882310  54.8337272  48.6603155  19.2476405
  62.2245543  51.7216645  18.1818178  62.6905995  52.5544637  18.1078480
  62.6753043  51.2561627  18.8863436  52.1667378  59.7242517  26.8956423
  52.8676838  60.3579000  27.0485817  51.6962493  60.0657248  26.1352062
  60.2921774  58.0660467  15.1804330  60.5681618  57.9517061  16.0898204
  59.4226273  57.6677951  15.1416503  60.1962206  44.0897232  22.2209079
  59.2825285  44.3201459  22.3891286  60.6255307  44.1735676  23.0723111
  59.9668664  52.2787124  24.7208973  59.3140114  52.5263032  24.0661426
  60.3449044  51.4651262  24.3871450  56.9275838  62.3146817  18.8237143
  57.1098232  61.4968473  19.2864896  57.7508824  62.5314510  18.3862033
  57.2618003  61.2415002  16.0852192  57.7905770  60.7307457  15.4722354
  57.5246223  60.9257533  16.9497725  47.7635096  59.2578872  23.8287525
  48.3488533  58.5122560  23.9615430  47.5659935  59.5682828  24.7124189
  50.6173751  62.2930119  18.8449968  49.9484127  62.7776247  18.3614008
  50.4786621  62.5399340  19.7593346  42.3552751  51.8284472  22.5491969
  42.3936850  51.2948063  23.3429087  41.8493044  51.3019677  21.9302946
  54.7579020  64.3273863  25.4432626  55.3097328  64.4905484  26.2081711
  55.0985213  64.9178301  24.7712651  49.7343513  46.6749012  26.0454511
  49.7984840  47.5363843  25.6331909  49.6710633  46.0623014  25.3126869
  49.2095786  48.7472145  29.6927545  49.8367824  48.3649222  30.3065069
  48.3523705  48.5286347  30.0583238  45.9861328  50.5548574  15.6245900
  46.2814770  49.6459253  15.5712954  45.0849364  50.5336314  15.3026902
  57.8947407  62.2755838  22.4296308  57.7698547  61.4745578  21.9207254
  58.5526498  62.7702032  21.9410278  49.5155575  48.6304571  21.6073449
  48.7942161  49.2440538  21.4680922  50.3048831  49.1662336  21.5290095
  59.9582316  60.0764858  24.0575858  59.0112651  59.9570209  23.9854185
  60.3065089  59.1887356  24.1402120  52.3181889  45.9658997  27.8814100
  52.8416291  46.2121294  28.6440410  52.0994222  46.7979032  27.4617238
  47.7149170  48.2362672  15.7485225  47.3861876  47.3560051  15.5660331
  48.0688541  48.1810340  16.6361614  56.9628749  59.8717575  20.2580211
  56.8153711  58.9434282  20.4387781  57.7882242  59.8937665  19.7737286
  50.8290993  48.5235642  16.1160703  51.1687066  49.0521563  15.3939311
  51.2763114  48.8616048  16.8919269  60.5662871  60.6946133  21.3445083
  61.4909418  60.4888995  21.2069535  60.3978174  60.4462534  22.2534425
  53.5234434  46.9072692  25.5663771  53.1831254  46.1080505  25.9684451
  52.8173440  47.2074403  24.9940604  54.1750906  43.9922005  24.0191094
  54.9976975  43.5182483  23.8969984  54.4188969  44.7712489  24.5189780
  52.8159140  47.0210263  14.3153996  53.5367503  47.3991516  13.8117712
  52.1924444  47.7399140  14.4188974  56.9590263  47.7255412  15.2512328
  57.1753878  48.6080050  14.9501156  56.4784330  47.3341626  14.5217970
  51.6989485  50.6841125  21.8283072  51.5534065  50.9981428  22.7207354
  51.2214688  51.3026026  21.2753971  53.5585867  47.6743673  21.8763962
  53.5447436  46.7784767  21.5396260  54.2758296  47.6814337  22.5102248
  55.4111998  48.1081014  23.9217089  55.1529776  49.0298084  23.9201420
  54.8797039  47.7111448  24.6117554  60.3558187  61.2131801  16.7007175
  60.5295064  60.6478223  15.9481027  60.8487078  62.0132696  16.5186665
  46.1735147  53.2246470  24.7670734  45.6288615  54.0006278  24.8991008
  47.0514497  53.5717274  24.6089855  52.9622763  46.5558054  17.1451532
  53.0838675  45.6274700  17.3442420  52.6724806  46.5696740  16.2329848
  55.8313954  44.2412964  20.2818252  55.8535651  44.3052297  19.3270232
  56.2482013  43.4017473  20.4758758  66.2097578  53.9768224  18.3197475
  66.6528724  53.2275549  17.9216598  65.3324088  53.9678360  17.9371207
  61.3433359  60.5298565  13.8004073  62.0384264  61.1505258  14.0191388
  61.6856510  59.6793916  14.0756451  46.9601169  52.3516366  27.6600891
  46.2182905  52.4999001  28.2465521  46.6393913  52.6124632  26.7967640
  63.2424783  57.9798271  15.3291404  63.7676107  58.3185543  14.6040724
  63.1547135  57.0445286  15.1454539  54.9265443  64.0470254  19.6886657
  54.4870434  63.5546633  20.3819514  55.6773560  63.5043222  19.4478732
  47.4057782  60.2381795  19.6911285  48.2315802  59.9385567  19.3109929
  47.0551834  59.4689417  20.1401074  52.3739315  59.5908263  21.7608959
  51.7519325  58.9278968  21.4611187  53.0444182  59.6169395  21.0782607
  45.6066387  58.1568121  20.6500219  44.7698296  57.7290296  20.4684220
  45.5790033  58.3500565  21.5871010  52.4463843  48.0690051  31.3541465
  52.4951998  48.9452174  30.9719234  52.9886357  47.5267444  30.7813108
  51.9352822  58.1412186  15.2367419  52.0840943  58.8247651  14.5834092
  52.7419266  58.1217276  15.7516875  54.6763131  48.8221423  28.1087823
  53.8066441  49.1154989  27.8370412  54.9122612  49.4061868  28.8295087
  65.7530443  55.4473462  20.7119922  66.5877334  55.8863266  20.8757483
  65.8889572  54.9712115  19.8928168  49.6905455  54.1677364  16.2428488
  49.4451497  53.2639694  16.4408698  49.8601370  54.1694514  15.3007966
  57.3802165  45.0401040  25.6253244  57.8984109  45.7762067  25.2999732
  57.0257298  45.3465034  26.4600003  48.9601103  49.9005722  13.7414650
  48.2670348  49.9750077  13.0854686  48.7152855  49.1366065  14.2636167
  57.6314759  41.4601323  21.1454140  57.9116513  40.7924512  21.7714567
  58.4165366  41.6530418  20.6328804  55.4348228  60.6360317  12.7079167
  54.8622195  61.2550504  12.2549639  56.0081022  61.1859678  13.2419089
  61.5023618  49.8818957  24.8925716  62.4541041  49.9817055  24.9137940
  61.3327068  49.0897225  25.4023800  59.5237997  46.9674540  25.0785116
  58.9287929  47.2479553  24.3831605  59.2387694  47.4568441  25.8501858
  58.6545488  60.9197467  13.8387749  59.5876161  60.8543029  14.0420625
  58.5668700  61.7553734  13.3802282  61.2833504  60.2363337  10.7991697
  61.2047136  59.9023201  11.6927454  62.1043171  60.7285105  10.7983169
  63.9811696  53.1025077  24.0068015  63.9488016  52.1641077  24.1927699
  64.5912319  53.1809113  23.2733840  55.8195026  51.9721130  10.0495219
  56.7654131  51.8427338  10.1183637  55.4409271  51.2335791  10.5264647
  64.1306184  49.8936120  24.0526298  63.6145233  49.1094577  23.8656227
  65.0146133  49.5654837  24.2172818  61.7916911  43.6377136  20.0122111
  61.5941732  43.3292224  20.8965443  62.4016616  44.3638774  20.1420041
  54.0037944  49.8971106   9.9850104  53.0969399  49.6004219  10.0612818
  54.2813925  49.6000924   9.1184391  44.9215884  51.2177469  20.4349151
  44.6018668  50.3642778  20.1423525  44.3749312  51.4326047  21.1907118
  48.6995791  53.9339910  24.1518657  48.9181801  54.8657018  24.1706691
  49.1121565  53.5747885  24.9373461  55.6200009  44.4407996  16.1394346
  54.8100738  44.0955081  16.5149592  56.3084426  44.1315539  16.7281957
  57.5490558  43.5186042  17.7618642  58.1021596  43.9381496  18.4208665
  57.7860644  42.5921791  17.8041598  53.5723657  49.5073116  33.5421406
  53.4720384  50.4567473  33.4733497  53.3545199  49.1791355  32.6697476
  52.7736728  46.7558041  10.1262084  53.6355892  47.0812939  10.3857901
  52.9587072  45.9689537   9.6135149  44.7904144  54.8380381  22.4042272
  44.0967615  54.4234334  21.8912227  45.5377135  54.8800917  21.8075691
  60.9269365  45.6286568  17.2697307  60.3468034  46.2871372  16.8875359
  60.6605297  44.8063912  16.8584724  59.3772931  45.0291625  19.4718627
  59.8772709  45.1408160  18.6632946  60.0208539  44.7252678  20.1119435
  53.4354927  52.9370255  32.3586468  52.9522009  53.7370615  32.5650357
  53.5215866  52.9478200  31.4053912  46.7040886  54.7698635  20.2808287
  46.6811575  54.8686322  19.3290170  47.0141523  55.6163785  20.6025453
  49.3628264  56.8274790  24.3954902  50.3171518  56.7958732  24.3284833
  49.1640788  56.3665413  25.2105128  49.9527646  55.3975906  26.9625699
  50.7720535  55.8919984  26.9860537  50.2264454  54.4807874  26.9343267
  59.7094243  47.7886658  16.3253655  58.8220098  48.0736309  16.1073850
  60.1248232  47.6280421  15.4780932  63.0608779  47.8133179  20.0407994
  63.8369169  48.3029631  20.3132611  62.3356913  48.2391233  20.4979864
  65.4981337  48.5260798  21.0981935  66.0925828  48.2856534  20.3875243
  65.5707921  47.8067929  21.7255471  47.7178493  62.3694409  21.4125100
  47.5832961  61.6094810  20.8463098  47.3010555  63.0935309  20.9453888
  58.8537456  57.5531333  10.4201675  59.5573306  57.7581335  11.0359331
  58.1300105  58.1208095  10.6850758  59.6835266  53.3041194  16.5403945
  59.6270468  53.7609745  15.7011577  60.2363609  52.5431879  16.3626788
  63.4940072  49.0930926  17.3654065  63.2377007  48.6927561  18.1962272
  62.8692940  49.8074720  17.2404204  67.8052410  51.8326999  19.8725356
  67.2451968  51.9020188  20.6456918  67.1995914  51.6567984  19.1524852
  50.8747619  63.2663726  21.6243542  50.7580003  64.2109159  21.5222233
  50.0540065  62.9637288  22.0129341  60.7624154  57.9913862  12.4700135
  61.5969757  57.5595060  12.2877610  60.6008496  57.8195876  13.3977029
  60.4170046  54.4945975  13.8356474  60.3618849  54.3290247  12.8944918
  59.7916101  55.2022008  13.9918664  45.2062561  49.7314040  27.6617896
  45.8521424  49.2212994  28.1505122  44.9979712  50.4682721  28.2361322
  53.7266171  43.9954084  13.4141793  53.7144841  44.9395924  13.5710064
  54.6189593  43.8124230  13.1201254  51.9002133  63.9191988  24.8399471
  52.8029380  63.9515598  25.1565966  51.6739503  62.9892439  24.8545806
  53.6555735  62.6722975  21.5009549  52.7051366  62.6724836  21.3873922
  53.9588221  61.9255709  20.9845584  57.5418291  40.5896861  17.6687729
  56.7750686  40.0355348  17.8144412  57.9528996  40.6618730  18.5301881
  49.5460052  46.8781657  31.7592911  50.4091513  46.5218461  31.9696235
  48.9725462  46.5395551  32.4468315  69.3908429  68.5083513  22.5655312
  70.0286839  68.3890260  21.8618652  69.2729272  69.4564357  22.6243264
  66.1998135  68.4610941  22.5016836  65.8616646  68.3452006  21.6137371
  67.0687903  68.0602106  22.4817843  62.0584951  70.3146417  18.4913727
  61.4949816  70.2236354  17.7230015  61.9437346  69.4946322  18.9716220
  59.6049383  71.8097609  21.3297948  60.3970674  71.4688434  20.9144247
  59.8446033  71.9192584  22.2500101  67.6384509  73.9817385  13.8028192
  66.9872489  74.5671466  13.4162206  68.4328872  74.5123580  13.8623230
  61.5640136  71.0706522  14.2015327  62.3371012  70.5235509  14.0628202
  61.9165535  71.9350772  14.4129788  64.3281386  69.7759753  23.9983586
  64.9244958  69.5515776  23.2840548  64.3856357  69.0344499  24.6009033
  63.9006414  67.2299188  11.8333777  64.1531935  66.7080710  11.0717240
  62.9630973  67.0665334  11.9360460  68.9449697  66.2334967  19.6408520
  69.7312786  65.8154390  19.2898937  69.2088401  67.1381059  19.8090168
  69.1159774  71.6707817  14.3397177  68.4805607  71.7442444  15.0518081
  68.7857181  72.2601416  13.6616256  74.3458124  66.1710200  20.5441498
  75.0783296  65.6009417  20.7779328  73.5897480  65.7831800  20.9848004
  63.6202703  69.1327294  14.0358151  63.5038961  68.4572198  14.7039236
  63.7304963  68.6459668  13.2190305  65.9634244  68.5937442  17.7404841
  65.5992451  68.0668062  18.4517762  66.8201360  68.2035911  17.5671326
  65.6039731  63.6227341  12.7366189  65.7714133  64.4907578  13.1036660
  65.4136900  63.7854623  11.8127478  68.3615064  72.0844320  24.4032020
  68.0615787  72.9869359  24.2947827  68.0166124  71.8176503  25.2553172
  71.7612208  64.6026860  22.0829457  70.8529085  64.5342269  21.7888218
  71.7099804  65.0798805  22.9111282  65.5828952  66.0784999  13.7212856
  65.4628577  66.5242049  14.5598336  64.8881540  66.4270316  13.1626394
  63.3435844  78.8488640  17.3702987  63.2659874  79.7996466  17.4491468
  62.7397487  78.5034513  18.0277914  73.6273854  62.8043299  23.8607331
  72.9848235  63.0975832  23.2147125  73.1228783  62.6896219  24.6660527
  71.2814018  66.5506472  14.5493190  72.1931874  66.7833859  14.3740888
  70.7723665  67.1343516  13.9868269  69.8883600  71.5332290  21.9406772
  69.2592463  71.6978004  21.2382839  69.5009262  71.9473900  22.7117736
  73.7672832  72.4686728  19.2951135  73.0823870  72.8485630  18.7448169
  73.8516681  73.0782055  20.0283083  71.0223764  70.1146687  25.8946479
  71.2340659  70.7578447  25.2180860  70.9753512  69.2809004  25.4268409
  68.6249993  62.7264508  22.7983051  67.7634472  63.0245761  23.0899789
  68.6512427  62.9434907  21.8664084  65.4411562  71.2706698  19.2056857
  65.9049908  71.5494401  18.4161479  65.1768360  70.3690143  19.0229947
  64.3780448  67.3929851  16.0146422  65.0804492  67.8450894  16.4820348
  64.0461077  66.7513670  16.6426315  58.1205782  65.6513403  21.3163555
  57.3304836  65.9070932  20.8403666  58.6117030  66.4661741  21.4215596
  72.1369592  72.9918643  24.0668836  72.9587035  72.5898830  23.7851518
  72.1331995  72.8886877  25.0184952  60.0720528  66.0157983  18.2747032
  59.2751691  66.1276677  18.7930528  59.8446120  66.3544635  17.4087923
  56.4043485  65.9043894  23.7478546  56.6551524  66.7890904  24.0136122
  56.9403034  65.7248495  22.9753638  80.2275585  69.3357391  20.4153808
  79.4739293  68.7664789  20.2597812  80.3623126  69.3020056  21.3624442
  65.6174213  74.2070793  16.0908527  65.4819888  75.0522329  16.5193375
  66.1584025  74.4090071  15.3274461  59.0703610  71.7246231  16.6636452
  59.5828131  72.5189482  16.8142017  59.7226323  71.0272522  16.5970054
  60.8798495  74.8411988  18.7459205  61.0565123  75.7629952  18.5580189
  61.6755328  74.5270407  19.1753585  62.0029810  76.3590162  24.7469548
  62.5537235  76.2307225  23.9746542  61.1641286  76.6585051  24.3964440
  69.3423927  75.1097160  28.2490270  69.3242403  75.9306041  27.7570540
  70.2643847  74.9851235  28.4740412  57.0352527  70.0534886  17.4396023
  57.8727749  70.4631894  17.2229730  57.2130795  69.1134328  17.4096217
  68.9316959  67.7209966  13.1279856  68.4163583  68.4914571  13.3668243
  68.6594268  67.0475103  13.7512917  66.5164070  62.5659667  18.1865094
  65.6605666  62.1766518  18.0070733  66.9291022  62.6451628  17.3264879
  64.2906103  60.1844740  21.5922835  65.1559099  59.9887549  21.2328725
  64.3583612  59.9555092  22.5192192  73.9051233  70.4742321  15.0633029
  73.1280676  70.1353481  14.6188191  74.5842714  70.4794944  14.3887994
  68.7203262  65.5937059  14.9539637  68.4153398  65.9083208  15.8049780
  69.6733704  65.6718478  14.9966970  67.1649694  71.7527282  16.6032591
  66.6371056  71.0180041  16.2905828  66.6637197  72.5301958  16.3572559
  72.1442540  69.9476302  21.7199637  71.4866215  70.6375564  21.8079766
  72.9482939  70.3372734  22.0633623  61.8968422  62.4146948  18.9639202
  62.4712174  62.1922130  18.2312395  62.4839404  62.4835643  19.7167804
  70.9547999  68.3020675  19.7703579  71.4679881  68.9350667  20.2725289
  71.6049223  67.7021871  19.4046939  62.2238009  64.4451409  12.9835088
  61.3875321  64.7826096  13.3044362  62.0842778  64.3100389  12.0462225
  64.1991089  59.2888197  17.6914272  63.5455502  58.9737214  17.0670886
  64.1571564  58.6663937  18.4174095  65.3102294  69.5707492   9.6067564
  64.4029356  69.3396746   9.8058713  65.8073326  68.7745111   9.7941545
  68.2170373  78.2804999  12.5264250  67.5432072  78.5836696  13.1349208
  68.6036195  79.0834080  12.1769707  67.4328830  65.7770131  22.0161919
  66.5151391  65.9985078  21.8583607  67.8488973  65.8516441  21.1573627
  68.2163878  67.1761546  17.1464600  68.9635697  67.6882943  16.8371722
  68.4855467  66.8545599  18.0068993  66.4890528  69.6720087  14.1291554
  65.5801747  69.3879120  14.2264024  66.5185612  70.0919166  13.2694861
  71.7209795  73.2826676  17.8982721  71.2672122  72.4417586  17.9547912
  71.0903762  73.9188075  18.2357502  70.6642715  64.2118662  19.1283389
  69.9265472  63.6996049  19.4593631  70.9169488  63.7719044  18.3166666
  70.1642734  75.1203173  18.8332540  70.4565709  75.6808230  18.1144905
  70.6741355  75.4131734  19.5885699  70.7654342  56.9894914  19.7225158
  71.0713219  56.1292278  19.4351073  71.4906947  57.5812535  19.5224152
  57.0578698  67.3925601  18.1106756  56.8603098  66.7994962  17.3857823
  56.5025362  67.0877811  18.8282695  65.0375422  67.2848708  20.2301349
  65.0924032  66.3322544  20.1543826  64.2266624  67.4408147  20.7142648
  66.1866616  71.2128831  11.4679632  65.7486045  70.4964690  11.0085270
  66.9277056  71.4404945  10.9064724  62.9767782  65.9025767  17.9891728
  62.1635647  66.2019938  18.3956920  63.4726776  65.5081456  18.7066210
  65.1276360  75.8983524  19.9225993  65.0852538  76.1244371  18.9934525
  66.0439058  75.6646899  20.0711794  74.3039730  69.4886028  17.5255951
  74.1657629  69.6787624  16.5977140  73.9475949  70.2505410  17.9824002
  62.4681856  63.4744123  23.6052963  63.1081236  63.3332882  22.9075926
  61.6359387  63.1878636  23.2291565  74.3309110  71.5562555  22.5367223
  74.7645617  71.4637844  23.3850277  75.0440691  71.5320055  21.8987239
  63.2442160  72.7746553  19.7187956  64.0382759  72.2796873  19.5170530
  62.5333853  72.2464416  19.3555661  68.0637005  75.1564649  24.0700323
  68.1174027  75.7255585  24.8378039  67.1951786  75.3266534  23.7054360
  59.5524924  66.9189635  15.7947708  58.6222512  66.8574090  16.0117670
  59.6482396  66.3965588  14.9984349  59.4710473  63.4444448  18.3825950
  59.7317290  64.3589781  18.2735110  60.2927645  62.9768890  18.5322563
  75.1924660  71.5986255  25.0700108  75.3860550  72.5032066  25.3159383
  75.0925278  71.1393674  25.9038693  67.0225105  69.3224911  25.6287255
  67.9517165  69.4736070  25.4556222  66.6016135  69.4108932  24.7735901
  65.8213436  73.3475575  23.3985793  65.6824522  72.9794360  24.2711731
  65.0328033  73.8623215  23.2269750  66.4161588  78.4484672  14.7411329
  66.5913344  77.9772715  15.5556952  65.7294376  79.0750438  14.9692590
  67.3718652  72.7257178  20.7874630  67.0368484  72.6857948  21.6832280
  66.8722597  72.0601894  20.3145041  70.3077843  70.0713212  11.0611690
  69.6907014  69.3460040  10.9644743  69.8394332  70.8322573  10.7178764
  71.9631975  74.7812121  28.7217470  71.9044521  74.0971341  28.0548053
  72.3651493  75.5231111  28.2698096  60.9822674  81.5974034  21.5151189
  61.2219272  82.2292559  22.1930208  60.1391870  81.2462074  21.8016549
  62.0976389  64.2898637  10.1832994  61.2205855  64.1687437   9.8195241
  62.5734142  63.4984715   9.9311883  71.9649382  72.7451705  26.9531450
  71.0776161  72.4077626  27.0757849  72.5347933  72.0134736  27.1900215
  53.6178529  69.0775796  20.2774501  54.3049569  68.7637526  19.6895517
  53.4626658  69.9817161  20.0041753  65.4950535  77.4053157  23.9192693
  65.4220707  78.2108128  24.4311998  65.0527929  77.6045123  23.0940715
  65.2840315  76.6424927  17.4295515  64.5007837  77.1846607  17.5233739
  65.9833060  77.1598907  17.8289756  68.5936965  62.4519556  20.0729720
  69.0905665  61.6989519  19.7530790  67.8223947  62.4883873  19.5072930
  76.4466723  68.1559922  21.7148012  76.4356599  69.0384637  21.3441945
  75.5784102  67.8031473  21.5202549  67.9549219  77.3039991  26.0750852
  68.6677191  77.9387456  26.0026753  67.4639248  77.4003857  25.2590854
  69.6766746  71.2091244  17.6468144  68.7423025  71.3292706  17.4772848
  69.8543414  70.3063710  17.3828153  65.1771934  64.5936939  19.8001405
  64.8069721  64.0407980  20.4882310  65.6731026  63.9895073  19.2476405
  73.0639297  67.0508563  18.1818178  73.5299749  67.8836554  18.1078480
  73.5146798  66.5853544  18.8863436  63.0061133  75.0534434  26.8956423
  63.7070592  75.6870917  27.0485817  62.5356248  75.3949166  26.1352062
  71.1315528  73.3952384  15.1804330  71.4075372  73.2808979  16.0898204
  70.2620027  72.9969869  15.1416503  71.0355960  59.4189150  22.2209079
  70.1219040  59.6493377  22.3891286  71.4649061  59.5027594  23.0723111
  70.8062419  67.6079042  24.7208973  70.1533869  67.8554949  24.0661426
  71.1842798  66.7943180  24.3871450  67.7669592  77.6438735  18.8237143
  67.9491987  76.8260391  19.2864896  68.5902578  77.8606427  18.3862033
  68.1011758  76.5706920  16.0852192  68.6299524  76.0599375  15.4722354
  68.3639977  76.2549450  16.9497725  58.6028851  74.5870789  23.8287525
  59.1882287  73.8414477  23.9615430  58.4053689  74.8974746  24.7124189
  61.4567506  77.6222037  18.8449968  60.7877881  78.1068164  18.3614008
  61.3180376  77.8691257  19.7593346  53.1946505  67.1576390  22.5491969
  53.2330605  66.6239980  23.3429087  52.6886798  66.6311595  21.9302946
  65.5972774  79.6565780  25.4432626  66.1491082  79.8197402  26.2081711
  65.9378968  80.2470218  24.7712651  56.8255083  65.8840492  15.6245900
  57.1208524  64.9751170  15.5712954  55.9243119  65.8628231  15.3026902
  68.7341162  77.6047756  22.4296308  68.6092301  76.8037496  21.9207254
  69.3920253  78.0993949  21.9410278  60.3549330  63.9596488  21.6073449
  59.6335916  64.5732456  21.4680922  61.1442586  64.4954253  21.5290095
  70.7976070  75.4056776  24.0575858  69.8506406  75.2862127  23.9854185
  71.1458843  74.5179274  24.1402120  58.5542925  63.5654589  15.7485225
  58.2255631  62.6851968  15.5660331  58.9082295  63.5102258  16.6361614
  67.8022503  75.2009492  20.2580211  67.6547466  74.2726200  20.4387781
  68.6275997  75.2229583  19.7737286  61.6684748  63.8527559  16.1160703
  62.0080820  64.3813481  15.3939311  62.1156868  64.1907965  16.8919269
  71.4056625  76.0238051  21.3445083  72.3303173  75.8180912  21.2069535
  71.2371929  75.7754452  22.2534425  63.6552895  62.3502181  14.3153996
  64.3761257  62.7283434  13.8117712  63.0318199  63.0691058  14.4188974
  67.7984018  63.0547330  15.2512328  68.0147632  63.9371968  14.9501156
  67.3178085  62.6633543  14.5217970  64.3979622  63.0035591  21.8763962
  64.3841191  62.1076684  21.5396260  65.1152050  63.0106255  22.5102248
  71.1951941  76.5423718  16.7007175  71.3688819  75.9770141  15.9481027
  71.6880833  77.3424613  16.5186665  63.8016518  61.8849971  17.1451532
  63.9232429  60.9566618  17.3442420  63.5118560  61.8988657  16.2329848
  66.6707708  59.5704882  20.2818252  66.6929405  59.6344215  19.3270232
  67.0875767  58.7309390  20.4758758  77.0491333  69.3060141  18.3197475
  77.4922479  68.5567467  17.9216598  76.1717843  69.2970278  17.9371207
  72.1827114  75.8590483  13.8004073  72.8778019  76.4797175  14.0191388
  72.5250264  75.0085834  14.0756451  74.0818537  73.3090188  15.3291404
  74.6069861  73.6477461  14.6040724  73.9940890  72.3737204  15.1454539
  65.7438586  77.2224262  27.4581281  66.0525712  76.9773409  28.3303980
  66.5414068  77.4270900  26.9700151  65.7659198  79.3762172  19.6886657
  65.3264188  78.8838550  20.3819514  66.5167315  78.8335139  19.4478732
  58.2451537  75.5673712  19.6911285  59.0709557  75.2677484  19.3109929
  57.8945589  74.7981335  20.1401074  63.2133070  74.9200181  21.7608959
  62.5913079  74.2570886  21.4611187  63.8837937  74.9461313  21.0782607
  56.4460142  73.4860039  20.6500219  55.6092050  73.0582213  20.4684220
  56.4183787  73.6792482  21.5871010  73.8910318  70.7915558  27.9475330
  73.9408323  70.6265566  28.8890853  73.7824241  69.9242817  27.5573211
  62.7746577  73.4704104  15.2367419  62.9234697  74.1539568  14.5834092
  63.5813020  73.4509194  15.7516875  75.3928515  73.2112500  28.1917352
  75.1013323  73.5742480  29.0280813  74.7800646  72.4979508  28.0130684
  76.5924197  70.7765380  20.7119922  77.4271089  71.2155184  20.8757483
  76.7283326  70.3004033  19.8928168  73.6415703  68.3345114  26.6597410
  74.1169825  68.5272761  25.8516261  72.7181269  68.3904300  26.4140794
  60.5299210  69.4969282  16.2428488  60.2845252  68.5931612  16.4408698
  60.6995124  69.4986432  15.3007966  59.7994857  65.2297639  13.7414650
  59.1064102  65.3041994  13.0854686  59.5546609  64.4657983  14.2636167
  68.4708514  56.7893241  21.1454140  68.7510268  56.1216430  21.7714567
  69.2559121  56.9822336  20.6328804  66.2741982  75.9652234  12.7079167
  65.7015949  76.5842422  12.2549639  66.8474776  76.5151596  13.2419089
  72.3417372  65.2110875  24.8925716  73.2934795  65.3108972  24.9137940
  72.1720823  64.4189143  25.4023800  69.4939242  76.2489385  13.8387749
  70.4269915  76.1834946  14.0420625  69.4062455  77.0845651  13.3802282
  72.1227259  75.5655255  10.7991697  72.0440890  75.2315119  11.6927454
  72.9436926  76.0577023  10.7983169  74.8205450  68.4316994  24.0068015
  74.7881770  67.4932995  24.1927699  75.4306074  68.5101031  23.2733840
  66.6588781  67.3013047  10.0495219  67.6047886  67.1719255  10.1183637
  66.2803026  66.5627709  10.5264647  74.9699938  65.2228038  24.0526298
  74.4538987  64.4386494  23.8656227  75.8539887  64.8946754  24.2172818
  72.6310665  58.9669053  20.0122111  72.4335487  58.6584141  20.8965443
  73.2410371  59.6930692  20.1420041  80.6382000  69.4933001  23.1474052
  81.3685388  69.2318289  23.7081755  80.0288945  68.7561723  23.1876120
  78.7197297  67.6340864  23.7448503  77.9930461  67.4996829  23.1364995
  78.3044584  67.9417692  24.5505221  64.8431698  65.2263024   9.9850104
  63.9363153  64.9296136  10.0612818  65.1207679  64.9292842   9.1184391
  55.7609638  66.5469387  20.4349151  55.4412423  65.6934695  20.1423525
  55.2143067  66.7617965  21.1907118  66.4593764  59.7699913  16.1394346
  65.6494492  59.4246998  16.5149592  67.1478181  59.4607457  16.7281957
  68.3884312  58.8477960  17.7618642  68.9415351  59.2673414  18.4208665
  68.6254398  57.9213708  17.8041598  63.6130483  62.0849959  10.1262084
  64.4749647  62.4104857  10.3857901  63.7980827  61.2981455   9.6135149
  55.6297898  70.1672298  22.4042272  54.9361370  69.7526251  21.8912227
  56.3770889  70.2092835  21.8075691  71.7663119  60.9578485  17.2697307
  71.1861788  61.6163289  16.8875359  71.4999052  60.1355830  16.8584724
  70.2166685  60.3583543  19.4718627  70.7166464  60.4700078  18.6632946
  70.8602293  60.0544596  20.1119435  57.5434641  70.0990552  20.2808287
  57.5205329  70.1978240  19.3290170  57.8535277  70.9455703  20.6025453
  60.2022019  72.1566707  24.3954902  61.1565272  72.1250650  24.3284833
  60.0034542  71.6957331  25.2105128  70.5487997  63.1178576  16.3253655
  69.6613852  63.4028226  16.1073850  70.9641986  62.9572339  15.4780932
  73.9002533  63.1425097  20.0407994  74.6762923  63.6321549  20.3132611
  73.1750667  63.5683151  20.4979864  76.3375092  63.8552716  21.0981935
  76.9319583  63.6148452  20.3875243  76.4101676  63.1359846  21.7255471
  58.5572248  77.6986327  21.4125100  58.4226716  76.9386728  20.8463098
  58.1404310  78.4227227  20.9453888  69.6931211  72.8823250  10.4201675
  70.3967061  73.0873253  11.0359331  68.9693859  73.4500012  10.6850758
  70.5229021  68.6333112  16.5403945  70.4664222  69.0901663  15.7011577
  71.0757363  67.8723796  16.3626788  74.3333827  64.4222843  17.3654065
  74.0770761  64.0219479  18.1962272  73.7086695  65.1366637  17.2404204
  78.6446165  67.1618917  19.8725356  78.0845723  67.2312106  20.6456918
  78.0389668  66.9859901  19.1524852  61.7141373  78.5955644  21.6243542
  61.5973758  79.5401076  21.5222233  60.8933820  78.2929205  22.0129341
  71.6017908  73.3205780  12.4700135  72.4363512  72.8886978  12.2877610
  71.4402251  73.1487793  13.3977029  71.2563800  69.8237893  13.8356474
  71.2012604  69.6582164  12.8944918  70.6309855  70.5313926  13.9918664
  64.5659926  59.3246002  13.4141793  64.5538595  60.2687842  13.5710064
  65.4583348  59.1416147  13.1201254  62.7395888  79.2483906  24.8399471
  63.6423134  79.2807516  25.1565966  62.5133258  78.3184357  24.8545806
  64.4949490  78.0014892  21.5009549  63.5445121  78.0016754  21.3873922
  64.7981976  77.2547627  20.9845584  68.3812045  55.9188778  17.6687729
  67.6144441  55.3647265  17.8144412  68.7922750  55.9910647  18.5301881
  80.2302183  83.8375431  22.5655312  80.8680593  83.7182178  21.8618652
  80.1123026  84.7856275  22.6243264  77.0391889  83.7902859  22.5016836
  76.7010401  83.6743923  21.6137371  77.9081658  83.3894024  22.4817843
  72.8978705  85.6438335  18.4913727  72.3343570  85.5528272  17.7230015
  72.7831100  84.8238240  18.9716220  77.5211672  84.9437710  28.4603042
  77.5100313  84.5490509  27.5883546  77.6832312  84.2103783  29.0536813
  70.4443137  87.1389527  21.3297948  71.2364429  86.7980351  20.9144247
  70.6839787  87.2484502  22.2500101  78.4778264  89.3109303  13.8028192
  77.8266244  89.8963383  13.4162206  79.2722627  89.8415498  13.8623230
  72.4033891  86.3998440  14.2015327  73.1764767  85.8527427  14.0628202
  72.7559290  87.2642689  14.4129788  74.2418934  87.7274822  27.4082226
  73.9508799  88.6320453  27.2928892  74.8775918  87.7691350  28.1226295
  75.1675140  85.1051671  23.9983586  75.7638713  84.8807693  23.2840548
  75.2250112  84.3636416  24.6009033  74.7400169  82.5591106  11.8333777
  74.9925689  82.0372627  11.0717240  73.8024728  82.3957252  11.9360460
  79.7843452  81.5626884  19.6408520  80.5706541  81.1446308  19.2898937
  80.0482156  82.4672977  19.8090168  79.9553529  86.9999735  14.3397177
  79.3199362  87.0734361  15.0518081  79.6250935  87.5893334  13.6616256
  85.1851879  81.5002118  20.5441498  85.9177051  80.9301335  20.7779328
  84.4291234  81.1123718  20.9848004  74.4596458  84.4619212  14.0358151
  74.3432716  83.7864115  14.7039236  74.5698717  83.9751586  13.2190305
  76.8027998  83.9229359  17.7404841  76.4386206  83.3959980  18.4517762
  77.6595114  83.5327828  17.5671326  82.7077299  75.2123692  25.0036107
  82.3760624  76.0819103  24.7797322  82.1122912  74.8959976  25.6830137
  76.4433485  78.9519259  12.7366189  76.6107888  79.8199495  13.1036660
  76.2530654  79.1146541  11.8127478  79.2008819  87.4136238  24.4032020
  78.9009542  88.3161277  24.2947827  78.8559878  87.1468421  25.2553172
  72.6521300  83.8650035  20.4368724  71.7271797  83.7326249  20.6446416
  72.9005713  84.6444254  20.9338666  82.6005962  79.9318778  22.0829457
  81.6922840  79.8634186  21.7888218  82.5493558  80.4090723  22.9111282
  76.4222706  81.4076916  13.7212856  76.3022331  81.8533967  14.5598336
  75.7275295  81.7562234  13.1626394  70.0130111  83.5083308  21.2712513
  70.1422492  83.7617787  22.1851925  69.3327562  84.1011016  20.9517168
  74.1829598  94.1780558  17.3702987  74.1053628  95.1288383  17.4491468
  73.5791242  93.8326431  18.0277914  76.6746828  81.3508424  30.0264354
  75.8980162  81.9102344  30.0167219  77.3137391  81.8365207  30.5479224
  84.4667609  78.1335216  23.8607331  83.8241989  78.4267750  23.2147125
  83.9622537  78.0188137  24.6660527  82.1207772  81.8798390  14.5493190
  83.0325629  82.1125776  14.3740888  81.6117420  82.4635434  13.9868269
  74.9293200  84.1593877  29.5882321  75.6707885  84.6978921  29.3117145
  74.2230186  84.7860166  29.7453873  80.4048540  86.3023017  28.1854483
  80.8131896  85.8605428  27.4409115  79.6825802  85.7275645  28.4388676
  76.7579610  81.2395624  25.5588040  77.6040805  81.6635038  25.7022689
  76.6978248  80.5829248  26.2526603  80.7277355  86.8624208  21.9406772
  80.0986217  87.0269922  21.2382839  80.3403017  87.2765818  22.7117736
  84.6066587  87.7978646  19.2951135  83.9217625  88.1777547  18.7448169
  84.6910436  88.4073973  20.0283083  79.9079055  78.8999993  27.2169213
  79.6639987  79.6542053  26.6803489  80.1838986  79.2785340  28.0516460
  81.8617518  85.4438605  25.8946479  82.0734414  86.0870365  25.2180860
  81.8147267  84.6100921  25.4268409  79.4643747  78.0556426  22.7983051
  78.6028226  78.3537679  23.0899789  79.4906182  78.2726824  21.8664084
  76.2805317  86.5998616  19.2056857  76.7443662  86.8786319  18.4161479
  76.0162115  85.6982061  19.0229947  73.1729398  86.1470098  22.1436620
  73.7430755  86.5757366  21.5054104  73.7637510  85.8652682  22.8420806
  75.2174203  82.7221768  16.0146422  75.9198246  83.1742812  16.4820348
  74.8854831  82.0805587  16.6426315  73.6654564  81.3133525  30.3897631
  73.0353225  81.9949806  30.6233028  73.5590652  81.2016607  29.4450769
  68.9599537  80.9805321  21.3163555  68.1698591  81.2362850  20.8403666
  69.4510784  81.7953659  21.4215596  82.9763346  88.3210560  24.0668836
  83.7980790  87.9190748  23.7851518  82.9725749  88.2178794  25.0184952
  70.9114282  81.3449900  18.2747032  70.1145445  81.4568595  18.7930528
  70.6839874  81.6836553  17.4087923  76.7419950  87.8694604  26.2229547
  76.8064382  88.3315011  27.0587719  76.0330874  87.2391969  26.3511857
  67.2437240  81.2335812  23.7478546  67.4945278  82.1182822  24.0136122
  67.7796788  81.0540413  22.9753638  91.0669339  84.6649309  20.4153808
  90.3133048  84.0956707  20.2597812  91.2016880  84.6311973  21.3624442
  76.4567967  89.5362711  16.0908527  76.3213642  90.3814247  16.5193375
  76.9977780  89.7381989  15.3274461  69.9097365  87.0538149  16.6636452
  70.4221885  87.8481399  16.8142017  70.5620078  86.3564440  16.5970054
  71.7192249  90.1703905  18.7459205  71.8958878  91.0921870  18.5580189
  72.5149083  89.8562325  19.1753585  71.0044606  82.2168537  28.6221368
  70.8898121  81.3153795  28.9228467  70.1489124  82.4632234  28.2706185
  78.0836444  90.1586278  30.2208869  77.6400298  89.3722656  29.9029774
  78.7453657  90.3465428  29.5552760  72.8423565  91.6882079  24.7469548
  73.3930990  91.5599143  23.9746542  72.0035041  91.9876968  24.3964440
  80.1817682  90.4389078  28.2490270  80.1636157  91.2597959  27.7570540
  81.1037602  90.3143153  28.4740412  76.6390736  87.9533207  29.0913779
  77.1719073  87.1921495  28.8613087  76.1104817  87.6606859  29.8337933
  79.8060431  73.0593273  24.6207420  79.4624700  73.9494915  24.5446531
  80.1739393  72.8694931  23.7577005  67.8746281  85.3826803  17.4396023
  68.7121503  85.7923812  17.2229730  68.0524549  84.4426246  17.4096217
  79.7710714  83.0501884  13.1279856  79.2557337  83.8206489  13.3668243
  79.4988022  82.3767020  13.7512917  77.3557825  77.8951585  18.1865094
  76.4999421  77.5058435  18.0070733  77.7684776  77.9743546  17.3264879
  78.8856971  75.4297928  22.5856654  78.3821767  75.3928063  21.7724459
  79.1787578  76.3390671  22.6453310  75.1299857  75.5136658  21.5922835
  75.9952854  75.3179467  21.2328725  75.1977366  75.2847010  22.5192192
  84.7444988  85.8034239  15.0633029  83.9674431  85.4645398  14.6188191
  85.4236469  85.8086862  14.3887994  79.5597017  80.9228976  14.9539637
  79.2547152  81.2375125  15.8049780  80.5127459  81.0010396  14.9966970
  78.0043449  87.0819200  16.6032591  77.4764810  86.3471959  16.2905828
  77.5030951  87.8593876  16.3572559  82.9836295  85.2768220  21.7199637
  82.3259969  85.9667481  21.8079766  83.7876694  85.6664652  22.0633623
  72.7362176  77.7438866  18.9639202  73.3105928  77.5214047  18.2312395
  73.3233159  77.8127560  19.7167804  81.7941753  83.6312593  19.7703579
  82.3073635  84.2642585  20.2725289  82.4442977  83.0313788  19.4046939
  73.0631763  79.7743327  12.9835088  72.2269076  80.1118013  13.3044362
  72.9236533  79.6392307  12.0462225  75.0384844  74.6180115  17.6914272
  74.3849256  74.3029132  17.0670886  74.9965318  73.9955855  18.4174095
  76.1496049  84.8999410   9.6067564  75.2423111  84.6688663   9.8058713
  76.6467081  84.1037029   9.7941545  78.2722584  81.1062048  22.0161919
  77.3545146  81.3276995  21.8583607  78.6882728  81.1808359  21.1573627
  79.0557632  82.5053464  17.1464600  79.8029451  83.0174861  16.8371722
  79.3249222  82.1837517  18.0068993  77.3284282  85.0012005  14.1291554
  76.4195501  84.7171037  14.2264024  77.3579366  85.4211083  13.2694861
  82.5603550  88.6118594  17.8982721  82.1065877  87.7709504  17.9547912
  81.9297516  89.2479993  18.2357502  81.5036469  79.5410580  19.1283389
  80.7659226  79.0287966  19.4593631  81.7563243  79.1010962  18.3166666
  81.0036489  90.4495091  18.8332540  81.2959463  91.0100148  18.1144905
  81.5135109  90.7423652  19.5885699  81.6048097  72.3186832  19.7225158
  81.9106973  71.4584196  19.4351073  82.3300701  72.9104452  19.5224152
  67.8972453  82.7217519  18.1106756  67.6996852  82.1286879  17.3857823
  67.3419117  82.4169729  18.8282695  75.8769176  82.6140625  20.2301349
  75.9317786  81.6614462  20.1543826  75.0660378  82.7700064  20.7142648
  77.0260370  86.5420748  11.4679632  76.5879800  85.8256607  11.0085270
  77.7670811  86.7696863  10.9064724  73.8161536  81.2317685  17.9891728
  73.0029402  81.5311856  18.3956920  74.3120530  80.8373374  18.7066210
  75.9670114  91.2275442  19.9225993  75.9246293  91.4536288  18.9934525
  76.8832813  90.9938816  20.0711794  79.4135748  81.6959509  26.8206622
  79.7685136  81.9230983  27.6801088  80.0607879  82.0277886  26.1983877
  85.1433485  84.8177945  17.5255951  85.0051383  85.0079541  16.5977140
  84.7869704  85.5797328  17.9824002  73.3075611  78.8036041  23.6052963
  73.9474990  78.6624800  22.9075926  72.4753142  78.5170554  23.2291565
  85.1702864  86.8854472  22.5367223  85.6039371  86.7929761  23.3850277
  85.8834445  86.8611973  21.8987239  74.0835915  88.1038471  19.7187956
  74.8776513  87.6088791  19.5170530  73.3727607  87.5756334  19.3555661
  78.9030759  90.4856566  24.0700323  78.9567782  91.0547503  24.8378039
  78.0345541  90.6558451  23.7054360  70.3918678  82.2481553  15.7947708
  69.4616266  82.1866008  16.0117670  70.4876150  81.7257505  14.9984349
  70.3104227  78.7736365  18.3825950  70.5711045  79.6881699  18.2735110
  71.1321400  78.3060808  18.5322563  71.7829153  80.1874123  25.5524774
  72.4552206  79.9791485  24.9037423  70.9558939  79.9896209  25.1130007
  86.0318414  86.9278173  25.0700108  86.2254304  87.8323984  25.3159383
  85.9319032  86.4685592  25.9038693  77.6854725  76.8136064  27.5690435
  77.0382640  77.5126013  27.4754912  78.4555740  77.2472208  27.9366683
  81.0933523  87.0784916  30.6440989  80.9419029  86.8495467  29.7271072
  81.0838202  88.0355517  30.6572334  77.8618859  84.6516828  25.6287255
  78.7910919  84.8027988  25.4556222  77.4409889  84.7400849  24.7735901
  76.6607191  88.6767493  23.3985793  76.5218277  88.3086277  24.2711731
  75.8721787  89.1915132  23.2269750  77.2555343  93.7776589  14.7411329
  77.4307099  93.3064633  15.5556952  76.5688131  94.4042356  14.9692590
  78.2112406  88.0549096  20.7874630  77.8762239  88.0149866  21.6832280
  77.7116352  87.3893812  20.3145041  72.1856650  83.4616726  26.3127212
  72.0476448  82.7296964  26.9138751  73.0961573  83.3725626  26.0311399
  81.1471598  85.4005130  11.0611690  80.5300768  84.6751958  10.9644743
  80.6788086  86.1614490  10.7178764  74.8138951  83.1736685  25.8010891
  75.5238569  82.5329877  25.7597510  74.7708259  83.4249580  26.7237072
  82.8025729  90.1104038  28.7217470  82.7438275  89.4263258  28.0548053
  83.2045248  90.8523028  28.2698096  73.5267885  80.1601903  27.6206531
  72.9905242  79.7092641  28.2728127  72.9384593  80.2947812  26.8776995
  71.8216428  96.9265952  21.5151189  72.0613026  97.5584476  22.1930208
  70.9785625  96.5753992  21.8016549  72.9370144  79.6190554  10.1832994
  72.0599610  79.4979355   9.8195241  73.4127897  78.8276633   9.9311883
  82.8043137  88.0743622  26.9531450  81.9169915  87.7369544  27.0757849
  83.3741688  87.3426653  27.1900215  64.4572284  84.4067714  20.2774501
  65.1443324  84.0929444  19.6895517  64.3020412  85.3109079  20.0041753
  69.2607006  79.2957911  24.7059525  69.1765195  78.6883580  23.9709935
  68.4389712  79.7866929  24.7069021  76.3344290  92.7345075  23.9192693
  76.2614461  93.5400046  24.4311998  75.8921683  92.9337040  23.0940715
  76.1234070  91.9716845  17.4295515  75.3401591  92.5138525  17.5233739
  76.8226815  92.4890824  17.8289756  79.4330720  77.7811474  20.0729720
  79.9299419  77.0281436  19.7530790  78.6617701  77.8175791  19.5072930
  87.2860477  83.4851840  21.7148012  87.2750353  84.3676555  21.3441945
  86.4177857  83.1323390  21.5202549  78.7942973  92.6331909  26.0750852
  79.5070946  93.2679373  26.0026753  78.3033002  92.7295775  25.2590854
  80.5160500  86.5383161  17.6468144  79.5816779  86.6584624  17.4772848
  80.6937169  85.6355628  17.3828153  76.0165688  79.9228857  19.8001405
  75.6463476  79.3699897  20.4882310  76.5124781  79.3186991  19.2476405
  83.9033052  82.3800481  18.1818178  84.3693504  83.2128472  18.1078480
  84.3540552  81.9145462  18.8863436  73.8454887  90.3826352  26.8956423
  74.5464347  91.0162835  27.0485817  73.3750002  90.7241084  26.1352062
  81.9709283  88.7244302  15.1804330  82.2469127  88.6100896  16.0898204
  81.1013782  88.3261787  15.1416503  81.8749715  74.7481068  22.2209079
  80.9612794  74.9785294  22.3891286  82.3042816  74.8319512  23.0723111
  81.6456173  82.9370960  24.7208973  80.9927623  83.1846867  24.0661426
  82.0236553  82.1235098  24.3871450  78.6063347  92.9730653  18.8237143
  78.7885741  92.1552309  19.2864896  79.4296333  93.1898345  18.3862033
  78.9405512  91.8998838  16.0852192  79.4693279  91.3891292  15.4722354
  79.2033732  91.5841368  16.9497725  77.6943746  83.6790771  31.2075010
  77.0184383  83.5784900  31.8777385  78.5171380  83.5229984  31.6711007
  69.4422605  89.9162707  23.8287525  70.0276042  89.1706395  23.9615430
  69.2447444  90.2266664  24.7124189  72.2961260  92.9513955  18.8449968
  71.6271636  93.4360082  18.3614008  72.1574130  93.1983175  19.7593346
  64.0340260  82.4868307  22.5491969  64.0724359  81.9531898  23.3429087
  63.5280553  81.9603513  21.9302946  76.4366529  94.9857698  25.4432626
  76.9884837  95.1489320  26.2081711  76.7772722  95.5762136  24.7712651
  71.4131022  77.3332848  26.0454511  71.4772349  78.1947679  25.6331909
  71.3498142  76.7206849  25.3126869  70.8883295  79.4055980  29.6927545
  71.5155333  79.0233058  30.3065069  70.0311214  79.1870182  30.0583238
  81.2877403  89.8118956  31.2981281  81.8317307  90.4248914  30.8036235
  80.7064248  90.3698534  31.8148294  67.6648837  81.2132409  15.6245900
  67.9602278  80.3043088  15.5712954  66.7636873  81.1920149  15.3026902
  79.5734916  92.9339674  22.4296308  79.4486056  92.1329413  21.9207254
  80.2314007  93.4285867  21.9410278  71.1943084  79.2888406  21.6073449
  70.4729670  79.9024374  21.4680922  71.9836340  79.8246171  21.5290095
  81.6369825  90.7348694  24.0575858  80.6900160  90.6154045  23.9854185
  81.9852598  89.8471192  24.1402120  73.9969398  76.6242833  27.8814100
  74.5203800  76.8705129  28.6440410  73.7781731  77.4562867  27.4617238
  69.3936679  78.8946507  15.7485225  69.0649385  78.0143886  15.5660331
  69.7476050  78.8394176  16.6361614  78.6416258  90.5301410  20.2580211
  78.4941220  89.6018117  20.4387781  79.4669751  90.5521501  19.7737286
  72.5078502  79.1819477  16.1160703  72.8474575  79.7105398  15.3939311
  72.9550623  79.5199883  16.8919269  82.2450380  91.3529969  21.3445083
  83.1696927  91.1472830  21.2069535  82.0765683  91.1046370  22.2534425
  75.2021943  77.5656528  25.5663771  74.8618763  76.7664341  25.9684451
  74.4960949  77.8658239  24.9940604  75.8538415  74.6505840  24.0191094
  76.6764484  74.1766318  23.8969984  76.0976478  75.4296324  24.5189780
  74.4946649  77.6794099  14.3153996  75.2155012  78.0575351  13.8117712
  73.8711953  78.3982975  14.4188974  78.6377772  78.3839248  15.2512328
  78.8541387  79.2663885  14.9501156  78.1571839  77.9925461  14.5217970
  73.3776994  81.3424961  21.8283072  73.2321574  81.6565264  22.7207354
  72.9002197  81.9609861  21.2753971  75.2373376  78.3327509  21.8763962
  75.2234945  77.4368602  21.5396260  75.9545805  78.3398172  22.5102248
  77.0899507  78.7664849  23.9217089  76.8317285  79.6881920  23.9201420
  76.5584548  78.3695283  24.6117554  82.0345696  91.8715636  16.7007175
  82.2082573  91.3062059  15.9481027  82.5274587  92.6716531  16.5186665
  67.8522656  83.8830305  24.7670734  67.3076124  84.6590113  24.8991008
  68.7302006  84.2301110  24.6089855  74.6410272  77.2141889  17.1451532
  74.7626184  76.2858535  17.3442420  74.3512315  77.2280575  16.2329848
  77.5101463  74.8996799  20.2818252  77.5323160  74.9636133  19.3270232
  77.9269522  74.0601308  20.4758758  87.8885087  84.6352059  18.3197475
  88.3316233  83.8859384  17.9216598  87.0111597  84.6262195  17.9371207
  83.0220868  91.1882400  13.8004073  83.7171773  91.8089093  14.0191388
  83.3644019  90.3377752  14.0756451  68.6388678  83.0100201  27.6600891
  67.8970414  83.1582837  28.2465521  68.3181422  83.2708467  26.7967640
  84.9212292  88.6382106  15.3291404  85.4463616  88.9769379  14.6040724
  84.8334644  87.7029121  15.1454539  76.5832340  92.5516180  27.4581281
  76.8919467  92.3065326  28.3303980  77.3807822  92.7562818  26.9700151
  76.6052952  94.7054089  19.6886657  76.1657943  94.2130468  20.3819514
  77.3561069  94.1627057  19.4478732  69.0845291  90.8965630  19.6911285
  69.9103311  90.5969402  19.3109929  68.7339343  90.1273253  20.1401074
  74.0526824  90.2492098  21.7608959  73.4306834  89.5862803  21.4611187
  74.7231691  90.2753230  21.0782607  67.2853896  88.8151957  20.6500219
  66.4485805  88.3874131  20.4684220  67.2577542  89.0084400  21.5871010
  84.6106198  89.2715010  30.6342602  83.8201741  89.2539148  30.0947101
  84.3739552  89.8103303  31.3891638  84.7304073  86.1207476  27.9475330
  84.7802078  85.9557483  28.8890853  84.6217996  85.2534735  27.5573211
  73.6140331  88.7996022  15.2367419  73.7628452  89.4831486  14.5834092
  74.4206775  88.7801112  15.7516875  82.0207835  82.1038404  29.2634637
  82.9217698  81.9644869  28.9718635  82.0955810  82.2692859  30.2032815
  76.3550640  79.4805259  28.1087823  75.4853950  79.7738825  27.8370412
  76.5910121  80.0645704  28.8295087  86.2322269  88.5404418  28.1917352
  85.9407078  88.9034398  29.0280813  85.6194401  87.8271426  28.0130684
  87.4317952  86.1057297  20.7119922  88.2664843  86.5447101  20.8757483
  87.5677081  85.6295951  19.8928168  84.4809458  83.6637032  26.6597410
  84.9563579  83.8564678  25.8516261  83.5575023  83.7196218  26.4140794
  71.3692964  84.8261199  16.2428488  71.1239006  83.9223529  16.4408698
  71.5388879  84.8278350  15.3007966  79.0589674  75.6984876  25.6253244
  79.5771618  76.4345903  25.2999732  78.7044807  76.0048869  26.4600003
  70.6388612  80.5589557  13.7414650  69.9457857  80.6333912  13.0854686
  70.3940364  79.7949901  14.2636167  79.3102268  72.1185158  21.1454140
  79.5904022  71.4508347  21.7714567  80.0952875  72.3114254  20.6328804
  77.1135737  91.2944152  12.7079167  76.5409704  91.9134339  12.2549639
  77.6868531  91.8443514  13.2419089  83.1811127  80.5402792  24.8925716
  84.1328550  80.6400890  24.9137940  83.0114577  79.7481061  25.4023800
  81.2025506  77.6258375  25.0785116  80.6075438  77.9063388  24.3831605
  80.9175203  78.1152276  25.8501858  80.3332997  91.5781302  13.8387749
  81.2663670  91.5126864  14.0420625  80.2456209  92.4137569  13.3802282
  85.6599204  83.7608912  24.0068015  85.6275525  82.8224913  24.1927699
  86.2699828  83.8392949  23.2733840  77.4982535  82.6304965  10.0495219
  78.4441640  82.5011173  10.1183637  77.1196780  81.8919627  10.5264647
  85.8093693  80.5519955  24.0526298  85.2932742  79.7678412  23.8656227
  86.6933642  80.2238672  24.2172818  83.4704420  74.2960971  20.0122111
  83.2729241  73.9876059  20.8965443  84.0804125  75.0222610  20.1420041
  91.4775754  84.8224919  23.1474052  92.2079143  84.5610207  23.7081755
  90.8682700  84.0853641  23.1876120  89.5591051  82.9632781  23.7448503
  88.8324215  82.8288746  23.1364995  89.1438338  83.2709610  24.5505221
  77.3821228  86.6822711  31.5095876  78.3024237  86.8601310  31.7035923
  77.3470811  85.7378756  31.3575575  75.6825453  80.5554941   9.9850104
  74.7756908  80.2588054  10.0612818  75.9601434  80.2584759   9.1184391
  66.6003393  81.8761305  20.4349151  66.2806177  81.0226613  20.1423525
  66.0536821  82.0909883  21.1907118  70.3783300  84.5923746  24.1518657
  70.5969310  85.5240853  24.1706691  70.7909074  84.2331720  24.9373461
  77.2987518  75.0991831  16.1394346  76.4888247  74.7538916  16.5149592
  77.9871935  74.7899375  16.7281957  79.2278067  74.1769878  17.7618642
  79.7809105  74.5965331  18.4208665  79.4648153  73.2505626  17.8041598
  74.4524237  77.4141876  10.1262084  75.3143401  77.7396775  10.3857901
  74.6374581  76.6273372   9.6135149  66.4691653  85.4964216  22.4042272
  65.7755124  85.0818169  21.8912227  67.2164644  85.5384753  21.8075691
  82.6056874  76.2870403  17.2697307  82.0255543  76.9455207  16.8875359
  82.3392806  75.4647748  16.8584724  81.0560440  75.6875461  19.4718627
  81.5560218  75.7991995  18.6632946  81.6996048  75.3836514  20.1119435
  75.1142436  83.5954090  32.3586468  74.6309518  84.3954450  32.5650357
  75.2003375  83.6062035  31.4053912  68.3828395  85.4282470  20.2808287
  68.3599084  85.5270157  19.3290170  68.6929032  86.2747621  20.6025453
  71.0415773  87.4858625  24.3954902  71.9959027  87.4542567  24.3284833
  70.8428297  87.0249249  25.2105128  71.6315155  86.0559741  26.9625699
  72.4508044  86.5503820  26.9860537  71.9051963  85.1391709  26.9343267
  81.3881752  78.4470493  16.3253655  80.5007607  78.7320144  16.1073850
  81.8035741  78.2864257  15.4780932  84.7396288  78.4717014  20.0407994
  85.5156678  78.9613467  20.3132611  84.0144422  78.8975069  20.4979864
  87.1768846  79.1844634  21.0981935  87.7713337  78.9440369  20.3875243
  87.2495430  78.4651764  21.7255471  69.3966002  93.0278244  21.4125100
  69.2620470  92.2678645  20.8463098  68.9798064  93.7519144  20.9453888
  81.3622775  83.9625029  16.5403945  81.3057977  84.4193581  15.7011577
  81.9151118  83.2015714  16.3626788  85.1727581  79.7514761  17.3654065
  84.9164516  79.3511397  18.1962272  84.5480449  80.4658555  17.2404204
  89.4839919  82.4910834  19.8725356  88.9239477  82.5604024  20.6456918
  88.8783423  82.3151819  19.1524852  72.5535128  93.9247561  21.6243542
  72.4367512  94.8692994  21.5222233  71.7327574  93.6221123  22.0129341
  82.4411662  88.6497697  12.4700135  83.2757266  88.2178896  12.2877610
  82.2796005  88.4779711  13.3977029  82.0957555  85.1529811  13.8356474
  82.0406358  84.9874082  12.8944918  81.4703610  85.8605843  13.9918664
  66.8850070  80.3897875  27.6617896  67.5308933  79.8796829  28.1505122
  66.6767221  81.1266557  28.2361322  79.4103462  87.4578722  33.1610037
  80.2794621  87.6319375  32.7996672  78.9310213  88.2773139  33.0385766
  75.4053680  74.6537920  13.4141793  75.3932350  75.5979759  13.5710064
  76.2977102  74.4708065  13.1201254  73.5789642  94.5775823  24.8399471
  74.4816889  94.6099434  25.1565966  73.3527012  93.6476274  24.8545806
  75.3343244  93.3306810  21.5009549  74.3838875  93.3308672  21.3873922
  75.6375730  92.5839545  20.9845584  79.2205800  71.2480696  17.6687729
  78.4538195  70.6939183  17.8144412  79.6316505  71.3202565  18.5301881
  91.0695938  99.1667348  22.5655312  91.7074348  99.0474096  21.8618652
  90.9516780 100.1148192  22.6243264  87.8785644  99.1194776  22.5016836
  87.5404155  99.0035841  21.6137371  88.7475412  98.7185942  22.4817843
  88.3605427 100.2729628  28.4603042  88.3494068  99.8782426  27.5883546
  88.5226066  99.5395701  29.0536813  81.2836891 102.4681444  21.3297948
  82.0758183 102.1272269  20.9144247  81.5233542 102.5776419  22.2500101
  85.0812688 103.0566740  27.4082226  84.7902554 103.9612371  27.2928892
  85.7169672 103.0983268  28.1226295  86.0068895 100.4343588  23.9983586
  86.6032467 100.2099611  23.2840548  86.0643866  99.6928334  24.6009033
  93.5471054  90.5415609  25.0036107  93.2154378  91.4111020  24.7797322
  92.9516667  90.2251893  25.6830137  90.0402573 102.7428155  24.4032020
  89.7403296 103.6453194  24.2947827  89.6953633 102.4760339  25.2553172
  83.4915055  99.1941952  20.4368724  82.5665551  99.0618166  20.6446416
  83.7399468  99.9736172  20.9338666  93.4399717  95.2610696  22.0829457
  92.5316594  95.1926104  21.7888218  93.3887313  95.7382641  22.9111282
  80.8523866  98.8375226  21.2712513  80.9816247  99.0909705  22.1851925
  80.1721317  99.4302934  20.9517168  87.5140583  96.6800341  30.0264354
  86.7373917  97.2394261  30.0167219  88.1531146  97.1657124  30.5479224
  95.3061363  93.4627134  23.8607331  94.6635744  93.7559667  23.2147125
  94.8016292  93.3480054  24.6660527  85.7686955  99.4885795  29.5882321
  86.5101639 100.0270839  29.3117145  85.0623940 100.1152083  29.7453873
  91.2442295 101.6314935  28.1854483  91.6525651 101.1897346  27.4409115
  90.5219556 101.0567563  28.4388676  87.5973365  96.5687542  25.5588040
  88.4434560  96.9926955  25.7022689  87.5372002  95.9121166  26.2526603
  90.7472810  94.2291910  27.2169213  90.5033742  94.9833971  26.6803489
  91.0232740  94.6077258  28.0516460  92.7011273 100.7730523  25.8946479
  92.9128168 101.4162282  25.2180860  92.6541021  99.9392839  25.4268409
  90.3037502  93.3848343  22.7983051  89.4421981  93.6829597  23.0899789
  90.3299936  93.6018742  21.8664084  84.0123152 101.4762015  22.1436620
  84.5824509 101.9049284  21.5054104  84.6031264 101.1944600  22.8420806
  84.5048319  96.6425443  30.3897631  83.8746979  97.3241724  30.6233028
  84.3984407  96.5308524  29.4450769  79.7993291  96.3097239  21.3163555
  79.0092345  96.5654767  20.8403666  80.2904539  97.1245577  21.4215596
  81.7508037  96.6741818  18.2747032  80.9539200  96.7860512  18.7930528
  81.5233629  97.0128470  17.4087923  87.5813704 103.1986521  26.2229547
  87.6458137 103.6606929  27.0587719  86.8724628 102.5683886  26.3511857
  78.0830994  96.5627729  23.7478546  78.3339033  97.4474739  24.0136122
  78.6190543  96.3832331  22.9753638  83.7829061  90.9446209  32.7522882
  83.3896007  90.3912407  33.4270526  84.5995202  91.2556787  33.1429400
  86.6997022  92.3604088  30.3443139  87.4406736  92.9611241  30.2647601
  86.9314945  91.6181726  29.7861181  81.8438360  97.5460455  28.6221368
  81.7291876  96.6445712  28.9228467  80.9882878  97.7924152  28.2706185
  88.9230198 105.4878195  30.2208869  88.4794052 104.7014574  29.9029774
  89.5847412 105.6757346  29.5552760  83.6817319 107.0173997  24.7469548
  84.2324744 106.8891060  23.9746542  82.8428795 107.3168886  24.3964440
  91.0211436 105.7680995  28.2490270  91.0029912 106.5889876  27.7570540
  91.9431356 105.6435070  28.4740412  87.4784490 103.2825125  29.0913779
  88.0112827 102.5213413  28.8613087  86.9498572 102.9898777  29.8337933
  90.6454185  88.3885191  24.6207420  90.3018455  89.2786832  24.5446531
  91.0133148  88.1986848  23.7577005  88.1951579  93.2243503  18.1865094
  87.3393175  92.8350353  18.0070733  88.6078531  93.3035463  17.3264879
  89.7250726  90.7589846  22.5856654  89.2215521  90.7219981  21.7724459
  90.0181333  91.6682589  22.6453310  85.9693612  90.8428576  21.5922835
  86.8346608  90.6471384  21.2328725  86.0371121  90.6138927  22.5192192
  83.5755931  93.0730783  18.9639202  84.1499683  92.8505965  18.2312395
  84.1626913  93.1419478  19.7167804  85.8778598  89.9472032  17.6914272
  85.2243011  89.6321050  17.0670886  85.8359073  89.3247773  18.4174095
  89.1116339  96.4353966  22.0161919  88.1938900  96.6568913  21.8583607
  89.5276482  96.5100276  21.1573627  92.4441851  87.6478750  19.7225158
  92.7500728  86.7876113  19.4351073  93.1694456  88.2396370  19.5224152
  78.7366207  98.0509436  18.1106756  78.5390607  97.4578797  17.3857823
  78.1812871  97.7461647  18.8282695  86.7162931  97.9432543  20.2301349
  86.7711541  96.9906379  20.1543826  85.9054133  98.0991982  20.7142648
  84.6555291  96.5609603  17.9891728  83.8423156  96.8603773  18.3956920
  85.1514285  96.1665291  18.7066210  90.2529502  97.0251427  26.8206622
  90.6078890  97.2522900  27.6801088  90.9001634  97.3569804  26.1983877
  84.1469365  94.1327958  23.6052963  84.7868745  93.9916717  22.9075926
  83.3146896  93.8462472  23.2291565  81.1497982  94.1028283  18.3825950
  81.4104799  95.0173616  18.2735110  81.9715154  93.6352726  18.5322563
  82.6222907  95.5166040  25.5524774  83.2945961  95.3083402  24.9037423
  81.7952694  95.3188126  25.1130007  88.5248479  92.1427981  27.5690435
  87.8776394  92.8417931  27.4754912  89.2949495  92.5764125  27.9366683
  91.9327277 102.4076833  30.6440989  91.7812784 102.1787385  29.7271072
  91.9231957 103.3647435  30.6572334  88.7012614  99.9808746  25.6287255
  89.6304674 100.1319906  25.4556222  88.2803644 100.0692767  24.7735901
  87.5000945 104.0059411  23.3985793  87.3612031 103.6378195  24.2711731
  86.7115542 104.5207050  23.2269750  83.0250404  98.7908643  26.3127212
  82.8870202  98.0588882  26.9138751  83.9355328  98.7017543  26.0311399
  85.6532705  98.5028603  25.8010891  86.3632324  97.8621795  25.7597510
  85.6102013  98.7541497  26.7237072  93.6419484 105.4395956  28.7217470
  93.5832030 104.7555176  28.0548053  94.0439002 106.1814946  28.2698096
  84.3661639  95.4893821  27.6206531  83.8298996  95.0384559  28.2728127
  83.7778348  95.6239729  26.8776995  93.6436891 103.4035540  26.9531450
  92.7563670 103.0661462  27.0757849  94.2135442 102.6718571  27.1900215
  75.2966038  99.7359632  20.2774501  75.9837078  99.4221362  19.6895517
  75.1414167 100.6400996  20.0041753  80.1000760  94.6249828  24.7059525
  80.0158949  94.0175498  23.9709935  79.2783467  95.1158847  24.7069021
  90.2724474  93.1103392  20.0729720  90.7693174  92.3573354  19.7530790
  89.5011456  93.1467708  19.5072930  86.8559443  95.2520775  19.8001405
  86.4857230  94.6991815  20.4882310  87.3518535  94.6478908  19.2476405
  84.6848642 105.7118270  26.8956423  85.3858101 106.3454753  27.0485817
  84.2143757 106.0533001  26.1352062  92.7143469  90.0772985  22.2209079
  91.8006549  90.3077212  22.3891286  93.1436570  90.1611429  23.0723111
  92.4849927  98.2662877  24.7208973  91.8321378  98.5138785  24.0661426
  92.8630307  97.4527015  24.3871450  88.5337501  99.0082688  31.2075010
  87.8578138  98.9076818  31.8777385  89.3565134  98.8521902  31.6711007
  80.2816360 105.2454625  23.8287525  80.8669796 104.4998313  23.9615430
  80.0841198 105.5558582  24.7124189  74.8734014  97.8160225  22.5491969
  74.9118114  97.2823816  23.3429087  74.3674307  97.2895431  21.9302946
  82.2524777  92.6624766  26.0454511  82.3166103  93.5239596  25.6331909
  82.1891897  92.0498767  25.3126869  81.7277049  94.7347898  29.6927545
  82.3549088  94.3524975  30.3065069  80.8704968  94.5162100  30.0583238
  92.1271158 105.1410873  31.2981281  92.6711062 105.7540831  30.8036235
  91.5458003 105.6990452  31.8148294  78.5042592  96.5424327  15.6245900
  78.7996033  95.6335006  15.5712954  77.6030628  96.5212067  15.3026902
  82.0336839  94.6180324  21.6073449  81.3123425  95.2316291  21.4680922
  82.8230095  95.1538089  21.5290095  84.8363152  91.9534750  27.8814100
  85.3597554  92.1997047  28.6440410  84.6175486  92.7854785  27.4617238
  80.2330433  94.2238425  15.7485225  79.9043140  93.3435804  15.5660331
  80.5869804  94.1686094  16.6361614  86.0415697  92.8948445  25.5663771
  85.7012518  92.0956258  25.9684451  85.3354704  93.1950156  24.9940604
  86.6932169  89.9797758  24.0191094  87.5158239  89.5058236  23.8969984
  86.9370233  90.7588242  24.5189780  84.2170748  96.6716878  21.8283072
  84.0715329  96.9857181  22.7207354  83.7395952  97.2901779  21.2753971
  86.0767131  93.6619426  21.8763962  86.0628700  92.7660520  21.5396260
  86.7939559  93.6690090  22.5102248  87.9293262  94.0956767  23.9217089
  87.6711039  95.0173837  23.9201420  87.3978302  93.6987201  24.6117554
  78.6916410  99.2122223  24.7670734  78.1469878  99.9882031  24.8991008
  79.5695760  99.5593027  24.6089855  85.4804027  92.5433807  17.1451532
  85.6019938  91.6150453  17.3442420  85.1906069  92.5572493  16.2329848
  88.3495217  90.2288717  20.2818252  88.3716914  90.2928050  19.3270232
  88.7663276  89.3893226  20.4758758  79.4782432  98.3392119  27.6600891
  78.7364168  98.4874754  28.2465521  79.1575176  98.6000385  26.7967640
  87.4226095 107.8808097  27.4581281  87.7313221 107.6357244  28.3303980
  88.2201577 108.0854736  26.9700151  78.1247651 104.1443874  20.6500219
  77.2879559 103.7166049  20.4684220  78.0971296 104.3376318  21.5871010
  84.9645106  94.0565804  31.3541465  85.0133262  94.9327927  30.9719234
  85.5067621  93.5143197  30.7813108  95.4499952 104.6006927  30.6342602
  94.6595496 104.5831066  30.0947101  95.2133307 105.1395221  31.3891638
  95.5697827 101.4499394  27.9475330  95.6195832 101.2849401  28.8890853
  95.4611750 100.5826653  27.5573211  92.8601590  97.4330322  29.2634637
  93.7611452  97.2936787  28.9718635  92.9349564  97.5984777  30.2032815
  87.1944395  94.8097176  28.1087823  86.3247704  95.1030743  27.8370412
  87.4303875  95.3937621  28.8295087  97.0716024 103.8696335  28.1917352
  96.7800832 104.2326316  29.0280813  96.4588155 103.1563343  28.0130684
  95.3203212  98.9928950  26.6597410  95.7957334  99.1856596  25.8516261
  94.3968778  99.0488136  26.4140794  89.8983429  91.0276793  25.6253244
  90.4165373  91.7637820  25.2999732  89.5438561  91.3340787  26.4600003
  90.1496023  87.4477076  21.1454140  90.4297777  86.7800265  21.7714567
  90.9346630  87.6406172  20.6328804  94.0204881  95.8694710  24.8925716
  94.9722304  95.9692808  24.9137940  93.8508332  95.0772978  25.4023800
  92.0419261  92.9550293  25.0785116  91.4469193  93.2355306  24.3831605
  91.7568957  93.4444194  25.8501858  96.6487447  95.8811873  24.0526298
  96.1326496  95.0970330  23.8656227  97.5327396  95.5530590  24.2172818
  94.3098174  89.6252889  20.0122111  94.1122996  89.3167977  20.8965443
  94.9197880  90.3514528  20.1420041  88.2214982 102.0114629  31.5095876
  89.1417992 102.1893228  31.7035923  88.1864565 101.0670674  31.3575575
  77.4397147  97.2053222  20.4349151  77.1199932  96.3518531  20.1423525
  76.8930576  97.4201801  21.1907118  81.2177055  99.9215663  24.1518657
  81.4363065 100.8532771  24.1706691  81.6302829  99.5623638  24.9373461
  88.1381273  90.4283749  16.1394346  87.3282001  90.0830834  16.5149592
  88.8265690  90.1191292  16.7281957  90.0671821  89.5061795  17.7618642
  90.6202860  89.9257249  18.4208665  90.3041907  88.5797544  17.8041598
  86.0904920  95.4948869  33.5421406  85.9901647  96.4443226  33.4733497
  85.8726462  95.1667108  32.6697476  77.3085407 100.8256134  22.4042272
  76.6148879 100.4110087  21.8912227  78.0558398 100.8676670  21.8075691
  91.8954194  91.0167378  19.4718627  92.3953973  91.1283913  18.6632946
  92.5389802  90.7128431  20.1119435  85.9536190  98.9246008  32.3586468
  85.4703272  99.7246368  32.5650357  86.0397129  98.9353953  31.4053912
  79.2222150 100.7574388  20.2808287  79.1992838 100.8562075  19.3290170
  79.5322786 101.6039538  20.6025453  81.8809528 102.8150543  24.3954902
  82.8352781 102.7834485  24.3284833  81.6822051 102.3541166  25.2105128
  82.4708910 101.3851659  26.9625699  83.2901799 101.8795737  26.9860537
  82.7445718 100.4683627  26.9343267  77.7243824  95.7189793  27.6617896
  78.3702688  95.2088747  28.1505122  77.5160975  96.4558474  28.2361322
  90.2497216 102.7870640  33.1610037  91.1188376 102.9611292  32.7996672
  89.7703968 103.6065057  33.0385766  84.4183397 109.9067741  24.8399471
  85.3210643 109.9391351  25.1565966  84.1920767 108.9768192  24.8545806
  90.0599554  86.5772614  17.6687729  89.2931950  86.0231101  17.8144412
  90.4710259  86.6494483  18.5301881  82.0641315  92.8657410  31.7592911
  82.9272777  92.5094214  31.9696235  81.4906726  92.5271304  32.4468315
  94.6222816 106.2738126  32.7522882  94.2289761 105.7204325  33.4270526
  95.4388956 106.5848705  33.1429400  97.5390777 107.6896005  30.3443139
  98.2800490 108.2903159  30.2647601  97.7708700 106.9473643  29.7861181
  92.5670804 110.0639816  29.6927545  93.1942842 109.6816893  30.3065069
  91.7098722 109.8454018  30.0583238  95.8038861 109.3857722  31.3541465
  95.8527016 110.2619845  30.9719234  96.3461375 108.8435115  30.7813108
  96.9298675 110.8240787  33.5421406  96.8295402 111.7735144  33.4733497
  96.7120217 110.4959026  32.6697476  88.5637579 111.0481710  27.6617896
  89.2096442 110.5380664  28.1505122  88.3554730 111.7850392  28.2361322
  92.9035070 108.1949327  31.7592911  93.7666531 107.8386132  31.9696235
  92.3300480 107.8563222  32.4468315  50.2844467  21.1290408  15.4462777
  50.2257013  20.4449628  14.7793360  50.6863985  21.8709398  14.9943403
  48.7696141  20.8305325  18.0226587  49.3136045  21.4435283  17.5281542
  48.1882986  21.3884904  18.5393600  52.0924935  20.2901379  17.3587909
  51.3020479  20.2725518  16.8192408  51.8558290  20.8289673  18.1136945
  53.7141007  19.5590787  14.9162659  53.4225816  19.9220768  15.7526120
  53.1013139  18.8457795  14.7375991  46.8922200  18.4765092  19.8855344
  47.7613359  18.6505744  19.5241979  46.4128951  19.2959509  19.7631073
  58.5514675  30.1853718   9.2900618  59.1893085  30.0660465   8.5863958
  58.4335518  31.1334562   9.3488570  55.3604382  30.1381146   9.2262143
  55.0222893  30.0222211   8.3382678  56.2294150  29.7372311   9.2063149
  55.8424165  31.2915998  15.1848349  55.8312805  30.8968796  14.3128852
  56.0044804  30.5582070  15.7782120  48.7655629  33.4867814   8.0543254
  49.5576921  33.1458639   7.6389554  49.0052279  33.5962789   8.9745408
  52.5631426  34.0753110  14.1327533  52.2721292  34.9798740  14.0174199
  53.1988410  34.1169637  14.8471602  53.4887633  31.4529958  10.7228892
  54.0851205  31.2285980  10.0085855  53.5462604  30.7114704  11.3254340
  63.5064371  27.8480405   7.2686805  64.2389543  27.2779622   7.5024634
  62.7503727  27.4602005   7.7093310  61.0289791  21.5601979  11.7281413
  60.6973116  22.4297390  11.5042628  60.4335405  21.2438263  12.4075444
  57.5221311  33.7614525  11.1277326  57.2222034  34.6639564  11.0193133
  57.1772370  33.4946708  11.9798479  60.9218455  26.2797065   8.8074764
  60.0135332  26.2112474   8.5133525  60.8706050  26.7569010   9.6356589
  52.5042091  40.5258845   4.0948294  52.4266120  41.4766670   4.1736774
  51.9003734  40.1804718   4.7523220  54.9959320  27.6986711  16.7509661
  54.2192655  28.2580631  16.7412525  55.6349884  28.1843494  17.2724531
  62.7880101  24.4813504  10.5852637  62.1454481  24.7746037   9.9392432
  62.2835030  24.3666424  11.3905834  53.2505693  30.5072164  16.3127628
  53.9920377  31.0457208  16.0362451  52.5442678  31.1338453  16.4699180
  58.7261032  32.6501305  14.9099789  59.1344388  32.2083715  14.1654422
  58.0038294  32.0753932  15.1633982  55.0792102  27.5873911  12.2833346
  55.9253298  28.0113325  12.4267995  55.0190740  26.9307536  12.9771909
  59.0489847  33.2102495   8.6652078  58.4198709  33.3748209   7.9628146
  58.6615509  33.6244105   9.4363042  62.9279079  34.1456933   6.0196442
  62.2430117  34.5255834   5.4693475  63.0122928  34.7552260   6.7528390
  58.2291548  25.2478280  13.9414520  57.9852480  26.0020340  13.4048796
  58.5051478  25.6263627  14.7761767  60.1830011  31.7916892  12.6191785
  60.3946906  32.4348652  11.9426167  60.1359759  30.9579209  12.1513716
  51.4941890  32.4948385   8.8681927  52.0643247  32.9235653   8.2299411
  52.0850002  32.2130970   9.5666112  51.9867056  27.6611812  17.1142938
  51.3565717  28.3428093  17.3478335  51.8803144  27.5494894  16.1696076
  61.2975838  34.6688848  10.7914143  62.1193282  34.2669035  10.5096824
  61.2938241  34.5657082  11.7430259  55.0632442  34.2172891  12.9474853
  55.1276874  34.6793298  13.7833025  54.3543366  33.5870256  13.0757163
  69.3881832  31.0127596   7.1399114  68.6345540  30.4434994   6.9843119
  69.5229373  30.9790261   8.0869749  51.2647799  21.9632578  19.4768189
  50.8714745  21.4098777  20.1515833  52.0813940  22.2743157  19.8674706
  50.0404742  36.5182193   5.4704512  50.2171370  37.4400157   5.2825496
  50.8361575  36.2040612   5.8998892  54.1815760  23.3790457  17.0688445
  54.9225474  23.9797610  16.9892908  54.4133683  22.6368095  16.5106488
  49.3257098  28.5646825  15.3466675  49.2110613  27.6632082  15.6473774
  48.4701616  28.8110521  14.9951492  56.4048936  36.5064565  16.9454176
  55.9612790  35.7200943  16.6275080  57.0666150  36.6943715  16.2798067
  51.1636057  38.0360366  11.4714854  51.7143482  37.9077430  10.6991848
  50.3247533  38.3355255  11.1209747  58.5030174  36.7867365  14.9735577
  58.4848649  37.6076246  14.4815846  59.4250094  36.6621440  15.1985718
  54.9603228  34.3011494  15.8159085  55.4931565  33.5399782  15.5858393
  54.4317309  34.0085146  16.5583240  61.3048787  31.6246507   8.4444944
  60.6472461  32.3145769   8.5325072  62.1089186  32.0142939   8.7878930
  60.1154246  29.9790880   6.4948885  60.6286127  30.6120872   6.9970595
  60.7655470  29.3792075   6.1292245  56.5935077  27.4540335   8.7407226
  55.6757638  27.6755282   8.5828914  57.0095220  27.5286646   7.8818933
  60.8816042  34.9596881   4.6228028  60.4278369  34.1187791   4.6793219
  60.2510009  35.5958280   4.9602808  59.3248981  36.7973378   5.5577846
  59.6171956  37.3578435   4.8390212  59.8347602  37.0901939   6.3131005
  54.2882606  37.5753729   6.6471299  54.2458785  37.8014575   5.7179831
  55.2045305  37.3417104   6.7957101  57.7348240  28.0437797  13.5451929
  58.0897628  28.2709270  14.4046394  58.3820371  28.3756173  12.9229184
  63.4645977  31.1656233   4.2501258  63.3263876  31.3557829   3.3222447
  63.1082196  31.9275615   4.7069309  63.4915357  33.2332760   9.2612529
  63.9251863  33.1408049  10.1095583  64.2046937  33.2090260   8.6232545
  57.2243252  36.8334854  10.7945630  57.2780274  37.4025790  11.5623346
  56.3558033  37.0036739  10.4299667  50.1041645  26.5352410  12.2770081
  50.7764698  26.3269772  11.6282730  49.2771432  26.3374496  11.8375313
  64.3530906  33.2756460  11.7945415  64.5466796  34.1802271  12.0404689
  64.2531524  32.8163879  12.6284000  56.0067217  23.1614351  14.2935742
  55.3595132  23.8604300  14.2000218  56.7768232  23.5950495  14.6611990
  59.4146015  33.4263203  17.3686295  59.2631521  33.1973755  16.4516379
  59.4050694  34.3833804  17.3817640  56.1831351  30.9995116  12.3532562
  57.1123411  31.1506275  12.1801529  55.7622381  31.0879137  11.4981208
  54.9819683  35.0245780  10.1231099  54.8430769  34.6564565  10.9957037
  54.1934279  35.5393420   9.9515057  55.5767835  40.1254877   1.4656636
  55.7519591  39.6542920   2.2802258  54.8900623  40.7520643   1.6937896
  56.5324898  34.4027383   7.5119937  56.1974731  34.3628153   8.4077587
  56.0328844  33.7372099   7.0390347  50.5069142  29.8095013  13.0372518
  50.3688940  29.0775252  13.6384057  51.4174066  29.7203913  12.7556706
  53.1351443  29.5214972  12.5256198  53.8451061  28.8808164  12.4842816
  53.0920751  29.7727867  13.4482379  61.1238222  36.4582326  15.4462777
  61.0650768  35.7741546  14.7793360  61.5257740  37.2001316  14.9943403
  51.8480377  26.5080190  14.3451837  51.3117734  26.0570929  14.9973434
  51.2597085  26.6426099  13.6022302  50.1428920  43.2744239   8.2396496
  50.3825519  43.9062764   8.9175514  49.2998117  42.9232279   8.5261855
  61.1255629  34.4221909  13.6776757  60.2382408  34.0847831  13.8003156
  61.6954180  33.6904941  13.9145522  54.6556782  39.0823362  10.6438000
  54.5826954  39.8878333  11.1557304  54.2134175  39.2815328   9.8186021
  54.4446562  38.3195132   4.1540821  53.6614084  38.8616812   4.2479046
  55.1439307  38.8369111   4.5535063  65.6072969  29.8330127   8.4393318
  65.5962846  30.7154842   8.0687251  64.7390349  29.4801678   8.2447855
  57.1155466  38.9810196  12.7996159  57.8283438  39.6157661  12.7272060
  56.6245494  39.0774062  11.9836160  52.1667379  36.7304639  13.6201729
  52.8676839  37.3641122  13.7731124  51.6962494  37.0719371  12.8597369
  59.9668665  29.2849247  11.4454280  59.3140116  29.5325154  10.7906733
  60.3449045  28.4713385  11.1116757  56.9275839  39.3208940   5.5482450
  57.1098234  38.5030596   6.0110202  57.7508825  39.5376632   5.1107340
  57.2618005  38.2477125   2.8097499  57.7905771  37.7369580   2.1967661
  57.5246224  37.9319655   3.6743032  56.0156238  30.0269058  17.9320317
  55.3396875  29.9263187  18.6022692  56.8383872  29.8708272  18.3956314
  47.7635097  36.2640994  10.5532832  48.3488534  35.5184682  10.6860736
  47.5659936  36.5744951  11.4369496  50.6173753  39.2992242   5.5695274
  49.9484128  39.7838369   5.0859315  50.4786622  39.5461462   6.4838653
  54.7579021  41.3335985  12.1677933  55.3097329  41.4967607  12.9327018
  55.0985215  41.9240423  11.4957958  49.2095787  25.7534268  16.4172852
  49.8367826  25.3711345  17.0310376  48.3523706  25.5348470  16.7828544
  59.6089896  36.1597243  18.0226587  60.1529799  36.7727201  17.5281542
  59.0276740  36.7176821  18.5393600  57.8947408  39.2817961   9.1541615
  57.7698548  38.4807701   8.6452560  58.5526500  39.7764154   8.6655585
  59.9582317  37.0826981  10.7821165  59.0112652  36.9632332  10.7099492
  60.3065090  36.1949479  10.8647427  52.3181890  22.9721120  14.6059407
  52.8416292  23.2183416  15.3685716  52.0994223  23.8041155  14.1862544
  56.9628750  36.8779697   6.9825517  56.8153713  35.9496405   7.1633087
  57.7882244  36.8999788   6.4982593  60.5662872  37.7008256   8.0690390
  61.4909419  37.4951117   7.9314841  60.3978175  37.4524657   8.9779732
  53.5234435  23.9134815  12.2909077  53.1831256  23.1142628  12.6929757
  52.8173442  24.2136526  11.7185911  55.4111999  25.1143136  10.6462396
  55.1529777  26.0360207  10.6446727  54.8797040  24.7173571  11.3362860
  60.3558188  38.2193923   3.4252482  60.5295066  37.6540346   2.6726334
  60.8487079  39.0194818   3.2431971  46.1735148  30.2308592  11.4916040
  45.6288616  31.0068400  11.6236315  47.0514498  30.5779397  11.3335162
  66.2097579  30.9830346   5.0442781  66.6528725  30.2337671   4.6461905
  65.3324090  30.9740483   4.6616513  61.3433361  37.5360688   0.5249380
  62.0384265  38.1567380   0.7436694  61.6856511  36.6856039   0.8001758
  46.9601170  29.3578489  14.3846197  46.2182906  29.5061124  14.9710828
  46.6393914  29.6186754  13.5212947  63.2424784  34.9860393   2.0536711
  63.7676108  35.3247666   1.3286031  63.1547136  34.0507409   1.8699845
  54.9044832  38.8994467  14.1826587  55.2131959  38.6543614  15.0549287
  55.7020315  39.1041105  13.6945457  54.9265445  41.0532377   6.4131964
  54.4870435  40.5608755   7.1064820  55.6773562  40.5105344   6.1724039
  47.4057784  37.2443917   6.4156592  48.2315803  36.9447689   6.0355235
  47.0551836  36.4751540   6.8646380  52.3739317  36.5970386   8.4854265
  51.7519326  35.9341091   8.1856493  53.0444184  36.6231517   7.8027913
  52.4463844  25.0752174  18.0786771  52.4952000  25.9514296  17.6964541
  52.9886358  24.5329567  17.5058415  62.9318690  35.6193297  17.3587909
  62.1414234  35.6017436  16.8192408  62.6952044  36.1581591  18.1136945
  63.0516565  32.4685763  14.6720637  63.1014570  32.3035771  15.6136160
  62.9430488  31.6013022  14.2818518  60.3420327  28.4516691  15.9879944
  61.2430190  28.3123156  15.6963942  60.4168302  28.6171146  16.9278121
  54.6763133  25.8283546  14.8333130  53.8066442  26.1217112  14.5615719
  54.9122613  26.4123991  15.5540394  64.5534762  34.8882705  14.9162659
  64.2619570  35.2512685  15.7526120  63.9406893  34.1749713  14.7375991
  65.7530444  32.4535585   7.4365229  66.5877335  32.8925389   7.6002789
  65.8889573  31.9774238   6.6173475  62.8021950  30.0115319  13.3842717
  63.2776072  30.2042966  12.5761568  61.8787515  30.0674505  13.1386100
  57.3802166  22.0463163  12.3498550  57.8984110  22.7824190  12.0245039
  57.0257299  22.3527156  13.1845310  61.5023619  26.8881079  11.6171022
  62.4541042  26.9879177  11.6383246  61.3327069  26.0959348  12.1269107
  59.5237998  23.9736663  11.8030423  58.9287931  24.2541675  11.1076912
  59.2387695  24.4630564  12.5747164  63.9811697  30.1087199  10.7313322
  63.9488017  29.1703200  10.9173006  64.5912320  30.1871236   9.9979147
  64.1306185  26.8998243  10.7771605  63.6145234  26.1156699  10.5901534
  65.0146134  26.5716959  10.9418124  69.7988247  31.1703206   9.8719359
  70.5291635  30.9088494  10.4327062  69.1895192  30.4331928   9.9121427
  67.8803544  29.3111069  10.4693810  67.1536707  29.1767034   9.8610301
  67.4650831  29.6187897  11.2750528  55.7033720  33.0300998  18.2341183
  56.6236730  33.2079597  18.4281229  55.6683303  32.0857044  18.0820882
  48.6995793  30.9402033  10.8763964  48.9181802  31.8719141  10.8951998
  49.1121567  30.5810007  11.6618768  53.5723658  26.5135239  20.2666713
  53.4720385  27.4629596  20.1978804  53.3545200  26.1853478  19.3942783
  53.4354928  29.9432378  19.0831775  52.9522010  30.7432738  19.2895664
  53.5215867  29.9540322  18.1299219  49.3628266  33.8336912  11.1200208
  50.3171519  33.8020855  11.0530140  49.1640789  33.3727536  11.9350434
  49.9527648  32.4038028  13.6871006  50.7720537  32.8982107  13.7105843
  50.2264455  31.4869996  13.6588574  65.4981339  25.5322921   7.8227241
  66.0925829  25.2918657   7.1120550  65.5707922  24.8130051   8.4500778
  47.7178494  39.3756532   8.1370406  47.5832962  38.6156933   7.5708404
  47.3010557  40.0997432   7.6699195  67.8052411  28.8389122   6.5970663
  67.2451969  28.9082311   7.3702225  67.1995915  28.6630106   5.8770159
  50.8747620  40.2725849   8.3488849  50.7580004  41.2171281   8.2467539
  50.0540067  39.9699410   8.7374648  45.2062562  26.7376162  14.3863203
  45.8521426  26.2275116  14.8750428  44.9979713  27.4744844  14.9606628
  57.7315954  33.8057010  19.8855344  58.6007114  33.9797662  19.5241979
  57.2522706  34.6251426  19.7631073  51.9002134  40.9254111  11.5644777
  52.8029381  40.9577721  11.8811272  51.6739504  39.9954562  11.5791113
  53.6555736  39.6785097   8.2254856  52.7051367  39.6786959   8.1119228
  53.9588223  38.9317832   7.7090891  49.5460053  23.8843779  18.4838217
  50.4091514  23.5280584  18.6941542  48.9725464  23.5457674  19.1713622
  69.3908430  45.5145636   9.2900618  70.0286840  45.3952383   8.5863958
  69.2729273  46.4626480   9.3488570  66.1998136  45.4673064   9.2262143
  65.8616648  45.3514128   8.3382678  67.0687904  45.0664229   9.2063149
  62.0584952  47.3208540   5.2159034  61.4949817  47.2298477   4.4475322
  61.9437347  46.5008445   5.6961527  66.6817919  46.6207915  15.1848349
  66.6706560  46.2260714  14.3128852  66.8438559  45.8873988  15.7782120
  59.6049384  48.8159732   8.0543254  60.3970676  48.4750556   7.6389554
  59.8446034  48.9254707   8.9745408  67.6384511  50.9879508   0.5273499
  66.9872490  51.5733588   0.1407513  68.4328873  51.5185703   0.5868536
  61.5640138  48.0768645   0.9260633  62.3371014  47.5297632   0.7873509
  61.9165537  48.9412894   1.1375095  63.4025180  49.4045027  14.1327533
  63.1115046  50.3090658  14.0174199  64.0382165  49.4461555  14.8471602
  64.3281387  46.7821876  10.7228892  64.9244959  46.5577898  10.0085855
  64.3856359  46.0406621  11.3254340  63.9006416  44.2361311  -1.4420917
  64.1531936  43.7142832  -2.2037454  62.9630975  44.0727456  -1.3394233
  68.9449698  43.2397089   6.3653826  69.7312788  42.8216513   6.0144243
  69.2088403  44.1443182   6.5335475  69.1159776  48.6769940   1.0642483
  68.4805609  48.7504566   1.7763388  68.7857182  49.2663539   0.3861562
  74.3458125  43.1772323   7.2686805  75.0783297  42.6071539   7.5024634
  73.5897481  42.7893923   7.7093310  63.6202704  46.1389417   0.7603458
  63.5038962  45.4634320   1.4284542  63.7304964  45.6521791  -0.0564389
  65.9634245  45.5999564   4.4650147  65.5992452  45.0730185   5.1763069
  66.8201361  45.2098033   4.2916633  71.8683546  36.8893897  11.7281413
  71.5366871  37.7589308  11.5042628  71.2729159  36.5730181  12.4075444
  65.6039732  40.6289464  -0.5388504  65.7714135  41.4969700  -0.1718033
  65.4136901  40.7916746  -1.4627215  68.3615065  49.0906443  11.1277326
  68.0615788  49.9931482  11.0193133  68.0166125  48.8238626  11.9798479
  61.8127547  45.5420240   7.1614031  60.8878043  45.4096454   7.3691722
  62.0611960  46.3214459   7.6583973  71.7612209  41.6088983   8.8074764
  70.8529086  41.5404391   8.5133525  71.7099805  42.0860928   9.6356589
  65.5828953  43.0847121   0.4458163  65.4628578  43.5304172   1.2843643
  64.8881541  43.4332439  -0.1128299  59.1736358  45.1853513   7.9957820
  59.3028739  45.4387992   8.9097231  58.4933809  45.7781221   7.6762475
  63.3435845  55.8550763   4.0948294  63.2659875  56.8058588   4.1736774
  62.7397489  55.5096636   4.7523220  65.8353075  43.0278628  16.7509661
  65.0586409  43.5872549  16.7412525  66.4743638  43.5135411  17.2724531
  73.6273856  39.8105421  10.5852637  72.9848236  40.1037954   9.9392432
  73.1228784  39.6958342  11.3905834  71.2814019  43.5568594   1.2738497
  72.1931875  43.7895981   1.0986194  70.7723666  44.1405639   0.7113575
  64.0899447  45.8364082  16.3127628  64.8314132  46.3749126  16.0362451
  63.3836433  46.4630371  16.4699180  69.5654787  47.9793222  14.9099789
  69.9738143  47.5375633  14.1654422  68.8432048  47.4045850  15.1633982
  65.9185857  42.9165829  12.2833346  66.7647052  43.3405243  12.4267995
  65.8584495  42.2599453  12.9771909  69.8883602  48.5394413   8.6652078
  69.2592464  48.7040127   7.9628146  69.5009264  48.9536022   9.4363042
  73.7672833  49.4748851   6.0196442  73.0823872  49.8547752   5.4693475
  73.8516683  50.0844177   6.7528390  69.0685302  40.5770197  13.9414520
  68.8246234  41.3312258  13.4048796  69.3445233  40.9555545  14.7761767
  71.0223765  47.1208810  12.6191785  71.2340660  47.7640570  11.9426167
  70.9753513  46.2871126  12.1513716  68.6249994  39.7326630   9.5228358
  67.7634473  40.0307884   9.8145095  68.6512429  39.9497029   8.5909390
  65.4411563  48.2768821   5.9302163  65.9049909  48.5556524   5.1406786
  65.1768362  47.3752266   5.7475254  62.3335644  47.8240303   8.8681927
  62.9037002  48.2527571   8.2299411  62.9243756  47.5422887   9.5666112
  64.3780449  44.3991973   2.7391728  65.0804493  44.8513017   3.2065655
  64.0461078  43.7575792   3.3671622  62.8260811  42.9903730  17.1142938
  62.1959472  43.6720011  17.3478335  62.7196899  42.8786812  16.1696076
  58.1205783  42.6575526   8.0408862  57.3304837  42.9133055   7.5648973
  58.6117031  43.4723864   8.1460903  72.1369593  49.9980765  10.7914143
  72.9587037  49.5960953  10.5096824  72.1331996  49.8948999  11.7430259
  60.0720529  43.0220105   4.9992339  59.2751692  43.1338800   5.5175834
  59.8446121  43.3606758   4.1333229  65.9026196  49.5464809  12.9474853
  65.9670629  50.0085216  13.7833025  65.1937120  48.9162173  13.0757163
  56.4043486  42.9106017  10.4723853  56.6551525  43.7953026  10.7381429
  56.9403035  42.7310618   9.6998945  80.2275586  46.3419514   7.1399114
  79.4739294  45.7726912   6.9843119  80.3623127  46.3082178   8.0869749
  65.6174214  51.2132916   2.8153834  65.4819889  52.0584452   3.2438681
  66.1584027  51.4152194   2.0519767  62.1041554  37.2924496  19.4768189
  61.7108499  36.7390694  20.1515833  62.9207694  37.6035074  19.8674706
  59.0703611  48.7308354   3.3881759  59.5828132  49.5251604   3.5387323
  59.7226324  48.0334645   3.3215360  60.8798496  51.8474110   5.4704512
  61.0565125  52.7692075   5.2825496  61.6755330  51.5332530   5.8998892
  65.0209515  38.7082375  17.0688445  65.7619228  39.3089528  16.9892908
  65.2527438  37.9660013  16.5106488  60.1650853  43.8938742  15.3466675
  60.0504368  42.9923999  15.6473774  59.3095370  44.1402439  14.9951492
  67.2442690  51.8356483  16.9454176  66.8006545  51.0492861  16.6275080
  67.9059904  52.0235633  16.2798067  62.0029812  53.3652284  11.4714854
  62.5537237  53.2369347  10.6991848  61.1641288  53.6647173  11.1209747
  69.3423929  52.1159282  14.9735577  69.3242404  52.9368164  14.4815846
  70.2643849  51.9913358  15.1985718  65.7996983  49.6303412  15.8159085
  66.3325319  48.8691700  15.5858393  65.2711064  49.3377064  16.5583240
  68.9666678  34.7363478  11.3452727  68.6230947  35.6265120  11.2691838
  69.3345640  34.5465136  10.4822312  57.0352528  47.0597008   4.1641329
  57.8727750  47.4694017   3.9475037  57.2130796  46.1196451   4.1341523
  68.9316960  44.7272089  -0.1474838  68.4163584  45.4976694   0.0913550
  68.6594269  44.0537225   0.4758224  66.5164071  39.5721790   4.9110401
  65.6605668  39.1828640   4.7316039  66.9291023  39.6513751   4.0510186
  68.0463218  37.1068133   9.3101960  67.5428014  37.0698268   8.4969766
  68.3393825  38.0160876   9.3698617  64.2906104  37.1906863   8.3168142
  65.1559101  36.9949671   7.9574032  64.3583613  36.9617215   9.2437499
  73.9051234  47.4804444   1.7878336  73.1280677  47.1415603   1.3433498
  74.5842715  47.4857067   1.1133301  68.7203264  42.5999181   1.6784943
  68.4153399  42.9145330   2.5295087  69.6733706  42.6780601   1.7212276
  67.1649695  48.7589404   3.3277897  66.6371057  48.0242164   3.0151135
  66.6637198  49.5364081   3.0817866  72.1442541  46.9538425   8.4444944
  71.4866216  47.6437686   8.5325072  72.9482941  47.3434857   8.7878930
  61.8968423  39.4209071   5.6884509  62.4712175  39.1984252   4.9557702
  62.4839405  39.4897765   6.4413110  70.9548000  45.3082798   6.4948885
  71.4679882  45.9412789   6.9970595  71.6049224  44.7083993   6.1292245
  62.2238010  41.4513532  -0.2919606  61.3875322  41.7888218   0.0289669
  62.0842780  41.3162512  -1.2292469  64.1991091  36.2950320   4.4159578
  63.5455503  35.9799337   3.7916193  64.1571565  35.6726060   5.1419401
  65.3102296  46.5769615  -3.6687130  64.4029357  46.3458868  -3.4695981
  65.8073328  45.7807234  -3.4813148  68.2170374  55.2867122  -0.7490443
  67.5432073  55.5898819  -0.1405486  68.6036196  56.0896202  -1.0984986
  67.4328831  42.7832253   8.7407226  66.5151392  43.0047200   8.5828914
  67.8488975  42.8578564   7.8818933  68.2163879  44.1823669   3.8709906
  68.9635698  44.6945066   3.5617028  68.4855468  43.8607722   4.7314300
  66.4890529  46.6782210   0.8536861  65.5801748  46.3941242   0.9509330
  66.5185613  47.0981288  -0.0059833  71.7209796  50.2888799   4.6228028
  71.2672124  49.4479709   4.6793219  71.0903763  50.9250197   4.9602808
  70.6642716  41.2180785   5.8528696  69.9265473  40.7058171   6.1838938
  70.9169490  40.7781167   5.0411972  70.1642736  52.1265296   5.5577846
  70.4565710  52.6870353   4.8390212  70.6741356  52.4193857   6.3131005
  70.7654343  33.9957037   6.4470465  71.0713220  33.1354401   6.1596380
  71.4906948  34.5874657   6.2469459  57.0578699  44.3987724   4.8352063
  56.8603099  43.8057084   4.1103129  56.5025363  44.0939934   5.5528002
  65.0375423  44.2910830   6.9546656  65.0924033  43.3384667   6.8789132
  64.2266625  44.4470269   7.4387954  66.1866617  48.2190953  -1.8075061
  65.7486047  47.5026812  -2.2669424  66.9277058  48.4467068  -2.3689970
  62.9767783  42.9087890   4.7137035  62.1635649  43.2082060   5.1202227
  63.4726777  42.5143579   5.4311517  65.1276361  52.9045647   6.6471299
  65.0852540  53.1306493   5.7179831  66.0439060  52.6709021   6.7957101
  68.5741995  43.3729714  13.5451929  68.9291382  43.6001188  14.4046394
  69.2214126  43.7048091  12.9229184  74.3039732  46.4948150   4.2501258
  74.1657630  46.6849746   3.3222447  73.9475950  47.2567533   4.7069309
  62.4681858  40.4806245  10.3298270  63.1081237  40.3395005   9.6321233
  61.6359388  40.1940759   9.9536872  74.3309111  48.5624677   9.2612529
  74.7645618  48.4699966  10.1095583  75.0440692  48.5382178   8.6232545
  63.2442162  49.7808676   6.4433262  64.0382760  49.2858996   6.2415837
  62.5333854  49.2526539   6.0800968  68.0637006  52.1626771  10.7945630
  68.1174028  52.7317708  11.5623346  67.1951787  52.3328656  10.4299667
  59.5524925  43.9251758   2.5193015  58.6222513  43.8636213   2.7362977
  59.6482397  43.4027710   1.7229656  59.4710474  40.4506570   5.1071256
  59.7317291  41.3651904   4.9980417  60.2927646  39.9831013   5.2567869
  60.9435399  41.8644328  12.2770081  61.6158453  41.6561690  11.6282730
  60.1165186  41.6666414  11.8375313  75.1924661  48.6048378  11.7945415
  75.3860551  49.5094188  12.0404689  75.0925279  48.1455797  12.6284000
  66.8460971  38.4906269  14.2935742  66.1988887  39.1896218  14.2000218
  67.6161987  38.9242412  14.6611990  70.2539769  48.7555121  17.3686295
  70.1025276  48.5265672  16.4516379  70.2444449  49.7125722  17.3817640
  67.0225106  46.3287033  12.3532562  67.9517166  46.4798193  12.1801529
  66.6016136  46.4171054  11.4981208  65.8213438  50.3537698  10.1231099
  65.6824523  49.9856482  10.9957037  65.0328034  50.8685337   9.9515057
  66.4161590  55.4546794   1.4656636  66.5913345  54.9834837   2.2802258
  65.7294378  56.0812560   1.6937896  67.3718653  49.7319301   7.5119937
  67.0368485  49.6920070   8.4077587  66.8722598  49.0664016   7.0390347
  61.3462897  45.1386931  13.0372518  61.2082695  44.4067169  13.6384057
  62.2567820  45.0495831  12.7556706  70.3077844  47.0775335  -2.2143003
  69.6907015  46.3522163  -2.3109951  69.8394333  47.8384695  -2.5575929
  63.9745197  44.8506890  12.5256198  64.6844816  44.2100082  12.4842816
  63.9314506  45.1019785  13.4482379  71.9631976  51.7874243  15.4462777
  71.9044522  51.1033463  14.7793360  72.3651494  52.5293233  14.9943403
  62.6874131  41.8372108  14.3451837  62.1511488  41.3862846  14.9973434
  62.0990840  41.9718017  13.6022302  60.9822675  58.6036157   8.2396496
  61.2219273  59.2354681   8.9175514  60.1391871  58.2524197   8.5261855
  71.9649383  49.7513827  13.6776757  71.0776162  49.4139749  13.8003156
  72.5347934  49.0196858  13.9145522  53.6178530  46.0837919   7.0019808
  54.3049570  45.7699649   6.4140823  53.4626659  46.9879284   6.7287060
  58.4213253  40.9728115  11.4304832  58.3371441  40.3653785  10.6955242
  57.5995959  41.4637134  11.4314328  65.4950537  54.4115279  10.6438000
  65.4220708  55.2170251  11.1557304  65.0527930  54.6107245   9.8186021
  65.2840316  53.6487050   4.1540821  64.5007838  54.1908730   4.2479046
  65.9833062  54.1661029   4.5535063  68.5936966  39.4581679   6.7975027
  69.0905666  38.7051641   6.4776097  67.8223948  39.4945996   6.2318236
  76.4466724  45.1622045   8.4393318  76.4356600  46.0446760   8.0687251
  75.5784103  44.8093595   8.2447855  67.9549220  54.3102114  12.7996159
  68.6677192  54.9449578  12.7272060  67.4639249  54.4065980  11.9836160
  69.6766747  48.2153366   4.3713450  68.7423026  48.3354829   4.2018155
  69.8543416  47.3125833   4.1073460  65.1771935  41.5999062   6.5246711
  64.8069723  41.0470102   7.2127617  65.6731028  40.9957195   5.9721711
  73.0639299  44.0570685   4.9063484  73.5299751  44.8898677   4.8323787
  73.5146799  43.5915667   5.6108743  63.0061134  52.0596557  13.6201729
  63.7070593  52.6933040  13.7731124  62.5356249  52.4011289  12.8597369
  71.1315530  50.4014507   1.9049636  71.4075374  50.2871101   2.8143510
  70.2620028  50.0031992   1.8661810  71.0355961  36.4251272   8.9454386
  70.1219041  36.6555499   9.1136593  71.4649063  36.5089717   9.7968418
  70.8062420  44.6141164  11.4454280  70.1533870  44.8617072  10.7906733
  71.1842800  43.8005303  11.1116757  67.7669594  54.6500858   5.5482450
  67.9491988  53.8322514   6.0110202  68.5902580  54.8668550   5.1107340
  68.1011759  53.5769043   2.8097499  68.6299526  53.0661497   2.1967661
  68.3639979  53.2611573   3.6743032  66.8549993  45.3560976  17.9320317
  66.1790630  45.2555105  18.6022692  67.6777627  45.2000189  18.3956314
  58.6028852  51.5932912  10.5532832  59.1882289  50.8476600  10.6860736
  58.4053690  51.9036869  11.4369496  61.4567507  54.6284159   5.5695274
  60.7877882  55.1130287   5.0859315  61.3180377  54.8753380   6.4838653
  53.1946507  44.1638512   9.2737275  53.2330606  43.6302103  10.0674393
  52.6886799  43.6373718   8.6548252  65.5972776  56.6627903  12.1677933
  66.1491084  56.8259524  12.9327018  65.9378969  57.2532341  11.4957958
  60.5737269  39.0103053  12.7699818  60.6378595  39.8717884  12.3577215
  60.5104389  38.3977054  12.0372176  60.0489541  41.0826185  16.4172852
  60.6761580  40.7003263  17.0310376  59.1917460  40.8640387  16.7828544
  70.4483650  51.4889160  18.0226587  70.9923554  52.1019119  17.5281542
  69.8670495  52.0468739  18.5393600  56.8255084  42.8902614   2.3491207
  57.1208525  41.9813293   2.2958260  55.9243120  42.8690354   2.0272209
  68.7341163  54.6109878   9.1541615  68.6092302  53.8099618   8.6452560
  69.3920254  55.1056072   8.6655585  60.3549331  40.9658611   8.3318755
  59.6335917  41.5794579   8.1926229  61.1442587  41.5016376   8.2535401
  70.7976071  52.4118899  10.7821165  69.8506407  52.2924250  10.7099492
  71.1458844  51.5241397  10.8647427  63.1575645  38.3013037  14.6059407
  63.6810047  38.5475334  15.3685716  62.9387978  39.1333072  14.1862544
  58.5542926  40.5716712   2.4730532  58.2255632  39.6914091   2.2905638
  58.9082296  40.5164381   3.3606921  67.8022505  52.2071615   6.9825517
  67.6547467  51.2788322   7.1633087  68.6275998  52.2291705   6.4982593
  61.6684749  40.8589682   2.8406009  62.0080821  41.3875603   2.1184618
  62.1156869  41.1970088   3.6164576  71.4056626  53.0300174   8.0690390
  72.3303174  52.8243035   7.9314841  71.2371930  52.7816575   8.9779732
  64.3628190  39.2426733  12.2909077  64.0225010  38.4434546  12.6929757
  63.6567196  39.5428443  11.7185911  65.0144662  36.3276045  10.7436401
  65.8370731  35.8536523  10.6215291  65.2582725  37.1066529  11.2435087
  63.6552896  39.3564303   1.0399302  64.3761259  39.7345556   0.5363019
  63.0318200  40.0753180   1.1434280  67.7984019  40.0609452   1.9757635
  68.0147633  40.9434090   1.6746463  67.3178086  39.6695666   1.2463277
  62.5383240  43.0195166   8.5528379  62.3927821  43.3335469   9.4452661
  62.0608444  43.6380066   7.9999278  64.3979623  40.0097714   8.6009269
  64.3841192  39.1138807   8.2641567  65.1152051  40.0168377   9.2347555
  66.2505754  40.4435054  10.6462396  65.9923532  41.3652124  10.6446727
  65.7190794  40.0465488  11.3362860  71.1951943  53.5485841   3.4252482
  71.3688820  52.9832263   2.6726334  71.6880834  54.3486736   3.2431971
  57.0128902  45.5600510  11.4916040  56.4682371  46.3360318  11.6236315
  57.8908252  45.9071315  11.3335162  63.8016519  38.8912094   3.8696839
  63.9232430  37.9628740   4.0687726  63.5118562  38.9050780   2.9575154
  66.6707710  36.5767004   7.0063559  66.6929406  36.6406337   6.0515538
  67.0875769  35.7371513   7.2004065  77.0491334  46.3122264   5.0442781
  77.4922480  45.5629589   4.6461905  76.1717844  46.3032400   4.6616513
  72.1827115  52.8652605   0.5249380  72.8778020  53.4859298   0.7436694
  72.5250265  52.0147957   0.8001758  57.7994924  44.6870406  14.3846197
  57.0576660  44.8353042  14.9710828  57.4787669  44.9478672  13.5212947
  74.0818538  50.3152311   2.0536711  74.6069862  50.6539584   1.3286031
  73.9940891  49.3799326   1.8699845  65.7438587  54.2286385  14.1826587
  66.0525713  53.9835531  15.0549287  66.5414069  54.4333023  13.6945457
  65.7659199  56.3824294   6.4131964  65.3264189  55.8900673   7.1064820
  66.5167316  55.8397262   6.1724039  58.2451538  52.5735835   6.4156592
  59.0709558  52.2739607   6.0355235  57.8945590  51.8043457   6.8646380
  63.2133071  51.9262303   8.4854265  62.5913080  51.2633008   8.1856493
  63.8837938  51.9523435   7.8027913  56.4460143  50.4922161   7.3745525
  55.6092051  50.0644336   7.1929527  56.4183788  50.6854605   8.3116317
  63.2857599  40.4044091  18.0786771  63.3345754  41.2806214  17.6964541
  63.8280113  39.8621484  17.5058415  73.7712444  50.9485215  17.3587909
  72.9807988  50.9309353  16.8192408  73.5345799  51.4873508  18.1136945
  73.8910319  47.7977681  14.6720637  73.9408324  47.6327688  15.6136160
  73.7824243  46.9304940  14.2818518  62.7746578  50.4766227   1.9612726
  62.9234698  51.1601691   1.3079399  63.5813022  50.4571317   2.4762182
  71.1814082  43.7808609  15.9879944  72.0823945  43.6415074  15.6963942
  71.2562056  43.9463064  16.9278121  65.5156887  41.1575464  14.8333130
  64.6460197  41.4509030  14.5615719  65.7516367  41.7415909  15.5540394
  75.3928516  50.2174622  14.9162659  75.1013325  50.5804603  15.7526120
  74.7800648  49.5041631  14.7375991  76.5924199  47.7827502   7.4365229
  77.4271090  48.2217306   7.6002789  76.7283327  47.3066155   6.6173475
  73.6415704  45.3407237  13.3842717  74.1169826  45.5334883  12.5761568
  72.7181270  45.3966423  13.1386100  60.5299211  46.5031404   2.9673795
  60.2845253  45.5993734   3.1654005  60.6995126  46.5048555   2.0253273
  68.2195921  37.3755081  12.3498550  68.7377865  38.1116108  12.0245039
  67.8651054  37.6819074  13.1845310  59.7994859  42.2359762   0.4659956
  59.1064104  42.3104117  -0.1900008  59.5546611  41.4720105   0.9881473
  68.4708515  33.7955363   7.8699447  68.7510269  33.1278552   8.4959874
  69.2559122  33.9884459   7.3574111  66.2741984  52.9714357  -0.5675527
  65.7015951  53.5904544  -1.0205055  66.8474777  53.5213719  -0.0335605
  72.3417373  42.2172997  11.6171022  73.2934796  42.3171095  11.6383246
  72.1720824  41.4251266  12.1269107  70.3631753  39.3028580  11.8030423
  69.7681685  39.5833593  11.1076912  70.0781450  39.7922481  12.5747164
  69.4939243  53.2551507   0.5633056  70.4269917  53.1897069   0.7665931
  69.4062456  54.0907774   0.1047588  72.1227260  52.5717378  -2.4762997
  72.0440892  52.2377241  -1.5827239  72.9436927  53.0639145  -2.4771524
  74.8205451  45.4379117  10.7313322  74.7881771  44.4995118  10.9173006
  75.4306075  45.5163154   9.9979147  66.6588782  44.3075170  -3.2259474
  67.6047887  44.1781378  -3.1571056  66.2803027  43.5689832  -2.7490046
  74.9699940  42.2290160  10.7771605  74.4538988  41.4448617  10.5901534
  75.8539888  41.9008877  10.9418124  72.6310667  35.9731176   6.7367418
  72.4335488  35.6646264   7.6210750  73.2410372  36.6992815   6.8665348
  80.6382001  46.4995124   9.8719359  81.3685390  46.2380412  10.4327062
  80.0288947  45.7623846   9.9121427  78.7197298  44.6402986  10.4693810
  77.9930462  44.5058951   9.8610301  78.3044585  44.9479815  11.2750528
  66.5427475  48.3592916  18.2341183  67.4630484  48.5371515  18.4281229
  66.5077058  47.4148961  18.0820882  55.7609640  43.5531510   7.1594457
  55.4412424  42.6996818   6.8668831  55.2143068  43.7680088   7.9152425
  59.5389547  46.2693951  10.8763964  59.7575557  47.2011058  10.8951998
  59.9515321  45.9101925  11.6618768  66.4593765  36.7762036   2.8639652
  65.6494493  36.4309121   3.2394898  67.1478182  36.4669580   3.4527264
  68.3884313  35.8540083   4.4863949  68.9415352  36.2735536   5.1453972
  68.6254400  34.9275831   4.5286905  64.4117413  41.8427156  20.2666713
  64.3114139  42.7921513  20.1978804  64.1938955  41.5145395  19.3942783
  55.6297900  47.1734421   9.1287579  54.9361371  46.7588374   8.6157533
  56.3770891  47.2154958   8.5320998  71.7663120  37.9640608   3.9942613
  71.1861789  38.6225412   3.6120666  71.4999053  37.1417952   3.5830031
  70.2166687  37.3645666   6.1963934  70.7166465  37.4762200   5.3878252
  70.8602295  37.0606718   6.8364742  64.2748683  45.2724295  19.0831775
  63.7915764  46.0724655  19.2895664  64.3609622  45.2832240  18.1299219
  57.5434642  47.1052675   7.0053594  57.5205330  47.2040362   6.0535477
  57.8535279  47.9517826   7.3270760  60.2022020  49.1628830  11.1200208
  61.1565274  49.1312772  11.0530140  60.0034544  48.7019454  11.9350434
  60.7921402  47.7329946  13.6871006  61.6114291  48.2274025  13.7105843
  61.0658210  46.8161914  13.6588574  70.5487998  40.1240698   3.0498962
  69.6613853  40.4090349   2.8319156  70.9641987  39.9634462   2.2026238
  73.9002535  40.1487219   6.7653301  74.6762925  40.6383672   7.0377918
  73.1750669  40.5745273   7.2225170  76.3375093  40.8614838   7.8227241
  76.9319584  40.6210574   7.1120550  76.4101677  40.1421969   8.4500778
  58.5572249  54.7048449   8.1370406  58.4226717  53.9448850   7.5708404
  58.1404311  55.4289349   7.6699195  69.6931212  49.8885373  -2.8553018
  70.3967062  50.0935375  -2.2395363  68.9693861  50.4562135  -2.5903935
  70.5229022  45.6395234   3.2649252  70.4664224  46.0963786   2.4256884
  71.0757365  44.8785919   3.0872094  74.3333828  41.4284966   4.0899371
  74.0770762  41.0281602   4.9207579  73.7086696  42.1428760   3.9649510
  78.6446166  44.1681039   6.5970663  78.0845724  44.2374229   7.3702225
  78.0389669  43.9922024   5.8770159  61.7141375  55.6017766   8.3488849
  61.5973759  56.5463199   8.2467539  60.8933821  55.2991328   8.7374648
  71.6017909  50.3267902  -0.8054558  72.4363513  49.8949101  -0.9877084
  71.4402252  50.1549916   0.1222336  71.2563801  46.8300015   0.5601781
  71.2012605  46.6644287  -0.3809775  70.6309857  47.5376048   0.7163971
  56.0456316  42.0668080  14.3863203  56.6915180  41.5567034  14.8750428
  55.8373468  42.8036761  14.9606628  68.5709709  49.1348927  19.8855344
  69.4400868  49.3089580  19.5241979  68.0916460  49.9543344  19.7631073
  64.5659927  36.3308124   0.1387099  64.5538597  37.2749964   0.2955370
  65.4583349  36.1478270  -0.1553440  62.7395889  56.2546028  11.5644777
  63.6423136  56.2869639  11.8811272  62.5133259  55.3246479  11.5791113
  64.4949491  55.0077015   8.2254856  63.5445122  55.0078876   8.1119228
  64.7981977  54.2609749   7.7090891  68.3812046  32.9250901   4.3933036
  67.6144442  32.3709388   4.5389718  68.7922751  32.9972770   5.2547188
  60.3853807  39.2135697  18.4838217  61.2485269  38.8572502  18.6941542
  59.8119218  38.8749592  19.1713622  80.2302184  60.8437553   9.2900618
  80.8680594  60.7244301   8.5863958  80.1123027  61.7918397   9.3488570
  77.0391891  60.7964981   9.2262143  76.7010402  60.6806046   8.3382678
  77.9081659  60.3956146   9.2063149  72.8978706  62.6500458   5.2159034
  72.3343571  62.5590395   4.4475322  72.7831101  61.8300362   5.6961527
  77.5211674  61.9499833  15.1848349  77.5100314  61.5552631  14.3128852
  77.6832313  61.2165906  15.7782120  70.4443138  64.1451649   8.0543254
  71.2364430  63.8042474   7.6389554  70.6839788  64.2546624   8.9745408
  78.4778265  66.3171425   0.5273499  77.8266245  66.9025506   0.1407513
  79.2722628  66.8477620   0.5868536  72.4033892  63.4060563   0.9260633
  73.1764768  62.8589550   0.7873509  72.7559291  64.2704812   1.1375095
  74.2418935  64.7336945  14.1327533  73.9508801  65.6382576  14.0174199
  74.8775919  64.7753472  14.8471602  75.1675142  62.1113793  10.7228892
  75.7638714  61.8869816  10.0085855  75.2250113  61.3698539  11.3254340
  74.7400170  59.5653229  -1.4420917  74.9925691  59.0434750  -2.2037454
  73.8024729  59.4019374  -1.3394233  79.7843453  58.5689007   6.3653826
  80.5706542  58.1508430   6.0144243  80.0482157  59.4735099   6.5335475
  79.9553530  64.0061857   1.0642483  79.3199363  64.0796484   1.7763388
  79.6250937  64.5955456   0.3861562  85.1851880  58.5064240   7.2686805
  85.9177052  57.9363457   7.5024634  84.4291236  58.1185841   7.7093310
  74.4596459  61.4681335   0.7603458  74.3432717  60.7926238   1.4284542
  74.5698719  60.9813709  -0.0564389  76.8028000  60.9291482   4.4650147
  76.4386207  60.4022103   5.1763069  77.6595116  60.5389951   4.2916633
  82.7077300  52.2185814  11.7281413  82.3760625  53.0881225  11.5042628
  82.1122914  51.9022098  12.4075444  76.4433487  55.9581381  -0.5388504
  76.6107889  56.8261618  -0.1718033  76.2530656  56.1208663  -1.4627215
  79.2008820  64.4198360  11.1277326  78.9009543  65.3223399  11.0193133
  78.8559879  64.1530544  11.9798479  72.6521301  60.8712157   7.1614031
  71.7271798  60.7388371   7.3691722  72.9005715  61.6506376   7.6583973
  82.6005964  56.9380901   8.8074764  81.6922841  56.8696309   8.5133525
  82.5493559  57.4152846   9.6356589  76.4222708  58.4139039   0.4458163
  76.3022333  58.8596090   1.2843643  75.7275296  58.7624357  -0.1128299
  70.0130112  60.5145431   7.9957820  70.1422494  60.7679910   8.9097231
  69.3327564  61.1073139   7.6762475  74.1829600  71.1842681   4.0948294
  74.1053629  72.1350506   4.1736774  73.5791243  70.8388553   4.7523220
  76.6746829  58.3570546  16.7509661  75.8980163  58.9164466  16.7412525
  77.3137392  58.8427329  17.2724531  84.4667610  55.1397339  10.5852637
  83.8241990  55.4329872   9.9392432  83.9622539  55.0250259  11.3905834
  82.1207774  58.8860512   1.2738497  83.0325630  59.1187899   1.0986194
  81.6117421  59.4697556   0.7113575  74.9293202  61.1656000  16.3127628
  75.6707886  61.7041043  16.0362451  74.2230187  61.7922288  16.4699180
  80.4048541  63.3085140  14.9099789  80.8131897  62.8667551  14.1654422
  79.6825803  62.7337768  15.1633982  76.7579611  58.2457747  12.2833346
  77.6040807  58.6697160  12.4267995  76.6978249  57.5891371  12.9771909
  80.7277356  63.8686331   8.6652078  80.0986218  64.0332045   7.9628146
  80.3403018  64.2827940   9.4363042  84.6066588  64.8040768   6.0196442
  83.9217626  65.1839670   5.4693475  84.6910437  65.4136095   6.7528390
  79.9079057  55.9062115  13.9414520  79.6639989  56.6604176  13.4048796
  80.1838987  56.2847463  14.7761767  81.8617520  62.4500727  12.6191785
  82.0734415  63.0932487  11.9426167  81.8147268  61.6163044  12.1513716
  79.4643748  55.0618548   9.5228358  78.6028228  55.3599802   9.8145095
  79.4906183  55.2788947   8.5909390  76.2805318  63.6060739   5.9302163
  76.7443663  63.8848442   5.1406786  76.0162116  62.7044183   5.7475254
  73.1729399  63.1532220   8.8681927  73.7430756  63.5819489   8.2299411
  73.7637511  62.8714805   9.5666112  75.2174204  59.7283891   2.7391728
  75.9198247  60.1804935   3.2065655  74.8854832  59.0867710   3.3671622
  73.6654565  58.3195648  17.1142938  73.0353226  59.0011929  17.3478335
  73.5590653  58.2078729  16.1696076  68.9599538  57.9867444   8.0408862
  68.1698592  58.2424972   7.5648973  69.4510785  58.8015782   8.1460903
  82.9763347  65.3272683  10.7914143  83.7980791  64.9252870  10.5096824
  82.9725750  65.2240917  11.7430259  70.9114283  58.3512023   4.9992339
  70.1145447  58.4630717   5.5175834  70.6839875  58.6898675   4.1333229
  76.7419951  64.8756726  12.9474853  76.8064383  65.3377133  13.7833025
  76.0330875  64.2454091  13.0757163  67.2437241  58.2397934  10.4723853
  67.4945279  59.1244944  10.7381429  67.7796789  58.0602536   9.6998945
  91.0669341  61.6711431   7.1399114  90.3133049  61.1018829   6.9843119
  91.2016882  61.6374096   8.0869749  76.4567969  66.5424834   2.8153834
  76.3213643  67.3876369   3.2438681  76.9977781  66.7444111   2.0519767
  72.9435308  52.6216414  19.4768189  72.5502254  52.0682612  20.1515833
  73.7601449  52.9326992  19.8674706  69.9097366  64.0600272   3.3881759
  70.4221887  64.8543522   3.5387323  70.5620079  63.3626562   3.3215360
  71.7192251  67.1766028   5.4704512  71.8958879  68.0983993   5.2825496
  72.5149084  66.8624447   5.8998892  75.8603269  54.0374293  17.0688445
  76.6012983  54.6381446  16.9892908  76.0921192  53.2951930  16.5106488
  71.0044607  59.2230660  15.3466675  70.8898122  58.3215917  15.6473774
  70.1489125  59.4694357  14.9951492  78.0836445  67.1648400  16.9454176
  77.6400299  66.3784779  16.6275080  78.7453659  67.3527551  16.2798067
  72.8423566  68.6944202  11.4714854  73.3930991  68.5661265  10.6991848
  72.0035042  68.9939091  11.1209747  80.1817683  67.4451200  14.9735577
  80.1636158  68.2660081  14.4815846  81.1037603  67.3205275  15.1985718
  76.6390737  64.9595330  15.8159085  77.1719074  64.1983618  15.5858393
  76.1104818  64.6668981  16.5583240  79.8060432  50.0655396  11.3452727
  79.4624702  50.9557037  11.2691838  80.1739395  49.8757053  10.4822312
  67.8746283  62.3888926   4.1641329  68.7121505  62.7985934   3.9475037
  68.0524550  61.4488368   4.1341523  79.7710715  60.0564007  -0.1474838
  79.2557338  60.8268611   0.0913550  79.4988023  59.3829143   0.4758224
  77.3557826  54.9013707   4.9110401  76.4999422  54.5120558   4.7316039
  77.7684778  54.9805668   4.0510186  78.8856973  52.4360051   9.3101960
  78.3821768  52.3990186   8.4969766  79.1787579  53.3452793   9.3698617
  75.1299858  52.5198780   8.3168142  75.9952855  52.3241589   7.9574032
  75.1977367  52.2909132   9.2437499  84.7444989  62.8096361   1.7878336
  83.9674432  62.4707521   1.3433498  85.4236470  62.8148984   1.1133301
  79.5597018  57.9291099   1.6784943  79.2547154  58.2437248   2.5295087
  80.5127460  58.0072519   1.7212276  78.0043450  64.0881322   3.3277897
  77.4764811  63.3534082   3.0151135  77.5030953  64.8655998   3.0817866
  82.9836296  62.2830343   8.4444944  82.3259970  62.9729604   8.5325072
  83.7876695  62.6726775   8.7878930  72.7362177  54.7500988   5.6884509
  73.3105929  54.5276170   4.9557702  73.3233160  54.8189683   6.4413110
  81.7941755  60.6374715   6.4948885  82.3073636  61.2704707   6.9970595
  82.4442979  60.0375911   6.1292245  73.0631765  56.7805449  -0.2919606
  72.2269077  57.1180136   0.0289669  72.9236534  56.6454429  -1.2292469
  75.0384845  51.6242237   4.4159578  74.3849258  51.3091254   3.7916193
  74.9965319  51.0017978   5.1419401  76.1496050  61.9061532  -3.6687130
  75.2423112  61.6750786  -3.4695981  76.6467082  61.1099152  -3.4813148
  78.2722586  58.1124171   8.7407226  77.3545147  58.3339118   8.5828914
  78.6882729  58.1870481   7.8818933  79.0557633  59.5115587   3.8709906
  79.8029452  60.0236984   3.5617028  79.3249223  59.1899639   4.7314300
  77.3284283  62.0074127   0.8536861  76.4195503  61.7233160   0.9509330
  77.3579367  62.4273206  -0.0059833  82.5603551  65.6180717   4.6228028
  82.1065878  64.7771627   4.6793219  81.9297518  66.2542115   4.9602808
  81.5036470  56.5472703   5.8528696  80.7659227  56.0350089   6.1838938
  81.7563244  56.1073084   5.0411972  81.0036490  67.4557213   5.5577846
  81.2959465  68.0162271   4.8390212  81.5135111  67.7485774   6.3131005
  81.6048098  49.3248955   6.4470465  81.9106975  48.4646318   6.1596380
  82.3300703  49.9166575   6.2469459  67.8972454  59.7279641   4.8352063
  67.6996854  59.1349002   4.1103129  67.3419118  59.4231852   5.5528002
  75.8769178  59.6202748   6.9546656  75.9317787  58.6676584   6.8789132
  75.0660380  59.7762187   7.4387954  77.0260371  63.5482871  -1.8075061
  76.5879801  62.8318730  -2.2669424  77.7670812  63.7758986  -2.3689970
  73.8161537  58.2379808   4.7137035  73.0029403  58.5373978   5.1202227
  74.3120532  57.8435496   5.4311517  75.9670115  68.2337565   6.6471299
  75.9246294  68.4598411   5.7179831  76.8832814  68.0000939   6.7957101
  79.4135749  58.7021632  13.5451929  79.7685137  58.9293105  14.4046394
  80.0607880  59.0340009  12.9229184  85.1433486  61.8240068   4.2501258
  85.0051385  62.0141664   3.3222447  84.7869705  62.5859451   4.7069309
  73.3075612  55.8098163  10.3298270  73.9474992  55.6686922   9.6321233
  72.4753143  55.5232676   9.9536872  85.1702866  63.8916595   9.2612529
  85.6039372  63.7991884  10.1095583  85.8834446  63.8674095   8.6232545
  74.0835916  65.1100594   6.4433262  74.8776515  64.6150914   6.2415837
  73.3727609  64.5818457   6.0800968  78.9030761  67.4918689  10.7945630
  78.9567783  68.0609625  11.5623346  78.0345542  67.6620574  10.4299667
  70.3918680  59.2543675   2.5193015  69.4616268  59.1928131   2.7362977
  70.4876152  58.7319628   1.7229656  70.3104229  55.7798488   5.1071256
  70.5711046  56.6943821   4.9980417  71.1321401  55.3122931   5.2567869
  71.7829154  57.1936245  12.2770081  72.4552207  56.9853607  11.6282730
  70.9558940  56.9958331  11.8375313  86.0318415  63.9340296  11.7945415
  86.2254305  64.8386106  12.0404689  85.9319033  63.4747715  12.6284000
  77.6854726  53.8198186  14.2935742  77.0382641  54.5188136  14.2000218
  78.4555741  54.2534330  14.6611990  81.0933524  64.0847038  17.3686295
  80.9419030  63.8557590  16.4516379  81.0838203  65.0417640  17.3817640
  77.8618860  61.6578951  12.3532562  78.7910920  61.8090111  12.1801529
  77.4409890  61.7462972  11.4981208  76.6607192  65.6829616  10.1231099
  76.5218278  65.3148400  10.9957037  75.8721788  66.1977255   9.9515057
  77.2555344  70.7838712   1.4656636  77.4307100  70.3126755   2.2802258
  76.5688132  71.4104478   1.6937896  78.2112407  65.0611218   7.5119937
  77.8762240  65.0211988   8.4077587  77.7116353  64.3955934   7.0390347
  72.1856651  60.4678848  13.0372518  72.0476449  59.7359087  13.6384057
  73.0961575  60.3787748  12.7556706  81.1471599  62.4067253  -2.2143003
  80.5300770  61.6814081  -2.3109951  80.6788087  63.1676613  -2.5575929
  74.8138952  60.1798808  12.5256198  75.5238570  59.5392000  12.4842816
  74.7708260  60.4311702  13.4482379  82.8025731  67.1166161  15.4462777
  82.7438277  66.4325381  14.7793360  83.2045249  67.8585151  14.9943403
  73.5267886  57.1664025  14.3451837  72.9905243  56.7154764  14.9973434
  72.9384594  57.3009934  13.6022302  71.8216429  73.9328075   8.2396496
  72.0613028  74.5646599   8.9175514  70.9785626  73.5816115   8.5261855
  72.9370145  56.6252677  -3.0921699  72.0599611  56.5041478  -3.4559452
  73.4127898  55.8338755  -3.3442810  82.8043138  65.0805745  13.6776757
  81.9169917  64.7431667  13.8003156  83.3741689  64.3488776  13.9145522
  64.4572285  61.4129837   7.0019808  65.1443325  61.0991567   6.4140823
  64.3020414  62.3171201   6.7287060  69.2607007  56.3020033  11.4304832
  69.1765196  55.6945703  10.6955242  68.4389714  56.7929051  11.4314328
  76.3344291  69.7407197  10.6438000  76.2614463  70.5462169  11.1557304
  75.8921684  69.9399163   9.8186021  76.1234071  68.9778967   4.1540821
  75.3401593  69.5200647   4.2479046  76.8226816  69.4952947   4.5535063
  79.4330721  54.7873597   6.7975027  79.9299421  54.0343559   6.4776097
  78.6617702  54.8237913   6.2318236  87.2860478  60.4913962   8.4393318
  87.2750355  61.3738678   8.0687251  86.4177858  60.1385513   8.2447855
  78.7942975  69.6394031  12.7996159  79.5070947  70.2741496  12.7272060
  78.3033003  69.7357897  11.9836160  80.5160502  63.5445284   4.3713450
  79.5816780  63.6646746   4.2018155  80.6937170  62.6417751   4.1073460
  76.0165690  56.9290980   6.5246711  75.6463477  56.3762020   7.2127617
  76.5124782  56.3249113   5.9721711  83.9033053  59.3862603   4.9063484
  84.3693505  60.2190595   4.8323787  84.3540554  58.9207585   5.6108743
  73.8454888  67.3888475  13.6201729  74.5464348  68.0224958  13.7731124
  73.3750003  67.7303206  12.8597369  81.9709284  65.7306424   1.9049636
  82.2469128  65.6163019   2.8143510  81.1013783  65.3323909   1.8661810
  81.8749716  51.7543190   8.9454386  80.9612796  51.9847417   9.1136593
  82.3042817  51.8381634   9.7968418  81.6456174  59.9433082  11.4454280
  80.9927624  60.1908990  10.7906733  82.0236554  59.1297220  11.1116757
  78.6063348  69.9792775   5.5482450  78.7885743  69.1614431   6.0110202
  79.4296334  70.1960468   5.1107340  78.9405514  68.9060960   2.8097499
  79.4693280  68.3953415   2.1967661  79.2033733  68.5903491   3.6743032
  77.6943747  60.6852893  17.9320317  77.0184384  60.5847023  18.6022692
  78.5171381  60.5292107  18.3956314  69.4422606  66.9224830  10.5532832
  70.0276043  66.1768518  10.6860736  69.2447445  67.2328786  11.4369496
  72.2961262  69.9576077   5.5695274  71.6271637  70.4422205   5.0859315
  72.1574131  70.2045298   6.4838653  64.0340261  59.4930430   9.2737275
  64.0724361  58.9594021  10.0674393  63.5280554  58.9665635   8.6548252
  76.4366530  71.9919821  12.1677933  76.9884838  72.1551442  12.9327018
  76.7772724  72.5824258  11.4957958  71.4131023  54.3394970  12.7699818
  71.4772350  55.2009801  12.3577215  71.3498144  53.7268972  12.0372176
  70.8883296  56.4118103  16.4172852  71.5155335  56.0295180  17.0310376
  70.0311215  56.1932305  16.7828544  81.2877404  66.8181078  18.0226587
  81.8317308  67.4311036  17.5281542  80.7064249  67.3760657  18.5393600
  67.6648839  58.2194532   2.3491207  67.9602280  57.3105211   2.2958260
  66.7636874  58.1982272   2.0272209  79.5734917  69.9401796   9.1541615
  79.4486057  69.1391536   8.6452560  80.2314009  70.4347990   8.6655585
  71.1943086  56.2950529   8.3318755  70.4729671  56.9086496   8.1926229
  71.9836341  56.8308293   8.2535401  81.6369826  67.7410816  10.7821165
  80.6900161  67.6216167  10.7099492  81.9852599  66.8533314  10.8647427
  73.9969399  53.6304955  14.6059407  74.5203801  53.8767252  15.3685716
  73.7781732  54.4624990  14.1862544  69.3936680  55.9008630   2.4730532
  69.0649386  55.0206009   2.2905638  69.7476051  55.8456298   3.3606921
  78.6416259  67.5363532   6.9825517  78.4941222  66.6080240   7.1633087
  79.4669753  67.5583623   6.4982593  72.5078503  56.1881600   2.8406009
  72.8474576  56.7167521   2.1184618  72.9550624  56.5262006   3.6164576
  82.2450381  68.3592091   8.0690390  83.1696928  68.1534953   7.9314841
  82.0765684  68.1108492   8.9779732  75.2021944  54.5718650  12.2909077
  74.8618765  53.7726463  12.6929757  74.4960950  54.8720361  11.7185911
  75.8538416  51.6567963  10.7436401  76.6764485  51.1828441  10.6215291
  76.0976480  52.4358446  11.2435087  74.4946651  54.6856221   1.0399302
  75.2155013  55.0637474   0.5363019  73.8711955  55.4045098   1.1434280
  78.6377773  55.3901370   1.9757635  78.8541388  56.2726008   1.6746463
  78.1571841  54.9987584   1.2463277  73.3776995  58.3487083   8.5528379
  73.2321576  58.6627386   9.4452661  72.9002198  58.9671984   7.9999278
  75.2373378  55.3389631   8.6009269  75.2234946  54.4430725   8.2641567
  75.9545806  55.3460295   9.2347555  77.0899508  55.7726972  10.6462396
  76.8317286  56.6944042  10.6446727  76.5584549  55.3757406  11.3362860
  82.0345697  68.8777759   3.4252482  82.2082575  68.3124181   2.6726334
  82.5274588  69.6778654   3.2431971  67.8522657  60.8892428  11.4916040
  67.3076125  61.6652236  11.6236315  68.7302007  61.2363232  11.3335162
  74.6410274  54.2204012   3.8696839  74.7626185  53.2920658   4.0687726
  74.3512316  54.2342698   2.9575154  77.5101464  51.9058922   7.0063559
  77.5323161  51.9698255   6.0515538  77.9269523  51.0663431   7.2004065
  87.8885088  61.6414182   5.0442781  88.3316234  60.8921507   4.6461905
  87.0111599  61.6324318   4.6616513  83.0220870  68.1944523   0.5249380
  83.7171774  68.8151216   0.7436694  83.3644020  67.3439874   0.8001758
  68.6388679  60.0162324  14.3846197  67.8970415  60.1644959  14.9710828
  68.3181423  60.2770590  13.5212947  84.9212293  65.6444229   2.0536711
  85.4463617  65.9831501   1.3286031  84.8334645  64.7091244   1.8699845
  76.5832341  69.5578302  14.1826587  76.8919468  69.3127449  15.0549287
  77.3807824  69.7624941  13.6945457  76.6052954  71.7116212   6.4131964
  76.1657944  71.2192591   7.1064820  77.3561070  71.1689180   6.1724039
  69.0845293  67.9027753   6.4156592  69.9103312  67.6031525   6.0355235
  68.7339345  67.1335375   6.8646380  74.0526826  67.2554221   8.4854265
  73.4306835  66.5924926   8.1856493  74.7231693  67.2815353   7.8027913
  67.2853898  65.8214079   7.3745525  66.4485806  65.3936254   7.1929527
  67.2577543  66.0146523   8.3116317  74.1251353  55.7336009  18.0786771
  74.1739509  56.6098132  17.6964541  74.6673867  55.1913402  17.5058415
  84.6106199  66.2777132  17.3587909  83.8201743  66.2601271  16.8192408
  84.3739553  66.8165426  18.1136945  84.7304074  63.1269599  14.6720637
  84.7802079  62.9619606  15.6136160  84.6217997  62.2596858  14.2818518
  73.6140333  65.8058144   1.9612726  73.7628453  66.4893609   1.3079399
  74.4206776  65.7863234   2.4762182  82.0207836  59.1100527  15.9879944
  82.9217699  58.9706991  15.6963942  82.0955811  59.2754981  16.9278121
  76.3550642  56.4867381  14.8333130  75.4853951  56.7800947  14.5615719
  76.5910122  57.0707826  15.5540394  86.2322271  65.5466540  14.9162659
  85.9407079  65.9096521  15.7526120  85.6194402  64.8333548  14.7375991
  87.4317953  63.1119420   7.4365229  88.2664844  63.5509224   7.6002789
  87.5677082  62.6358073   6.6173475  84.4809459  60.6699155  13.3842717
  84.9563581  60.8626801  12.5761568  83.5575024  60.7258341  13.1386100
  71.3692966  61.8323322   2.9673795  71.1239008  60.9285652   3.1654005
  71.5388880  61.8340472   2.0253273  79.0589675  52.7046998  12.3498550
  79.5771619  53.4408025  12.0245039  78.7044808  53.0110992  13.1845310
  70.6388613  57.5651680   0.4659956  69.9457858  57.6396034  -0.1900008
  70.3940365  56.8012023   0.9881473  79.3102270  49.1247281   7.8699447
  79.5904023  48.4570470   8.4959874  80.0952877  49.3176376   7.3574111
  77.1135738  68.3006275  -0.5675527  76.5409705  68.9196462  -1.0205055
  77.6868532  68.8505636  -0.0335605  83.1811128  57.5464915  11.6171022
  84.1328551  57.6463012  11.6383246  83.0114578  56.7543183  12.1269107
  81.2025507  54.6320498  11.8030423  80.6075440  54.9125511  11.1076912
  80.9175204  55.1214399  12.5747164  80.3332998  68.5843425   0.5633056
  81.2663671  68.5188987   0.7665931  80.2456211  69.4199692   0.1047588
  85.6599206  60.7671035  10.7313322  85.6275526  59.8287035  10.9173006
  86.2699829  60.8455071   9.9979147  77.4982537  59.6367087  -3.2259474
  78.4441641  59.5073296  -3.1571056  77.1196782  58.8981749  -2.7490046
  85.8093694  57.5582078  10.7771605  85.2932743  56.7740535  10.5901534
  86.6933643  57.2300795  10.9418124  83.4704421  51.3023094   6.7367418
  83.2729242  50.9938182   7.6210750  84.0804127  52.0284732   6.8665348
  91.4775756  61.8287041   9.8719359  92.2079144  61.5672329  10.4327062
  90.8682701  61.0915763   9.9121427  89.5591053  59.9694904  10.4693810
  88.8324216  59.8350869   9.8610301  89.1438340  60.2771733  11.2750528
  77.3821229  63.6884834  18.2341183  78.3024239  63.8663433  18.4281229
  77.3470812  62.7440879  18.0820882  75.6825454  57.5617064  -3.2904589
  74.7756909  57.2650177  -3.2141875  75.9601435  57.2646882  -4.1570303
  66.6003394  58.8823427   7.1594457  66.2806178  58.0288735   6.8668831
  66.0536822  59.0972005   7.9152425  70.3783302  61.5985868  10.8763964
  70.5969311  62.5302976  10.8951998  70.7909076  61.2393843  11.6618768
  77.2987519  52.1053954   2.8639652  76.4888248  51.7601039   3.2394898
  77.9871936  51.7961497   3.4527264  79.2278068  51.1832000   4.4863949
  79.7809106  51.6027454   5.1453972  79.4648154  50.2567749   4.5286905
  75.2511167  57.1719074  20.2666713  75.1507894  58.1213431  20.1978804
  75.0332709  56.8437313  19.3942783  74.4524238  54.4203999  -3.1492610
  75.3143402  54.7458897  -2.8896792  74.6374583  53.6335495  -3.6619544
  66.4691654  62.5026339   9.1287579  65.7755126  62.0880292   8.6157533
  67.2164645  62.5446875   8.5320998  82.6056875  53.2932526   3.9942613
  82.0255544  53.9517330   3.6120666  82.3392808  52.4709870   3.5830031
  81.0560441  52.6937583   6.1963934  81.5560220  52.8054118   5.3878252
  81.6996049  52.3898636   6.8364742  75.1142437  60.6016213  19.0831775
  74.6309519  61.4016573  19.2895664  75.2003376  60.6124158  18.1299219
  68.3828397  62.4344593   7.0053594  68.3599085  62.5332280   6.0535477
  68.6929033  63.2809743   7.3270760  71.0415775  64.4920748  11.1200208
  71.9959028  64.4604690  11.0530140  70.8428298  64.0311371  11.9350434
  71.6315157  63.0621864  13.6871006  72.4508046  63.5565942  13.7105843
  71.9051964  62.1453832  13.6588574  81.3881753  55.4532616   3.0498962
  80.5007608  55.7382267   2.8319156  81.8035742  55.2926379   2.2026238
  84.7396289  55.4779137   6.7653301  85.5156679  55.9675589   7.0377918
  84.0144423  55.9037191   7.2225170  87.1768848  56.1906756   7.8227241
  87.7713338  55.9502492   7.1120550  87.2495431  55.4713887   8.4500778
  69.3966003  70.0340367   8.1370406  69.2620471  69.2740768   7.5708404
  68.9798066  70.7581267   7.6699195  81.3622777  60.9687152   3.2649252
  81.3057978  61.4255703   2.4256884  81.9151119  60.2077836   3.0872094
  85.1727583  56.7576884   4.0899371  84.9164517  56.3573519   4.9207579
  84.5480451  57.4720678   3.9649510  89.4839920  59.4972957   6.5970663
  88.9239478  59.5666146   7.3702225  88.8783424  59.3213942   5.8770159
  72.5535129  70.9309684   8.3488849  72.4367513  71.8755117   8.2467539
  71.7327575  70.6283246   8.7374648  82.4411664  65.6559820  -0.8054558
  83.2757268  65.2241018  -0.9877084  82.2796007  65.4841833   0.1222336
  82.0957556  62.1591933   0.5601781  82.0406360  61.9936205  -0.3809775
  81.4703611  62.8667966   0.7163971  66.8850071  57.3959997  14.3863203
  67.5308935  56.8858951  14.8750428  66.6767222  58.1328679  14.9606628
  79.4103463  64.4640845  19.8855344  80.2794623  64.6381497  19.5241979
  78.9310215  65.2835262  19.7631073  75.4053681  51.6600042   0.1387099
  75.3932351  52.6041882   0.2955370  76.2977103  51.4770188  -0.1553440
  73.5789643  71.5837946  11.5644777  74.4816890  71.6161556  11.8811272
  73.3527013  70.6538397  11.5791113  75.3343245  70.3368933   8.2254856
  74.3838876  70.3370794   8.1119228  75.6375732  69.5901667   7.7090891
  79.2205801  48.2542819   4.3933036  78.4538197  47.7001305   4.5389718
  79.6316506  48.3264688   5.2547188  71.2247562  54.5427615  18.4838217
  72.0879023  54.1864419  18.6941542  70.6512973  54.2041509  19.1713622
  91.0695939  76.1729471   9.2900618  91.7074349  76.0536218   8.5863958
  90.9516782  77.1210315   9.3488570  87.8785645  76.1256899   9.2262143
  87.5404157  76.0097964   8.3382678  88.7475413  75.7248064   9.2063149
  88.3605428  77.2791751  15.1848349  88.3494069  76.8844549  14.3128852
  88.5226068  76.5457823  15.7782120  81.2836893  79.4743567   8.0543254
  82.0758185  79.1334392   7.6389554  81.5233543  79.5838542   8.9745408
  85.0812689  80.0628863  14.1327533  84.7902555  80.9674493  14.0174199
  85.7169674  80.1045390  14.8471602  86.0068896  77.4405711  10.7228892
  86.6032468  77.2161733  10.0085855  86.0643868  76.6990457  11.3254340
  93.5471055  67.5477732  11.7281413  93.2154380  68.4173143  11.5042628
  92.9516668  67.2314016  12.4075444  90.0402574  79.7490278  11.1277326
  89.7403297  80.6515317  11.0193133  89.6953634  79.4822461  11.9798479
  83.4915056  76.2004075   7.1614031  82.5665552  76.0680289   7.3691722
  83.7399469  76.9798294   7.6583973  93.4399718  72.2672818   8.8074764
  92.5316595  72.1988227   8.5133525  93.3887314  72.7444763   9.6356589
  80.8523867  75.8437348   7.9957820  80.9816248  76.0971827   8.9097231
  80.1721318  76.4365056   7.6762475  87.5140584  73.6862464  16.7509661
  86.7373918  74.2456384  16.7412525  88.1531147  74.1719247  17.2724531
  95.3061365  70.4689257  10.5852637  94.6635745  70.7621790   9.9392432
  94.8016293  70.3542177  11.3905834  85.7686956  76.4947917  16.3127628
  86.5101641  77.0332961  16.0362451  85.0623942  77.1214206  16.4699180
  91.2442296  78.6377058  14.9099789  91.6525652  78.1959468  14.1654422
  90.5219557  78.0629685  15.1633982  87.5973366  73.5749664  12.2833346
  88.4434561  73.9989078  12.4267995  87.5372004  72.9183289  12.9771909
  90.7472811  71.2354033  13.9414520  90.5033743  71.9896093  13.4048796
  91.0232742  71.6139380  14.7761767  92.7011274  77.7792645  12.6191785
  92.9128169  78.4224405  11.9426167  92.6541022  76.9454962  12.1513716
  90.3037503  70.3910466   9.5228358  89.4421982  70.6891719   9.8145095
  90.3299938  70.6080865   8.5909390  84.0123153  78.4824138   8.8681927
  84.5824511  78.9111406   8.2299411  84.6031265  78.2006723   9.5666112
  84.5048320  73.6487565  17.1142938  83.8746981  74.3303846  17.3478335
  84.3984408  73.5370647  16.1696076  79.7993292  73.3159361   8.0408862
  79.0092346  73.5716890   7.5648973  80.2904540  74.1307699   8.1460903
  81.7508038  73.6803941   4.9992339  80.9539201  73.7922635   5.5175834
  81.5233630  74.0190593   4.1333229  87.5813705  80.2048644  12.9474853
  87.6458138  80.6669051  13.7833025  86.8724629  79.5746009  13.0757163
  78.0830995  73.5689852  10.4723853  78.3339034  74.4536862  10.7381429
  78.6190544  73.3894453   9.6998945  83.7829063  67.9508331  19.4768189
  83.3896008  67.3974530  20.1515833  84.5995203  68.2618910  19.8674706
  86.6997024  69.3666210  17.0688445  87.4406737  69.9673363  16.9892908
  86.9314947  68.6243848  16.5106488  81.8438362  74.5522578  15.3466675
  81.7291877  73.6507835  15.6473774  80.9882879  74.7986274  14.9951492
  88.9230199  82.4940318  16.9454176  88.4794054  81.7076696  16.6275080
  89.5847413  82.6819468  16.2798067  83.6817321  84.0236119  11.4714854
  84.2324746  83.8953183  10.6991848  82.8428797  84.3231008  11.1209747
  91.0211438  82.7743118  14.9735577  91.0029913  83.5951999  14.4815846
  91.9431358  82.6497193  15.1985718  87.4784492  80.2887247  15.8159085
  88.0112828  79.5275535  15.5858393  86.9498573  79.9960899  16.5583240
  90.6454187  65.3947313  11.3452727  90.3018456  66.2848955  11.2691838
  91.0133149  65.2048971  10.4822312  88.1951580  70.2305625   4.9110401
  87.3393177  69.8412476   4.7316039  88.6078532  70.3097586   4.0510186
  89.7250727  67.7651968   9.3101960  89.2215523  67.7282104   8.4969766
  90.0181334  68.6744711   9.3698617  85.9693613  67.8490698   8.3168142
  86.8346610  67.6533507   7.9574032  86.0371122  67.6201050   9.2437499
  83.5755932  70.0792906   5.6884509  84.1499684  69.8568088   4.9557702
  84.1626914  70.1481601   6.4413110  85.8778600  66.9534155   4.4159578
  85.2243012  66.6383172   3.7916193  85.8359074  66.3309895   5.1419401
  89.1116340  73.4416088   8.7407226  88.1938901  73.6631036   8.5828914
  89.5276484  73.5162399   7.8818933  92.4441852  64.6540872   6.4470465
  92.7500729  63.7938236   6.1596380  93.1694457  65.2458493   6.2469459
  78.7366208  75.0571559   4.8352063  78.5390608  74.4640920   4.1103129
  78.1812872  74.7523769   5.5528002  86.7162932  74.9494666   6.9546656
  86.7711542  73.9968502   6.8789132  85.9054134  75.1054105   7.4387954
  84.6555292  73.5671725   4.7137035  83.8423157  73.8665896   5.1202227
  85.1514286  73.1727414   5.4311517  90.2529504  74.0313550  13.5451929
  90.6078891  74.2585023  14.4046394  90.9001635  74.3631927  12.9229184
  84.1469367  71.1390081  10.3298270  84.7868746  70.9978840   9.6321233
  83.3146897  70.8524594   9.9536872  81.1497983  71.1090406   5.1071256
  81.4104800  72.0235739   4.9980417  81.9715155  70.6414848   5.2567869
  82.6222908  72.5228163  12.2770081  83.2945962  72.3145525  11.6282730
  81.7952695  72.3250249  11.8375313  88.5248480  69.1490104  14.2935742
  87.8776396  69.8480054  14.2000218  89.2949496  69.5826248  14.6611990
  91.9327278  79.4138956  17.3686295  91.7812785  79.1849508  16.4516379
  91.9231958  80.3709557  17.3817640  88.7012615  76.9870869  12.3532562
  89.6304675  77.1382028  12.1801529  88.2803645  77.0754890  11.4981208
  87.5000947  81.0121533  10.1231099  87.3612032  80.6440318  10.9957037
  86.7115543  81.5269173   9.9515057  83.0250406  75.7970766  13.0372518
  82.8870204  75.0651005  13.6384057  83.9355329  75.7079666  12.7556706
  85.6532706  75.5090725  12.5256198  86.3632325  74.8683917  12.4842816
  85.6102015  75.7603620  13.4482379  93.6419485  82.4458079  15.4462777
  93.5832031  81.7617299  14.7793360  94.0439003  83.1877069  14.9943403
  84.3661640  72.4955943  14.3451837  83.8298997  72.0446682  14.9973434
  83.7778349  72.6301852  13.6022302  93.6436892  80.4097663  13.6776757
  92.7563671  80.0723584  13.8003156  94.2135443  79.6780694  13.9145522
  75.2966039  76.7421754   7.0019808  75.9837079  76.4283484   6.4140823
  75.1414168  77.6463119   6.7287060  80.1000762  71.6311951  11.4304832
  80.0158950  71.0237620  10.6955242  79.2783468  72.1220969  11.4314328
  90.2724475  70.1165514   6.7975027  90.7693175  69.3635477   6.4776097
  89.5011457  70.1529831   6.2318236  86.8559444  72.2582897   6.5246711
  86.4857232  71.7053938   7.2127617  87.3518537  71.6541031   5.9721711
  84.6848643  82.7180392  13.6201729  85.3858102  83.3516875  13.7731124
  84.2143758  83.0595124  12.8597369  92.7143470  67.0835108   8.9454386
  91.8006550  67.3139335   9.1136593  93.1436572  67.1673552   9.7968418
  92.4849929  75.2725000  11.4454280  91.8321379  75.5200907  10.7906733
  92.8630309  74.4589138  11.1116757  88.5337502  76.0144811  17.9320317
  87.8578139  75.9138940  18.6022692  89.3565136  75.8584025  18.3956314
  80.2816361  82.2516747  10.5532832  80.8669798  81.5060435  10.6860736
  80.0841199  82.5620704  11.4369496  74.8734016  74.8222348   9.2737275
  74.9118115  74.2885938  10.0674393  74.3674308  74.2957553   8.6548252
  82.2524778  69.6686888  12.7699818  82.3166104  70.5301719  12.3577215
  82.1891898  69.0560890  12.0372176  81.7277050  71.7410021  16.4172852
  82.3549089  71.3587098  17.0310376  80.8704969  71.5224223  16.7828544
  92.1271159  82.1472996  18.0226587  92.6711063  82.7602954  17.5281542
  91.5458004  82.7052574  18.5393600  78.5042593  73.5486450   2.3491207
  78.7996034  72.6397128   2.2958260  77.6030629  73.5274189   2.0272209
  82.0336840  71.6242446   8.3318755  81.3123426  72.2378414   8.1926229
  82.8230096  72.1600211   8.2535401  84.8363154  68.9596873  14.6059407
  85.3597555  69.2059169  15.3685716  84.6175487  69.7916908  14.1862544
  80.2330435  71.2300547   2.4730532  79.9043141  70.3497926   2.2905638
  80.5869805  71.1748216   3.3606921  86.0415699  69.9010568  12.2909077
  85.7012519  69.1018381  12.6929757  85.3354705  70.2012279  11.7185911
  86.6932171  66.9859880  10.7436401  87.5158240  66.5120359  10.6215291
  86.9370234  67.7650364  11.2435087  84.2170749  73.6779001   8.5528379
  84.0715330  73.9919304   9.4452661  83.7395953  74.2963901   7.9999278
  86.0767132  70.6681549   8.6009269  86.0628701  69.7722642   8.2641567
  86.7939560  70.6752213   9.2347555  87.9293263  71.1018889  10.6462396
  87.6711041  72.0235960  10.6446727  87.3978303  70.7049324  11.3362860
  78.6916411  76.2184345  11.4916040  78.1469880  76.9944153  11.6236315
  79.5695761  76.5655150  11.3335162  85.4804028  69.5495929   3.8696839
  85.6019939  68.6212575   4.0687726  85.1906070  69.5634615   2.9575154
  88.3495219  67.2350840   7.0063559  88.3716915  67.2990173   6.0515538
  88.7663278  66.3955348   7.2004065  79.4782433  75.3454242  14.3846197
  78.7364169  75.4936877  14.9710828  79.1575178  75.6062507  13.5212947
  87.4226096  84.8870220  14.1826587  87.7313222  84.6419367  15.0549287
  88.2201578  85.0916858  13.6945457  78.1247652  81.1505997   7.3745525
  77.2879560  80.7228171   7.1929527  78.0971297  81.3438440   8.3116317
  84.9645108  71.0627927  18.0786771  85.0133263  71.9390049  17.6964541
  85.5067622  70.5205320  17.5058415  95.4499953  81.6069050  17.3587909
  94.6595497  81.5893189  16.8192408  95.2133308  82.1457344  18.1136945
  95.5697828  78.4561516  14.6720637  95.6195833  78.2911524  15.6136160
  95.4611752  77.5888775  14.2818518  92.8601591  74.4392444  15.9879944
  93.7611454  74.2998909  15.6963942  92.9349565  74.6046899  16.9278121
  87.1944396  71.8159299  14.8333130  86.3247706  72.1092865  14.5615719
  87.4303876  72.3999744  15.5540394  97.0716025  80.8758458  14.9162659
  96.7800834  81.2388438  15.7526120  96.4588156  80.1625466  14.7375991
  95.3203213  75.9991072  13.3842717  95.7957335  76.1918719  12.5761568
  94.3968779  76.0550258  13.1386100  89.8983430  68.0338916  12.3498550
  90.4165374  68.7699943  12.0245039  89.5438563  68.3402909  13.1845310
  90.1496024  64.4539199   7.8699447  90.4297778  63.7862388   8.4959874
  90.9346631  64.6468294   7.3574111  94.0204882  72.8756832  11.6171022
  94.9722305  72.9754930  11.6383246  93.8508333  72.0835101  12.1269107
  92.0419262  69.9612416  11.8030423  91.4469194  70.2417428  11.1076912
  91.7568959  70.4506317  12.5747164  96.6487449  72.8873996  10.7771605
  96.1326497  72.1032452  10.5901534  97.5327397  72.5592712  10.9418124
  94.3098176  66.6315011   6.7367418  94.1122997  66.3230099   7.6210750
  94.9197881  67.3576650   6.8665348  88.2214984  79.0176751  18.2341183
  89.1417993  79.1955350  18.4281229  88.1864567  78.0732797  18.0820882
  77.4397149  74.2115345   7.1594457  77.1199933  73.3580653   6.8668831
  76.8930577  74.4263923   7.9152425  81.2177056  76.9277786  10.8763964
  81.4363066  77.8594894  10.8951998  81.6302830  76.5685760  11.6618768
  88.1381274  67.4345871   2.8639652  87.3282002  67.0892956   3.2394898
  88.8265691  67.1253415   3.4527264  90.0671822  66.5123918   4.4863949
  90.6202861  66.9319371   5.1453972  90.3041909  65.5859666   4.5286905
  86.0904921  72.5010992  20.2666713  85.9901648  73.4505349  20.1978804
  85.8726464  72.1729231  19.3942783  77.3085409  77.8318256   9.1287579
  76.6148880  77.4172209   8.6157533  78.0558400  77.8738793   8.5320998
  91.8954196  68.0229501   6.1963934  92.3953974  68.1346035   5.3878252
  92.5389804  67.7190554   6.8364742  85.9536192  75.9308131  19.0831775
  85.4703273  76.7308491  19.2895664  86.0397131  75.9416075  18.1299219
  79.2222151  77.7636510   7.0053594  79.1992839  77.8624198   6.0535477
  79.5322788  78.6101661   7.3270760  81.8809529  79.8212665  11.1200208
  82.8352783  79.7896608  11.0530140  81.6822053  79.3603289  11.9350434
  82.4708911  78.3913781  13.6871006  83.2901800  78.8857860  13.7105843
  82.7445719  77.4745749  13.6588574  77.7243825  72.7251915  14.3863203
  78.3702689  72.2150869  14.8750428  77.5160977  73.4620597  14.9606628
  90.2497218  79.7932763  19.8855344  91.1188377  79.9673415  19.5241979
  89.7703969  80.6127179  19.7631073  84.4183398  86.9129864  11.5644777
  85.3210645  86.9453474  11.8811272  84.1920768  85.9830315  11.5791113
  90.0599555  63.5834736   4.3933036  89.2931951  63.0293223   4.5389718
  90.4710260  63.6556605   5.2547188  82.0641316  69.8719532  18.4838217
  82.9272778  69.5156337  18.6941542  81.4906727  69.5333427  19.1713622
  94.6222817  83.2800249  19.4768189  94.2289763  82.7266447  20.1515833
  95.4388958  83.5910827  19.8674706  97.5390778  84.6958128  17.0688445
  98.2800492  85.2965281  16.9892908  97.7708701  83.9535766  16.5106488
  92.5670805  87.0701938  16.4172852  93.1942844  86.6879016  17.0310376
  91.7098724  86.8516140  16.7828544  95.8038862  86.3919844  18.0786771
  95.8527018  87.2681967  17.6964541  96.3461376  85.8497237  17.5058415
  96.9298676  87.8302909  20.2666713  96.8295403  88.7797266  20.1978804
  96.7120218  87.5021148  19.3942783  88.5637580  88.0543833  14.3863203
  89.2096444  87.5442787  14.8750428  88.3554731  88.7912514  14.9606628
  92.9035071  85.2011450  18.4838217  93.7666532  84.8448255  18.6941542
  92.3300482  84.8625345  19.1713622  71.9631977  28.7936366   2.1708084
  71.9044523  28.1095586   1.5038667  72.3651496  29.5355356   1.7188710
  70.4483651  28.4951283   4.7471894  70.9923555  29.1081241   4.2526849
  69.8670496  29.0530861   5.2638907  73.7712446  27.9547337   4.0833215
  72.9807989  27.9371476   3.5437715  73.5345800  28.4935631   4.8382252
  75.3928517  27.2236745   1.6407965  75.1013326  27.5866726   2.4771426
  74.7800649  26.5103753   1.4621297  68.5709710  26.1411050   6.6100650
  69.4400870  26.3151702   6.2487285  68.0916461  26.9605467   6.4876380
  80.2302186  37.8499676  -3.9854075  80.8680596  37.7306423  -4.6890735
  80.1123029  38.7980520  -3.9266123  77.0391892  37.8027104  -4.0492550
  76.7010403  37.6868169  -4.9372015  77.9081660  37.4018269  -4.0691544
  77.5211675  38.9561956   1.9093655  77.5100316  38.5614754   1.0374159
  77.6832314  38.2228028   2.5027427  70.4443140  41.1513772  -5.2211439
  71.2364431  40.8104597  -5.6365140  70.6839790  41.2608747  -4.3009286
  74.2418936  41.7399067   0.8572839  73.9508802  42.6444698   0.7419505
  74.8775920  41.7815595   1.5716909  75.1675143  39.1175916  -2.5525801
  75.7638715  38.8931938  -3.2668838  75.2250114  38.3760661  -1.9500353
  82.7077302  29.2247937  -1.5473280  82.3760626  30.0943348  -1.7712065
  82.1122915  28.9084221  -0.8679249  79.2008821  41.4260483  -2.1477367
  78.9009544  42.3285522  -2.2561560  78.8559881  41.1592666  -1.2956214
  82.6005965  33.9443023  -4.4679930  81.6922842  33.8758432  -4.7621169
  82.5493561  34.4214968  -3.6398104  74.1829601  48.1904803  -9.1806399
  74.1053631  49.1412628  -9.1017919  73.5791245  47.8450676  -8.5231473
  76.6746831  35.3632669   3.4754967  75.8980165  35.9226589   3.4657832
  77.3137394  35.8489452   3.9969838  74.9293203  38.1718122   3.0372934
  75.6707887  38.7103166   2.7607758  74.2230188  38.7984411   3.1944486
  80.4048543  40.3147263   1.6345096  80.8131899  39.8729673   0.8899728
  79.6825804  39.7399890   1.8879289  76.7579613  35.2519869  -0.9921347
  77.6040808  35.6759283  -0.8486698  76.6978250  34.5953494  -0.2982784
  80.7277357  40.8748453  -4.6102615  80.0986220  41.0394167  -5.3126547
  80.3403019  41.2890063  -3.8391651  84.6066589  41.8102891  -7.2558251
  83.9217627  42.1901792  -7.8061218  84.6910438  42.4198218  -6.5226304
  79.9079058  32.9124238   0.6659827  79.6639990  33.6666298   0.1294102
  80.1838989  33.2909585   1.5007074  81.8617521  39.4562850  -0.6562908
  82.0734416  40.0994610  -1.3328527  81.8147269  38.6225167  -1.1240978
  73.1729400  40.1594343  -4.4072767  73.7430757  40.5881611  -5.0455282
  73.7637512  39.8776928  -3.7088581  73.6654567  35.3257770   3.8388244
  73.0353227  36.0074051   4.0723641  73.5590655  35.2140852   2.8941383
  82.9763349  42.3334806  -2.4840551  83.7980792  41.9314993  -2.7657869
  82.9725752  42.2303040  -1.5324435  76.7419952  41.8818849  -0.3279840
  76.8064385  42.3439256   0.5078332  76.0330876  41.2516214  -0.1997530
  72.9435309  29.6278536   6.2013496  72.5502255  29.0744735   6.8761140
  73.7601450  29.9389115   6.5920013  71.7192252  44.1828151  -7.8050181
  71.8958880  45.1046115  -7.9929198  72.5149085  43.8686570  -7.3755802
  75.8603270  31.0436415   3.7933752  76.6012984  31.6443568   3.7138215
  76.0921193  30.3014053   3.2351795  71.0044608  36.2292783   2.0711982
  70.8898124  35.3278040   2.3719081  70.1489126  36.4756479   1.7196798
  78.0836446  44.1710523   3.6699482  77.6400300  43.3846901   3.3520387
  78.7453660  44.3589673   3.0043373  72.8423567  45.7006324  -1.8039839
  73.3930993  45.5723388  -2.5762845  72.0035043  46.0001213  -2.1544946
  80.1817684  44.4513323   1.6980884  80.1636160  45.2722204   1.2061153
  81.1037604  44.3267398   1.9231025  76.6390738  41.9657452   2.5404392
  77.1719075  41.2045740   2.3103700  76.1104820  41.6731104   3.2828546
  82.9836297  39.2892465  -4.8309750  82.3259972  39.9791727  -4.7429621
  83.7876696  39.6788897  -4.4875763  78.2722587  35.1186293  -4.5347467
  77.3545148  35.3401240  -4.6925779  78.6882730  35.1932604  -5.3935760
  82.5603552  42.6242839  -8.6526665  82.1065879  41.7833749  -8.5961475
  81.9297519  43.2604238  -8.3151885  81.0036491  44.4619336  -7.7176847
  81.2959466  45.0224393  -8.4364482  81.5135112  44.7547897  -6.9623688
  75.9670117  45.2399687  -6.6283394  75.9246295  45.4660533  -7.5574862
  76.8832815  45.0063062  -6.4797593  79.4135750  35.7083755   0.2697235
  79.7685138  35.9355228   1.1291701  80.0607882  36.0402131  -0.3525509
  85.1702867  40.8978718  -4.0142164  85.6039374  40.8054007  -3.1659110
  85.8834448  40.8736218  -4.6522148  78.9030762  44.4980812  -2.4809064
  78.9567784  45.0671748  -1.7131348  78.0345543  44.6682697  -2.8455026
  71.7829155  34.1998368  -0.9984612  72.4552209  33.9915730  -1.6471963
  70.9558942  34.0020454  -1.4379380  86.0318417  40.9402418  -1.4809279
  86.2254307  41.8448229  -1.2350004  85.9319035  40.4809837  -0.6470694
  77.6854727  30.8260309   1.0181049  77.0382642  31.5250258   0.9245525
  78.4555743  31.2596453   1.3857297  81.0933525  41.0909161   4.0931602
  80.9419032  40.8619713   3.1761686  81.0838205  42.0479762   4.1062947
  77.8618862  38.6641074  -0.9222132  78.7910922  38.8152233  -1.0953164
  77.4409892  38.7525094  -1.7773485  76.6607193  42.6891738  -3.1523594
  76.5218279  42.3210523  -2.2797656  75.8721790  43.2039378  -3.3239636
  77.2555345  47.7900835 -11.8098058  77.4307101  47.3188878 -10.9952435
  76.5688133  48.4166601 -11.5816797  78.2112409  42.0673341  -5.7634756
  77.8762241  42.0274111  -4.8677106  77.7116354  41.4018057  -6.2364346
  72.1856652  37.4740971  -0.2382175  72.0476450  36.7421210   0.3629364
  73.0961576  37.3849871  -0.5197987  74.8138953  37.1860930  -0.7498496
  75.5238572  36.5454122  -0.7911877  74.7708261  37.4373825   0.1727685
  82.8025732  44.1228283   2.1708084  82.7438278  43.4387504   1.5038667
  83.2045250  44.8647273   1.7188710  73.5267887  34.1726148   1.0697144
  72.9905244  33.7216886   1.7218740  72.9384596  34.3072057   0.3267608
  71.8216431  50.9390197  -5.0358197  72.0613029  51.5708721  -4.3579179
  70.9785627  50.5878237  -4.7492838  82.8043139  42.0867867   0.4022063
  81.9169918  41.7493789   0.5248462  83.3741690  41.3550899   0.6390829
  76.3344292  46.7469320  -2.6316693  76.2614464  47.5524291  -2.1197389
  75.8921686  46.9461286  -3.4568672  76.1234072  45.9841090  -9.1213872
  75.3401594  46.5262770  -9.0275647  76.8226817  46.5015069  -8.7219631
  78.7942976  46.6456154  -0.4758535  79.5070948  47.2803619  -0.5482633
  78.3033005  46.7420020  -1.2918533  73.8454890  44.3950597   0.3447036
  74.5464349  45.0287080   0.4976430  73.3750005  44.7365329  -0.4157325
  81.6456176  36.9495205  -1.8300414  80.9927626  37.1971112  -2.4847961
  82.0236555  36.1359343  -2.1637936  78.6063349  46.9854898  -7.7272243
  78.7885744  46.1676554  -7.2644491  79.4296335  47.2022590  -8.1647353
  78.9405515  45.9123083 -10.4657195  79.4693281  45.4015538 -11.0787033
  79.2033734  45.5965613  -9.6011662  77.6943749  37.6915016   4.6565623
  77.0184386  37.5909145   5.3267999  78.5171382  37.5354230   5.1201621
  69.4422608  43.9286952  -2.7221861  70.0276044  43.1830640  -2.5893957
  69.2447446  44.2390909  -1.8385197  72.2961263  46.9638200  -7.7059419
  71.6271638  47.4484327  -8.1895379  72.1574133  47.2107420  -6.7916040
  76.4366531  48.9981943  -1.1076761  76.9884839  49.1613565  -0.3427675
  76.7772725  49.5886381  -1.7796736  70.8883297  33.4180226   3.1418158
  71.5155336  33.0357303   3.7555683  70.0311216  33.1994428   3.5073851
  81.2877406  43.8243201   4.7471894  81.8317310  44.4373159   4.2526849
  80.7064251  44.3822779   5.2638907  79.5734919  46.9463919  -4.1213078
  79.4486058  46.1453659  -4.6302133  80.2314010  47.4410112  -4.6099108
  81.6369827  44.7472939  -2.4933528  80.6900163  44.6278290  -2.5655202
  81.9852600  43.8595437  -2.4107267  73.9969400  30.6367078   1.3304714
  74.5203802  30.8829374   2.0931023  73.7781734  31.4687113   0.9107851
  78.6416260  44.5425655  -6.2929176  78.4941223  43.6142362  -6.1121606
  79.4669754  44.5645746  -6.7772101  82.2450382  45.3654214  -5.2064303
  83.1696930  45.1597075  -5.3439852  82.0765686  45.1170615  -4.2974962
  75.2021945  31.5780773  -0.9845616  74.8618766  30.7788586  -0.5824936
  74.4960952  31.8782484  -1.5568783  77.0899510  32.7789094  -2.6292297
  76.8317287  33.7006165  -2.6307967  76.5584550  32.3819529  -1.9391833
  82.0345698  45.8839881  -9.8502212  82.2082576  45.3186304 -10.6028359
  82.5274590  46.6840776 -10.0322722  67.8522658  37.8954550  -1.7838653
  67.3076126  38.6714358  -1.6518379  68.7302008  38.2425355  -1.9419532
  68.6388680  37.0224447   1.1091504  67.8970416  37.1707082   1.6956134
  68.3181424  37.2832712   0.2458253  76.5832343  46.5640425   0.9071894
  76.8919469  46.3189572   1.7794593  77.3807825  46.7687063   0.4190764
  76.6052955  48.7178334  -6.8622730  76.1657945  48.2254713  -6.1689873
  77.3561072  48.1751302  -7.1030654  69.0845294  44.9089875  -6.8598102
  69.9103314  44.6093647  -7.2399458  68.7339346  44.1397498  -6.4108313
  74.0526827  44.2616344  -4.7900428  73.4306836  43.5987049  -5.0898200
  74.7231694  44.2877475  -5.4726780  74.1251354  32.7398132   4.8032078
  74.1739510  33.6160254   4.4209848  74.6673869  32.1975525   4.2303721
  84.6106200  43.2839255   4.0833215  83.8201744  43.2663394   3.5437715
  84.3739555  43.8227549   4.8382252  84.7304075  40.1331721   1.3965944
  84.7802080  39.9681729   2.3381466  84.6217998  39.2658980   1.0063824
  82.0207838  36.1162649   2.7125250  82.9217700  35.9769114   2.4209248
  82.0955812  36.2817104   3.6523428  76.3550643  33.4929504   1.5578437
  75.4853952  33.7863070   1.2861025  76.5910123  34.0769949   2.2785700
  86.2322272  42.5528663   1.6407965  85.9407080  42.9158643   2.4771426
  85.6194403  41.8395671   1.4621297  84.4809460  37.6761277   0.1088023
  84.9563582  37.8688924  -0.6993125  83.5575026  37.7320463  -0.1368593
  79.0589677  29.7109121  -0.9256143  79.5771621  30.4470148  -1.2509654
  78.7044809  30.0173114  -0.0909384  83.1811129  34.5527037  -1.6583671
  84.1328552  34.6525135  -1.6371447  83.0114580  33.7605306  -1.1485587
  81.2025509  31.6382621  -1.4724270  80.6075441  31.9187633  -2.1677782
  80.9175205  32.1276522  -0.7007529  85.6599207  37.7733157  -2.5441372
  85.6275527  36.8349158  -2.3581688  86.2699831  37.8517194  -3.2775547
  77.3821230  40.6946956   4.9586489  78.3024240  40.8725555   5.1526536
  77.3470813  39.7503002   4.8066189  70.3783303  38.6047991  -2.3990729
  70.5969313  39.5365099  -2.3802696  70.7909077  38.2455965  -1.6135926
  75.2511168  34.1781197   6.9912020  75.1507895  35.1275554   6.9224111
  75.0332710  33.8499436   6.1188090  75.1142438  37.6078335   5.8077081
  74.6309520  38.4078696   6.0140970  75.2003377  37.6186280   4.8544525
  71.0415776  41.4982870  -2.1554485  71.9959029  41.4666813  -2.2224553
  70.8428299  41.0373494  -1.3404259  71.6315158  40.0683986   0.4116313
  72.4508047  40.5628065   0.4351150  71.9051966  39.1515954   0.3833880
  69.3966005  47.0402490  -5.1384287  69.2620473  46.2802891  -5.7046289
  68.9798067  47.7643390  -5.6055498  72.5535130  47.9371807  -4.9265844
  72.4367515  48.8817239  -5.0287154  71.7327577  47.6345368  -4.5380045
  66.8850072  34.4022120   1.1108510  67.5308936  33.8921074   1.5995735
  66.6767223  35.1390802   1.6851935  79.4103464  41.4702968   6.6100650
  80.2794624  41.6443620   6.2487285  78.9310216  42.2897384   6.4876380
  73.5789645  48.5900069  -1.7109916  74.4816891  48.6223679  -1.3943421
  73.3527015  47.6600520  -1.6963580  75.3343247  47.3431055  -5.0499837
  74.3838878  47.3432917  -5.1635465  75.6375733  46.5963790  -5.5663803
  71.2247563  31.5489737   5.2083524  72.0879025  31.1926542   5.4186849
  70.6512974  31.2103632   5.8958928  91.0695940  53.1791594  -3.9854075
  91.7074350  53.0598341  -4.6890735  90.9516783  54.1272437  -3.9266123
  87.8785646  53.1319022  -4.0492550  87.5404158  53.0160086  -4.9372015
  88.7475415  52.7310187  -4.0691544  88.3605429  54.2853873   1.9093655
  88.3494070  53.8906672   1.0374159  88.5226069  53.5519946   2.5027427
  81.2836894  56.4805690  -5.2211439  82.0758186  56.1396514  -5.6365140
  81.5233544  56.5900665  -4.3009286  85.0812691  57.0690985   0.8572839
  84.7902556  57.9736616   0.7419505  85.7169675  57.1107513   1.5716909
  86.0068897  54.4467834  -2.5525801  86.6032470  54.2223856  -3.2668838
  86.0643869  53.7052579  -1.9500353  93.5471056  44.5539855  -1.5473280
  93.2154381  45.4235266  -1.7712065  92.9516669  44.2376139  -0.8679249
  90.0402576  56.7552401  -2.1477367  89.7403299  57.6577439  -2.2561560
  89.6953635  56.4884584  -1.2956214  83.4915057  53.2066198  -6.1140663
  82.5665554  53.0742412  -5.9062971  83.7399470  53.9860417  -5.6170720
  93.4399719  49.2734941  -4.4679930  92.5316597  49.2050349  -4.7621169
  93.3887315  49.7506886  -3.6398104  80.8523868  52.8499471  -5.2796874
  80.9816249  53.1033950  -4.3657462  80.1721319  53.4427179  -5.5992219
  87.5140585  50.6924586   3.4754967  86.7373919  51.2518507   3.4657832
  88.1531148  51.1781369   3.9969838  85.7686957  53.5010040   3.0372934
  86.5101642  54.0395084   2.7607758  85.0623943  54.1276329   3.1944486
  91.2442297  55.6439180   1.6345096  91.6525653  55.2021591   0.8899728
  90.5219559  55.0691808   1.8879289  87.5973367  50.5811787  -0.9921347
  88.4434562  51.0051201  -0.8486698  87.5372005  49.9245411  -0.2982784
  90.7472812  48.2416155   0.6659827  90.5033744  48.9958216   0.1294102
  91.0232743  48.6201503   1.5007074  92.7011275  54.7854768  -0.6562908
  92.9128171  55.4286528  -1.3328527  92.6541024  53.9517084  -1.1240978
  90.3037504  47.3972588  -3.7526336  89.4421983  47.6953842  -3.4609598
  90.3299939  47.6142987  -4.6845303  84.0123155  55.4886261  -4.4072767
  84.5824512  55.9173529  -5.0455282  84.6031267  55.2068845  -3.7088581
  84.5048321  50.6549688   3.8388244  83.8746982  51.3365969   4.0723641
  84.3984409  50.5432770   2.8941383  79.7993294  50.3221484  -5.2345831
  79.0092348  50.5779013  -5.7105721  80.2904541  51.1369822  -5.1293791
  81.7508039  50.6866063  -8.2762355  80.9539202  50.7984758  -7.7578859
  81.5233631  51.0252715  -9.1421464  87.5813707  57.2110766  -0.3279840
  87.6458139  57.6731174   0.5078332  86.8724631  56.5808131  -0.1997530
  78.0830997  50.5751974  -2.8030841  78.3339035  51.4598984  -2.5373265
  78.6190545  50.3956576  -3.5755749  83.7829064  44.9570454   6.2013496
  83.3896010  44.4036652   6.8761140  84.5995204  45.2681032   6.5920013
  86.6997025  46.3728333   3.7933752  87.4406738  46.9735486   3.7138215
  86.9314948  45.6305971   3.2351795  81.8438363  51.5584700   2.0711982
  81.7291878  50.6569957   2.3719081  80.9882881  51.8048397   1.7196798
  88.9230201  59.5002440   3.6699482  88.4794055  58.7138819   3.3520387
  89.5847414  59.6881591   3.0043373  83.6817322  61.0298242  -1.8039839
  84.2324747  60.9015305  -2.5762845  82.8428798  61.3293131  -2.1544946
  91.0211439  59.7805240   1.6980884  91.0029914  60.6014121   1.2061153
  91.9431359  59.6559316   1.9231025  87.4784493  57.2949370   2.5404392
  88.0112830  56.5337658   2.3103700  86.9498574  57.0023022   3.2828546
  89.7250728  44.7714091  -3.9652733  89.2215524  44.7344226  -4.7784928
  90.0181335  45.6806834  -3.9056076  85.9693614  44.8552821  -4.9586551
  86.8346611  44.6595629  -5.3180662  86.0371123  44.6263172  -4.0317195
  83.5755933  47.0855029  -7.5870184  84.1499685  46.8630210  -8.3196992
  84.1626916  47.1543723  -6.8341583  89.1116341  50.4478211  -4.5347467
  88.1938903  50.6693158  -4.6925779  89.5276485  50.5224522  -5.3935760
  78.7366210  52.0633682  -8.4402631  78.5390609  51.4703042  -9.1651564
  78.1812874  51.7585892  -7.7226692  86.7162933  51.9556788  -6.3208037
  86.7711543  51.0030625  -6.3965561  85.9054135  52.1116227  -5.8366739
  84.6555293  50.5733848  -8.5617659  83.8423159  50.8728018  -8.1552466
  85.1514287  50.1789537  -7.8443176  90.2529505  51.0375672   0.2697235
  90.6078893  51.2647145   1.1291701  90.9001636  51.3694049  -0.3525509
  84.1469368  48.1452203  -2.9456424  84.7868747  48.0040962  -3.6433460
  83.3146899  47.8586717  -3.3217822  81.1497984  48.1152528  -8.1683437
  81.4104802  49.0297862  -8.2774276  81.9715157  47.6476971  -8.0186824
  82.6222910  49.5290286  -0.9984612  83.2945963  49.3207648  -1.6471963
  81.7952696  49.3312372  -1.4379380  88.5248482  46.1552226   1.0181049
  87.8776397  46.8542176   0.9245525  89.2949497  46.5888370   1.3857297
  91.9327280  56.4201079   4.0931602  91.7812786  56.1911630   3.1761686
  91.9231959  57.3771680   4.1062947  88.7012616  53.9932991  -0.9222132
  89.6304676  54.1444151  -1.0953164  88.2803646  54.0817012  -1.7773485
  87.5000948  58.0183656  -3.1523594  87.3612034  57.6502440  -2.2797656
  86.7115544  58.5331295  -3.3239636  83.0250407  52.8032889  -0.2382175
  82.8870205  52.0713127   0.3629364  83.9355330  52.7141789  -0.5197987
  85.6532708  52.5152848  -0.7498496  86.3632326  51.8746040  -0.7911877
  85.6102016  52.7665743   0.1727685  93.6419486  59.4520201   2.1708084
  93.5832032  58.7679421   1.5038667  94.0439005  60.1939191   1.7188710
  84.3661642  49.5018066   1.0697144  83.8298999  49.0508804   1.7218740
  83.7778350  49.6363975   0.3267608  93.6436894  57.4159785   0.4022063
  92.7563672  57.0785707   0.5248462  94.2135445  56.6842816   0.6390829
  75.2966041  53.7483877  -6.2734885  75.9837081  53.4345607  -6.8613870
  75.1414169  54.6525241  -6.5467634  80.1000763  48.6374073  -1.8449862
  80.0158952  48.0299743  -2.5799452  79.2783469  49.1283092  -1.8440365
  86.8559445  49.2645020  -6.7507982  86.4857233  48.7116060  -6.0627076
  87.3518538  48.6603153  -7.3032982  84.6848644  59.7242515   0.3447036
  85.3858104  60.3578998   0.4976430  84.2143759  60.0657246  -0.4157325
  92.4849930  52.2787122  -1.8300414  91.8321380  52.5263030  -2.4847961
  92.8630310  51.4651261  -2.1637936  88.5337503  53.0206933   4.6565623
  87.8578140  52.9201063   5.3267999  89.3565137  52.8646147   5.1201621
  80.2816362  59.2578870  -2.7221861  80.8669799  58.5122558  -2.5893957
  80.0841201  59.5682827  -1.8385197  74.8734017  51.8284470  -4.0017418
  74.9118116  51.2948061  -3.2080300  74.3674310  51.3019676  -4.6206441
  82.2524779  46.6749011  -0.5054876  82.3166106  47.5363842  -0.9177478
  82.1891899  46.0623012  -1.2382517  81.7277052  48.7472143   3.1418158
  82.3549090  48.3649221   3.7555683  80.8704971  48.5286345   3.5073851
  92.1271160  59.1535118   4.7471894  92.6711064  59.7665077   4.2526849
  91.5458005  59.7114697   5.2638907  78.5042594  50.5548572 -10.9263487
  78.7996035  49.6459251 -10.9796433  77.6030630  50.5336312 -11.2482484
  82.0336841  48.6304569  -4.9435938  81.3123427  49.2440537  -5.0828465
  82.8230097  49.1662334  -5.0219292  84.8363155  45.9658995   1.3304714
  85.3597557  46.2121292   2.0931023  84.6175488  46.7979030   0.9107851
  80.2330436  48.2362670 -10.8024162  79.9043142  47.3560049 -10.9849056
  80.5869807  48.1810339  -9.9147772  86.0415700  46.9072691  -0.9845616
  85.7012520  46.1080504  -0.5824936  85.3354706  47.2074401  -1.5568783
  86.6932172  43.9922003  -2.5318293  87.5158241  43.5182481  -2.6539403
  86.9370235  44.7712487  -2.0319607  84.2170751  50.6841124  -4.7226314
  84.0715331  50.9981427  -3.8302033  83.7395954  51.3026024  -5.2755416
  86.0767133  47.6743672  -4.6745425  86.0628702  46.7784765  -5.0113127
  86.7939562  47.6814335  -4.0407139  87.9293264  48.1081012  -2.6292297
  87.6711042  49.0298082  -2.6307967  87.3978305  47.7111446  -1.9391833
  78.6916413  53.2246468  -1.7838653  78.1469881  54.0006276  -1.6518379
  79.5695763  53.5717272  -1.9419532  79.4782435  52.3516364   1.1091504
  78.7364171  52.4999000   1.6956134  79.1575179  52.6124630   0.2458253
  87.4226097  61.8932342   0.9071894  87.7313224  61.6481489   1.7794593
  88.2201579  62.0978981   0.4190764  78.1247653  58.1568119  -5.9009168
  77.2879562  57.7290294  -6.0825167  78.0971299  58.3500563  -4.9638377
  84.9645109  48.0690049   4.8032078  85.0133264  48.9452172   4.4209848
  85.5067623  47.5267442   4.2303721  95.4499955  58.6131172   4.0833215
  94.6595498  58.5955311   3.5437715  95.2133309  59.1519466   4.8382252
  95.5697830  55.4623639   1.3965944  95.6195835  55.2973646   2.3381466
  95.4611753  54.5950898   1.0063824  92.8601592  51.4454567   2.7125250
  93.7611455  51.3061032   2.4209248  92.9349567  51.6109022   3.6523428
  87.1944397  48.8221422   1.5578437  86.3247707  49.1154988   1.2861025
  87.4303878  49.4061867   2.2785700  97.0716026  57.8820580   1.6407965
  96.7800835  58.2450561   2.4771426  96.4588158  57.1687589   1.4621297
  95.3203215  53.0053195   0.1088023  95.7957336  53.1980841  -0.6993125
  94.3968780  53.0612381  -0.1368593  89.8983431  45.0401039  -0.9256143
  90.4165375  45.7762065  -1.2509654  89.5438564  45.3465032  -0.0909384
  94.0204884  49.8818955  -1.6583671  94.9722307  49.9817053  -1.6371447
  93.8508334  49.0897224  -1.1485587  92.0419263  46.9674538  -1.4724270
  91.4469195  47.2479551  -2.1677782  91.7568960  47.4568439  -0.7007529
  88.2214985  56.0238874   4.9586489  89.1417994  56.2017473   5.1526536
  88.1864568  55.0794919   4.8066189  77.4397150  51.2177468  -6.1160236
  77.1199934  50.3642776  -6.4085862  76.8930578  51.4326046  -5.3602269
  81.2177057  53.9339909  -2.3990729  81.4363067  54.8657016  -2.3802696
  81.6302831  53.5747883  -1.6135926  86.0904923  49.5073114   6.9912020
  85.9901650  50.4567471   6.9224111  85.8726465  49.1791353   6.1188090
  77.3085410  54.8380379  -4.1467114  76.6148881  54.4234332  -4.6597160
  78.0558401  54.8800916  -4.7433695  85.9536193  52.9370253   5.8077081
  85.4703275  53.7370613   6.0140970  86.0397132  52.9478198   4.8544525
  79.2222152  54.7698633  -6.2701099  79.1992841  54.8686320  -7.2219216
  79.5322789  55.6163784  -5.9483933  81.8809530  56.8274788  -2.1554485
  82.8352784  56.7958730  -2.2224553  81.6822054  56.3665412  -1.3404259
  82.4708912  55.3975904   0.4116313  83.2901801  55.8919983   0.4351150
  82.7445720  54.4807872   0.3833880  77.7243827  49.7314038   1.1108510
  78.3702690  49.2212992   1.5995735  77.5160978  50.4682719   1.6851935
  90.2497219  56.7994885   6.6100650  91.1188378  56.9735538   6.2487285
  89.7703970  57.6189302   6.4876380  84.4183399  63.9191986  -1.7109916
  85.3210646  63.9515597  -1.3943421  84.1920769  62.9892437  -1.6963580
  82.0641318  46.8781655   5.2083524  82.9272779  46.5218460   5.4186849
  81.4906728  46.5395550   5.8958928  94.6222818  60.2862371   6.2013496
  94.2289764  59.7328570   6.8761140  95.4388959  60.5972950   6.5920013
  97.5390779  61.7020251   3.7933752  98.2800493  62.3027404   3.7138215
  97.7708702  60.9597888   3.2351795  92.5670806  64.0764061   3.1418158
  93.1942845  63.6941138   3.7555683  91.7098725  63.8578263   3.5073851
  95.8038863  63.3981967   4.8032078  95.8527019  64.2744090   4.4209848
  96.3461378  62.8559360   4.2303721  96.9298677  64.8365032   6.9912020
  96.8295404  65.7859389   6.9224111  96.7120219  64.5083271   6.1188090
  88.5637581  65.0605955   1.1108510  89.2096445  64.5504909   1.5995735
  88.3554732  65.7974637   1.6851935  92.9035072  62.2073573   5.2083524
  93.7666534  61.8510377   5.4186849  92.3300483  61.8687467   5.8958928
   4.3519298  99.9941230  73.5172578   3.5983007  99.4248628  73.3616582
   4.4866840  99.9603895  74.4643213   0.7167911 101.4349219  73.8138693
   1.5514802 101.8739023  73.9776253   0.8527040 100.9587872  72.9946938
   4.7625713 100.1516840  76.2492822   5.4929102  99.8902128  76.8100526
   4.1532659  99.4145562  76.2894890   2.8441011  98.2924703  76.8467274
   2.1174174  98.1580668  76.2383765   2.4288297  98.6001531  77.6523992
   0.4618805  94.5136555  74.2000705   1.0563296  94.2732291  73.4894013
   0.5345389  93.7943685  74.8274241   2.7689878  97.8202756  72.9744126
   2.2089436  97.8895945  73.7475688   2.1633382  97.6443740  72.2543623
   3.9304144 103.7177112  77.7226191   3.5868414 104.6078754  77.6465301
   4.2983107 103.5278770  76.8595776   5.7291810 102.9770671  72.8243929
   6.0350687 102.1168035  72.5369844   6.4544415 103.5688291  72.6242922
   3.4345982 102.7768997  74.2472911   3.7147736 102.1092186  74.8733337
   4.2196589 102.9698093  73.7347575   7.5948133 104.9544810  73.1140881
   7.3972955 104.6459898  73.9984213   8.2047839 105.6806449  73.2438811
   3.3449513 101.9064535  70.7706500   2.5781909 101.3523022  70.9163182
   3.7560218 101.9786404  71.6320651   4.3519300  77.0003353  60.2417885
   3.5983008  76.4310751  60.0861889   4.4866841  76.9666017  61.1888519
   0.7167912  78.4411341  60.5383999   1.5514803  78.8801145  60.7021560
   0.8527041  77.9649994  59.7192245   4.7625715  77.1578963  62.9738129
   5.4929103  76.8964251  63.5345832   4.1532660  76.4207685  63.0140197
   2.8441012  75.2986825  63.5712580   2.1174175  75.1642790  62.9629072
   2.4288299  75.6063654  64.3769298   0.4618807  71.5198677  60.9246012
   1.0563297  71.2794413  60.2139320   0.5345390  70.8005808  61.5519548
   2.7689879  74.8264878  59.6989433   2.2089437  74.8958068  60.4720995
   2.1633383  74.6505863  58.9788929   4.3545898  91.5021392  62.3919389
   4.9924308  91.3828140  61.6882729   4.2366741  92.4502236  62.4507341
   1.1635604  91.4548820  62.3280913   0.8254116  91.3389885  61.4401448
   2.0325372  91.0539985  62.3081920   1.6455387  92.6083672  68.2867119
   1.6344028  92.2136470  67.4147623   1.8076027  91.8749745  68.8800890
   2.6021979  96.9755264  53.6292269   1.9509958  97.5609345  53.2426283
   3.3966341  97.5061459  53.6887307   3.9087166  89.2272846  59.4672597
   4.6950256  88.8092269  59.1163014   4.1725871  90.1318938  59.6354245
   4.0797244  94.6645696  54.1661254   3.4443077  94.7380323  54.8782158
   3.7494650  95.2539295  53.4880333   9.3095594  89.1648079  60.3705575
  10.0420765  88.5947296  60.6043405   8.5534949  88.7769680  60.8112081
   0.9271713  91.5875321  57.5668918   0.5629920  91.0605942  58.2781839
   1.7838829  91.1973790  57.3935403   6.8321014  82.8769653  64.8300184
   6.5004339  83.7465064  64.6061399   6.2366627  82.5605937  65.5094214
   3.3252533  95.0782199  64.2296097   3.0253256  95.9807238  64.1211904
   2.9803593  94.8114383  65.0817249   6.7249677  87.5964739  61.9093534
   5.8166555  87.5280148  61.6152295   6.6737273  88.0736684  62.7375359
   8.5911324  85.7981178  63.6871408   7.9485704  86.0913711  63.0411202
   8.0866252  85.6834098  64.4924605   6.2451487  89.5444351  54.3757267
   7.1569343  89.7771738  54.2004965   5.7361134  90.1281395  53.8132346
   4.5292255  93.9668979  68.0118560   4.9375611  93.5251389  67.2673192
   3.8069516  93.3921606  68.2652753   0.8823325  88.9041586  65.3852117
   1.7284520  89.3280999  65.5286766   0.8221963  88.2475210  66.0790680
   4.8521070  94.5270170  61.7670849   4.2229932  94.6915884  61.0646916
   4.4646732  94.9411779  62.5381813   8.7310301  95.4624607  59.1215212
   8.0461340  95.8423509  58.5712246   8.8154151  96.0719934  59.8547160
   4.0322770  86.5645954  67.0433290   3.7883702  87.3188015  66.5067566
   4.3082701  86.9431302  67.8780537   5.9861233  93.1084566  65.7210556
   6.1978128  93.7516326  65.0444937   5.9390981  92.2746883  65.2532486
   3.5887462  85.7202387  62.6247128   2.7271941  86.0183641  62.9163866
   3.6149897  85.9372786  61.6928161   7.1007061  95.9856522  63.8932913
   7.9224505  95.5836709  63.6115595   7.0969464  95.8824756  64.8449029
  15.1913054  92.3295270  60.2417885  14.4376762  91.7602668  60.0861889
  15.3260595  92.2957935  61.1888519   0.5811682  97.2008673  55.9172604
   0.4457357  98.0460208  56.3457452   1.1221495  97.4027950  55.1538538
   2.2080158  97.8232239  70.0472946   1.7644013  97.0368618  69.7293851
   2.8697372  98.0111390  69.3816837   4.3061397  98.1035039  68.0754347
   4.2879872  98.9243920  67.5834617   5.2281317  97.9789114  68.3004489
   3.9304146  80.7239234  64.4471497   3.5868415  81.6140876  64.3710608
   4.2983108  80.5340892  63.5841082   3.8954428  90.7147846  52.9543933
   3.3801052  91.4852450  53.1932320   3.6231737  90.0412982  53.5776994
   1.4801539  85.5597546  58.0129171   0.6243136  85.1704397  57.8334810
   1.8928491  85.6389507  57.1528956   3.0100686  83.0943890  62.4120731
   2.5065482  83.0574025  61.5988536   3.3031293  84.0036632  62.4717387
   8.8688703  93.4680200  54.8897106   8.0918145  93.1291360  54.4452268
   9.5480184  93.4732823  54.2152071   3.6840732  88.5874938  54.7803714
   3.3790867  88.9021087  55.6313857   4.6371174  88.6656358  54.8231047
   2.1287163  94.7465161  56.4296668   1.6008525  94.0117921  56.1169905
   1.6274666  95.5239837  56.1836636   7.1080009  92.9414181  61.5463714
   6.4503684  93.6313443  61.6343843   7.9120409  93.3310613  61.8897700
   5.9185468  91.2958554  59.5967656   6.4317350  91.9288546  60.0989366
   6.5686692  90.6959750  59.2311016   3.1807842 101.2742878  52.3528327
   2.5069541 101.5774575  52.9613285   3.5673664 102.0771959  52.0033784
   2.3966299  88.7708010  61.8425996   1.4788860  88.9922957  61.6847684
   2.8126443  88.8454320  60.9837704   3.1801347  90.1699425  56.9728677
   3.9273166  90.6820823  56.6635799   3.4492936  89.8483478  57.8333070
   1.4527997  92.6657966  53.9555631   0.5439216  92.3816999  54.0528101
   1.4823081  93.0857045  53.0958938   6.6847264  96.2764556  57.7246798
   6.2309592  95.4355466  57.7811989   6.0541231  96.9125954  58.0621579
   5.6280184  87.2056542  58.9547466   4.8902941  86.6933928  59.2857708
   5.8806958  86.7656923  58.1430743   5.1280204  98.1141052  58.6596617
   5.4203178  98.6746109  57.9408982   5.6378824  98.4069613  59.4149776
   5.7291811  79.9832794  59.5489235   6.0350688  79.1230157  59.2615150
   6.4544416  80.5750414  59.3488229   1.1504085  94.2066710  51.2943709
   0.7123515  93.4902569  50.8349347   1.8914526  94.4342825  50.7328801
   3.5379463  89.3605471  66.6470699   3.8928850  89.5876944  67.5065165
   4.1851594  89.6923848  66.0247954   9.2677200  92.4823907  57.3520028
   9.1295098  92.6725503  56.4241217   8.9113418  93.2443290  57.8088079
   9.2946579  94.5500434  62.3631300   9.7283086  94.4575723  63.2114354
  10.0078160  94.5257934  61.7251316   3.0274474  98.1502528  63.8964400
   3.0811496  98.7193464  64.6642116   2.1589255  98.3204413  63.5318437
  10.1562129  94.5924135  64.8964185  10.3498019  95.4969945  65.1423460
  10.0562747  94.1331554  65.7302770   1.8098440  84.4782025  67.3954512
   1.1626355  85.1771975  67.3018989   2.5799455  84.9118169  67.7630760
   5.2177237  94.7430877  70.4705066   5.0662744  94.5141429  69.5535149
   5.2081917  95.7001479  70.4836411   1.9862574  92.3162790  65.4551332
   2.9154634  92.4673950  65.2820299   1.5653604  92.4046811  64.5999978
   1.3799058 101.4422551  54.5675406   1.5550813 100.9710594  55.3821029
   0.6931846 102.0688317  54.7956667   2.3356121  95.7195057  60.6138707
   2.0005953  95.6795827  61.5096357   1.8360066  95.0539773  60.1409118
   5.2715312  93.0651091  50.8875767   4.6544483  92.3397920  50.7908820
   4.8031801  93.8260452  50.5442841   6.9269444  97.7750000  68.5481547
   6.8681990  97.0909220  67.8812130   7.3288962  98.5168990  68.0962173
   6.9286851  95.7389584  66.7795527   6.0413630  95.4015506  66.9021926
   7.4985402  95.0072615  67.0164292   3.5574435  85.4457436  59.8993797
   4.0543134  84.6927398  59.5794867   2.7861416  85.4821752  59.3337007
  11.4104192  91.1497801  61.5412089  11.3994068  92.0322517  61.1706022
  10.5421571  90.7969352  61.3466626   2.9186688 100.2977870  65.9014929
   3.6314660 100.9325335  65.8290830   2.4276717 100.3941736  65.0854931
   4.6404215  94.2029123  57.4732221   3.7060494  94.3230585  57.3036925
   4.8180884  93.3001590  57.2092230   8.0276767  90.0446442  58.0082255
   8.4937219  90.8774434  57.9342557   8.4784267  89.5791424  58.7127513
   6.0952998  96.3890263  55.0068407   6.3712842  96.2746858  55.9162281
   5.2257496  95.9907748  54.9680580   5.9993429  82.4127029  62.0473156
   5.0856509  82.6431256  62.2155363   6.4286531  82.4965473  62.8987188
   5.7699888  90.6016921  64.5473050   5.1171338  90.8492828  63.8925503
   6.1480268  89.7881059  64.2135527   2.7307062 100.6376614  58.6501220
   2.9129456  99.8198270  59.1128973   3.5540048 100.8544306  58.2126110
   3.0649227  99.5644799  55.9116269   3.5936994  99.0537254  55.2986431
   3.3277447  99.2487330  56.7761802   1.8187461  91.3436732  71.0339087
   1.1428098  91.2430861  71.7041462   2.6415095  91.1875946  71.4975084
   0.5610244 102.6503660  65.2696703   1.1128552 102.8135281  66.0345788
   0.9016437 103.2408097  64.5976728   5.4121118  97.4764917  71.1245358
   5.9561022  98.0894875  70.6300312   4.8307963  98.0344495  71.6412371
   3.6978631 100.5985635  62.2560385   3.5729770  99.7975375  61.7471331
   4.3557722 101.0931828  61.7674355   5.7613539  98.3994655  63.8839935
   4.8143875  98.2800006  63.8118262   6.1096312  97.5117153  63.9666197
   2.7659973  98.1947371  60.0844288   2.6184935  97.2664079  60.2651858
   3.5913466  98.2167462  59.6001363   6.3694094  99.0175930  61.1709160
   7.2940642  98.8118791  61.0333612   6.2009398  98.7692331  62.0798502
   2.7621487  86.0485209  55.0776405   2.9785101  86.9309847  54.7765233
   2.2815554  85.6571422  54.3482047   1.2143222  86.4310810  63.7481166
   0.9561000  87.3527881  63.7465497   0.6828262  86.0341245  64.4381631
   6.1589411  99.5361598  56.5271252   6.3326288  98.9708020  55.7745104
   6.6518302 100.3362492  56.3450742   1.6345178  82.5642761  60.1082329
   1.6566874  82.6282094  59.1534309   2.0513237  81.7247270  60.3022835
  12.0128802  92.2998020  58.1461552  12.4559948  91.5505346  57.7480675
  11.1355312  92.2908157  57.7635284   7.1464583  98.8528362  53.6268150
   7.8415488  99.4735055  53.8455465   7.4887733  98.0023713  53.9020528
   9.0456006  96.3028067  55.1555481   9.5707330  96.6415340  54.4304801
   8.9578359  95.3675083  54.9718616   0.7076055 100.2162141  67.2845358
   1.0163181  99.9711288  68.1568057   1.5051537 100.4208780  66.7964228
   8.7349912  96.9360971  70.4606679   7.9445456  96.9185110  69.9211178
   8.4983267  97.4749265  71.2155715   8.8547787  93.7853438  67.7739407
   8.9045792  93.6203445  68.7154930   8.7461711  92.9180697  67.3837288
   6.1451550  89.7684366  69.0898714   7.0461413  89.6290830  68.7982712
   6.2199524  89.9338820  70.0296892  10.3565984  96.2050379  68.0181429
  10.0650793  96.5680360  68.8544890   9.7438116  95.4917387  67.8394761
  11.5561667  93.7703259  60.5383999  12.3908558  94.2093063  60.7021560
  11.6920795  93.2941912  59.7192245   8.6053173  91.3282994  66.4861487
   9.0807294  91.5210640  65.6780338   7.6818738  91.3842179  66.2404871
   3.1833389  83.3630837  65.4517321   3.7015333  84.0991864  65.1263809
   2.8288522  83.6694831  66.2864080   3.4345983  79.7831120  60.9718217
   3.7147737  79.1154309  61.5978644   4.2196590  79.9760215  60.4592881
   1.2379452  98.9590114  52.5343244   0.6653419  99.5780301  52.0813716
   1.8112245  99.5089475  53.0683166   7.3054842  88.2048754  64.7189793
   8.2572264  88.3046851  64.7402017   7.1358292  87.4127022  65.2287877
   5.3269221  85.2904337  64.9049193   4.7319153  85.5709350  64.2095682
   5.0418918  85.7798238  65.6765935   4.4576711  99.2427264  53.6651826
   5.3907385  99.1772825  53.8684702   4.3699924 100.0783531  53.2066359
   7.0864728  98.5593134  50.6255774   7.0078360  98.2252998  51.5191531
   7.9074395  99.0514902  50.6247246   9.7842919  91.4254873  63.8332092
   9.7519239  90.4870874  64.0191776  10.3943543  91.5038910  63.0997917
   1.6226250  90.2950926  49.8759296   2.5685355  90.1657135  49.9447714
   1.2440495  89.5565588  50.3528724   9.9337408  88.2165917  63.8790375
   9.4176456  87.4324373  63.6920304  10.8177356  87.8884633  64.0436895
   7.5948135  81.9606932  59.8386188   7.3972956  81.6522021  60.7229520
   8.2047840  82.6868571  59.9684118  15.6019469  92.4870880  62.9738129
  16.3322858  92.2256168  63.5345832  14.9926415  91.7499602  63.0140197
  13.6834766  90.6278743  63.5712580  12.9567930  90.4934708  62.9629072
  13.2682053  90.9355571  64.3769298   1.5064943  94.3468673  71.3359953
   2.4267952  94.5247272  71.5300000   1.4714526  93.4024718  71.1839652
   1.4231233  82.7637792  55.9658423   0.6131961  82.4184877  56.3413669
   2.1115650  82.4545336  56.5546034   3.3521781  81.8415839  57.5882719
   3.9052820  82.2611293  58.2472743   3.5891868  80.9151587  57.6305675
   6.7300588  83.9516364  57.0961384   6.1499257  84.6101168  56.7139436
   6.4636521  83.1293709  56.6848801   5.1804155  83.3521422  59.2982704
   5.6803933  83.4637957  58.4897023   5.8239763  83.0482475  59.9383512
   5.5125466  86.1116455  56.1517732   4.6251321  86.3966105  55.9337927
   5.9279455  85.9510218  55.3045009   8.8640003  86.1362976  59.8672071
   9.6400393  86.6259428  60.1396688   8.1388137  86.5621030  60.3243941
  11.3012561  86.8490595  60.9246012  11.8957052  86.6086331  60.2139320
  11.3739145  86.1297726  61.5519548   4.6568680  95.8761130  50.2465752
   5.3604530  96.0811132  50.8623408   3.9331329  96.4437891  50.5114835
   5.4866490  91.6270991  56.3668022   5.4301692  92.0839542  55.5275654
   6.0394833  90.8661675  56.1890865   9.2971296  87.4160723  57.1918142
   9.0408230  87.0157358  58.0226349   8.6724164  88.1304517  57.0668281
  13.6083634  90.1556796  59.6989433  13.0483192  90.2249985  60.4720995
  13.0027137  89.9797781  58.9788929   6.5655377  96.3143659  52.2964212
   7.4000981  95.8824857  52.1141687   6.4039720  96.1425672  53.2241106
   6.2201269  92.8175772  53.6620551   6.1650073  92.6520043  52.7208995
   5.5947325  93.5251805  53.8182741   3.5347177  95.1224684  72.9874114
   4.4038336  95.2965336  72.6260749   3.0553928  95.9419101  72.8649843
   3.3449514  78.9126658  57.4951806   2.5781910  78.3585144  57.6408489
   3.7560219  78.9848526  58.3565958  15.1939652 106.8313310  62.3919389
  15.8318062 106.7120057  61.6882729  15.0760495 107.7794154  62.4507341
  12.0029359 106.7840738  62.3280913  11.6647870 106.6681803  61.4401448
  12.8719127 106.3831903  62.3081920  12.4849142 107.9375590  68.2867119
  12.4737782 107.5428388  67.4147623  12.6469781 107.2041662  68.8800890
   9.7037638 105.5528985  51.6597854   9.9563159 105.0310507  50.8981317
   8.7662197 105.3895131  51.7624537  14.7480921 104.5564764  59.4672597
  15.5344010 104.1384187  59.1163014  15.0119625 105.4610856  59.6354245
  20.1489348 104.4939997  60.3705575  20.8814520 103.9239214  60.6043405
  19.3928704 104.1061597  60.8112081  11.7665468 106.9167238  57.5668918
  11.4023675 106.3897859  58.2781839  12.6232584 106.5265707  57.3935403
  17.6714768  98.2061571  64.8300184  17.3398093  99.0756982  64.6061399
  17.0760382  97.8897855  65.5094214  11.4070955 101.9457138  52.5630266
  11.5745357 102.8137374  52.9300737  11.2168124 102.1084420  51.6391555
  17.5643432 102.9256657  61.9093534  16.6560309 102.8572066  61.6152295
  17.5131027 103.4028602  62.7375359  11.3860176 104.4014796  53.5476933
  11.2659801 104.8471846  54.3862413  10.6912764 104.7500113  52.9890471
  11.6384297 104.3446303  69.8528431  10.8617632 104.9040223  69.8431296
  12.2774861 104.8303086  70.3743301  19.4305078 101.1273096  63.6871408
  18.7879458 101.4205629  63.0411202  18.9260007 101.0126016  64.4924605
  17.0845242 104.8736269  54.3757267  17.9963098 105.1063656  54.2004965
  16.5754889 105.4573313  53.8132346  11.7217079 104.2333503  65.3852117
  12.5678275 104.6572917  65.5286766  11.6615717 103.5767128  66.0790680
  14.8716525 101.8937872  67.0433290  14.6277457 102.6479932  66.5067566
  15.1476455 102.2723219  67.8780537  16.8254988 108.4376484  65.7210556
  17.0371883 109.0808244  65.0444937  16.7784736 107.6038801  65.2532486
  14.4281217 101.0494305  62.6247128  13.5665696 101.3475558  62.9163866
  14.4543651 101.2664704  61.6928161  10.1811672 105.7159648  55.8410499
  10.8835715 106.1680691  56.3084425   9.8492300 105.0743467  56.4690392
   8.6292034 104.3071404  70.2161708   7.9990694 104.9887685  70.4497105
   8.5228121 104.1954486  69.2714846   3.9237006 103.9743200  61.1427632
   3.1336060 104.2300729  60.6667743   4.4148253 104.7891538  61.2479673
   5.8751751 104.3387780  58.1011109   5.0782915 104.4506474  58.6194605
   5.6477344 104.6774432  57.2352000  26.0306809 107.6587188  60.2417885
  25.2770517 107.0894586  60.0861889  26.1654350 107.6249852  61.1888519
   7.9072776  98.6092170  72.5786959   7.5139722  98.0558369  73.2534603
   8.7238917  98.9202749  72.9693477  10.8240737 100.0250049  70.1707216
  11.5650451 100.6257202  70.0911678  11.0558660  99.2827687  69.6125258
  14.7697900  96.0531152  64.4471497  14.4262170  96.9432794  64.3710608
  15.1376863  95.8632810  63.5841082  14.7348183 106.0439763  52.9543933
  14.2194806 106.8144368  53.1932320  14.4625491 105.3704899  53.5776994
  12.3195294 100.8889464  58.0129171  11.4636890 100.4996314  57.8334810
  12.7322246 100.9681425  57.1528956  13.8494441  98.4235807  62.4120731
  13.3459236  98.3865942  61.5988536  14.1425047  99.3328550  62.4717387
  10.0937326  98.5074537  61.4186912  10.9590323  98.3117346  61.0592802
  10.1614835  98.2784889  62.3456269  19.7082457 108.7972118  54.8897106
  18.9311900 108.4583277  54.4452268  20.3873938 108.8024741  54.2152071
  14.5234486 103.9166855  54.7803714  14.2184622 104.2313005  55.6313857
  15.4764928 103.9948275  54.8231047  17.9473764 108.2706099  61.5463714
  17.2897438 108.9605361  61.6343843  18.7514163 108.6602531  61.8897700
   7.6999646 100.7376745  58.7903279   8.2743397 100.5151926  58.0576472
   8.2870628 100.8065439  59.5431881  16.7579223 106.6250472  59.5967656
  17.2711104 107.2580464  60.0989366  17.4080447 106.0251667  59.2311016
   8.0269233 102.7681206  52.8099165   7.1906545 103.1055893  53.1308439
   7.8874002 102.6330186  51.8726302  10.0022313  97.6117994  57.5178349
   9.3486726  97.2967011  56.8934963   9.9602787  96.9893734  58.2438172
  13.2360054 104.0999927  61.8425996  12.3182615 104.3214874  61.6847684
  13.6520197 104.1746238  60.9837704  14.0195101 105.4991343  56.9728677
  14.7666920 106.0112740  56.6635799  14.2886691 105.1775396  57.8333070
  16.4673939 102.5348459  58.9547466  15.7296695 102.0225846  59.2857708
  16.7200712 102.0948841  58.1430743  16.5685566  95.3124711  59.5489235
  16.8744443  94.4522075  59.2615150  17.2938171  95.9042332  59.3488229
  10.8406646 105.6078504  60.0565426  10.8955255 104.6552341  59.9807903
  10.0297848 105.7637944  60.5406725   8.7799005 104.2255564  57.8155805
   7.9666871 104.5249735  58.2220997   9.2758000 103.8311253  58.5330287
  14.3773217 104.6897389  66.6470699  14.7322605 104.9168862  67.5065165
  15.0245348 105.0215765  66.0247954  20.1070954 107.8115825  57.3520028
  19.9688853 108.0017420  56.4241217  19.7507173 108.5735207  57.8088079
   8.2713080 101.7973920  63.4317040   8.9112460 101.6562679  62.7340003
   7.4390611 101.5108433  63.0555642  20.1340334 109.8792352  62.3631300
  20.5676840 109.7867641  63.2114354  20.8471914 109.8549852  61.7251316
   5.3556148 105.2419432  55.6211785   4.4253736 105.1803887  55.8381747
   5.4513620 104.7195385  54.8248426   5.2741697 101.7674245  58.2090027
   5.5348514 102.6819578  58.0999187   6.0958869 101.2998687  58.3586640
   6.7466622 103.1812002  65.3788851   7.4189675 102.9729364  64.7301500
   5.9196409 102.9834088  64.9394084  20.9955883 109.9216052  64.8964185
  21.1891773 110.8261863  65.1423460  20.8956501 109.4623471  65.7302770
  12.6492194  99.8073943  67.3954512  12.0020109 100.5063892  67.3018989
  13.4193209 100.2410087  67.7630760  12.8256328 107.6454708  65.4551332
  13.7548388 107.7965867  65.2820299  12.4047358 107.7338728  64.5999978
  16.1109067 108.3943009  50.8875767  15.4938238 107.6689837  50.7908820
  15.6425555 109.1552369  50.5442841   9.7776420 106.1674564  65.6274968
  10.4876038 105.5267756  65.5861587   9.7345728 106.4187459  66.5501149
   8.4905354 103.1539782  67.4470608   7.9542711 102.7030520  68.0992204
   7.9022062 103.2885691  66.7041072   7.9007613 102.6128433  50.0097071
   7.0237079 102.4917234  49.6459318   8.3765366 101.8214512  49.7575960
   4.2244475 102.2895790  64.5323602   4.1402664 101.6821459  63.7974012
   3.4027182 102.7804808  64.5333098  14.3968189 100.7749353  59.8993797
  14.8936889 100.0219316  59.5794867  13.6255171 100.8113670  59.3337007
  22.2497946 106.4789719  61.5412089  22.2387823 107.3614434  61.1706022
  21.3815326 106.1261270  61.3466626  10.9803158 102.9166736  59.6265482
  10.6100945 102.3637777  60.3146387  11.4762250 102.3124870  59.0740482
  18.8670521 105.3738360  58.0082255  19.3330973 106.2066351  57.9342557
  19.3178022 104.9083341  58.7127513  16.8387184  97.7418947  62.0473156
  15.9250264  97.9723174  62.2155363  17.2680285  97.8257391  62.8987188
  16.6093642 105.9308839  64.5473050  15.9565093 106.1784746  63.8925503
  16.9874022 105.1172977  64.2135527  12.6581215 106.6728650  71.0339087
  11.9821852 106.5722779  71.7041462  13.4808849 106.5167864  71.4975084
   6.3768491 100.3270727  65.8718588   6.4409818 101.1885558  65.4595986
   6.3135612  99.7144729  65.1390946   5.8520764 102.3993860  69.5191622
   6.4792803 102.0170937  70.1329146   4.9948683 102.1808062  69.8847315
   2.6286307 104.2070289  55.4509977   2.9239748 103.2980967  55.3977031
   1.7274342 104.1858028  55.1290979   6.1580554 102.2826285  61.4337526
   5.4367139 102.8962253  61.2944999   6.9473809 102.8184050  61.3554172
   8.9606867  99.6180712  67.7078177   9.4841269  99.8643008  68.4704487
   8.7419200 100.4500747  67.2881315   4.3574148 101.8884386  55.5749302
   4.0286854 101.0081765  55.3924408   4.7113519 101.8332055  56.4625691
   7.4715971 102.1757356  55.9424780   7.8112044 102.7043277  55.2203388
   7.9188092 102.5137762  56.7183346  10.1659412 100.5594407  65.3927848
   9.8256233  99.7602220  65.7948528   9.4598419 100.8596118  64.8204681
  10.8175884  97.6443719  63.8455171  11.6401953  97.1704197  63.7234061
  11.0613948  98.4234203  64.3453857   9.4584119 100.6731978  54.1418073
  10.1792481 101.0513231  53.6381789   8.8349423 101.3920855  54.2453051
  13.6015241 101.3777127  55.0776405  13.8178856 102.2601765  54.7765233
  13.1209309 100.9863340  54.3482047   8.3414463 104.3362840  61.6547149
   8.1959044 104.6503143  62.5471431   7.8639666 104.9547740  61.1018048
  10.2010846 101.3265388  61.7028039  10.1872414 100.4306481  61.3660337
  10.9183274 101.3336052  62.3366325  12.0536976 101.7602728  63.7481166
  11.7954754 102.6819799  63.7465497  11.5222017 101.3633163  64.4381631
   9.6047742 100.2079768  56.9715609   9.7263653  99.2796414  57.1706497
   9.3149784 100.2218454  56.0593925  12.4738932  97.8934679  60.1082329
  12.4960629  97.9574012  59.1534309  12.8906991  97.0539187  60.3022835
  22.8522556 107.6289938  58.1461552  23.2953702 106.8797263  57.7480675
  21.9749067 107.6200075  57.7635284   9.0888821 101.7211766  71.1805542
   9.1376977 102.5973888  70.7983311   9.6311335 101.1789159  70.6077185
  19.6941542 109.1145355  67.7739407  19.7439547 108.9495363  68.7154930
  19.5855465 108.2472614  67.3837288  16.9845304 105.0976283  69.0898714
  17.8855167 104.9582748  68.7982712  17.0593279 105.2630738  70.0296892
  11.3188110 102.4743138  67.9351900  10.4491419 102.7676704  67.6634489
  11.5547590 103.0583583  68.6559164  22.3955421 109.0995176  60.5383999
  23.2302312 109.5384981  60.7021560  22.5314550 108.6233830  59.7192245
  19.4446927 106.6574911  66.4861487  19.9201049 106.8502558  65.6780338
  18.5212492 106.7134097  66.2404871  14.0227143  98.6922755  65.4517321
  14.5409087  99.4283782  65.1263809  13.6682276  98.9986748  66.2864080
   5.6026081 103.5527436  53.5678727   4.9095326 103.6271791  52.9118763
   5.3577833 102.7887780  54.0900244  14.2739738  95.1123037  60.9718217
  14.5541491  94.4446226  61.5978644  15.0590345  95.3052133  60.4592881
  18.1448596 103.5340671  64.7189793  19.0966019 103.6338769  64.7402017
  17.9752046 102.7418940  65.2287877  16.1662975 100.6196255  64.9049193
  15.5712908 100.9001267  64.2095682  15.8812672 101.1090156  65.6765935
  20.6236674 106.7546791  63.8332092  20.5912994 105.8162792  64.0191776
  21.2337297 106.8330828  63.0997917  12.4620005 105.6242844  49.8759296
  13.4079109 105.4949052  49.9447714  12.0834250 104.8857506  50.3528724
  20.7731162 103.5457835  63.8790375  20.2570211 102.7616291  63.6920304
  21.6571111 103.2176551  64.0436895  18.4341889  97.2898850  59.8386188
  18.2366710  96.9813938  60.7229520  19.0441595  98.0160489  59.9684118
  26.4413224 107.8162798  62.9738129  27.1716612 107.5548086  63.5345832
  25.8320169 107.0791520  63.0140197  24.5228521 105.9570661  63.5712580
  23.7961684 105.8226625  62.9629072  24.1075808 106.2647489  64.3769298
  10.6462922 103.5492820  49.8114181   9.7394377 103.2525933  49.8876895
  10.9238903 103.2522639  48.9448468  12.2624988  98.0929710  55.9658423
  11.4525716  97.7476795  56.3413669  12.9509404  97.7837254  56.5546034
  14.1915536  97.1707757  57.5882719  14.7446574  97.5903210  58.2472743
  14.4285622  96.2443505  57.6305675  10.2148635 103.1594831  73.3685483
  10.1145362 104.1089188  73.2997574   9.9970177 102.8313070  72.4961553
   9.4161706 100.4079756  49.9526161  10.2780870 100.7334654  50.2121978
   9.6012051  99.6211252  49.4399226  17.5694343  99.2808282  57.0961384
  16.9893012  99.9393086  56.7139436  17.3030276  98.4585627  56.6848801
  16.0197909  98.6813340  59.2982704  16.5197688  98.7929874  58.4897023
  16.6633517  98.3774393  59.9383512  16.3519221 101.4408373  56.1517732
  15.4645076 101.7258023  55.9337927  16.7673210 101.2802136  55.3045009
  19.7033757 101.4654894  59.8672071  20.4794147 101.9551346  60.1396688
  18.9781891 101.8912948  60.3243941  22.1406316 102.1782513  60.9246012
  22.7350806 101.9378249  60.2139320  22.2132899 101.4589643  61.5519548
  16.3260245 106.9562908  56.3668022  16.2695446 107.4131460  55.5275654
  16.8788587 106.1953593  56.1890865  20.1365051 102.7452640  57.1918142
  19.8801985 102.3449276  58.0226349  19.5117919 103.4596434  57.0668281
  24.4477388 105.4848714  59.6989433  23.8876946 105.5541903  60.4720995
  23.8420892 105.3089698  58.9788929  17.0595024 108.1467690  53.6620551
  17.0043828 107.9811961  52.7208995  16.4341079 108.8543723  53.8182741
   1.8487539 103.3835754  67.4881973   2.4946403 102.8734708  67.9769199
   1.6404690 104.1204436  68.0625399  10.3691149  97.6475799  53.2405870
  10.3569819  98.5917639  53.3974141  11.2614571  97.4645944  52.9465331
  14.1843269  94.2418575  57.4951806  13.4175665  93.6877062  57.6408489
  14.5953974  94.3140444  58.3565958   6.1885030 100.5303371  71.5856988
   7.0516492 100.1740176  71.7960312   5.6150441 100.1917266  72.2732392
  25.6091655 111.3823070  64.4471497  25.2655924 112.2724712  64.3710608
  25.9770617 111.1924727  63.5841082  27.4079320 110.6416629  59.5489235
  27.7138197 109.7813992  59.2615150  28.1331925 111.2334249  59.3488229
  25.1133492 110.4414955  60.9718217  25.3935246 109.7738144  61.5978644
  25.8984099 110.6344051  60.4592881  29.2735644 112.6190768  59.8386188
  29.0760465 112.3105856  60.7229520  29.8835349 113.3452407  59.9684118
  25.0237023 109.5710493  57.4951806  24.2569419 109.0168980  57.6408489
  25.4347728 109.6432362  58.3565958   4.3519301  54.0065475  46.9663191
   3.5983009  53.4372873  46.8107196   4.4866842  53.9728140  47.9133826
   0.7167913  55.4473464  47.2629306   1.5514805  55.8863268  47.4266866
   0.8527042  54.9712117  46.4437552   4.7625716  54.1641085  49.6983436
   5.4929104  53.9026373  50.2591139   4.1532661  53.4269807  49.7385504
   2.8441013  52.3048948  50.2957887   2.1174177  52.1704913  49.6874378
   2.4288300  52.6125776  51.1014605   0.4618808  48.5260800  47.6491318
   1.0563299  48.2856536  46.9384627   0.5345392  47.8067931  48.2764855
   2.7689881  51.8327001  46.4234740   2.2089439  51.9020190  47.1966302
   2.1633384  51.6567985  45.7034236   4.3545899  68.5083515  49.1164695
   4.9924309  68.3890262  48.4128035   4.2366742  69.4564359  49.1752647
   1.1635605  68.4610943  49.0526220   0.8254117  68.3452008  48.1646755
   2.0325374  68.0602108  49.0327226   1.6455388  69.6145795  55.0112426
   1.6344029  69.2198593  54.1392929   1.8076028  68.8811867  55.6046197
   2.6021980  73.9817387  40.3537576   1.9509960  74.5671467  39.9671590
   3.3966343  74.5123582  40.4132613   3.9087168  66.2334969  46.1917903
   4.6950257  65.8154392  45.8408320   4.1725872  67.1381061  46.3599552
   4.0797245  71.6707819  40.8906560   3.4443078  71.7442445  41.6027465
   3.7494651  72.2601418  40.2125639   9.3095595  66.1710202  47.0950882
  10.0420767  65.6009419  47.3288711   8.5534950  65.7831802  47.5357387
   0.9271714  68.5937443  44.2914224   0.5629922  68.0668064  45.0027146
   1.7838830  68.2035912  44.1180710   6.8321015  59.8831776  51.5545490
   6.5004340  60.7527187  51.3306705   6.2366629  59.5668060  52.2339521
   3.3252535  72.0844322  50.9541403   3.0253258  72.9869361  50.8457210
   2.9803594  71.8176505  51.8062556   6.7249678  64.6026862  48.6338841
   5.8166556  64.5342271  48.3397602   6.6737274  65.0798807  49.4620666
   8.5911325  62.8043300  50.4116714   7.9485705  63.0975834  49.7656509
   8.0866253  62.6896221  51.2169911   6.2451489  66.5506474  41.1002574
   7.1569345  66.7833860  40.9250271   5.7361136  67.1343518  40.5377652
   4.5292256  70.9731102  54.7363866   4.9375612  70.5313512  53.9918499
   3.8069518  70.3983729  54.9898059   0.8823326  65.9103708  52.1097423
   1.7284521  66.3343122  52.2532072   0.8221964  65.2537333  52.8035986
   4.8521071  71.5332292  48.4916155   4.2229933  71.6978006  47.7892223
   4.4646733  71.9473902  49.2627119   8.7310303  72.4686730  45.8460519
   8.0461341  72.8485631  45.2957552   8.8154152  73.0782057  46.5792467
   4.0322772  63.5708077  53.7678597   3.7883703  64.3250137  53.2312873
   4.3082702  63.9493424  54.6025844   5.9861234  70.1146689  52.4455862
   6.1978130  70.7578449  51.7690244   5.9390983  69.2809006  51.9777793
   3.5887463  62.7264510  49.3492435   2.7271942  63.0245763  49.6409172
   3.6149898  62.9434909  48.4173467   7.1007062  72.9918644  50.6178220
   7.9224506  72.5898832  50.3360901   7.0969465  72.8886879  51.5694336
  15.1913055  69.3357393  46.9663191  14.4376764  68.7664791  46.8107196
  15.3260597  69.3020057  47.9133826   0.5811683  74.2070795  42.6417911
   0.4457358  75.0522331  43.0702758   1.1221496  74.4090073  41.8783844
   2.2080160  74.8294362  56.7718253   1.7644014  74.0430740  56.4539157
   2.8697373  75.0173512  56.1062144   4.3061398  75.1097162  54.7999654
   4.2879873  75.9306043  54.3079923   5.2281318  74.9851237  55.0249795
   3.9304147  57.7301357  51.1716804   3.5868416  58.6202999  51.0955915
   4.2983110  57.5403015  50.3086389   3.8954430  67.7209968  39.6789239
   3.3801053  68.4914573  39.9177627   3.6231738  67.0475104  40.3022301
   1.4801541  62.5659669  44.7374478   0.6243137  62.1766519  44.5580116
   1.8928492  62.6451630  43.8774263   3.0100687  60.1006012  49.1366037
   2.5065483  60.0636147  48.3233843   3.3031294  61.0098755  49.1962694
   8.8688704  70.4742323  41.6142413   8.0918147  70.1353482  41.1697575
   9.5480185  70.4794946  40.9397378   3.6840733  65.5937060  41.5049020
   3.3790868  65.9083209  42.3559164   4.6371175  65.6718480  41.5476353
   2.1287165  71.7527284  43.1541974   1.6008526  71.0180043  42.8415212
   1.6274667  72.5301960  42.9081943   7.1080011  69.9476304  48.2709021
   6.4503685  70.6375565  48.3589149   7.9120410  70.3372736  48.6143007
   5.9185469  68.3020677  46.3212962   6.4317351  68.9350669  46.8234672
   6.5686693  67.7021872  45.9556322   3.1807844  78.2805001  39.0773634
   2.5069542  78.5836698  39.6858591   3.5673666  79.0834081  38.7279091
   2.3966300  65.7770132  48.5671303   1.4788862  65.9985079  48.4092991
   2.8126444  65.8516443  47.7083010   3.1801348  67.1761548  43.6973983
   3.9273167  67.6882945  43.3881105   3.4492938  66.8545601  44.5578377
   1.4527998  69.6720089  40.6800938   0.5439218  69.3879122  40.7773407
   1.4823082  70.0919167  39.8204244   6.6847266  73.2826678  44.4492105
   6.2309593  72.4417588  44.5057296   6.0541232  73.9188077  44.7866885
   5.6280185  64.2118664  45.6792773   4.8902942  63.6996050  46.0103015
   5.8806959  63.7719046  44.8676049   5.1280205  75.1203175  45.3841923
   5.4203179  75.6808232  44.6654289   5.6378826  75.4131736  46.1395082
   5.7291813  56.9894916  46.2734542   6.0350689  56.1292280  45.9860457
   6.4544417  57.5812536  46.0733536   1.1504086  71.2128832  38.0189016
   0.7123516  70.4964691  37.5594653   1.8914527  71.4404947  37.4574107
   3.5379464  66.3667594  53.3716006   3.8928852  66.5939067  54.2310471
   4.1851595  66.6985970  52.7493261   9.2677201  69.4886029  44.0765335
   9.1295099  69.6787625  43.1486524   8.9113420  70.2505412  44.5333386
   9.2946580  71.5562556  49.0876606   9.7283087  71.4637846  49.9359660
  10.0078161  71.5320057  48.4496622   3.0274475  75.1564651  50.6209707
   3.0811498  75.7255587  51.3887423   2.1589257  75.3266536  50.2563744
  10.1562130  71.5986257  51.6209492  10.3498020  72.5032068  51.8668766
  10.0562748  71.1393676  52.4548077   1.8098441  61.4844148  54.1199819
   1.1626356  62.1834097  54.0264295   2.5799456  61.9180292  54.4876067
   5.2177239  71.7493000  57.1950372   5.0662745  71.5203552  56.2780456
   5.2081918  72.7063601  57.2081717   1.9862575  69.3224913  52.1796639
   2.9154635  69.4736072  52.0065606   1.5653605  69.4108933  51.3245285
   1.3799059  78.4484673  41.2920713   1.5550815  77.9772717  42.1066335
   0.6931847  79.0750440  41.5201973   2.3356122  72.7257180  47.3384014
   2.0005955  72.6857950  48.2341664   1.8360068  72.0601896  46.8654424
   5.2715314  70.0713214  37.6121074   4.6544484  69.3460042  37.5154126
   4.8031802  70.8322574  37.2688148   6.9269445  74.7812122  55.2726854
   6.8681992  74.0971343  54.6057437   7.3288964  75.5231112  54.8207480
   6.9286853  72.7451706  53.5040834   6.0413631  72.4077628  53.6267233
   7.4985404  72.0134738  53.7409599   3.5574436  62.4519558  46.6239104
   4.0543135  61.6989521  46.3040174   2.7861417  62.4883875  46.0582313
  11.4104193  68.1559924  48.2657395  11.3994069  69.0384639  47.8951328
  10.5421573  67.8031475  48.0711932   2.9186690  77.3039993  52.6260236
   3.6314662  77.9387458  52.5536137   2.4276718  77.4003859  51.8100237
   4.6404216  71.2091245  44.1977527   3.7060495  71.3292708  44.0282232
   4.8180885  70.3063712  43.9337537   8.0276768  67.0508565  44.7327561
   8.4937220  67.8836556  44.6587864   8.4784268  66.5853546  45.4372820
   6.0952999  73.3952386  41.7313713   6.3712843  73.2808981  42.6407587
   5.2257498  72.9969871  41.6925887   5.9993431  59.4189152  48.7718463
   5.0856510  59.6493379  48.9400670   6.4286532  59.5027596  49.6232495
   5.7699889  67.6079044  51.2718357   5.1171339  67.8554951  50.6170810
   6.1480269  66.7943182  50.9380834   2.7307063  77.6438737  45.3746527
   2.9129457  76.8260393  45.8374279   3.5540049  77.8606429  44.9371417
   3.0649228  76.5706922  42.6361576   3.5936995  76.0599377  42.0231738
   3.3277448  76.2549452  43.5007109   1.8187462  68.3498855  57.7584394
   1.1428099  68.2492984  58.4286769   2.6415096  68.1938068  58.2220391
   0.5610245  79.6565782  51.9942010   1.1128553  79.8197404  52.7591095
   0.9016438  80.2470220  51.3222035   5.4121119  74.4827040  57.8490664
   5.9561023  75.0956998  57.3545619   4.8307964  75.0406618  58.3657677
   3.6978632  77.6047758  48.9805692   3.5729772  76.8037498  48.4716637
   4.3557723  78.0993951  48.4919662   5.7613541  75.4056778  50.6085242
   4.8143876  75.2862129  50.5363569   6.1096314  74.5179276  50.6911504
   2.7659974  75.2009494  46.8089594   2.6184936  74.2726201  46.9897164
   3.5913467  75.2229585  46.3246670   6.3694096  76.0238053  47.8954467
   7.2940643  75.8180914  47.7578918   6.2009399  75.7754454  48.8043809
   2.7621488  63.0547332  41.8021712   2.9785103  63.9371969  41.5010540
   2.2815555  62.6633545  41.0727354   1.2143223  63.4372933  50.4726473
   0.9561001  64.3590004  50.4710804   0.6828264  63.0403368  51.1626937
   6.1589412  76.5423720  43.2516559   6.3326290  75.9770143  42.4990411
   6.6518303  77.3424615  43.0696048   1.6345179  59.5704884  46.8327636
   1.6566876  59.6344217  45.8779615   2.0513238  58.7309392  47.0268142
  12.0128803  69.3060143  44.8706858  12.4559949  68.5567468  44.4725982
  11.1355313  69.2970279  44.4880590   7.1464584  75.8590485  40.3513457
   7.8415489  76.4797177  40.5700771   7.4887735  75.0085836  40.6265835
   9.0456008  73.3090190  41.8800788   9.5707332  73.6477463  41.1550108
   8.9578360  72.3737205  41.6963922   0.7076056  77.2224264  54.0090664
   1.0163183  76.9773410  54.8813364   1.5051538  77.4270902  53.5209534
   8.7349914  73.9423094  57.1851986   7.9445457  73.9247233  56.6456485
   8.4983268  74.4811387  57.9401022   8.8547789  70.7915560  54.4984714
   8.9045794  70.6265568  55.4400237   8.7461712  69.9242819  54.1082595
   6.1451551  66.7746488  55.8144021   7.0461414  66.6352953  55.5228019
   6.2199526  66.9400943  56.7542198  10.3565986  73.2112502  54.7426736
  10.0650794  73.5742482  55.5790197   9.7438117  72.4979510  54.5640068
  11.5561668  70.7765381  47.2629306  12.3908559  71.2155185  47.4266866
  11.6920797  70.3004035  46.4437552   8.6053174  68.3345116  53.2106794
   9.0807295  68.5272763  52.4025645   7.6818739  68.3904302  52.9650177
   3.1833390  60.3692960  52.1762627   3.7015334  61.1053987  51.8509116
   2.8288523  60.6756953  53.0109387   3.4345984  56.7893242  47.6963524
   3.7147738  56.1216431  48.3223951   4.2196591  56.9822338  47.1838188
   1.2379453  75.9652236  39.2588550   0.6653420  76.5842423  38.8059022
   1.8112247  76.5151598  39.7928472   7.3054843  65.2110876  51.4435099
   8.2572266  65.3108974  51.4647323   7.1358293  64.4189145  51.9533184
   5.3269222  62.2966460  51.6294500   4.7319154  62.5771472  50.9340989
   5.0418919  62.7860360  52.4011241   4.4576713  76.2489386  40.3897133
   5.3907386  76.1834948  40.5930008   4.3699926  77.0845653  39.9311665
   7.0864729  75.5655257  37.3501080   7.0078361  75.2315120  38.2436838
   7.9074396  76.0577025  37.3492553   9.7842921  68.4316996  50.5577399
   9.7519241  67.4932997  50.7437083  10.3943544  68.5101033  49.8243224
   1.6226251  67.3013049  36.6004603   2.5685356  67.1719257  36.6693021
   1.2440496  66.5627711  37.0774031   9.9337409  65.2228039  50.6035682
   9.4176458  64.4386496  50.4165611  10.8177358  64.8946756  50.7682201
   7.5948136  58.9669055  46.5631495   7.3972957  58.6584143  47.4474827
   8.2047842  59.6930694  46.6929425  15.6019470  69.4933003  49.6983436
  16.3322859  69.2318291  50.2591139  14.9926416  68.7561725  49.7385504
  13.6834768  67.6340865  50.2957887  12.9567931  67.4996830  49.6874378
  13.2682054  67.9417694  51.1014605   1.5064944  71.3530795  58.0605260
   2.4267953  71.5309394  58.2545306   1.4714527  70.4086840  57.9084959
   1.4231234  59.7699915  42.6903729   0.6131963  59.4247000  43.0658975
   2.1115651  59.4607459  43.2791341   3.3521783  58.8477962  44.3128026
   3.9052821  59.2673415  44.9718049   3.5891869  57.9213710  44.3550982
   6.7300590  60.9578487  43.8206690   6.1499259  61.6163291  43.4384743
   6.4636522  60.1355832  43.4094108   5.1804156  60.3583545  46.0228011
   5.6803934  60.4700079  45.2142329   5.8239764  60.0544598  46.6628819
   5.5125468  63.1178577  42.8763039   4.6251323  63.4028228  42.6583233
   5.9279457  62.9572341  42.0290315   8.8640004  63.1425098  46.5917378
   9.6400394  63.6321551  46.8641995   8.1388138  63.5683153  47.0489247
  11.3012562  63.8552718  47.6491318  11.8957053  63.6148454  46.9384627
  11.3739146  63.1359848  48.2764855   4.6568681  72.8823252  36.9711059
   5.3604531  73.0873255  37.5868714   3.9331330  73.4500014  37.2360142
   5.4866491  68.6333113  43.0913329   5.4301693  69.0901665  42.2520961
   6.0394834  67.8723798  42.9136171   9.2971297  64.4222845  43.9163448
   9.0408232  64.0219481  44.7471656   8.6724165  65.1366639  43.7913587
  13.6083635  67.1618918  46.4234740  13.0483193  67.2312108  47.1966302
  13.0027139  66.9859903  45.7034236   6.5655379  73.3205781  39.0209519
   7.4000982  72.8886980  38.8386993   6.4039721  73.1487795  39.9486413
   6.2201271  69.8237895  40.3865858   6.1650075  69.6582166  39.4454302
   5.5947326  70.5313928  40.5428048   3.5347178  72.1286806  59.7119421
   4.4038338  72.3027459  59.3506056   3.0553929  72.9481223  59.5895150
   3.3449516  55.9188780  44.2197113   2.5781911  55.3647267  44.3653795
   3.7560221  55.9910649  45.0811265  15.1939654  83.8375432  49.1164695
  15.8318064  83.7182180  48.4128035  15.0760497  84.7856276  49.1752647
  12.0029360  83.7902861  49.0526220  11.6647871  83.6743925  48.1646755
  12.8719128  83.3894026  49.0327226   7.8616176  85.6438337  45.0423111
   7.2981041  85.5528274  44.2739399   7.7468571  84.8238241  45.5225604
  12.4849143  84.9437712  55.0112426  12.4737784  84.5490511  54.1392929
  12.6469782  84.2103785  55.6046197   5.4080608  87.1389529  47.8807331
   6.2001899  86.7980353  47.4653631   5.6477258  87.2484504  48.8009485
  13.4415734  89.3109305  40.3537576  12.7903714  89.8963385  39.9671590
  14.2360097  89.8415500  40.4132613   7.3671361  86.3998442  40.7524710
   8.1402237  85.8527429  40.6137586   7.7196760  87.2642691  40.9639172
   9.2056404  87.7274824  53.9591610   8.9146270  88.6320455  53.8438276
   9.8413388  87.7691352  54.6735679  10.1312611  85.1051673  50.5492969
  10.7276183  84.8807695  49.8349932  10.1887582  84.3636418  51.1518417
   9.7037639  82.5591108  38.3843160   9.9563160  82.0372629  37.6226623
   8.7662198  82.3957253  38.4869844  14.7480922  81.5626886  46.1917903
  15.5344011  81.1446309  45.8408320  15.0119626  82.4672978  46.3599552
  14.9190999  86.9999737  40.8906560  14.2836832  87.0734363  41.6027465
  14.5888406  87.5893335  40.2125639  20.1489349  81.5002119  47.0950882
  20.8814521  80.9301336  47.3288711  19.3928705  81.1123720  47.5357387
   9.4233928  84.4619214  40.5867535   9.3070186  83.7864117  41.2548619
   9.5336188  83.9751588  39.7699688  11.7665469  83.9229361  44.2914224
  11.4023676  83.3959982  45.0027146  12.6232585  83.5327830  44.1180710
  17.6714770  75.2123694  51.5545490  17.3398094  76.0819105  51.3306705
  17.0760383  74.8959978  52.2339521  11.4070956  78.9519261  39.2875573
  11.5745358  79.8199497  39.6546044  11.2168125  79.1146542  38.3636862
  14.1646289  87.4136240  50.9541403  13.8647012  88.3161278  50.8457210
  13.8197349  87.1468423  51.8062556   7.6158771  83.8650036  46.9878108
   6.6909267  83.7326251  47.1955799   7.8643184  84.6444256  47.4848050
  17.5643433  79.9318780  48.6338841  16.6560310  79.8634188  48.3397602
  17.5131029  80.4090725  49.4620666  11.3860177  81.4076918  40.2722240
  11.2659802  81.8533969  41.1107720  10.6912765  81.7562236  39.7135778
   4.9767582  83.5083310  47.8221897   5.1059963  83.7617789  48.7361308
   4.2965033  84.1011018  47.5026552   9.1467069  94.1780560  43.9212371
   9.0691099  95.1288385  44.0000851   8.5428713  93.8326432  44.5787297
  11.6384299  81.3508425  56.5773738  10.8617633  81.9102345  56.5676602
  12.2774862  81.8365208  57.0988608  19.4305079  78.1335218  50.4116714
  18.7879460  78.4267751  49.7656509  18.9260008  78.0188138  51.2169911
  17.0845243  81.8798391  41.1002574  17.9963099  82.1125778  40.9250271
  16.5754890  82.4635436  40.5377652   9.8930671  84.1593879  56.1391705
  10.6345355  84.6978923  55.8626528   9.1867656  84.7860167  56.2963257
  15.3686011  86.3023019  54.7363866  15.7769367  85.8605430  53.9918499
  14.6463272  85.7275647  54.9898059  11.7217081  81.2395626  52.1097423
  12.5678276  81.6635040  52.2532072  11.6615718  80.5829250  52.8035986
  15.6914825  86.8624210  48.4916155  15.0623688  87.0269924  47.7892223
  15.3040487  87.2765819  49.2627119  19.5704057  87.7978648  45.8460519
  18.8855095  88.1777549  45.2957552  19.6547907  88.4073974  46.5792467
  14.8716526  78.8999994  53.7678597  14.6277458  79.6542055  53.2312873
  15.1476457  79.2785342  54.6025844  16.8254989  85.4438607  52.4455862
  17.0371884  86.0870367  51.7690244  16.7784737  84.6100923  51.9777793
  14.4281218  78.0556427  49.3492435  13.5665697  78.3537681  49.6409172
  14.4543652  78.2726826  48.4173467  11.2442787  86.5998618  45.7566240
  11.7081133  86.8786321  44.9670863  10.9799585  85.6982062  45.5739331
   8.1366868  86.1470099  48.6946004   8.7068225  86.5757368  48.0563488
   8.7274980  85.8652684  49.3930189  10.1811673  82.7221770  42.5655805
  10.8835717  83.1742814  43.0329732   9.8492302  82.0805589  43.1935699
   8.6292035  81.3133527  56.9407015   7.9990695  81.9949808  57.1742412
   8.5228123  81.2016608  55.9960153   3.9237007  80.9805323  47.8672939
   3.1336061  81.2362851  47.3913050   4.4148255  81.7953661  47.9724980
  17.9400817  88.3210562  50.6178220  18.7618260  87.9190749  50.3360901
  17.9363220  88.2178796  51.5694336   5.8751753  81.3449902  44.8256416
   5.0782916  81.4568596  45.3439911   5.6477345  81.6836554  43.9597306
  11.7057420  87.8694605  52.7738930  11.7701853  88.3315013  53.6097102
  10.9968344  87.2391970  52.9021240   2.2074710  81.2335813  50.2987930
   2.4582749  82.1182823  50.5645506   2.7434259  81.0540415  49.5263022
  26.0306810  84.6649311  46.9663191  25.2770518  84.0956709  46.8107196
  26.1654351  84.6311975  47.9133826  11.4205438  89.5362713  42.6417911
  11.2851113  90.3814249  43.0702758  11.9615250  89.7381991  41.8783844
   7.9072777  75.6154293  59.3032266   7.5139723  75.0620491  59.9779910
   8.7238918  75.9264871  59.6938783   4.8734835  87.0538151  43.2145836
   5.3859356  87.8481401  43.3651400   5.5257548  86.3564441  43.1479437
   6.6829720  90.1703907  45.2968589   6.8596348  91.0921872  45.1089573
   7.4786553  89.8562326  45.7262969  10.8240738  77.0312172  56.8952522
  11.5650452  77.6319325  56.8156985  11.0558661  76.2889810  56.3370565
   5.9682076  82.2168539  55.1730752   5.8535592  81.3153796  55.4737851
   5.1126594  82.4632236  54.8215569  13.0473914  90.1586279  56.7718253
  12.6037768  89.3722658  56.4539157  13.7091128  90.3465430  56.1062144
   7.8061035  91.6882081  51.2978931   8.3568461  91.5599144  50.5255925
   6.9672511  91.9876970  50.9473824  15.1455152  90.4389079  54.7999654
  15.1273628  91.2597960  54.3079923  16.0675072  90.3143155  55.0249795
  11.6028206  87.9533209  55.6423162  12.1356543  87.1921497  55.4122470
  11.0742288  87.6606861  56.3847317  14.7697901  73.0593275  51.1716804
  14.4262171  73.9494916  51.0955915  15.1376864  72.8694932  50.3086389
   2.8383752  85.3826805  43.9905406   3.6758974  85.7923814  43.7739114
   3.0162020  84.4426247  43.9605600  14.7348184  83.0501886  39.6789239
  14.2194808  83.8206491  39.9177627  14.4625493  82.3767022  40.3022301
  12.3195295  77.8951587  44.7374478  11.4636892  77.5058437  44.5580116
  12.7322247  77.9743547  43.8774263  13.8494442  75.4297930  49.1366037
  13.3459237  75.3928065  48.3233843  14.1425049  76.3390673  49.1962694
  10.0937328  75.5136660  48.1432219  10.9590324  75.3179468  47.7838109
  10.1614837  75.2847011  49.0701576  19.7082458  85.8034241  41.6142413
  18.9311901  85.4645400  41.1697575  20.3873939  85.8086864  40.9397378
  14.5234487  80.9228978  41.5049020  14.2184623  81.2375127  42.3559164
  15.4764929  81.0010398  41.5476353  12.9680919  87.0819201  43.1541974
  12.4402281  86.3471961  42.8415212  12.4668422  87.8593878  42.9081943
  17.9473765  85.2768222  48.2709021  17.2897440  85.9667483  48.3589149
  18.7514164  85.6664654  48.6143007   7.6999647  77.7438868  45.5148586
   8.2743399  77.5214049  44.7821779   8.2870629  77.8127562  46.2677187
  16.7579224  83.6312594  46.3212962  17.2711106  84.2642586  46.8234672
  17.4080448  83.0313790  45.9556322   8.0269234  79.7743329  39.5344471
   7.1906546  80.1118015  39.8553746   7.8874004  79.6392308  38.5971608
  10.0022314  74.6180116  44.2423655   9.3486727  74.3029134  43.6180270
   9.9602789  73.9955857  44.9683478  11.1133519  84.8999412  36.1576947
  10.2060581  84.6688665  36.3568096  11.6104551  84.1037031  36.3450929
  14.0201598  93.6096919  39.0773634  13.3463297  93.9128615  39.6858591
  14.4067420  94.4125999  38.7279091  13.2360055  81.1062050  48.5671303
  12.3182616  81.3276997  48.4092991  13.6520198  81.1808360  47.7083010
  14.0195103  82.5053466  43.6973983  14.7666922  83.0174863  43.3881105
  14.2886692  82.1837518  44.5578377  12.2921753  85.0012006  40.6800938
  11.3832972  84.7171039  40.7773407  12.3216837  85.4211085  39.8204244
  17.5241020  88.6118596  44.4492105  17.0703347  87.7709506  44.5057296
  16.8934987  89.2479994  44.7866885  16.4673940  79.5410582  45.6792773
  15.7296697  79.0287968  46.0103015  16.7200713  79.1010964  44.8676049
  15.9673959  90.4495093  45.3841923  16.2596934  91.0100150  44.6654289
  16.4772580  90.7423654  46.1395082  16.5685567  72.3186834  46.2734542
  16.8744444  71.4584197  45.9860457  17.2938172  72.9104454  46.0733536
   2.8609923  82.7217521  44.6616140   2.6634323  82.1286881  43.9367206
   2.3056587  82.4169731  45.3792079  10.8406647  82.6140627  46.7810733
  10.8955257  81.6614463  46.7053209  10.0297849  82.7700066  47.2652031
  11.9897841  86.5420750  38.0189016  11.5517271  85.8256609  37.5594653
  12.7308281  86.7696865  37.4574107   8.7799007  81.2317687  44.5401112
   7.9666872  81.5311857  44.9466304   9.2758001  80.8373376  45.2575594
  10.9307585  91.2275444  46.4735376  10.8883763  91.4536290  45.5443908
  11.8470283  90.9938818  46.6221178  14.3773218  81.6959511  53.3716006
  14.7322606  81.9230984  54.2310471  15.0245350  82.0277888  52.7493261
  20.1070955  84.8177947  44.0765335  19.9688854  85.0079543  43.1486524
  19.7507174  85.5797330  44.5333386   8.2713082  78.8036042  50.1562347
   8.9112461  78.6624801  49.4585310   7.4390612  78.5170556  49.7800949
  20.1340335  86.8854474  49.0876606  20.5676842  86.7929763  49.9359660
  20.8471916  86.8611975  48.4496622   9.0473385  88.1038473  46.2697339
   9.8413984  87.6088793  46.0679914   8.3365078  87.5756336  45.9065045
  13.8668230  90.4856568  50.6209707  13.9205252  91.0547505  51.3887423
  12.9983011  90.6558453  50.2563744   5.3556149  82.2481554  42.3457092
   4.4253737  82.1866010  42.5627054   5.4513621  81.7257507  41.5493733
   5.2741698  78.7736367  44.9335333   5.5348515  79.6881701  44.8244494
   6.0958870  78.3060810  45.0831946   6.7466623  80.1874124  52.1034158
   7.4189677  79.9791487  51.4546807   5.9196410  79.9896210  51.6639390
  20.9955885  86.9278175  51.6209492  21.1891775  87.8323985  51.8668766
  20.8956503  86.4685594  52.4548077  12.6492195  76.8136065  54.1199819
  12.0020110  77.5126015  54.0264295  13.4193211  77.2472209  54.4876067
  16.0570993  87.0784918  57.1950372  15.9056500  86.8495469  56.2780456
  16.0475673  88.0355519  57.2081717  12.8256330  84.6516830  52.1796639
  13.7548390  84.8027990  52.0065606  12.4047360  84.7400851  51.3245285
  11.6244661  88.6767495  49.9495176  11.4855747  88.3086279  50.8221114
  10.8359258  89.1915134  49.7779134  12.2192813  93.7776591  41.2920713
  12.3944569  93.3064634  42.1066335  11.5325601  94.4042357  41.5201973
  13.1749877  88.0549097  47.3384014  12.8399709  88.0149867  48.2341664
  12.6753822  87.3893813  46.8654424   7.1494121  83.4616727  52.8636595
   7.0113918  82.7296966  53.4648134   8.0599044  83.3725628  52.5820783
  16.1109068  85.4005132  37.6121074  15.4938239  84.6751960  37.5154126
  15.6425557  86.1614492  37.2688148   9.7776421  83.1736687  52.3520275
  10.4876040  82.5329879  52.3106893   9.7345729  83.4249582  53.2746456
  17.7663200  90.1104040  55.2726854  17.7075746  89.4263260  54.6057437
  18.1682718  90.8523030  54.8207480   8.4905355  80.1601905  54.1715914
   7.9542712  79.7092643  54.8237511   7.9022064  80.2947813  53.4286379
   6.7853899  96.9265954  48.0660573   7.0250497  97.5584478  48.7439591
   5.9423095  96.5753994  48.3525932   7.9007614  79.6190556  36.7342378
   7.0237080  79.4979357  36.3704625   8.3765367  78.8276634  36.4821267
  17.7680607  88.0743624  53.5040834  16.8807386  87.7369546  53.6267233
  18.3379158  87.3426655  53.7409599   4.2244476  79.2957912  51.2568909
   4.1402665  78.6883582  50.5219319   3.4027183  79.7866931  51.2578405
  11.2981761  92.7345076  50.4702077  11.2251932  93.5400048  50.9821381
  10.8559154  92.9337042  49.6450098  11.0871540  91.9716846  43.9804898
  10.3039062  92.5138527  44.0743123  11.7864285  92.4890826  44.3799140
  14.3968190  77.7811476  46.6239104  14.8936890  77.0281438  46.3040174
  13.6255172  77.8175793  46.0582313  22.2497948  83.4851841  48.2657395
  22.2387824  84.3676557  47.8951328  21.3815327  83.1323392  48.0711932
  13.7580444  92.6331910  52.6260236  14.4708416  93.2679375  52.5536137
  13.2670473  92.7295776  51.8100237  15.4797971  86.5383163  44.1977527
  14.5454250  86.6584626  44.0282232  15.6574639  85.6355630  43.9337537
  10.9803159  79.9228859  46.3510788  10.6100947  79.3699899  47.0391694
  11.4762251  79.3186992  45.7985788  18.8670522  82.3800482  44.7327561
  19.3330975  83.2128474  44.6587864  19.3178023  81.9145464  45.4372820
   8.8092358  90.3826354  53.4465806   9.5101817  91.0162837  53.5995201
   8.3387473  90.7241085  52.6861446  16.9346753  88.7244304  41.7313713
  17.2106597  88.6100898  42.6407587  16.0651252  88.3261788  41.6925887
  16.8387185  74.7481069  48.7718463  15.9250265  74.9785296  48.9400670
  17.2680287  74.8319513  49.6232495  16.6093644  82.9370961  51.2718357
  15.9565094  83.1846869  50.6170810  16.9874023  82.1235099  50.9380834
  13.5700817  92.9730654  45.3746527  13.7523212  92.1552310  45.8374279
  14.3933803  93.1898347  44.9371417  13.9042983  91.8998840  42.6361576
  14.4330749  91.3891294  42.0231738  14.1671203  91.5841370  43.5007109
  12.6581217  83.6790772  57.7584394  11.9821854  83.5784902  58.4286769
  13.4808850  83.5229986  58.2220391   4.4060076  89.9162709  50.3796909
   4.9913512  89.1706397  50.5124813   4.2084914  90.2266666  51.2633573
   7.2598731  92.9513956  45.3959351   6.5909106  93.4360084  44.9123392
   7.1211601  93.1983177  46.3102730  11.4003999  94.9857700  51.9942010
  11.9522307  95.1489321  52.7591095  11.7410193  95.5762138  51.3222035
   6.3768493  77.3332850  52.5963895   6.4409819  78.1947681  52.1841292
   6.3135613  76.7206851  51.8636253   5.8520765  79.4055982  56.2436929
   6.4792804  79.0233059  56.8574453   4.9948684  79.1870184  56.6092621
  16.2514874  89.8118957  57.8490664  16.7954778  90.4248916  57.3545619
  15.6701719  90.3698536  58.3657677   2.6286308  81.2132411  42.1755284
   2.9239749  80.3043090  42.1222337   1.7274344  81.1920151  41.8536286
  14.5372387  92.9339675  48.9805692  14.4123526  92.1329415  48.4716637
  15.1951478  93.4285869  48.4919662   6.1580555  79.2888408  48.1582832
   5.4367141  79.9024376  48.0190306   6.9473811  79.8246173  48.0799478
  16.6007295  90.7348695  50.6085242  15.6537631  90.6154047  50.5363569
  16.9490068  89.8471193  50.6911504   8.9606868  76.6242834  54.4323484
   9.4841270  76.8705131  55.1949793   8.7419202  77.4562869  54.0126621
   4.3574150  78.8946509  42.2994609   4.0286856  78.0143888  42.1169715
   4.7113520  78.8394178  43.1870998  13.6053728  90.5301412  46.8089594
  13.4578691  89.6018119  46.9897164  14.4307222  90.5521502  46.3246670
   7.4715973  79.1819479  42.6670086   7.8112045  79.7105400  41.9448695
   7.9188093  79.5199885  43.4428653  17.2087850  91.3529970  47.8954467
  18.1334398  91.1472832  47.7578918  17.0403154  91.1046372  48.8043809
  10.1659414  77.5656529  52.1173155   9.8256234  76.7664343  52.5193834
   9.4598420  77.8658240  51.5449988  10.8175885  74.6505842  50.5700478
  11.6401955  74.1766320  50.4479368  11.0613949  75.4296326  51.0699164
   9.4584120  77.6794100  40.8663379  10.1792482  78.0575353  40.3627096
   8.8349424  78.3982977  40.9698357  13.6015243  78.3839249  41.8021712
  13.8178857  79.2663887  41.5010540  13.1209310  77.9925463  41.0727354
   8.3414464  81.3424963  48.3792456   8.1959045  81.6565266  49.2716738
   7.8639668  81.9609863  47.8263355  10.2010847  78.3327511  48.4273346
  10.1872416  77.4368604  48.0905644  10.9183275  78.3398174  49.0611632
  12.0536978  78.7664851  50.4726473  11.7954756  79.6881921  50.4710804
  11.5222018  78.3695285  51.1626937  16.9983166  91.8715638  43.2516559
  17.1720044  91.3062060  42.4990411  17.4912058  92.6716533  43.0696048
   2.8160126  83.8830307  51.3180117   2.2713594  84.6590115  51.4500392
   3.6939476  84.2301111  51.1599239   9.6047743  77.2141891  43.6960916
   9.7263654  76.2858537  43.8951803   9.3149785  77.2280577  42.7839231
  12.4738933  74.8996801  46.8327636  12.4960630  74.9636134  45.8779615
  12.8906992  74.0601310  47.0268142  22.8522558  84.6352061  44.8706858
  23.2953704  83.8859386  44.4725982  21.9749068  84.6262197  44.4880590
  17.9858339  91.1882402  40.3513457  18.6809244  91.8089095  40.5700771
  18.3281489  90.3377753  40.6265835   3.6026148  83.0100203  54.2110274
   2.8607884  83.1582839  54.7974905   3.2818892  83.2708469  53.3477024
  19.8849762  88.6382108  41.8800788  20.4101086  88.9769381  41.1550108
  19.7972115  87.7029123  41.6963922  11.5469811  92.5516181  54.0090664
  11.8556937  92.3065328  54.8813364  12.3445293  92.7562820  53.5209534
  11.5690423  94.7054091  46.2396041  11.1295413  94.2130470  46.9328897
  12.3198540  94.1627059  45.9988116   4.0482762  90.8965632  46.2420669
   4.8740782  90.5969404  45.8619312   3.6976814  90.1273254  46.6910457
   9.0164295  90.2492100  48.3118342   8.3944304  89.5862805  48.0120570
   9.6869162  90.2753232  47.6291990   2.2491367  88.8151958  47.2009602
   1.4123275  88.3874133  47.0193604   2.2215012  89.0084402  48.1380394
   9.0888822  78.7273888  57.9050848   9.1376978  79.6036011  57.5228618
   9.6311337  78.1851281  57.3322492  19.5743668  89.2715011  57.1851986
  18.7839212  89.2539150  56.6456485  19.3377023  89.8103305  57.9401022
  19.6941543  86.1207478  54.4984714  19.7439548  85.9557485  55.4400237
  19.5855467  85.2534737  54.1082595   8.5777802  88.7996023  41.7876803
   8.7265922  89.4831488  41.1343476   9.3844245  88.7801114  42.3026259
  16.9845306  82.1038406  55.8144021  17.8855168  81.9644871  55.5228019
  17.0593280  82.2692861  56.7542198  11.3188111  79.4805261  54.6597207
  10.4491420  79.7738827  54.3879796  11.5547591  80.0645706  55.3804471
  21.1959740  88.5404419  54.7426736  20.9044548  88.9034400  55.5790197
  20.5831871  87.8271428  54.5640068  22.3955422  86.1057299  47.2629306
  23.2302314  86.5447103  47.4266866  22.5314551  85.6295952  46.4437552
  19.4446928  83.6637034  53.2106794  19.9201050  83.8564680  52.4025645
  18.5212494  83.7196220  52.9650177   6.3330435  84.8261201  42.7937872
   6.0876477  83.9223531  42.9918082   6.5026349  84.8278352  41.8517350
  14.0227145  75.6984877  52.1762627  14.5409089  76.4345904  51.8509116
  13.6682278  76.0048871  53.0109387   5.6026082  80.5589559  40.2924033
   4.9095327  80.6333914  39.6364069   5.3577834  79.7949902  40.8145550
  14.2739739  72.1185160  47.6963524  14.5541493  71.4508349  48.3223951
  15.0590346  72.3114256  47.1838188  12.0773207  91.2944154  39.2588550
  11.5047174  91.9134341  38.8059022  12.6506001  91.8443516  39.7928472
  18.1448597  80.5402794  51.4435099  19.0966020  80.6400892  51.4647323
  17.9752048  79.7481063  51.9533184  16.1662977  77.6258377  51.6294500
  15.5712909  77.9063390  50.9340989  15.8812673  78.1152278  52.4011241
  15.2970467  91.5781304  40.3897133  16.2301140  91.5126866  40.5930008
  15.2093680  92.4137571  39.9311665  17.9258484  90.8947174  37.3501080
  17.8472115  90.5607038  38.2436838  18.7468151  91.3868942  37.3492553
  20.6236675  83.7608914  50.5577399  20.5912995  82.8224914  50.7437083
  21.2337299  83.8392950  49.8243224  12.4620006  82.6304967  36.6004603
  13.4079111  82.5011175  36.6693021  12.0834251  81.8919629  37.0774031
  20.7731164  80.5519957  50.6035682  20.2570212  79.7678414  50.4165611
  21.6571112  80.2238674  50.7682201  18.4341890  74.2960973  46.5631495
  18.2366712  73.9876061  47.4474827  19.0441596  75.0222612  46.6929425
  26.4413225  84.8224921  49.6983436  27.1716613  84.5610209  50.2591139
  25.8320170  84.0853642  49.7385504  24.5228522  82.9632783  50.2957887
  23.7961686  82.8288748  49.6874378  24.1075809  83.2709612  51.1014605
  12.3458698  86.6822713  58.0605260  13.2661708  86.8601312  58.2545306
  12.3108281  85.7378758  57.9084959  10.6462923  80.5554943  36.5359488
   9.7394378  80.2588056  36.6122202  10.9238904  80.2584761  35.6693774
   1.5640863  81.8761306  46.9858534   1.2443648  81.0226615  46.6932908
   1.0174292  82.0909885  47.7416502   5.3420771  84.5923747  50.7028041
   5.5606781  85.5240855  50.7216075   5.7546545  84.2331722  51.4882845
  12.2624989  75.0991833  42.6903729  11.4525717  74.7538918  43.0658975
  12.9509406  74.7899377  43.2791341  14.1915537  74.1769880  44.3128026
  14.7446576  74.5965333  44.9718049  14.4285623  73.2505628  44.3550982
  10.2148636  80.1656953  60.0930790  10.1145363  81.1151310  60.0242881
   9.9970178  79.8375192  59.2206860   9.4161708  77.4141878  36.6771467
  10.2780872  77.7396777  36.9367285   9.6012052  76.6273374  36.1644533
   1.4329123  85.4964218  48.9551656   0.7392595  85.0818171  48.4421610
   2.1802114  85.5384754  48.3585075  17.5694344  76.2870405  43.8206690
  16.9893013  76.9455209  43.4384743  17.3030277  75.4647749  43.4094108
  16.0197911  75.6875462  46.0228011  16.5197689  75.7991997  45.2142329
  16.6633518  75.3836515  46.6628819  10.0779906  83.5954092  58.9095852
   9.5946988  84.3954452  59.1159741  10.1640845  83.6062037  57.9563296
   3.3465866  85.4282472  46.8317671   3.3236554  85.5270159  45.8799554
   3.6566502  86.2747623  47.1534837   6.0053244  87.4858627  50.9464285
   6.9596497  87.4542569  50.8794217   5.8065767  87.0249251  51.7614511
   6.5952626  86.0559743  53.5135083   7.4145515  86.5503821  53.5369920
   6.8689434  85.1391711  53.4852651  16.3519222  78.4470495  42.8763039
  15.4645077  78.7320146  42.6583233  16.7673211  78.2864258  42.0290315
  19.7033758  78.4717016  46.5917378  20.4794148  78.9613469  46.8641995
  18.9781892  78.8975070  47.0489247  22.1406317  79.1844635  47.6491318
  22.7350808  78.9440371  46.9384627  22.2132901  78.4651766  48.2764855
   4.3603473  93.0278246  47.9634483   4.2257941  92.2678647  47.3972481
   3.9435535  93.7519146  47.4963272  15.4962436  88.2115170  36.9711059
  16.1998286  88.4165172  37.5868714  14.7725084  88.7791932  37.2360142
  16.3260246  83.9625031  43.0913329  16.2695447  84.4193582  42.2520961
  16.8788588  83.2015716  42.9136171  20.1365052  79.7514763  43.9163448
  19.8801986  79.3511399  44.7471656  19.5117920  80.4658557  43.7913587
  24.4477390  82.4910836  46.4234740  23.8876948  82.5604025  47.1966302
  23.8420893  82.3151821  45.7034236   7.5172598  93.9247563  48.1752926
   7.4004983  94.8692996  48.0731616   6.6965045  93.6221125  48.5638725
  17.4049133  88.6497699  39.0209519  18.2394737  88.2178897  38.8386993
  17.2433476  88.4779713  39.9486413  17.0595025  85.1529812  40.3865858
  17.0043829  84.9874084  39.4454302  16.4341080  85.8605845  40.5428048
   1.8487540  80.3897877  54.2127280   2.4946404  79.8796831  54.7014505
   1.6404691  81.1266558  54.7870705  14.3740932  87.4578724  59.7119421
  15.2432092  87.6319376  59.3506056  13.8947684  88.2773141  59.5895150
  10.3691151  74.6537921  39.9651176  10.3569821  75.5979761  40.1219447
  11.2614573  74.4708067  39.6710637   8.5427113  94.5775825  51.3908854
   9.4454359  94.6099435  51.7075349   8.3164483  93.6476276  51.4055190
  10.2980715  93.3306812  48.0518933   9.3476346  93.3308673  47.9383305
  10.6013201  92.5839546  47.5354968  14.1843270  71.2480698  44.2197113
  13.4175666  70.6939185  44.3653795  14.5953975  71.3202567  45.0811265
   6.1885031  77.5365494  58.3102294   7.0516493  77.1802299  58.5205619
   5.6150442  77.1979389  58.9977699  26.0333408  99.1667350  49.1164695
  26.6711818  99.0474097  48.4128035  25.9154251 100.1148194  49.1752647
  22.8423114  99.1194778  49.0526220  22.5041626  99.0035843  48.1646755
  23.7112883  98.7185943  49.0327226  18.7009930 100.9730255  45.0423111
  18.1374795 100.8820192  44.2739399  18.5862325 100.1530159  45.5225604
  23.3242897 100.2729630  55.0112426  23.3131538  99.8782428  54.1392929
  23.4863537  99.5395703  55.6046197  16.2474362 102.4681446  47.8807331
  17.0395654 102.1272271  47.4653631  16.4871012 102.5776421  48.8009485
  24.2809489 104.6401222  40.3537576  23.6297469 105.2255303  39.9671590
  25.0753852 105.1707417  40.4132613  18.2065116 101.7290359  40.7524710
  18.9795992 101.1819347  40.6137586  18.5590515 102.5934609  40.9639172
  20.0450159 103.0566742  53.9591610  19.7540025 103.9612373  53.8438276
  20.6807143 103.0983269  54.6735679  20.9706365 100.4343590  50.5492969
  21.5669938 100.2099613  49.8349932  21.0281337  99.6928336  51.1518417
  20.5431394  97.8883026  38.3843160  20.7956914  97.3664547  37.6226623
  19.6055953  97.7249171  38.4869844  25.5874677  96.8918804  46.1917903
  26.3737766  96.4738227  45.8408320  25.8513381  97.7964896  46.3599552
  25.7584754 102.3291654  40.8906560  25.1230587 102.4026281  41.6027465
  25.4282160 102.9185253  40.2125639  30.9883104  96.8294037  47.0950882
  31.7208276  96.2593254  47.3288711  30.2322459  96.4415638  47.5357387
  20.2627683  99.7911132  40.5867535  20.1463941  99.1156035  41.2548619
  20.3729942  99.3043505  39.7699688  22.6059223  99.2521279  44.2914224
  22.2417431  98.7251900  45.0027146  23.4626339  98.8619748  44.1180710
  28.5108524  90.5415611  51.5545490  28.1791849  91.4111022  51.3306705
  27.9154137  90.2251895  52.2339521  22.2464710  94.2811178  39.2875573
  22.4139113  95.1491415  39.6546044  22.0561880  94.4438460  38.3636862
  25.0040044 102.7428157  50.9541403  24.7040767 103.6453196  50.8457210
  24.6591103 102.4760340  51.8062556  18.4552525  99.1941954  46.9878108
  17.5303022  99.0618168  47.1955799  18.7036938  99.9736173  47.4848050
  28.4037187  95.2610697  48.6338841  27.4954065  95.1926106  48.3397602
  28.3524783  95.7382642  49.4620666  22.2253931  96.7368836  40.2722240
  22.1053557  97.1825887  41.1107720  21.5306520  97.0854154  39.7135778
  15.8161336  98.8375228  47.8221897  15.9453717  99.0909707  48.7361308
  15.1358787  99.4302936  47.5026552  19.9860823 109.5072478  43.9212371
  19.9084853 110.4580303  44.0000851  19.3822467 109.1618350  44.5787297
  22.4778053  96.6800343  56.5773738  21.7011387  97.2394263  56.5676602
  23.1168616  97.1657126  57.0988608  30.2698834  93.4627136  50.4116714
  29.6273214  93.7559669  49.7656509  29.7653762  93.3480056  51.2169911
  27.9238997  97.2090309  41.1002574  28.8356854  97.4417696  40.9250271
  27.4148645  97.7927353  40.5377652  20.7324426  99.4885796  56.1391705
  21.4739110 100.0270840  55.8626528  20.0261411 100.1152085  56.2963257
  26.2079765 101.6314937  54.7363866  26.6163121 101.1897347  53.9918499
  25.4857027 101.0567564  54.9898059  22.5610835  96.5687544  52.1097423
  23.4072030  96.9926957  52.2532072  22.5009473  95.9121168  52.8035986
  26.5308580 102.1916127  48.4916155  25.9017442 102.3561842  47.7892223
  26.1434242 102.6057737  49.2627119  30.4097812 103.1270565  45.8460519
  29.7248850 103.5069467  45.2957552  30.4941661 103.7365892  46.5792467
  25.7110281  94.2291912  53.7678597  25.4671212  94.9833973  53.2312873
  25.9870211  94.6077260  54.6025844  27.6648743 100.7730524  52.4455862
  27.8765639 101.4162284  51.7690244  27.6178492  99.9392841  51.9777793
  25.2674972  93.3848345  49.3492435  24.4059451  93.6829599  49.6409172
  25.2937407  93.6018744  48.4173467  22.0836542 101.9290536  45.7566240
  22.5474887 102.2078239  44.9670863  21.8193340 101.0273980  45.5739331
  18.9760623 101.4762017  48.6946004  19.5461980 101.9049285  48.0563488
  19.5668735 101.1944602  49.3930189  21.0205428  98.0513688  42.5655805
  21.7229471  98.5034732  43.0329732  20.6886056  97.4097507  43.1935699
  19.4685789  96.6425445  56.9407015  18.8384450  97.3241725  57.1742412
  19.3621877  96.5308526  55.9960153  14.7630762  96.3097241  47.8672939
  13.9729816  96.5654769  47.3913050  15.2542009  97.1245578  47.9724980
  28.7794571 103.6502480  50.6178220  29.6012015 103.2482667  50.3360901
  28.7756974 103.5470714  51.5694336  16.7145507  96.6741820  44.8256416
  15.9176670  96.7860514  45.3439911  16.4871099  97.0128472  43.9597306
  22.5451175 103.1986523  52.7738930  22.6095607 103.6606930  53.6097102
  21.8362099 102.5683888  52.9021240  13.0468465  96.5627731  50.2987930
  13.2976503  97.4474741  50.5645506  13.5828013  96.3832333  49.5263022
  36.8700564  99.9941228  46.9663191  36.1164273  99.4248626  46.8107196
  37.0048106  99.9603893  47.9133826  22.2599192 104.8654631  42.6417911
  22.1244867 105.7106166  43.0702758  22.8009005 105.0673908  41.8783844
  18.7466532  90.9446210  59.3032266  18.3533478  90.3912409  59.9779910
  19.5632672  91.2556789  59.6938783  15.7128590 102.3830069  43.2145836
  16.2253110 103.1773319  43.3651400  16.3651303 101.6856359  43.1479437
  17.5223474 105.4995825  45.2968589  17.6990103 106.4213790  45.1089573
  18.3180308 105.1854244  45.7262969  21.6634493  92.3604089  56.8952522
  22.4044206  92.9611243  56.8156985  21.8952416  91.6181727  56.3370565
  16.8075831  97.5460457  55.1730752  16.6929346  96.6445714  55.4737851
  15.9520349  97.7924154  54.8215569  23.8867669 105.4878197  56.7718253
  23.4431523 104.7014576  56.4539157  24.5484882 105.6757348  56.1062144
  18.6454790 107.0173999  51.2978931  19.1962215 106.8891062  50.5255925
  17.8066266 107.3168888  50.9473824  25.9848907 105.7680997  54.7999654
  25.9667382 106.5889878  54.3079923  26.9068827 105.6435072  55.0249795
  22.4421961 103.2825126  55.6423162  22.9750298 102.5213415  55.4122470
  21.9136042 102.9898778  56.3847317  25.6091656  88.3885192  51.1716804
  25.2655925  89.2786834  51.0955915  25.9770619  88.1986850  50.3086389
  13.6777507 100.7118723  43.9905406  14.5152729 101.1215731  43.7739114
  13.8555774  99.7718165  43.9605600  25.5741939  98.3793804  39.6789239
  25.0588562  99.1498408  39.9177627  25.3019247  97.7058940  40.3022301
  23.1589050  93.2243504  44.7374478  22.3030646  92.8350355  44.5580116
  23.5716001  93.3035465  43.8774263  24.6888196  90.7589848  49.1366037
  24.1852992  90.7219983  48.3233843  24.9818803  91.6682590  49.1962694
  20.9331082  90.8428577  48.1432219  21.7984079  90.6471386  47.7838109
  21.0008591  90.6138929  49.0701576  30.5476213 101.1326158  41.6142413
  29.7705656 100.7937318  41.1697575  31.2267694 101.1378781  40.9397378
  25.3628242  96.2520896  41.5049020  25.0578377  96.5667045  42.3559164
  26.3158684  96.3302316  41.5476353  23.8074674 102.4111119  43.1541974
  23.2796035 101.6763879  42.8415212  23.3062176 103.1885795  42.9081943
  28.7867520 100.6060139  48.2709021  28.1291194 101.2959401  48.3589149
  29.5907919 100.9956571  48.6143007  18.5393401  93.0730785  45.5148586
  19.1137153  92.8505967  44.7821779  19.1264384  93.1419480  46.2677187
  27.5972978  98.9604512  46.3212962  28.1104860  99.5934504  46.8234672
  28.2474202  98.3605708  45.9556322  18.8662988  95.1035246  39.5344471
  18.0300301  95.4409933  39.8553746  18.7267758  94.9684226  38.5971608
  20.8416069  89.9472034  44.2423655  20.1880481  89.6321051  43.6180270
  20.7996543  89.3247775  44.9683478  21.9527274 100.2291329  36.1576947
  21.0454336  99.9980583  36.3568096  22.4498306  99.4328948  36.3450929
  24.8595353 108.9388836  39.0773634  24.1857051 109.2420533  39.6858591
  25.2461175 109.7417917  38.7279091  24.0753809  96.4353968  48.5671303
  23.1576371  96.6568915  48.4092991  24.4913953  96.5100278  47.7083010
  24.8588857  97.8345383  43.6973983  25.6060676  98.3466781  43.3881105
  25.1280447  97.5129436  44.5578377  23.1315507 100.3303924  40.6800938
  22.2226727 100.0462957  40.7773407  23.1610591 100.7503003  39.8204244
  28.3634775 103.9410514  44.4492105  27.9097102 103.1001423  44.5057296
  27.7328741 104.5771912  44.7866885  27.3067694  94.8702500  45.6792773
  26.5690451  94.3579886  46.0103015  27.5594468  94.4302881  44.8676049
  26.8067714 105.7787010  45.3841923  27.0990688 106.3392067  44.6654289
  27.3166335 106.0715571  46.1395082  27.4079322  87.6478752  46.2734542
  27.7138198  86.7876115  45.9860457  28.1331926  88.2396372  46.0733536
  13.7003678  98.0509438  44.6616140  13.5028077  97.4578799  43.9367206
  13.1450342  97.7461648  45.3792079  21.6800401  97.9432545  46.7810733
  21.7349011  96.9906381  46.7053209  20.8691603  98.0991984  47.2652031
  22.8291595 101.8712668  38.0189016  22.3911025 101.1548527  37.5594653
  23.5702036 102.0988783  37.4574107  19.6192761  96.5609604  44.5401112
  18.8060627  96.8603775  44.9466304  20.1151755  96.1665293  45.2575594
  21.7701339 106.5567361  46.4735376  21.7277518 106.7828208  45.5443908
  22.6864038 106.3230736  46.6221178  25.2166973  97.0251429  53.3716006
  25.5716361  97.2522902  54.2310471  25.8639104  97.3569806  52.7493261
  30.9464710 100.1469865  44.0765335  30.8082608 100.3371461  43.1486524
  30.5900929 100.9089248  44.5333386  19.1106836  94.1327960  50.1562347
  19.7506215  93.9916719  49.4585310  18.2784367  93.8462473  49.7800949
  30.9734089 102.2146392  49.0876606  31.4070596 102.1221681  49.9359660
  31.6865670 102.1903892  48.4496622  19.8867140 103.4330390  46.2697339
  20.6807738 102.9380711  46.0679914  19.1758832 102.9048254  45.9065045
  24.7061984 105.8148486  50.6209707  24.7599007 106.3839422  51.3887423
  23.8376766 105.9850371  50.2563744  16.1949903  97.5773472  42.3457092
  15.2647491  97.5157928  42.5627054  16.2907375  97.0549425  41.5493733
  16.1135452  94.1028285  44.9335333  16.3742270  95.0173618  44.8244494
  16.9352625  93.6352728  45.0831946  17.5860378  95.5166042  52.1034158
  18.2583431  95.3083404  51.4546807  16.7590164  95.3188128  51.6639390
  31.8349639 102.2570092  51.6209492  32.0285529 103.1615903  51.8668766
  31.7350257 101.7977512  52.4548077  23.4885950  92.1427983  54.1199819
  22.8413865  92.8417933  54.0264295  24.2586965  92.5764127  54.4876067
  26.8964748 102.4076835  57.1950372  26.7450254 102.1787387  56.2780456
  26.8869427 103.3647437  57.2081717  23.6650084  99.9808748  52.1796639
  24.5942144 100.1319908  52.0065606  23.2441114 100.0692769  51.3245285
  22.4638416 104.0059412  49.9495176  22.3249502 103.6378197  50.8221114
  21.6753012 104.5207052  49.7779134  23.0586568 109.1068509  41.2920713
  23.2338324 108.6356552  42.1066335  22.3719356 109.7334275  41.5201973
  24.0143631 103.3841015  47.3384014  23.6793464 103.3441785  48.2341664
  23.5147577 102.7185731  46.8654424  17.9887875  98.7908645  52.8636595
  17.8507673  98.0588884  53.4648134  18.8992798  98.7017545  52.5820783
  26.9502823 100.7297049  37.6121074  26.3331993 100.0043878  37.5154126
  26.4819311 101.4906410  37.2688148  20.6170176  98.5028604  52.3520275
  21.3269794  97.8621797  52.3106893  20.5739484  98.7541499  53.2746456
  28.6056954 105.4395958  55.2726854  28.5469501 104.7555178  54.6057437
  29.0076473 106.1814948  54.8207480  19.3299110  95.4893822  54.1715914
  18.7936467  95.0384561  54.8237511  18.7415818  95.6239731  53.4286379
  18.7401369  94.9482474  36.7342378  17.8630835  94.8271274  36.3704625
  19.2159122  94.1568552  36.4821267  28.6074362 103.4035542  53.5040834
  27.7201140 103.0661463  53.6267233  29.1772913 102.6718573  53.7409599
  10.2603509  99.7359633  46.8283885  10.9474549  99.4221363  46.2404900
  10.1051637 100.6400998  46.5551137  15.0638231  94.6249830  51.2568909
  14.9796420  94.0175500  50.5219319  14.2420937  95.1158848  51.2578405
  22.1375515 108.0636994  50.4702077  22.0645686 108.8691966  50.9821381
  21.6952908 108.2628960  49.6450098  21.9265295 107.3008764  43.9804898
  21.1432817 107.8430444  44.0743123  22.6258040 107.8182744  44.3799140
  25.2361945  93.1103394  46.6239104  25.7330644  92.3573356  46.3040174
  24.4648926  93.1467710  46.0582313  33.0891702  98.8143759  48.2657395
  33.0781578  99.6968474  47.8951328  32.2209082  98.4615310  48.0711932
  24.5974199 107.9623828  52.6260236  25.3102171 108.5971293  52.5536137
  24.1064227 108.0587694  51.8100237  26.3191725 101.8675081  44.1977527
  25.3848004 101.9876543  44.0282232  26.4968394 100.9647548  43.9337537
  21.8196914  95.2520777  46.3510788  21.4494701  94.6991817  47.0391694
  22.3156006  94.6478910  45.7985788  29.7064277  97.7092400  44.7327561
  30.1724729  98.5420392  44.6587864  30.1571777  97.2437382  45.4372820
  19.6486112 105.7118272  53.4465806  20.3495572 106.3454755  53.5995201
  19.1781227 106.0533003  52.6861446  27.7740508 104.0536221  41.7313713
  28.0500352 103.9392816  42.6407587  26.9045007 103.6553706  41.6925887
  27.6780940  90.0772987  48.7718463  26.7644019  90.3077214  48.9400670
  28.1074041  90.1611431  49.6232495  27.4487398  98.2662879  51.2718357
  26.7958848  98.5138786  50.6170810  27.8267778  97.4527017  50.9380834
  24.4094572 108.3022572  45.3746527  24.5916966 107.4844228  45.8374279
  25.2327558 108.5190264  44.9371417  24.7436737 107.2290757  42.6361576
  25.2724504 106.7183212  42.0231738  25.0064957 106.9133288  43.5007109
  23.4974971  99.0082690  57.7584394  22.8215608  98.9076819  58.4286769
  24.3202605  98.8521904  58.2220391  15.2453830 105.2454627  50.3796909
  15.8307267 104.4998314  50.5124813  15.0478669 105.5558583  51.2633573
  18.0992485 108.2805874  45.3959351  17.4302861 108.7652002  44.9123392
  17.9605355 108.5275094  46.3102730   9.8371485  97.8160227  49.1001352
   9.8755584  97.2823817  49.8938470   9.3311778  97.2895432  48.4812329
  22.2397754 110.3149617  51.9942010  22.7916062 110.4781239  52.7591095
  22.5803947 110.9054055  51.3222035  17.2162247  92.6624767  52.5963895
  17.2803574  93.5239598  52.1841292  17.1529367  92.0498769  51.8636253
  16.6914520  94.7347900  56.2436929  17.3186559  94.3524977  56.8574453
  15.8342439  94.5162102  56.6092621  27.0908628 105.1410875  57.8490664
  27.6348532 105.7540833  57.3545619  26.5095473 105.6990453  58.3657677
  13.4680062  96.5424329  42.1755284  13.7633504  95.6335007  42.1222337
  12.5668098  96.5212068  41.8536286  25.3766141 108.2631593  48.9805692
  25.2517281 107.4621333  48.4716637  26.0345232 108.7577786  48.4919662
  16.9974309  94.6180326  48.1582832  16.2760895  95.2316293  48.0190306
  17.7867565  95.1538090  48.0799478  27.4401050 106.0640613  50.6085242
  26.4931385 105.9445964  50.5363569  27.7883823 105.1763111  50.6911504
  19.8000623  91.9534752  54.4323484  20.3235025  92.1997049  55.1949793
  19.5812956  92.7854787  54.0126621  15.1967904  94.2238427  42.2994609
  14.8680610  93.3435806  42.1169715  15.5507275  94.1686095  43.1870998
  24.4447483 105.8593329  46.8089594  24.2972445 104.9310037  46.9897164
  25.2700976 105.8813420  46.3246670  18.3109727  94.5111396  42.6670086
  18.6505800  95.0397318  41.9448695  18.7581848  94.8491803  43.4428653
  28.0481605 106.6821888  47.8954467  28.9728152 106.4764749  47.7578918
  27.8796908 106.4338289  48.8043809  21.0053168  92.8948447  52.1173155
  20.6649988  92.0956260  52.5193834  20.2992174  93.1950158  51.5449988
  21.6569640  89.9797760  50.5700478  22.4795709  89.5058238  50.4479368
  21.9007703  90.7588243  51.0699164  20.2977874  93.0086018  40.8663379
  21.0186237  93.3867271  40.3627096  19.6743178  93.7274895  40.9698357
  24.4408997  93.7131167  41.8021712  24.6572612  94.5955805  41.5010540
  23.9603064  93.3217380  41.0727354  19.1808219  96.6716880  48.3792456
  19.0352799  96.9857183  49.2716738  18.7033422  97.2901781  47.8263355
  21.0404601  93.6619428  48.4273346  21.0266170  92.7660521  48.0905644
  21.7577030  93.6690092  49.0611632  22.8930732  94.0956768  50.4726473
  22.6348510  95.0173839  50.4710804  22.3615773  93.6987203  51.1626937
  27.8376921 107.2007555  43.2516559  28.0113798 106.6353978  42.4990411
  28.3305812 108.0008450  43.0696048  13.6553881  99.2122225  51.3180117
  13.1107349  99.9882033  51.4500392  14.5333231  99.5593029  51.1599239
  20.4441497  92.5433808  43.6960916  20.5657409  91.6150455  43.8951803
  20.1543540  92.5572494  42.7839231  23.3132688  90.2288719  46.8327636
  23.3354385  90.2928052  45.8779615  23.7300747  89.3893228  47.0268142
  33.6916312  99.9643978  44.8706858  34.1347458  99.2151304  44.4725982
  32.8142822  99.9554115  44.4880590  28.8252093 106.5174320  40.3513457
  29.5202998 107.1381013  40.5700771  29.1675244 105.6669671  40.6265835
  14.4419903  98.3392121  54.2110274  13.7001639  98.4874756  54.7974905
  14.1212647  98.6000386  53.3477024  30.7243517 103.9674025  41.8800788
  31.2494841 104.3061298  41.1550108  30.6365869 103.0321041  41.6963922
  22.3863565 107.8808099  54.0090664  22.6950692 107.6357246  54.8813364
  23.1839047 108.0854738  53.5209534  22.4084177 110.0346009  46.2396041
  21.9689168 109.5422387  46.9328897  23.1592294 109.4918976  45.9988116
  14.8876516 106.2257550  46.2420669  15.7134536 105.9261321  45.8619312
  14.5370568 105.4565172  46.6910457  19.8558049 105.5784018  48.3118342
  19.2338059 104.9154723  48.0120570  20.5262916 105.6045150  47.6291990
  13.0885121 104.1443876  47.2009602  12.2517030 103.7166050  47.0193604
  13.0608767 104.3376319  48.1380394  19.9282577  94.0565806  57.9050848
  19.9770732  94.9327929  57.5228618  20.4705091  93.5143199  57.3322492
  30.4137423 104.6006929  57.1851986  29.6232966 104.5831068  56.6456485
  30.1770777 105.1395223  57.9401022  30.5335298 101.4499395  54.4984714
  30.5833303 101.2849403  55.4400237  30.4249221 100.5826654  54.1082595
  19.4171556 104.1287941  41.7876803  19.5659677 104.8123406  41.1343476
  20.2238000 104.1093031  42.3026259  27.8239060  97.4330323  55.8144021
  28.7248923  97.2936788  55.5228019  27.8987035  97.5984778  56.7542198
  22.1581865  94.8097178  54.6597207  21.2885175  95.1030744  54.3879796
  22.3941346  95.3937623  55.3804471  32.0353495 103.8696337  54.7426736
  31.7438303 104.2326318  55.5790197  31.4225626 103.1563345  54.5640068
  33.2349177 101.4349217  47.2629306  34.0696068 101.8739021  47.4266866
  33.3708306 100.9587870  46.4437552  30.2840683  98.9928952  53.2106794
  30.7594804  99.1856598  52.4025645  29.3606248  99.0488137  52.9650177
  17.1724189 100.1553119  42.7937872  16.9270231  99.2515449  42.9918082
  17.3420104 100.1570269  41.8517350  24.8620899  91.0276795  52.1762627
  25.3802843  91.7637822  51.8509116  24.5076032  91.3340788  53.0109387
  16.4419837  95.8881476  40.2924033  15.7489082  95.9625831  39.6364069
  16.1971589  95.1241820  40.8145550  25.1133493  87.4477078  47.6963524
  25.3935247  86.7800267  48.3223951  25.8984100  87.6406173  47.1838188
  22.9166962 106.6236072  39.2588550  22.3440929 107.2426259  38.8059022
  23.4899756 107.1735433  39.7928472  28.9842352  95.8694712  51.4435099
  29.9359775  95.9692809  51.4647323  28.8145802  95.0772980  51.9533184
  27.0056731  92.9550295  51.6294500  26.4106663  93.2355308  50.9340989
  26.7206428  93.4444196  52.4011241  26.1364222 106.9073222  40.3897133
  27.0694895 106.8418783  40.5930008  26.0487435 107.7429489  39.9311665
  28.7652238 106.2239092  37.3501080  28.6865870 105.8898956  38.2436838
  29.5861905 106.7160860  37.3492553  31.4630430  99.0900831  50.5577399
  31.4306750  98.1516832  50.7437083  32.0731053  99.1684868  49.8243224
  23.3013760  97.9596884  36.6004603  24.2472865  97.8303092  36.6693021
  22.9228005  97.2211546  37.0774031  31.6124918  95.8811875  50.6035682
  31.0963967  95.0970331  50.4165611  32.4964867  95.5530591  50.7682201
  29.2735645  89.6252890  46.5631495  29.0760466  89.3167979  47.4474827
  29.8835351  90.3514529  46.6929425  37.2806979 100.1516838  49.6983436
  38.0110368  99.8902126  50.2591139  36.6713925  99.4145560  49.7385504
  35.3622277  98.2924701  50.2957887  34.6355440  98.1580666  49.6874378
  34.9469563  98.6001529  51.1014605  23.1852453 102.0114630  58.0605260
  24.1055462 102.1893229  58.2545306  23.1502036 101.0670676  57.9084959
  21.4856678  95.8846861  36.5359488  20.5788133  95.5879973  36.6122202
  21.7632659  95.5876679  35.6693774  12.4034618  97.2053224  46.9858534
  12.0837402  96.3518532  46.6932908  11.8568046  97.4201802  47.7416502
  16.1814525  99.9215665  50.7028041  16.4000535 100.8532773  50.7216075
  16.5940299  99.5623640  51.4882845  23.1018743  90.4283750  42.6903729
  22.2919472  90.0830835  43.0658975  23.7903160  90.1191294  43.2791341
  25.0309292  89.5061797  44.3128026  25.5840330  89.9257251  44.9718049
  25.2679378  88.5797545  44.3550982  21.0542391  95.4948871  60.0930790
  20.9539118  96.4443228  60.0242881  20.8363933  95.1667110  59.2206860
  20.2555462  92.7433796  36.6771467  21.1174626  93.0688694  36.9367285
  20.4405806  91.9565292  36.1644533  12.2722878 100.8256136  48.9551656
  11.5786349 100.4110088  48.4421610  13.0195869 100.8676672  48.3585075
  28.4088099  91.6162322  43.8206690  27.8286768  92.2747126  43.4384743
  28.1424031  90.7939667  43.4094108  26.8591665  91.0167380  46.0228011
  27.3591443  91.1283915  45.2142329  27.5027273  90.7128433  46.6628819
  20.9173661  98.9246010  58.9095852  20.4340743  99.7246370  59.1159741
  21.0034600  98.9353955  57.9563296  14.1859620 100.7574389  46.8317671
  14.1630309 100.8562077  45.8799554  14.4960257 101.6039540  47.1534837
  16.8446998 102.8150544  50.9464285  17.7990252 102.7834487  50.8794217
  16.6459522 102.3541168  51.7614511  17.4346380 101.3851660  53.5135083
  18.2539269 101.8795739  53.5369920  17.7083188 100.4683629  53.4852651
  27.1912977  93.7762413  42.8763039  26.3038832  94.0612063  42.6583233
  27.6066966  93.6156176  42.0290315  30.5427513  93.8008934  46.5917378
  31.3187903  94.2905386  46.8641995  29.8175647  94.2266988  47.0489247
  32.9800071  94.5136553  47.6491318  33.5744562  94.2732289  46.9384627
  33.0526655  93.7943684  48.2764855  26.3356190 103.5407087  36.9711059
  27.0392040 103.7457090  37.5868714  25.6118839 104.1083849  37.2360142
  27.1654000  99.2916949  43.0913329  27.1089202  99.7485500  42.2520961
  27.7182343  98.5307633  42.9136171  30.9758806  95.0806681  43.9163448
  30.7195741  94.6803316  44.7471656  30.3511674  95.7950475  43.7913587
  35.2871144  97.8202754  46.4234740  34.7270702  97.8895943  47.1966302
  34.6814648  97.6443738  45.7034236  28.2442888 103.9789617  39.0209519
  29.0788491 103.5470815  38.8386993  28.0827230 103.8071630  39.9486413
  27.8988780 100.4821730  40.3865858  27.8437584 100.3166001  39.4454302
  27.2734835 101.1897763  40.5428048  12.6881295  95.7189794  54.2127280
  13.3340158  95.2088748  54.7014505  12.4798446  96.4558476  54.7870705
  25.2134687 102.7870642  59.7119421  26.0825847 102.9611294  59.3506056
  24.7341438 103.6065059  59.5895150  21.2084905  89.9829839  39.9651176
  21.1963575  90.9271679  40.1219447  22.1008327  89.7999984  39.6710637
  19.3820867 109.9067743  51.3908854  20.2848114 109.9391353  51.7075349
  19.1558237 108.9768194  51.4055190  21.1374469 108.6598729  48.0518933
  20.1870100 108.6600591  47.9383305  21.4406955 107.9131464  47.5354968
  25.0237025  86.5772616  44.2197113  24.2569420  86.0231102  44.3653795
  25.4347730  86.6494484  45.0811265  17.0278786  92.8657411  58.3102294
  17.8910247  92.5094216  58.5205619  16.4544196  92.5271306  58.9977699
  36.8727163 114.4959268  49.1164695  37.5105573 114.3766015  48.4128035
  36.7548006 115.4440112  49.1752647  33.6816869 114.4486696  49.0526220
  33.3435380 114.3327761  48.1646755  34.5506637 114.0477861  49.0327226
  34.1636652 115.6021548  55.0112426  34.1525293 115.2074346  54.1392929
  34.3257291 114.8687620  55.6046197  31.3825148 113.2174943  38.3843160
  31.6350669 112.6956465  37.6226623  30.4449707 113.0541089  38.4869844
  36.4268431 112.2210722  46.1917903  37.2131520 111.8030145  45.8408320
  36.6907135 113.1256814  46.3599552  41.8276858 112.1585955  47.0950882
  42.5602030 111.5885172  47.3288711  41.0716214 111.7707555  47.5357387
  33.4452978 114.5813196  44.2914224  33.0811185 114.0543817  45.0027146
  34.3020094 114.1911665  44.1180710  39.3502279 105.8707529  51.5545490
  39.0185603 106.7402940  51.3306705  38.7547892 105.5543813  52.2339521
  33.0858465 109.6103096  39.2875573  33.2532867 110.4783332  39.6546044
  32.8955634 109.7730378  38.3636862  39.2430942 110.5902615  48.6338841
  38.3347819 110.5218024  48.3397602  39.1918538 111.0674560  49.4620666
  33.0647686 112.0660754  40.2722240  32.9447311 112.5117804  41.1107720
  32.3700274 112.4146071  39.7135778  33.3171808 112.0092261  56.5773738
  32.5405142 112.5686181  56.5676602  33.9562371 112.4949044  57.0988608
  41.1092588 108.7919054  50.4116714  40.4666969 109.0851587  49.7656509
  40.6047517 108.6771974  51.2169911  38.7632752 112.5382227  41.1002574
  39.6750608 112.7709613  40.9250271  38.2542399 113.1219271  40.5377652
  33.4004590 111.8979461  52.1097423  34.2465785 112.3218875  52.2532072
  33.3403227 111.2413086  52.8035986  36.5504035 109.5583830  53.7678597
  36.3064967 110.3125890  53.2312873  36.8263966 109.9369177  54.6025844
  38.5042498 116.1022442  52.4455862  38.7159393 116.7454202  51.7690244
  38.4572246 115.2684759  51.9777793  36.1068727 108.7140263  49.3492435
  35.2453206 109.0121516  49.6409172  36.1331161 108.9310662  48.4173467
  31.8599182 113.3805606  42.5655805  32.5623226 113.8326649  43.0329732
  31.5279811 112.7389424  43.1935699  30.3079544 111.9717362  56.9407015
  29.6778204 112.6533643  57.1742412  30.2015632 111.8600444  55.9960153
  25.6024516 111.6389158  47.8672939  24.8123570 111.8946687  47.3913050
  26.0935764 112.4537496  47.9724980  27.5539262 112.0033738  44.8256416
  26.7570425 112.1152432  45.3439911  27.3264854 112.3420390  43.9597306
  47.7094319 115.3233146  46.9663191  46.9558027 114.7540544  46.8107196
  47.8441860 115.2895810  47.9133826  29.5860286 106.2738128  59.3032266
  29.1927232 105.7204327  59.9779910  30.4026427 106.5848707  59.6938783
  32.5028247 107.6896007  56.8952522  33.2437961 108.2903160  56.8156985
  32.7346170 106.9473645  56.3370565  36.4485410 103.7177110  51.1716804
  36.1049680 104.6078752  51.0955915  36.8164373 103.5278768  50.3086389
  36.4135693 113.7085721  39.6789239  35.8982317 114.4790326  39.9177627
  36.1413002 113.0350857  40.3022301  33.9982804 108.5535422  44.7374478
  33.1424400 108.1642272  44.5580116  34.4109756 108.6327383  43.8774263
  35.5281951 106.0881765  49.1366037  35.0246746 106.0511900  48.3233843
  35.8212558 106.9974508  49.1962694  31.7724837 106.1720495  48.1432219
  32.6377833 105.9763304  47.7838109  31.8402346 105.9430847  49.0701576
  41.3869967 116.4618076  41.6142413  40.6099410 116.1229235  41.1697575
  42.0661448 116.4670699  40.9397378  36.2021996 111.5812813  41.5049020
  35.8972132 111.8958962  42.3559164  37.1552438 111.6594233  41.5476353
  39.6261274 115.9352057  48.2709021  38.9684949 116.6251319  48.3589149
  40.4301673 116.3248489  48.6143007  29.3787156 108.4022703  45.5148586
  29.9530908 108.1797884  44.7821779  29.9658138 108.4711397  46.2677187
  38.4366733 114.2896430  46.3212962  38.9498615 114.9226422  46.8234672
  39.0867957 113.6897625  45.9556322  29.7056743 110.4327164  39.5344471
  28.8694055 110.7701850  39.8553746  29.5661513 110.2976144  38.5971608
  31.6809823 105.2763952  44.2423655  31.0274236 104.9612969  43.6180270
  31.6390298 104.6539692  44.9683478  34.9147564 111.7645885  48.5671303
  33.9970125 111.9860832  48.4092991  35.3307707 111.8392196  47.7083010
  35.6982612 113.1637301  43.6973983  36.4454431 113.6758698  43.3881105
  35.9674201 112.8421354  44.5578377  38.1461449 110.1994417  45.6792773
  37.4084206 109.6871804  46.0103015  38.3988222 109.7594799  44.8676049
  38.2473076 102.9770669  46.2734542  38.5531953 102.1168033  45.9860457
  38.9725681 103.5688289  46.0733536  32.5194156 113.2724462  46.7810733
  32.5742766 112.3198299  46.7053209  31.7085358 113.4283901  47.2652031
  30.4586516 111.8901522  44.5401112  29.6454381 112.1895693  44.9466304
  30.9545510 111.4957211  45.2575594  36.0560727 112.3543347  53.3716006
  36.4110115 112.5814820  54.2310471  36.7032859 112.6861723  52.7493261
  41.7858464 115.4761782  44.0765335  41.6476363 115.6663378  43.1486524
  41.4294683 116.2381165  44.5333386  29.9500590 109.4619878  50.1562347
  30.5899970 109.3208637  49.4585310  29.1178121 109.1754391  49.7800949
  41.8127844 117.5438309  49.0876606  42.2464351 117.4513599  49.9359660
  42.5259425 117.5195810  48.4496622  27.0343658 112.9065390  42.3457092
  26.1041246 112.8449845  42.5627054  27.1301130 112.3841343  41.5493733
  26.9529207 109.4320203  44.9335333  27.2136024 110.3465536  44.8244494
  27.7746379 108.9644645  45.0831946  28.4254132 110.8457960  52.1034158
  29.0977186 110.6375322  51.4546807  27.5983919 110.6480046  51.6639390
  42.6743394 117.5862010  51.6209492  42.8679284 118.4907821  51.8668766
  42.5744012 117.1269429  52.4548077  34.3279704 107.4719901  54.1199819
  33.6807619 108.1709850  54.0264295  35.0980720 107.9056045  54.4876067
  34.5043839 115.3100666  52.1796639  35.4335899 115.4611825  52.0065606
  34.0834869 115.3984686  51.3245285  37.7896577 116.0588967  37.6121074
  37.1725748 115.3335795  37.5154126  37.3213066 116.8198327  37.2688148
  31.4563930 113.8320522  52.3520275  32.1663549 113.1913714  52.3106893
  31.4133238 114.0833417  53.2746456  30.1692864 110.8185740  54.1715914
  29.6330221 110.3676478  54.8237511  29.5809573 110.9531649  53.4286379
  29.5795123 110.2774391  36.7342378  28.7024589 110.1563192  36.3704625
  30.0552876 109.4860470  36.4821267  25.9031985 109.9541748  51.2568909
  25.8190174 109.3467417  50.5219319  25.0814692 110.4450766  51.2578405
  36.0755699 108.4395311  46.6239104  36.5724399 107.6865274  46.3040174
  35.3042681 108.4759628  46.0582313  43.9285457 114.1435677  48.2657395
  43.9175333 115.0260392  47.8951328  43.0602836 113.7907228  48.0711932
  32.6590668 110.5812694  46.3510788  32.2888456 110.0283735  47.0391694
  33.1549760 109.9770828  45.7985788  40.5458031 113.0384318  44.7327561
  41.0118483 113.8712309  44.6587864  40.9965532 112.5729299  45.4372820
  38.5174694 105.4064905  48.7718463  37.6037774 105.6369132  48.9400670
  38.9467795 105.4903349  49.6232495  38.2881153 113.5954797  51.2718357
  37.6352603 113.8430704  50.6170810  38.6661532 112.7818935  50.9380834
  34.3368726 114.3374608  57.7584394  33.6609363 114.2368737  58.4286769
  35.1596359 114.1813821  58.2220391  28.0556002 107.9916685  52.5963895
  28.1197328 108.8531516  52.1841292  27.9923122 107.3790687  51.8636253
  27.5308274 110.0639818  56.2436929  28.1580313 109.6816895  56.8574453
  26.6736193 109.8454019  56.6092621  24.3073817 111.8716247  42.1755284
  24.6027258 110.9626925  42.1222337  23.4061853 111.8503986  41.8536286
  27.8368064 109.9472243  48.1582832  27.1154650 110.5608211  48.0190306
  28.6261320 110.4830008  48.0799478  30.6394377 107.2826670  54.4323484
  31.1628779 107.5288966  55.1949793  30.4206711 108.1146705  54.0126621
  26.0361659 109.5530344  42.2994609  25.7074365 108.6727723  42.1169715
  26.3901029 109.4978013  43.1870998  29.1503482 109.8403314  42.6670086
  29.4899554 110.3689235  41.9448695  29.5975602 110.1783720  43.4428653
  31.8446923 108.2240365  52.1173155  31.5043743 107.4248178  52.5193834
  31.1385929 108.5242076  51.5449988  32.4963394 105.3089677  50.5700478
  33.3189464 104.8350155  50.4479368  32.7401458 106.0880161  51.0699164
  31.1371629 108.3377936  40.8663379  31.8579991 108.7159188  40.3627096
  30.5136933 109.0566812  40.9698357  35.2802752 109.0423085  41.8021712
  35.4966366 109.9247723  41.5010540  34.7996819 108.6509298  41.0727354
  30.0201973 112.0008798  48.3792456  29.8746554 112.3149101  49.2716738
  29.5427177 112.6193698  47.8263355  31.8798356 108.9911346  48.4273346
  31.8659925 108.0952439  48.0905644  32.5970784 108.9982010  49.0611632
  33.7324487 109.4248686  50.4726473  33.4742265 110.3465757  50.4710804
  33.2009527 109.0279121  51.1626937  31.2835252 107.8725726  43.6960916
  31.4051163 106.9442372  43.8951803  30.9937294 107.8864412  42.7839231
  34.1526442 105.5580637  46.8327636  34.1748139 105.6219970  45.8779615
  34.5694501 104.7185145  47.0268142  44.5310067 115.2935896  44.8706858
  44.9741213 114.5443221  44.4725982  43.6536577 115.2846032  44.4880590
  30.7676331 109.3857724  57.9050848  30.8164487 110.2619846  57.5228618
  31.3098846 108.8435117  57.3322492  41.3729052 116.7791313  54.4984714
  41.4227057 116.6141321  55.4400237  41.2642976 115.9118572  54.1082595
  38.6632815 112.7622241  55.8144021  39.5642677 112.6228706  55.5228019
  38.7380789 112.9276696  56.7542198  32.9975620 110.1389096  54.6597207
  32.1278929 110.4322662  54.3879796  33.2335100 110.7229541  55.3804471
  44.0742931 116.7641134  47.2629306  44.9089823 117.2030938  47.4266866
  44.2102060 116.2879788  46.4437552  41.1234437 114.3220869  53.2106794
  41.5988559 114.5148516  52.4025645  40.2000003 114.3780055  52.9650177
  35.7014654 106.3568713  52.1762627  36.2196598 107.0929740  51.8509116
  35.3469786 106.6632706  53.0109387  27.2813591 111.2173394  40.2924033
  26.5882836 111.2917749  39.6364069  27.0365343 110.4533738  40.8145550
  35.9527248 102.7768995  47.6963524  36.2329002 102.1092184  48.3223951
  36.7377855 102.9698091  47.1838188  39.8236106 111.1986629  51.4435099
  40.7753529 111.2984727  51.4647323  39.6539557 110.4064898  51.9533184
  37.8450486 108.2842213  51.6294500  37.2500418 108.5647225  50.9340989
  37.5600182 108.7736114  52.4011241  42.3024184 114.4192749  50.5577399
  42.2700504 113.4808750  50.7437083  42.9124808 114.4976786  49.8243224
  34.1407515 113.2888802  36.6004603  35.0866620 113.1595010  36.6693021
  33.7621760 112.5503464  37.0774031  42.4518673 111.2103792  50.6035682
  41.9357721 110.4262249  50.4165611  43.3358621 110.8822509  50.7682201
  40.1129399 104.9544808  46.5631495  39.9154221 104.6459896  47.4474827
  40.7229105 105.6806447  46.6929425  48.1200734 115.4808756  49.6983436
  48.8504122 115.2194044  50.2591139  47.5107679 114.7437478  49.7385504
  46.2016031 113.6216618  50.2957887  45.4749195 113.4872583  49.6874378
  45.7863318 113.9293447  51.1014605  32.3250432 111.2138778  36.5359488
  31.4181887 110.9171891  36.6122202  32.6026413 110.9168596  35.6693774
  33.9412498 105.7575668  42.6903729  33.1313226 105.4122753  43.0658975
  34.6296915 105.4483212  43.2791341  35.8703046 104.8353715  44.3128026
  36.4234085 105.2549168  44.9718049  36.1073132 103.9089463  44.3550982
  31.8936145 110.8240789  60.0930790  31.7932872 111.7735146  60.0242881
  31.6757687 110.4959027  59.2206860  31.0949217 108.0725714  36.6771467
  31.9568381 108.3980612  36.9367285  31.2799561 107.2857210  36.1644533
  39.2481853 106.9454240  43.8206690  38.6680522 107.6039044  43.4384743
  38.9817786 106.1231585  43.4094108  37.6985420 106.3459298  46.0228011
  38.1985198 106.4575832  45.2142329  38.3421027 106.0420351  46.6628819
  38.0306731 109.1054330  42.8763039  37.1432586 109.3903981  42.6583233
  38.4460720 108.9448094  42.0290315  41.3821267 109.1300851  46.5917378
  42.1581657 109.6197304  46.8641995  40.6569401 109.5558906  47.0489247
  43.8193826 109.8428471  47.6491318  44.4138317 109.6024207  46.9384627
  43.8920410 109.1235601  48.2764855  38.0047755 114.6208866  43.0913329
  37.9482956 115.0777418  42.2520961  38.5576097 113.8599551  42.9136171
  41.8152561 110.4098598  43.9163448  41.5589495 110.0095234  44.7471656
  41.1905429 111.1242392  43.7913587  46.1264899 113.1494672  46.4234740
  45.5664457 113.2187861  47.1966302  45.5208402 112.9735656  45.7034236
  38.7382534 115.8113648  40.3865858  38.6831338 115.6457919  39.4454302
  38.1128589 116.5189681  40.5428048  23.5275049 111.0481712  54.2127280
  24.1733913 110.5380666  54.7014505  23.3192200 111.7850394  54.7870705
  32.0478660 105.3121757  39.9651176  32.0357329 106.2563597  40.1219447
  32.9402082 105.1291902  39.6710637  35.8630779 101.9064533  44.2197113
  35.0963175 101.3523020  44.3653795  36.2741484 101.9786402  45.0811265
  27.8672540 108.1949329  58.3102294  28.7304002 107.8386134  58.5205619
  27.2937951 107.8563224  58.9977699  47.2879165 119.0469028  51.1716804
  46.9443434 119.9370669  51.0955915  47.6558127 118.8570685  50.3086389
  49.0866831 118.3062587  46.2734542  49.3925707 117.4459950  45.9860457
  49.8119435 118.8980207  46.0733536  46.7921002 118.1060913  47.6963524
  47.0722756 117.4384102  48.3223951  47.5771609 118.2990009  47.1838188
  50.9523154 120.2836726  46.5631495  50.7547975 119.9751814  47.4474827
  51.5622859 121.0098365  46.6929425  46.7024534 117.2356451  44.2197113
  45.9356929 116.6814938  44.3653795  47.1135239 117.3078320  45.0811265
   4.3519302  31.0127598  33.6908498   3.5983010  30.4434996  33.5352502
   4.4866843  30.9790262  34.6379133   0.7167915  32.4535586  33.9874612
   1.5514806  32.8925390  34.1512173   0.8527043  31.9774240  33.1682858
   4.7625717  31.1703208  36.4228742   5.4929106  30.9088496  36.9836446
   4.1532663  30.4331930  36.4630810   2.8441014  29.3111070  37.0203193
   2.1174178  29.1767035  36.4119685   2.4288301  29.6187899  37.8259912
   0.4618809  25.5322923  34.3736625   1.0563300  25.2918659  33.6629933
   0.5345393  24.8130053  35.0010161   2.7689882  28.8389123  33.1480046
   2.2089440  28.9082313  33.9211608   2.1633385  28.6630108  32.4279542
   4.3545900  45.5145637  35.8410002   4.9924310  45.3952385  35.1373342
   4.2366743  46.4626481  35.8997954   1.1635607  45.4673065  35.7771527
   0.8254118  45.3514130  34.8892062   2.0325375  45.0664231  35.7572533
   1.6455390  46.6207917  41.7357732   1.6344030  46.2260715  40.8638236
   1.8076029  45.8873990  42.3291504   2.6021981  50.9879510  27.0782883
   1.9509961  51.5733590  26.6916896   3.3966344  51.5185704  27.1377920
   3.9087169  43.2397091  32.9163210   4.6950258  42.8216514  32.5653627
   4.1725873  44.1443183  33.0844858   4.0797246  48.6769942  27.6151867
   3.4443079  48.7504568  28.3272771   3.7494653  49.2663540  26.9370946
   9.3095596  43.1772324  33.8196189  10.0420768  42.6071541  34.0534018
   8.5534952  42.7893925  34.2602694   0.9271716  45.5999566  31.0159531
   0.5629923  45.0730187  31.7272452   1.7838832  45.2098035  30.8426016
   6.8321016  36.8893899  38.2790797   6.5004341  37.7589309  38.0552012
   6.2366630  36.5730183  38.9584828   3.3252536  49.0906444  37.6786710
   3.0253259  49.9931483  37.5702517   2.9803595  48.8238628  38.5307863
   6.7249680  41.6088985  35.3584147   5.8166557  41.5404393  35.0642908
   6.6737275  42.0860930  36.1865973   8.5911326  39.8105423  37.1362021
   7.9485706  40.1037956  36.4901816   8.0866255  39.6958343  37.9415218
   6.2451490  43.5568596  27.8247880   7.1569346  43.7895983  27.6495578
   5.7361137  44.1405640  27.2622959   4.5292257  47.9793224  41.4609173
   4.9375613  47.5375635  40.7163805   3.8069519  47.4045852  41.7143366
   0.8823327  42.9165831  38.8342730   1.7284523  43.3405244  38.9777379
   0.8221965  42.2599455  39.5281293   4.8521072  48.5394415  35.2161462
   4.2229935  48.7040129  34.5137530   4.4646734  48.9536024  35.9872426
   8.7310304  49.4748853  32.5705826   8.0461342  49.8547754  32.0202859
   8.8154153  50.0844179  33.3037773   4.0322773  40.5770199  40.4923904
   3.7883705  41.3312260  39.9558179   4.3082703  40.9555547  41.3271151
   5.9861236  47.1208812  39.1701169   6.1978131  47.7640571  38.4935550
   5.9390984  46.2871128  38.7023099   3.5887465  39.7326632  36.0737741
   2.7271944  40.0307886  36.3654479   3.6149899  39.9497031  35.1418774
   7.1007064  49.9980767  37.3423526   7.9224507  49.5960954  37.0606208
   7.0969466  49.8949001  38.2939642  15.1913057  46.3419515  33.6908498
  14.4376765  45.7726914  33.5352502  15.3260598  46.3082180  34.6379133
   0.5811685  51.2132918  29.3663217   0.4457359  52.0584454  29.7948065
   1.1221497  51.4152195  28.6029151   2.2080161  51.8356484  43.4963559
   1.7644015  51.0492863  43.1784464   2.8697375  52.0235635  42.8307450
   4.3061399  52.1159284  41.5244961   4.2879874  52.9368165  41.0325230
   5.2281319  51.9913359  41.7495102   3.9304148  34.7363480  37.8962111
   3.5868418  35.6265121  37.8201221   4.2983111  34.5465137  37.0331696
   3.8954431  44.7272091  26.4034546   3.3801054  45.4976695  26.6422933
   3.6231739  44.0537227  27.0267607   1.4801542  39.5721792  31.4619784
   0.6243138  39.1828642  31.2825423   1.8928494  39.6513752  30.6019570
   3.0100689  37.1068135  35.8611344   2.5065484  37.0698270  35.0479149
   3.3031295  38.0160878  35.9208001   8.8688705  47.4804445  28.3387719
   8.0918148  47.1415605  27.8942881   9.5480186  47.4857069  27.6642684
   3.6840734  42.5999183  28.2294327   3.3790870  42.9145332  29.0804470
   4.6371176  42.6780603  28.2721660   2.1287166  48.7589406  29.8787281
   1.6008528  48.0242166  29.5660518   1.6274669  49.5364083  29.6327249
   7.1080012  46.9538427  34.9954327   6.4503686  47.6437688  35.0834456
   7.9120411  47.3434859  35.3388314   5.9185471  45.3082799  33.0458269
   6.4317353  45.9412791  33.5479979   6.5686695  44.7083995  32.6801629
   3.1807845  55.2867124  25.8018940   2.5069544  55.5898820  26.4103898
   3.5673667  56.0896204  25.4524397   2.3966302  42.7832255  35.2916610
   1.4788863  43.0047202  35.1338298   2.8126445  42.8578565  34.4328317
   3.1801349  44.1823671  30.4219290   3.9273168  44.6945068  30.1126412
   3.4492939  43.8607723  31.2823683   1.4528000  46.6782211  27.4046244
   0.5439219  46.3941244  27.5018714   1.4823083  47.0981290  26.5449551
   6.6847267  50.2888801  31.1737412   6.2309594  49.4479711  31.2302602
   6.0541234  50.9250199  31.5112192   5.6280187  41.2180787  32.4038079
   4.8902943  40.7058173  32.7348322   5.8806960  40.7781168  31.5921356
   5.1280206  52.1265298  32.1087230   5.4203181  52.6870355  31.3899595
   5.6378827  52.4193859  32.8640389   5.7291814  33.9957039  32.9979848
   6.0350691  33.1354402  32.7105764   6.4544419  34.5874659  32.7978842
   1.1504087  48.2190955  24.7434323   0.7123517  47.5026814  24.2839960
   1.8914528  48.4467070  24.1819414   3.5379465  43.3729716  40.0961312
   3.8928853  43.6001189  40.9555778   4.1851596  43.7048093  39.4738568
   9.2677202  46.4948152  30.8010641   9.1295101  46.6849748  29.8731831
   8.9113421  47.2567535  31.2578692   9.2946582  48.5624679  35.8121913
   9.7283088  48.4699968  36.6604967  10.0078162  48.5382180  35.1741929
   3.0274477  52.1626773  37.3455013   3.0811499  52.7317709  38.1132729
   2.1589258  52.3328658  36.9809051  10.1562131  48.6048380  38.3454798
  10.3498021  49.5094190  38.5914073  10.0562749  48.1455799  39.1793383
   1.8098442  38.4906270  40.8445126   1.1626357  39.1896220  40.7509602
   2.5799457  38.9242414  41.2121374   5.2177240  48.7555122  43.9195679
   5.0662746  48.5265674  43.0025763   5.2081919  49.7125724  43.9327024
   1.9862576  46.3287035  38.9041945   2.9154636  46.4798195  38.7310913
   1.5653606  46.4171056  38.0490592   1.3799060  55.4546796  28.0166019
   1.5550816  54.9834839  28.8311642   0.6931848  56.0812562  28.2447280
   2.3356123  49.7319302  34.0629321   2.0005956  49.6920072  34.9586971
   1.8360069  49.0664018  33.5899731   5.2715315  47.0775337  24.3366380
   4.6544486  46.3522165  24.2399433   4.8031803  47.8384697  23.9933455
   6.9269447  51.7874245  41.9972161   6.8681993  51.1033465  41.3302744
   7.3288965  52.5293235  41.5452787   6.9286854  49.7513829  40.2286140
   6.0413633  49.4139751  40.3512539   7.4985405  49.0196860  40.4654906
   3.5574437  39.4581681  33.3484410   4.0543137  38.7051643  33.0285481
   2.7861419  39.4945997  32.7827620  11.4104194  45.1622046  34.9902702
  11.3994071  46.0446762  34.6196635  10.5421574  44.8093597  34.7957239
   2.9186691  54.3102115  39.3505542   3.6314663  54.9449580  39.2781444
   2.4276719  54.4065981  38.5345544   4.6404218  48.2153368  30.9222834
   3.7060496  48.3354830  30.7527538   4.8180886  47.3125835  30.6582844
   8.0276769  44.0570687  31.4572868   8.4937221  44.8898679  31.3833171
   8.4784270  43.5915669  32.1618127   6.0953000  50.4014509  28.4559020
   6.3712844  50.2871103  29.3652894   5.2257499  50.0031993  28.4171193
   5.9993432  36.4251274  35.4963769   5.0856512  36.6555501  35.6645976
   6.4286533  36.5089718  36.3477802   5.7699890  44.6141166  37.9963663
   5.1171341  44.8617074  37.3416116   6.1480270  43.8005304  37.6626141
   2.7307064  54.6500859  32.0991834   2.9129459  53.8322515  32.5619586
   3.5540050  54.8668552  31.6616724   3.0649230  53.5769045  29.3606882
   3.5936996  53.0661499  28.7477044   3.3277449  53.2611575  30.2252415
   1.8187463  45.3560977  44.4829700   1.1428100  45.2555107  45.1532076
   2.6415097  45.2000191  44.9465698   0.5610246  56.6627905  38.7187316
   1.1128554  56.8259526  39.4836402   0.9016440  57.2532343  38.0467341
   5.4121121  51.4889162  44.5735971   5.9561025  52.1019121  44.0790926
   4.8307965  52.0468741  45.0902984   3.6978633  54.6109880  35.7050999
   3.5729773  53.8099620  35.1961944   4.3557725  55.1056074  35.2164969
   5.7613542  52.4118900  37.3330549   4.8143877  52.2924252  37.2608875
   6.1096315  51.5241398  37.4156810   2.7659975  52.2071617  33.5334901
   2.6184938  51.2788324  33.7142471   3.5913469  52.2291707  33.0491976
   6.3694097  53.0300175  34.6199774   7.2940644  52.8243037  34.4824225
   6.2009400  52.7816576  35.5289115   2.7621489  40.0609454  28.5267018
   2.9785104  40.9434092  28.2255846   2.2815557  39.6695668  27.7972660
   1.2143224  40.4435056  37.1971780   0.9561002  41.3652126  37.1956110
   0.6828265  40.0465490  37.8872244   6.1589413  53.5485843  29.9761865
   6.3326291  52.9832265  29.2235718   6.6518304  54.3486738  29.7941355
   1.6345180  36.5767006  33.5572942   1.6566877  36.6406339  32.6024922
   2.0513239  35.7371515  33.7513448  12.0128804  46.3122266  31.5952165
  12.4559950  45.5629591  31.1971288  11.1355315  46.3032402  31.2125897
   7.1464586  52.8652607  27.0758763   7.8415490  53.4859300  27.2946078
   7.4887736  52.0147958  27.3511141   9.0456009  50.3152313  28.6046094
   9.5707333  50.6539585  27.8795414   8.9578361  49.3799328  28.4209229
   0.7076058  54.2286386  40.7335971   1.0163184  53.9835533  41.6058670
   1.5051540  54.4333025  40.2454841   8.7349915  50.9485216  43.9097292
   7.9445459  50.9309355  43.3701792   8.4983269  51.4873510  44.6646329
   8.8547790  47.7977683  41.2230021   8.9045795  47.6327690  42.1645543
   8.7461713  46.9304942  40.8327901   6.1451552  43.7808611  42.5389327
   7.0461415  43.6415076  42.2473325   6.2199527  43.9463066  43.4787505
  10.3565987  50.2174624  41.4672042  10.0650795  50.5804605  42.3035503
   9.7438118  49.5041632  41.2885374  11.5561669  47.7827504  33.9874612
  12.3908560  48.2217308  34.1512173  11.6920798  47.3066157  33.1682858
   8.6053175  45.3407239  39.9352100   9.0807297  45.5334885  39.1270952
   7.6818740  45.3966425  39.6895484   3.1833392  37.3755082  38.9007934
   3.7015335  38.1116109  38.5754423   2.8288524  37.6819076  39.7354693
   3.4345986  33.7955365  34.4208831   3.7147739  33.1278554  35.0469257
   4.2196593  33.9884461  33.9083495   1.2379454  52.9714359  25.9833857
   0.6653421  53.5904546  25.5304329   1.8112248  53.5213721  26.5173779
   7.3054844  42.2172999  38.1680406   8.2572267  42.3171097  38.1892630
   7.1358294  41.4251267  38.6778490   5.3269223  39.3028582  38.3539807
   4.7319156  39.5833595  37.6586295   5.0418920  39.7922483  39.1256548
   4.4576714  53.2551509  27.1142439   5.3907387  53.1897071  27.3175315
   4.3699927  54.0907776  26.6556972   7.0864731  52.5717379  24.0746387
   7.0078362  52.2377243  24.9682145   7.9074397  53.0639147  24.0737859
   9.7842922  45.4379119  37.2822705   9.7519242  44.4995119  37.4682389
  10.3943545  45.5163155  36.5488530   1.6226253  44.3075172  23.3249910
   2.5685357  44.1781380  23.3938328   1.2440498  43.5689833  23.8019338
   9.9337410  42.2290162  37.3280989   9.4176459  41.4448619  37.1410918
  10.8177359  41.9008879  37.4927508   7.5948137  35.9731178  33.2876801
   7.3972958  35.6646266  34.1720133   8.2047843  36.6992817  33.4174731
  15.6019472  46.4995125  36.4228742  16.3322860  46.2380414  36.9836446
  14.9926417  45.7623847  36.4630810  13.6834769  44.6402988  37.0203193
  12.9567932  44.5058953  36.4119685  13.2682056  44.9479817  37.8259912
   1.5064945  48.3592918  44.7850566   2.4267955  48.5371517  44.9790613
   1.4714528  47.4148963  44.6330266   1.4231236  36.7762038  29.4149036
   0.6131964  36.4309123  29.7904282   2.1115652  36.4669581  30.0036648
   3.3521784  35.8540085  31.0373333   3.9052822  36.2735538  31.6963356
   3.5891870  34.9275833  31.0796289   6.7300591  37.9640610  30.5451997
   6.1499260  38.6225414  30.1630049   6.4636524  37.1417954  30.1339414
   5.1804157  37.3645667  32.7473317   5.6803936  37.4762202  31.9387636
   5.8239765  37.0606720  33.3874126   5.5125469  40.1240700  29.6008345
   4.6251324  40.4090351  29.3828540   5.9279458  39.9634463  28.7535622
   8.8640005  40.1487221  33.3162684   9.6400395  40.6383673  33.5887301
   8.1388139  40.5745275  33.7734554  11.3012564  40.8614840  34.3736625
  11.8957055  40.6210576  33.6629933  11.3739147  40.1421971  35.0010161
   4.6568682  49.8885375  23.6956365   5.3604533  50.0935377  24.3114021
   3.9331331  50.4562137  23.9605449   5.4866493  45.6395236  29.8158635
   5.4301694  46.0963787  28.9766268   6.0394835  44.8785921  29.6381478
   9.2971299  41.4284968  30.6408755   9.0408233  41.0281604  31.4716963
   8.6724167  42.1428762  30.5158894  13.6083636  44.1681041  33.1480046
  13.0483194  44.2374230  33.9211608  13.0027140  43.9922026  32.4279542
   6.5655380  50.3267904  25.7454825   7.4000984  49.8949102  25.5632300
   6.4039723  50.1549918  26.6731720   6.2201272  46.8300017  27.1111165
   6.1650076  46.6644289  26.1699609   5.5947327  47.5376050  27.2673354
   3.5347179  49.1348929  46.4364727   4.4038339  49.3089581  46.0751362
   3.0553931  49.9543346  46.3140457   3.3449517  32.9250903  30.9442420
   2.5781913  32.3709390  31.0899102   3.7560222  32.9972772  31.8056571
  15.1939655  60.8437555  35.8410002  15.8318065  60.7244302  35.1373342
  15.0760498  61.7918399  35.8997954  12.0029361  60.7964983  35.7771527
  11.6647873  60.6806048  34.8892062  12.8719129  60.3956148  35.7572533
   7.8616177  62.6500460  31.7668418   7.2981042  62.5590396  30.9984705
   7.7468572  61.8300364  32.2470910  12.4849144  61.9499835  41.7357732
  12.4737785  61.5552633  40.8638236  12.6469784  61.2165907  42.3291504
   5.4080609  64.1451651  34.6052638   6.2001901  63.8042476  34.1898937
   5.6477259  64.2546626  35.5254791  13.4415736  66.3171427  27.0782883
  12.7903715  66.9025508  26.6916896  14.2360098  66.8477622  27.1377920
   7.3671363  63.4060564  27.4770017   8.1402239  62.8589551  27.3382893
   7.7196762  64.2704814  27.6884478   9.2056405  64.7336947  40.6836916
   8.9146271  65.6382578  40.5683582   9.8413390  64.7753474  41.3980986
  10.1312612  62.1113795  37.2738276  10.7276184  61.8869818  36.5595239
  10.1887584  61.3698541  37.8763724   9.7037641  59.5653231  25.1088467
   9.9563161  59.0434752  24.3471930   8.7662200  59.4019376  25.2115150
  14.7480923  58.5689009  32.9163210  15.5344013  58.1508432  32.5653627
  15.0119628  59.4735101  33.0844858  14.9191001  64.0061859  27.6151867
  14.2836834  64.0796486  28.3272771  14.5888407  64.5955458  26.9370946
  20.1489351  58.5064242  33.8196189  20.8814522  57.9363459  34.0534018
  19.3928706  58.1185843  34.2602694   9.4233929  61.4681336  27.3112842
   9.3070187  60.7926240  27.9793926   9.5336189  60.9813710  26.4944995
  11.7665470  60.9291484  31.0159531  11.4023677  60.4022105  31.7272452
  12.6232586  60.5389953  30.8426016  17.6714771  52.2185816  38.2790797
  17.3398096  53.0881227  38.0552012  17.0760384  51.9022100  38.9584828
  11.4070957  55.9581383  26.0120880  11.5745360  56.8261620  26.3791351
  11.2168126  56.1208665  25.0882169  14.1646290  64.4198362  37.6786710
  13.8647013  65.3223401  37.5702517  13.8197350  64.1530545  38.5307863
   7.6158772  60.8712159  33.7123414   6.6909268  60.7388373  33.9201106
   7.8643185  61.6506378  34.2093357  17.5643434  56.9380902  35.3584147
  16.6560312  56.8696311  35.0642908  17.5131030  57.4152847  36.1865973
  11.3860178  58.4139041  26.9967546  11.2659803  58.8596092  27.8353027
  10.6912766  58.7624358  26.4381084   4.9767583  60.5145433  34.5467203
   5.1059964  60.7679911  35.4606615   4.2965034  61.1073141  34.2271858
   9.1467070  71.1842683  30.6457678   9.0691100  72.1350508  30.7246158
   8.5428714  70.8388555  31.3032604  11.6384300  58.3570548  43.3019044
  10.8617634  58.9164468  43.2921909  12.2774863  58.8427331  43.8233915
  19.4305081  55.1397341  37.1362021  18.7879461  55.4329874  36.4901816
  18.9260009  55.0250261  37.9415218  17.0845244  58.8860514  27.8247880
  17.9963100  59.1187901  27.6495578  16.5754891  59.4697558  27.2622959
   9.8930672  61.1656001  42.8637011  10.6345357  61.7041045  42.5871835
   9.1867658  61.7922290  43.0208563  15.3686012  63.3085142  41.4609173
  15.7769368  62.8667552  40.7163805  14.6463273  62.7337769  41.7143366
  11.7217082  58.2457749  38.8342730  12.5678277  58.6697162  38.9777379
  11.6615720  57.5891373  39.5281293  15.6914827  63.8686332  35.2161462
  15.0623689  64.0332047  34.5137530  15.3040489  64.2827942  35.9872426
  19.5704058  64.8040770  32.5705826  18.8855097  65.1839672  32.0202859
  19.6547908  65.4136097  33.3037773  14.8716527  55.9062117  40.4923904
  14.6277459  56.6604177  39.9558179  15.1476458  56.2847465  41.3271151
  16.8254990  62.4500729  39.1701169  17.0371885  63.0932489  38.4935550
  16.7784738  61.6163046  38.7023099  14.4281219  55.0618550  36.0737741
  13.5665698  55.3599803  36.3654479  14.4543654  55.2788949  35.1418774
  11.2442788  63.6060740  32.4811547  11.7081134  63.8848443  31.6916169
  10.9799587  62.7044185  32.2984638   8.1366870  63.1532222  35.4191310
   8.7068227  63.5819490  34.7808795   8.7274981  62.8714807  36.1175496
  10.1811674  59.7283893  29.2901112  10.8835718  60.1804937  29.7575038
   9.8492303  59.0867712  29.9181005   8.6292036  58.3195649  43.6652321
   7.9990697  59.0011930  43.8987718   8.5228124  58.2078731  42.7205460
   3.9237008  57.9867446  34.5918246   3.1336062  58.2424974  34.1158356
   4.4148256  58.8015783  34.6970286  17.9400818  65.3272685  37.3423526
  18.7618262  64.9252872  37.0606208  17.9363221  65.2240919  38.2939642
   5.8751754  58.3512025  31.5501722   5.0782917  58.4630719  32.0685218
   5.6477346  58.6898677  30.6842613  11.7057421  64.8756728  39.4984237
  11.7701854  65.3377135  40.3342409  10.9968345  64.2454093  39.6266547
   2.2074711  58.2397936  37.0233236   2.4582750  59.1244946  37.2890812
   2.7434260  58.0602537  36.2508328  26.0306811  61.6711433  33.6908498
  25.2770519  61.1018831  33.5352502  26.1654352  61.6374098  34.6379133
  11.4205439  66.5424835  29.3663217  11.2851114  67.3876371  29.7948065
  11.9615252  66.7444113  28.6029151   7.9072779  52.6216415  46.0277573
   7.5139724  52.0682614  46.7025217   8.7238919  52.9326994  46.4184090
   4.8734837  64.0600274  29.9391142   5.3859357  64.8543524  30.0896707
   5.5257549  63.3626564  29.8724744   6.6829721  67.1766030  32.0213896
   6.8596350  68.0983994  31.8334879   7.4786555  66.8624449  32.4508275
  10.8240740  54.0374294  43.6197829  11.5650453  54.6381448  43.5402292
  11.0558663  53.2951932  43.0615872   5.9682078  59.2230662  41.8976059
   5.8535593  58.3215919  42.1983158   5.1126596  59.4694358  41.5460875
  13.0473915  67.1648402  43.4963559  12.6037770  66.3784781  43.1784464
  13.7091129  67.3527552  42.8307450   7.8061037  68.6944204  38.0224238
   8.3568462  68.5661267  37.2501232   6.9672513  68.9939093  37.6719131
  15.1455154  67.4451202  41.5244961  15.1273629  68.2660083  41.0325230
  16.0675074  67.3205277  41.7495102  11.6028208  64.9595331  42.3668469
  12.1356545  64.1983620  42.1367777  11.0742289  64.6668983  43.1092623
  14.7697903  50.0655397  37.8962111  14.4262172  50.9557039  37.8201221
  15.1376865  49.8757055  37.0331696   2.8383753  62.3888928  30.7150713
   3.6758975  62.7985936  30.4984421   3.0162021  61.4488370  30.6850907
  14.7348185  60.0564008  26.4034546  14.2194809  60.8268613  26.6422933
  14.4625494  59.3829145  27.0267607  12.3195296  54.9013709  31.4619784
  11.4636893  54.5120560  31.2825423  12.7322248  54.9805670  30.6019570
  13.8494443  52.4360053  35.8611344  13.3459239  52.3990188  35.0479149
  14.1425050  53.3452795  35.9208001  10.0937329  52.5198782  34.8677526
  10.9590326  52.3241591  34.5083415  10.1614838  52.2909134  35.7946882
  19.7082460  62.8096363  28.3387719  18.9311902  62.4707523  27.8942881
  20.3873941  62.8148986  27.6642684  14.5234489  57.9291101  28.2294327
  14.2184624  58.2437250  29.0804470  15.4764931  58.0072520  28.2721660
  12.9680920  64.0881324  29.8787281  12.4402282  63.3534083  29.5660518
  12.4668423  64.8656000  29.6327249  17.9473766  62.2830344  34.9954327
  17.2897441  62.9729606  35.0834456  18.7514166  62.6726776  35.3388314
   7.6999648  54.7500990  32.2393893   8.2743400  54.5276172  31.5067085
   8.2870630  54.8189685  32.9922494  16.7579225  60.6374717  33.0458269
  17.2711107  61.2704709  33.5479979  17.4080449  60.0375913  32.6801629
   8.0269235  56.7805451  26.2589778   7.1906547  57.1180138  26.5799053
   7.8874005  56.6454431  25.3216915  10.0022316  51.6242239  30.9668962
   9.3486728  51.3091256  30.3425577   9.9602790  51.0017980  31.6928785
  11.1133521  61.9061534  22.8822254  10.2060582  61.6750788  23.0813403
  11.6104553  61.1099153  23.0696236  14.0201599  70.6159041  25.8018940
  13.3463298  70.9190738  26.4103898  14.4067421  71.4188122  25.4524397
  13.2360056  58.1124173  35.2916610  12.3182617  58.3339120  35.1338298
  13.6520200  58.1870483  34.4328317  14.0195104  59.5115588  30.4219290
  14.7666923  60.0236985  30.1126412  14.2886693  59.1899641  31.2823683
  12.2921754  62.0074129  27.4046244  11.3832973  61.7233162  27.5018714
  12.3216838  62.4273208  26.5449551  17.5241021  65.6180719  31.1737412
  17.0703349  64.7771628  31.2302602  16.8934988  66.2542117  31.5112192
  16.4673941  56.5472705  32.4038079  15.7296698  56.0350091  32.7348322
  16.7200715  56.1073086  31.5921356  15.9673961  67.4557215  32.1087230
  16.2596935  68.0162272  31.3899595  16.4772581  67.7485776  32.8640389
  16.5685568  49.3248957  32.9979848  16.8744445  48.4646320  32.7105764
  17.2938173  49.9166577  32.7978842   2.8609924  59.7279643  31.3861446
   2.6634324  59.1349004  30.6612513   2.3056588  59.4231853  32.1037385
  10.8406648  59.6202750  33.5056040  10.8955258  58.6676586  33.4298516
  10.0297850  59.7762189  33.9897338  11.9897842  63.5482873  24.7434323
  11.5517272  62.8318732  24.2839960  12.7308283  63.7758987  24.1819414
   8.7799008  58.2379809  31.2646418   7.9666874  58.5373980  31.6711611
   9.2758002  57.8435498  31.9820901  10.9307586  68.2337566  33.1980683
  10.8883765  68.4598413  32.2689215  11.8470285  68.0000941  33.3466484
  14.3773220  58.7021634  40.0961312  14.7322607  58.9293107  40.9555778
  15.0245351  59.0340011  39.4738568  20.1070957  61.8240070  30.8010641
  19.9688855  62.0141666  29.8731831  19.7507175  62.5859453  31.2578692
   8.2713083  55.8098165  36.8807653   8.9112462  55.6686924  36.1830617
   7.4390613  55.5232678  36.5046255  20.1340336  63.8916597  35.8121913
  20.5676843  63.7991886  36.6604967  20.8471917  63.8674097  35.1741929
   9.0473387  65.1100595  32.9942646   9.8413985  64.6150915  32.7925221
   8.3365079  64.5818458  32.6310351  13.8668231  67.4918691  37.3455013
  13.9205253  68.0609627  38.1132729  12.9983013  67.6620576  36.9809051
   5.3556150  59.2543677  29.0702398   4.4253738  59.1928133  29.2872361
   5.4513622  58.7319630  28.2739040   5.2741699  55.7798490  31.6580640
   5.5348516  56.6943823  31.5489801   6.0958872  55.3122932  31.8077253
   6.7466625  57.1936247  38.8279465   7.4189678  56.9853609  38.1792114
   5.9196411  56.9958333  38.3884697  20.9955886  63.9340297  38.3454798
  21.1891776  64.8386108  38.5914073  20.8956504  63.4747716  39.1793383
  12.6492197  53.8198188  40.8445126  12.0020112  54.5188138  40.7509602
  13.4193212  54.2534332  41.2121374  16.0570994  64.0847040  43.9195679
  15.9056501  63.8557592  43.0025763  16.0475674  65.0417642  43.9327024
  12.8256331  61.6578953  38.9041945  13.7548391  61.8090112  38.7310913
  12.4047361  61.7462974  38.0490592  11.6244663  65.6829617  36.6740483
  11.4855748  65.3148402  37.5466421  10.8359259  66.1977257  36.5024441
  12.2192815  70.7838714  28.0166019  12.3944570  70.3126757  28.8311642
  11.5325603  71.4104480  28.2447280  13.1749878  65.0611220  34.0629321
  12.8399710  65.0211990  34.9586971  12.6753823  64.3955936  33.5899731
   7.1494122  60.4678850  39.5881902   7.0113920  59.7359089  40.1893441
   8.0599045  60.3787750  39.3066090  16.1109069  62.4067254  24.3366380
  15.4938240  61.6814082  24.2399433  15.6425558  63.1676615  23.9933455
   9.7776422  60.1798809  39.0765581  10.4876041  59.5392002  39.0352200
   9.7345731  60.4311704  39.9991762  17.7663201  67.1166163  41.9972161
  17.7075747  66.4325383  41.3302744  18.1682719  67.8585153  41.5452787
   8.4905356  57.1664027  40.8961221   7.9542713  56.7154766  41.5482817
   7.9022065  57.3009936  40.1531685   6.7853900  73.9328077  34.7905880
   7.0250498  74.5646601  35.4684898   5.9423096  73.5816117  35.0771239
   7.9007615  56.6252679  23.4587685   7.0237082  56.5041479  23.0949931
   8.3765368  55.8338757  23.2066573  17.7680608  65.0805747  40.2286140
  16.8807387  64.7431668  40.3512539  18.3379159  64.3488778  40.4654906
   4.2244478  56.3020035  37.9814215   4.1402666  55.6945704  37.2464625
   3.4027184  56.7929053  37.9823712  11.2981762  69.7407199  37.1947384
  11.2251933  70.5462170  37.7066688  10.8559155  69.9399165  36.3695405
  11.0871541  68.9778969  30.7050205  10.3039063  69.5200649  30.7988430
  11.7864287  69.4952949  31.1044446  14.3968192  54.7873598  33.3484410
  14.8936891  54.0343561  33.0285481  13.6255173  54.8237915  32.7827620
  22.2497949  60.4913964  34.9902702  22.2387825  61.3738679  34.6196635
  21.3815328  60.1385515  34.7957239  13.7580445  69.6394033  39.3505542
  14.4708418  70.2741498  39.2781444  13.2670474  69.7357899  38.5345544
  15.4797972  63.5445286  30.9222834  14.5454251  63.6646748  30.7527538
  15.6574641  62.6417752  30.6582844  10.9803160  56.9290981  33.0756095
  10.6100948  56.3762022  33.7637001  11.4762253  56.3249115  32.5231095
  18.8670524  59.3862605  31.4572868  19.3330976  60.2190597  31.3833171
  19.3178024  58.9207587  32.1618127   8.8092359  67.3888476  40.1711113
   9.5101818  68.0224959  40.3240507   8.3387474  67.7303208  39.4106752
  16.9346755  65.7306426  28.4559020  17.2106599  65.6163021  29.3652894
  16.0651253  65.3323911  28.4171193  16.8387186  51.7543192  35.4963769
  15.9250266  51.9847419  35.6645976  17.2680288  51.8381636  36.3477802
  16.6093645  59.9433084  37.9963663  15.9565095  60.1908991  37.3416116
  16.9874025  59.1297222  37.6626141  13.5700819  69.9792777  32.0991834
  13.7523213  69.1614433  32.5619586  14.3933805  70.1960469  31.6616724
  13.9042984  68.9060962  29.3606882  14.4330751  68.3953417  28.7477044
  14.1671204  68.5903492  30.2252415  12.6581218  60.6852895  44.4829700
  11.9821855  60.5847024  45.1532076  13.4808852  60.5292109  44.9465698
   4.4060077  66.9224831  37.1042216   4.9913514  66.1768519  37.2370120
   4.2084915  67.2328788  37.9878880   7.2598732  69.9576079  32.1204658
   6.5909107  70.4422207  31.6368698   7.1211602  70.2045299  33.0348037
  11.4004001  71.9919822  38.7187316  11.9522309  72.1551444  39.4836402
  11.7410194  72.5824260  38.0467341   6.3768494  54.3394972  39.3209201
   6.4409820  55.2009803  38.9086599   6.3135614  53.7268974  38.5881560
   5.8520766  56.4118105  42.9682235   6.4792805  56.0295182  43.5819760
   4.9948685  56.1932307  43.3337928  16.2514875  66.8181080  44.5735971
  16.7954779  67.4311038  44.0790926  15.6701720  67.3760658  45.0902984
   2.6286309  58.2194534  28.9000590   2.9239750  57.3105212  28.8467644
   1.7274345  58.1982273  28.5781593  14.5372388  69.9401798  35.7050999
  14.4123527  69.1391538  35.1961944  15.1951479  70.4347991  35.2164969
   6.1580556  56.2950530  34.8828139   5.4367142  56.9086498  34.7435612
   6.9473812  56.8308295  34.8044785  16.6007296  67.7410818  37.3330549
  15.6537632  67.6216169  37.2608875  16.9490069  66.8533316  37.4156810
   8.9606870  53.6304957  41.1568791   9.4841272  53.8767253  41.9195100
   8.7419203  54.4624992  40.7371928   4.3574151  55.9008632  29.0239915
   4.0286857  55.0206010  28.8415021   4.7113521  55.8456300  29.9116305
  13.6053730  67.5363534  33.5334901  13.4578692  66.6080242  33.7142471
  14.4307223  67.5583625  33.0491976   7.4715974  56.1881601  29.3915393
   7.8112046  56.7167523  28.6694001   7.9188094  56.5262007  30.1673960
  17.2087851  68.3592093  34.6199774  18.1334399  68.1534954  34.4824225
  17.0403155  68.1108494  35.5289115  10.1659415  54.5718652  38.8418461
   9.8256235  53.7726465  39.2439141   9.4598421  54.8720363  38.2695294
  10.8175887  51.6567964  37.2945784  11.6401956  51.1828443  37.1724674
  11.0613950  52.4358448  37.7944470   9.4584121  54.6856223  27.5908686
  10.1792484  55.0637476  27.0872403   8.8349425  55.4045100  27.6943664
  13.6015244  55.3901372  28.5267018  13.8178858  56.2726010  28.2255846
  13.1209311  54.9987585  27.7972660   8.3414465  58.3487085  35.1037763
   8.1959046  58.6627388  35.9962044   7.8639669  58.9671985  34.5508661
  10.2010848  55.3389633  35.1518652  10.1872417  54.4430726  34.8150950
  10.9183276  55.3460297  35.7856938  12.0536979  55.7726973  37.1971780
  11.7954757  56.6944044  37.1956110  11.5222019  55.3757408  37.8872244
  16.9983168  68.8777760  29.9761865  17.1720045  68.3124183  29.2235718
  17.4912059  69.6778655  29.7941355   2.8160128  60.8892430  38.0425424
   2.2713596  61.6652237  38.1745698   3.6939477  61.2363234  37.8844545
   9.6047744  54.2204013  30.4206222   9.7263655  53.2920660  30.6197110
   9.3149787  54.2342699  29.5084538  12.4738935  51.9058924  33.5572942
  12.4960631  51.9698257  32.6024922  12.8906994  51.0663432  33.7513448
  22.8522559  61.6414183  31.5952165  23.2953705  60.8921509  31.1971288
  21.9749069  61.6324320  31.2125897  17.9858340  68.1944525  27.0758763
  18.6809245  68.8151218  27.2946078  18.3281490  67.3439876  27.3511141
   3.6026149  60.0162326  40.9355581   2.8607885  60.1644961  41.5220211
   3.2818894  60.2770591  40.0722330  19.8849763  65.6444230  28.6046094
  20.4101087  65.9831503  27.8795414  19.7972116  64.7091246  28.4209229
  11.5469812  69.5578304  40.7335971  11.8556938  69.3127451  41.6058670
  12.3445294  69.7624942  40.2454841  11.5690424  71.7116214  32.9641347
  11.1295414  71.2192592  33.6574204  12.3198541  71.1689181  32.7233423
   4.0482763  67.9027754  32.9665975   4.8740783  67.6031526  32.5864619
   3.6976815  67.1335377  33.4155764   9.0164296  67.2554223  35.0363649
   8.3944306  66.5924928  34.7365877   9.6869163  67.2815355  34.3537297
   2.2491368  65.8214081  33.9254909   1.4123276  65.3936255  33.7438910
   2.2215014  66.0146524  34.8625700   9.0888824  55.7336011  44.6296155
   9.1376979  56.6098134  44.2473925   9.6311338  55.1913404  44.0567798
  19.5743669  66.2777134  43.9097292  18.7839213  66.2601273  43.3701792
  19.3377024  66.8165428  44.6646329  19.6941544  63.1269600  41.2230021
  19.7439549  62.9619608  42.1645543  19.5855468  62.2596859  40.8327901
   8.5777803  65.8058146  28.5122110   8.7265924  66.4893610  27.8588782
   9.3844247  65.7863236  29.0271565  16.9845307  59.1100528  42.5389327
  17.8855170  58.9706993  42.2473325  17.0593281  59.2754983  43.4787505
  11.3188112  56.4867383  41.3842514  10.4491422  56.7800949  41.1125102
  11.5547593  57.0707828  42.1049777  21.1959741  65.5466542  41.4672042
  20.9044550  65.9096522  42.3035503  20.5831873  64.8333550  41.2885374
  22.3955424  63.1119422  33.9874612  23.2302315  63.5509226  34.1512173
  22.5314552  62.6358075  33.1682858  19.4446930  60.6699157  39.9352100
  19.9201051  60.8626803  39.1270952  18.5212495  60.7258342  39.6895484
   6.3330436  61.8323324  29.5183178   6.0876478  60.9285654  29.7163389
   6.5026351  61.8340474  28.5762656  14.0227146  52.7047000  38.9007934
  14.5409090  53.4408027  38.5754423  13.6682279  53.0110993  39.7354693
   5.6026084  57.5651681  27.0169340   4.9095329  57.6396036  26.3609376
   5.3577836  56.8012025  27.5390857  14.2739740  49.1247283  34.4208831
  14.5541494  48.4570472  35.0469257  15.0590347  49.3176378  33.9083495
  12.0773209  68.3006276  25.9833857  11.5047176  68.9196464  25.5304329
  12.6506002  68.8505638  26.5173779  18.1448599  57.5464917  38.1680406
  19.0966021  57.6463014  38.1892630  17.9752049  56.7543185  38.6778490
  16.1662978  54.6320500  38.3539807  15.5712910  54.9125513  37.6586295
  15.8812675  55.1214401  39.1256548  15.2970468  68.5843427  27.1142439
  16.2301142  68.5188988  27.3175315  15.2093681  69.4199693  26.6556972
  17.9258485  67.9009297  24.0746387  17.8472117  67.5669161  24.9682145
  18.7468152  68.3931065  24.0737859  20.6236676  60.7671036  37.2822705
  20.5912996  59.8287037  37.4682389  21.2337300  60.8455073  36.5488530
  12.4620007  59.6367089  23.3249910  13.4079112  59.5073297  23.3938328
  12.0834252  58.8981751  23.8019338  20.7731165  57.5582080  37.3280989
  20.2570213  56.7740536  37.1410918  21.6571113  57.2300796  37.4927508
  18.4341892  51.3023095  33.2876801  18.2366713  50.9938183  34.1720133
  19.0441597  52.0284734  33.4174731  26.4413226  61.8287043  36.4228742
  27.1716615  61.5672331  36.9836446  25.8320172  61.0915765  36.4630810
  24.5228523  59.9694906  37.0203193  23.7961687  59.8350871  36.4119685
  24.1075810  60.2771734  37.8259912  12.3458700  63.6884835  44.7850566
  13.2661709  63.8663434  44.9790613  12.3108283  62.7440881  44.6330266
  10.6462924  57.5617066  23.2604795   9.7394380  57.2650178  23.3367508
  10.9238905  57.2646884  22.3939081   1.5640865  58.8823429  33.7103841
   1.2443649  58.0288737  33.4178215   1.0174293  59.0972007  34.4661808
   5.3420772  61.5985870  37.4273348   5.5606782  62.5302978  37.4461381
   5.7546546  61.2393844  38.2128151  12.2624990  52.1053955  29.4149036
  11.4525718  51.7601040  29.7904282  12.9509407  51.7961499  30.0036648
  14.1915538  51.1832002  31.0373333  14.7446577  51.6027456  31.6963356
  14.4285625  50.2567750  31.0796289  10.2148638  57.1719076  46.8176097
  10.1145364  58.1213433  46.7488188   9.9970180  56.8437315  45.9452167
   9.4161709  54.4204001  23.4016774  10.2780873  54.7458899  23.6612591
   9.6012053  53.6335497  22.8889840   1.4329125  62.5026341  35.6796963
   0.7392596  62.0880293  35.1666917   2.1802116  62.5446877  35.0830382
  17.5694345  53.2932527  30.5451997  16.9893014  53.9517331  30.1630049
  17.3030278  52.4709872  30.1339414  16.0197912  52.6937585  32.7473317
  16.5197690  52.8054120  31.9387636  16.6633520  52.3898638  33.3874126
  10.0779908  60.6016215  45.6341158   9.5946989  61.4016575  45.8405047
  10.1640847  60.6124160  44.6808602   3.3465867  62.4344594  33.5562978
   3.3236555  62.5332282  32.6044861   3.6566504  63.2809745  33.8780144
   6.0053245  64.4920749  37.6709592   6.9596499  64.4604692  37.6039524
   5.8065769  64.0311373  38.4859818   6.5952627  63.0621865  40.2380390
   7.4145516  63.5565944  40.2615227   6.8689435  62.1453834  40.2097957
  16.3519223  55.4532618  29.6008345  15.4645078  55.7382268  29.3828540
  16.7673213  55.2926381  28.7535622  19.7033760  55.4779139  33.3162684
  20.4794150  55.9675591  33.5887301  18.9781894  55.9037193  33.7734554
  22.1406318  56.1906758  34.3736625  22.7350809  55.9502494  33.6629933
  22.2132902  55.4713888  35.0010161   4.3603474  70.0340369  34.6879790
   4.2257942  69.2740770  34.1217788   3.9435536  70.7581269  34.2208579
  15.4962437  65.2177292  23.6956365  16.1998287  65.4227295  24.3114021
  14.7725086  65.7854054  23.9605449  16.3260247  60.9687154  29.8158635
  16.2695449  61.4255705  28.9766268  16.8788590  60.2077838  29.6381478
  20.1365053  56.7576886  30.6408755  19.8801987  56.3573521  31.4716963
  19.5117921  57.4720679  30.5158894  24.4477391  59.4972959  33.1480046
  23.8876949  59.5666148  33.9211608  23.8420894  59.3213943  32.4279542
   7.5172600  70.9309686  34.8998233   7.4004984  71.8755118  34.7976923
   6.6965046  70.6283247  35.2884032  17.4049134  65.6559822  25.7454825
  18.2394738  65.2241020  25.5632300  17.2433477  65.4841835  26.6731720
  17.0595026  62.1591935  27.1111165  17.0043830  61.9936206  26.1699609
  16.4341082  62.8667968  27.2673354   1.8487541  57.3959999  40.9372587
   2.4946405  56.8858953  41.4259812   1.6404693  58.1328681  41.5116012
  14.3740934  64.4640847  46.4364727  15.2432093  64.6381499  46.0751362
  13.8947685  65.2835264  46.3140457  10.3691152  51.6600044  26.6896483
  10.3569822  52.6041884  26.8464754  11.2614574  51.4770189  26.3955944
   8.5427114  71.5837948  38.1154161   9.4454361  71.6161558  38.4320656
   8.3164484  70.6538399  38.1300497  10.2980716  70.3368934  34.7764240
   9.3476347  70.3370796  34.6628612  10.6013202  69.5901669  34.2600274
  14.1843271  48.2542821  30.9442420  13.4175667  47.7001307  31.0899102
  14.5953976  48.3264689  31.8056571   6.1885032  54.5427616  45.0347601
   7.0516494  54.1864421  45.2450926   5.6150443  54.2041511  45.7223005
  26.0333409  76.1729473  35.8410002  26.6711819  76.0536220  35.1373342
  25.9154252  77.1210317  35.8997954  22.8423116  76.1256901  35.7771527
  22.5041627  76.0097966  34.8892062  23.7112884  75.7248066  35.7572533
  18.7009931  77.9792377  31.7668418  18.1374797  77.8882314  30.9984705
  18.5862326  77.1592282  32.2470910  23.3242899  77.2791753  41.7357732
  23.3131539  76.8844551  40.8638236  23.4863538  76.5457825  42.3291504
  16.2474363  79.4743569  34.6052638  17.0395655  79.1334393  34.1898937
  16.4871013  79.5838544  35.5254791  24.2809490  81.6463345  27.0782883
  23.6297470  82.2317425  26.6916896  25.0753853  82.1769540  27.1377920
  18.2065117  78.7352482  27.4770017  18.9795993  78.1881469  27.3382893
  18.5590516  79.5996731  27.6884478  20.0450160  80.0628864  40.6836916
  19.7540026  80.9674495  40.5683582  20.6807144  80.1045392  41.3980986
  20.9706367  77.4405713  37.2738276  21.5669939  77.2161735  36.5595239
  21.0281338  76.6990458  37.8763724  20.5431395  74.8945148  25.1088467
  20.7956916  74.3726669  24.3471930  19.6055954  74.7311294  25.2115150
  25.5874678  73.8980927  32.9163210  26.3737767  73.4800350  32.5653627
  25.8513382  74.8027019  33.0844858  25.7584755  79.3353777  27.6151867
  25.1230588  79.4088403  28.3272771  25.4282162  79.9247376  26.9370946
  30.9883105  73.8356160  33.8196189  31.7208277  73.2655377  34.0534018
  30.2322461  73.4477760  34.2602694  20.2627684  76.7973254  27.3112842
  20.1463942  76.1218158  27.9793926  20.3729944  76.3105628  26.4944995
  22.6059225  76.2583401  31.0159531  22.2417432  75.7314022  31.7272452
  23.4626341  75.8681870  30.8426016  28.5108525  67.5477734  38.2790797
  28.1791850  68.4173145  38.0552012  27.9154139  67.2314018  38.9584828
  22.2464712  71.2873301  26.0120880  22.4139114  72.1553537  26.3791351
  22.0561881  71.4500583  25.0882169  25.0040045  79.7490280  37.6786710
  24.7040768  80.6515319  37.5702517  24.6591104  79.4822463  38.5307863
  18.4552526  76.2004077  33.7123414  17.5303023  76.0680291  33.9201106
  18.7036940  76.9798296  34.2093357  28.4037189  72.2672820  35.3584147
  27.4954066  72.1988228  35.0642908  28.3524784  72.7444765  36.1865973
  22.2253933  73.7430958  26.9967546  22.1053558  74.1888009  27.8353027
  21.5306521  74.0916276  26.4381084  15.8161337  75.8437350  34.5467203
  15.9453719  76.0971829  35.4606615  15.1358789  76.4365058  34.2271858
  19.9860825  86.5134600  30.6457678  19.9084854  87.4642425  30.7246158
  19.3822468  86.1680473  31.3032604  22.4778054  73.6862466  43.3019044
  21.7011389  74.2456386  43.2921909  23.1168618  74.1719249  43.8233915
  30.2698835  70.4689258  37.1362021  29.6273215  70.7621792  36.4901816
  29.7653764  70.3542179  37.9415218  27.9238999  74.2152432  27.8247880
  28.8356855  74.4479818  27.6495578  27.4148646  74.7989476  27.2622959
  20.7324427  76.4947919  42.8637011  21.4739111  77.0332963  42.5871835
  20.0261412  77.1214208  43.0208563  26.2079766  78.6377059  41.4609173
  26.6163122  78.1959470  40.7163805  25.4857028  78.0629687  41.7143366
  22.5610836  73.5749666  38.8342730  23.4072032  73.9989080  38.9777379
  22.5009474  72.9183291  39.5281293  26.5308581  79.1978250  35.2161462
  25.9017443  79.3623964  34.5137530  26.1434243  79.6119860  35.9872426
  30.4097813  80.1332688  32.5705826  29.7248851  80.5131589  32.0202859
  30.4941662  80.7428015  33.3037773  25.7110282  71.2354035  40.4923904
  25.4671214  71.9896095  39.9558179  25.9870212  71.6139382  41.3271151
  27.6648745  77.7792647  39.1701169  27.8765640  78.4224407  38.4935550
  27.6178493  76.9454964  38.7023099  25.2674974  70.3910468  36.0737741
  24.4059453  70.6891721  36.3654479  25.2937408  70.6080866  35.1418774
  22.0836543  78.9352658  32.4811547  22.5474888  79.2140361  31.6916169
  21.8193341  78.0336103  32.2984638  18.9760624  78.4824140  35.4191310
  19.5461981  78.9111408  34.7808795  19.5668736  78.2006724  36.1175496
  21.0205429  75.0575811  29.2901112  21.7229472  75.5096854  29.7575038
  20.6886057  74.4159629  29.9181005  19.4685791  73.6487567  43.6652321
  18.8384451  74.3303848  43.8987718  19.3621878  73.5370649  42.7205460
  14.7630763  73.3159363  34.5918246  13.9729817  73.5716892  34.1158356
  15.2542010  74.1307701  34.6970286  28.7794573  80.6564602  37.3423526
  29.6012016  80.2544790  37.0606208  28.7756975  80.5532837  38.2939642
  16.7145508  73.6803942  31.5501722  15.9176672  73.7922637  32.0685218
  16.4871101  74.0190595  30.6842613  22.5451176  80.2048646  39.4984237
  22.6095608  80.6669053  40.3342409  21.8362100  79.5746011  39.6266547
  13.0468466  73.5689854  37.0233236  13.2976504  74.4536864  37.2890812
  13.5828014  73.3894455  36.2508328  36.8700566  77.0003351  33.6908498
  36.1164274  76.4310749  33.5352502  37.0048107  76.9666015  34.6379133
  22.2599194  81.8716753  29.3663217  22.1244868  82.7168289  29.7948065
  22.8009006  82.0736031  28.6029151  18.7466533  67.9508333  46.0277573
  18.3533479  67.3974532  46.7025217  19.5632674  68.2618911  46.4184090
  15.7128591  79.3892191  29.9391142  16.2253112  80.1835441  30.0896707
  16.3651304  78.6918482  29.8724744  17.5223476  82.5057947  32.0213896
  17.6990104  83.4275912  31.8334879  18.3180309  82.1916367  32.4508275
  21.6634494  69.3666212  43.6197829  22.4044208  69.9673365  43.5402292
  21.8952417  68.6243850  43.0615872  16.8075832  74.5522579  41.8976059
  16.6929347  73.6507837  42.1983158  15.9520350  74.7986276  41.5460875
  23.8867670  82.4940320  43.4963559  23.4431524  81.7076698  43.1784464
  24.5484884  82.6819470  42.8307450  18.6454791  84.0236121  38.0224238
  19.1962216  83.8953185  37.2501232  17.8066267  84.3231010  37.6719131
  25.9848908  82.7743120  41.5244961  25.9667383  83.5952001  41.0325230
  26.9068828  82.6497195  41.7495102  22.4421962  80.2887249  42.3668469
  22.9750299  79.5275537  42.1367777  21.9136043  79.9960901  43.1092623
  25.6091657  65.3947315  37.8962111  25.2655927  66.2848957  37.8201221
  25.9770620  65.2048973  37.0331696  13.6777508  77.7180845  30.7150713
  14.5152730  78.1277854  30.4984421  13.8555775  76.7780288  30.6850907
  25.5741940  75.3855926  26.4034546  25.0588563  76.1560531  26.6422933
  25.3019248  74.7121062  27.0267607  23.1589051  70.2305627  31.4619784
  22.3030647  69.8412477  31.2825423  23.5716003  70.3097588  30.6019570
  24.6888198  67.7651970  35.8611344  24.1852993  67.7282105  35.0479149
  24.9818804  68.6744713  35.9208001  20.9331083  67.8490700  34.8677526
  21.7984080  67.6533509  34.5083415  21.0008592  67.6201052  35.7946882
  30.5476214  78.1388281  28.3387719  29.7705657  77.7999440  27.8942881
  31.2267695  78.1440904  27.6642684  25.3628243  73.2583018  28.2294327
  25.0578379  73.5729167  29.0804470  26.3158685  73.3364438  28.2721660
  23.8074675  79.4173242  29.8787281  23.2796036  78.6826001  29.5660518
  23.3062178  80.1947918  29.6327249  28.7867521  77.6122262  34.9954327
  28.1291195  78.3021523  35.0834456  29.5907920  78.0018694  35.3388314
  18.5393403  70.0792908  32.2393893  19.1137154  69.8568089  31.5067085
  19.1264385  70.1481602  32.9922494  27.5972980  75.9666635  33.0458269
  28.1104861  76.5996627  33.5479979  28.2474204  75.3667830  32.6801629
  18.8662990  72.1097369  26.2589778  18.0300302  72.4472055  26.5799053
  18.7267759  71.9746349  25.3216915  20.8416070  66.9534157  30.9668962
  20.1880483  66.6383174  30.3425577  20.7996544  66.3309897  31.6928785
  21.9527275  77.2353452  22.8822254  21.0454337  77.0042705  23.0813403
  22.4498307  76.4391071  23.0696236  24.8595354  85.9450959  25.8018940
  24.1857053  86.2482656  26.4103898  25.2461176  86.7480039  25.4524397
  24.0753811  73.4416090  35.2916610  23.1576372  73.6631037  35.1338298
  24.4913954  73.5162401  34.4328317  24.8588858  74.8407506  30.4219290
  25.6060677  75.3528903  30.1126412  25.1280448  74.5191559  31.2823683
  23.1315509  77.3366047  27.4046244  22.2226728  77.0525079  27.5018714
  23.1610592  77.7565125  26.5449551  28.3634776  80.9472636  31.1737412
  27.9097103  80.1063546  31.2302602  27.7328743  81.5834035  31.5112192
  27.3067696  71.8764622  32.4038079  26.5690452  71.3642008  32.7348322
  27.5594469  71.4365004  31.5921356  26.8067715  82.7849133  32.1087230
  27.0990690  83.3454190  31.3899595  27.3166336  83.0777694  32.8640389
  27.4079323  64.6540874  32.9979848  27.7138200  63.7938238  32.7105764
  28.1331928  65.2458494  32.7978842  13.7003679  75.0571561  31.3861446
  13.5028079  74.4640922  30.6612513  13.1450343  74.7523771  32.1037385
  21.6800403  74.9494667  33.5056040  21.7349012  73.9968504  33.4298516
  20.8691605  75.1054106  33.9897338  22.8291596  78.8774790  24.7434323
  22.3911026  78.1610649  24.2839960  23.5702037  79.1050905  24.1819414
  19.6192762  73.5671727  31.2646418  18.8060628  73.8665898  31.6711611
  20.1151757  73.1727416  31.9820901  21.7701340  83.5629484  33.1980683
  21.7277519  83.7890330  32.2689215  22.6864039  83.3292859  33.3466484
  25.2166974  74.0313552  40.0961312  25.5716362  74.2585025  40.9555778
  25.8639105  74.3631928  39.4738568  30.9464711  77.1531987  30.8010641
  30.8082610  77.3433583  29.8731831  30.5900930  77.9151370  31.2578692
  19.1106837  71.1390083  36.8807653  19.7506217  70.9978842  36.1830617
  18.2784368  70.8524596  36.5046255  30.9734091  79.2208514  35.8121913
  31.4070597  79.1283803  36.6604967  31.6865671  79.1966015  35.1741929
  19.8867141  80.4392513  32.9942646  20.6807740  79.9442833  32.7925221
  19.1758834  79.9110376  32.6310351  24.7061986  82.8210609  37.3455013
  24.7599008  83.3901545  38.1132729  23.8376767  82.9912494  36.9809051
  16.1949905  74.5835595  29.0702398  15.2647493  74.5220050  29.2872361
  16.2907377  74.0611547  28.2739040  16.1135454  71.1090408  31.6580640
  16.3742271  72.0235741  31.5489801  16.9352626  70.6414850  31.8077253
  17.5860379  72.5228165  38.8279465  18.2583432  72.3145527  38.1792114
  16.7590166  72.3250251  38.3884697  31.8349640  79.2632215  38.3454798
  32.0285530  80.1678026  38.5914073  31.7350258  78.8039634  39.1793383
  23.4885951  69.1490106  40.8445126  22.8413866  69.8480055  40.7509602
  24.2586966  69.5826250  41.2121374  26.8964749  79.4138958  43.9195679
  26.7450255  79.1849509  43.0025763  26.8869428  80.3709559  43.9327024
  23.6650085  76.9870871  38.9041945  24.5942145  77.1382030  38.7310913
  23.2441115  77.0754891  38.0490592  22.4638417  81.0121535  36.6740483
  22.3249503  80.6440319  37.5466421  21.6753013  81.5269174  36.5024441
  23.0586569  86.1130631  28.0166019  23.2338325  85.6418675  28.8311642
  22.3719357  86.7396398  28.2447280  24.0143632  80.3903138  34.0629321
  23.6793465  80.3503908  34.9586971  23.5147578  79.7247854  33.5899731
  17.9887876  75.7970768  39.5881902  17.8507674  75.0651007  40.1893441
  18.8992800  75.7079668  39.3066090  26.9502824  77.7359172  24.3366380
  26.3331995  77.0106000  24.2399433  26.4819312  78.4968532  23.9933455
  20.6170177  75.5090727  39.0765581  21.3269795  74.8683919  39.0352200
  20.5739485  75.7603622  39.9991762  28.6056956  82.4458080  41.9972161
  28.5469502  81.7617300  41.3302744  29.0076474  83.1877070  41.5452787
  19.3299111  72.4955945  40.8961221  18.7936468  72.0446683  41.5482817
  18.7415819  72.6301854  40.1531685  17.6247654  89.2619994  34.7905880
  17.8644253  89.8938518  35.4684898  16.7816851  88.9108034  35.0771239
  18.7401370  71.9544596  23.4587685  17.8630836  71.8333397  23.0949931
  19.2159123  71.1630675  23.2066573  28.6074363  80.4097664  40.2286140
  27.7201142  80.0723586  40.3512539  29.1772914  79.6780696  40.4654906
  10.2603510  76.7421756  33.5529192  10.9474550  76.4283486  32.9650207
  10.1051639  77.6463121  33.2796443  15.0638232  71.6311953  37.9814215
  14.9796421  71.0237622  37.2464625  14.2420939  72.1220971  37.9823712
  22.1375516  85.0699117  37.1947384  22.0645688  85.8754088  37.7066688
  21.6952909  85.2691082  36.3695405  21.9265296  84.3070887  30.7050205
  21.1432818  84.8492567  30.7988430  22.6258041  84.8244866  31.1044446
  25.2361946  70.1165516  33.3484410  25.7330646  69.3635478  33.0285481
  24.4648928  70.1529833  32.7827620  33.0891703  75.8205882  34.9902702
  33.0781580  76.7030597  34.6196635  32.2209083  75.4677432  34.7957239
  24.5974200  84.9685951  39.3505542  25.3102172  85.6033415  39.2781444
  24.1064228  85.0649817  38.5345544  26.3191727  78.8737203  30.9222834
  25.3848005  78.9938666  30.7527538  26.4968395  77.9709670  30.6582844
  21.8196915  72.2582899  33.0756095  21.4494702  71.7053939  33.7637001
  22.3156007  71.6541033  32.5231095  29.7064278  74.7154523  31.4572868
  30.1724730  75.5482514  31.3833171  30.1571779  74.2499504  32.1618127
  19.6486113  82.7180394  40.1711113  20.3495573  83.3516877  40.3240507
  19.1781228  83.0595126  39.4106752  27.7740509  81.0598344  28.4559020
  28.0500353  80.9454938  29.3652894  26.9045008  80.6615829  28.4171193
  27.6780941  67.0835110  35.4963769  26.7644021  67.3139336  35.6645976
  28.1074042  67.1673554  36.3477802  27.4487399  75.2725002  37.9963663
  26.7958850  75.5200909  37.3416116  27.8267779  74.4589140  37.6626141
  24.4094573  85.3084695  32.0991834  24.5916968  84.4906351  32.5619586
  25.2327559  85.5252387  31.6616724  24.7436739  84.2352880  29.3606882
  25.2724505  83.7245334  28.7477044  25.0064958  83.9195410  30.2252415
  23.4974972  76.0144813  44.4829700  22.8215609  75.9138942  45.1532076
  24.3202606  75.8584026  44.9465698  15.2453831  82.2516749  37.1042216
  15.8307268  81.5060437  37.2370120  15.0478670  82.5620706  37.9878880
  18.0992487  85.2867997  32.1204658  17.4302862  85.7714124  31.6368698
  17.9605356  85.5337217  33.0348037   9.8371486  74.8222349  35.8246659
   9.8755586  74.2885940  36.6183777   9.3311779  74.2957555  35.2057636
  22.2397755  87.3211740  38.7187316  22.7916063  87.4843362  39.4836402
  22.5803949  87.9116178  38.0467341  17.2162248  69.6686890  39.3209201
  17.2803575  70.5301721  38.9086599  17.1529369  69.0560892  38.5881560
  16.6914521  71.7410022  42.9682235  17.3186560  71.3587100  43.5819760
  15.8342440  71.5224224  43.3337928  27.0908630  82.1472998  44.5735971
  27.6348533  82.7602956  44.0790926  26.5095474  82.7052576  45.0902984
  13.4680064  73.5486452  28.9000590  13.7633505  72.6397130  28.8467644
  12.5668099  73.5274191  28.5781593  25.3766142  85.2693716  35.7050999
  25.2517282  84.4683455  35.1961944  26.0345234  85.7639909  35.2164969
  16.9974311  71.6242448  34.8828139  16.2760896  72.2378416  34.7435612
  17.7867566  72.1600213  34.8044785  27.4401051  83.0702736  37.3330549
  26.4931386  82.9508087  37.2608875  27.7883824  82.1825234  37.4156810
  19.8000624  68.9596875  41.1568791  20.3235026  69.2059171  41.9195100
  19.5812957  69.7916909  40.7371928  15.1967905  71.2300549  29.0239915
  14.8680611  70.3497928  28.8415021  15.5507276  71.1748218  29.9116305
  24.4447484  82.8655452  33.5334901  24.2972447  81.9372159  33.7142471
  25.2700978  82.8875543  33.0491976  18.3109728  71.5173519  29.3915393
  18.6505801  72.0459440  28.6694001  18.7581849  71.8553925  30.1673960
  28.0481606  83.6884011  34.6199774  28.9728153  83.4826872  34.4824225
  27.8796909  83.4400412  35.5289115  21.0053169  69.9010570  38.8418461
  20.6649990  69.1018383  39.2439141  20.2992176  70.2012281  38.2695294
  21.6569641  66.9859882  37.2945784  22.4795710  66.5120360  37.1724674
  21.9007705  67.7650366  37.7944470  20.2977876  70.0148141  27.5908686
  21.0186238  70.3929393  27.0872403  19.6743180  70.7337017  27.6943664
  24.4408998  70.7193290  28.5267018  24.6572613  71.6017927  28.2255846
  23.9603066  70.3279503  27.7972660  19.1808220  73.6779003  35.1037763
  19.0352801  73.9919306  35.9962044  18.7033423  74.2963903  34.5508661
  21.0404603  70.6681551  35.1518652  21.0266171  69.7722644  34.8150950
  21.7577031  70.6752215  35.7856938  22.8930733  71.1018891  37.1971780
  22.6348511  72.0235962  37.1956110  22.3615774  70.7049326  37.8872244
  27.8376922  84.2069678  29.9761865  28.0113800  83.6416101  29.2235718
  28.3305813  85.0070573  29.7941355  13.6553882  76.2184347  38.0425424
  13.1107350  76.9944155  38.1745698  14.5333232  76.5655152  37.8844545
  20.4441499  69.5495931  30.4206222  20.5657410  68.6212577  30.6197110
  20.1543541  69.5634617  29.5084538  23.3132689  67.2350841  33.5572942
  23.3354386  67.2990175  32.6024922  23.7300748  66.3955350  33.7513448
  33.6916313  76.9706101  31.5952165  34.1347459  76.2213426  31.1971288
  32.8142824  76.9616237  31.2125897  28.8252095  83.5236443  27.0758763
  29.5202999  84.1443135  27.2946078  29.1675245  82.6731794  27.3511141
  14.4419904  75.3454243  40.9355581  13.7001640  75.4936879  41.5220211
  14.1212648  75.6062509  40.0722330  30.7243518  80.9736148  28.6046094
  31.2494842  81.3123421  27.8795414  30.6365870  80.0383163  28.4209229
  22.3863567  84.8870222  40.7335971  22.6950693  84.6419368  41.6058670
  23.1839049  85.0916860  40.2454841  22.4084179  87.0408131  32.9641347
  21.9689169  86.5484510  33.6574204  23.1592296  86.4981099  32.7233423
  14.8876518  83.2319672  32.9665975  15.7134537  82.9323444  32.5864619
  14.5370570  82.4627295  33.4155764  19.8558051  82.5846140  35.0363649
  19.2338060  81.9216845  34.7365877  20.5262918  82.6107272  34.3537297
  13.0885123  81.1505999  33.9254909  12.2517031  80.7228173  33.7438910
  13.0608768  81.3438442  34.8625700  19.9282578  71.0627928  44.6296155
  19.9770734  71.9390051  44.2473925  20.4705092  70.5205321  44.0567798
  30.4137424  81.6069052  43.9097292  29.6232968  81.5893191  43.3701792
  30.1770778  82.1457345  44.6646329  30.5335299  78.4561518  41.2230021
  30.5833304  78.2911525  42.1645543  30.4249222  77.5888777  40.8327901
  19.4171558  81.1350064  28.5122110  19.5659678  81.8185528  27.8588782
  20.2238001  81.1155154  29.0271565  27.8239061  74.4392446  42.5389327
  28.7248924  74.2998911  42.2473325  27.8987036  74.6046901  43.4787505
  22.1581867  71.8159301  41.3842514  21.2885176  72.1092867  41.1125102
  22.3941347  72.3999746  42.1049777  32.0353496  80.8758460  41.4672042
  31.7438304  81.2388440  42.3035503  31.4225627  80.1625468  41.2885374
  33.2349178  78.4411339  33.9874612  34.0696069  78.8801143  34.1512173
  33.3708307  77.9649993  33.1682858  30.2840684  75.9991074  39.9352100
  30.7594806  76.1918720  39.1270952  29.3606249  76.0550260  39.6895484
  17.1724191  77.1615241  29.5183178  16.9270233  76.2577571  29.7163389
  17.3420105  77.1632392  28.5762656  24.8620900  68.0338918  38.9007934
  25.3802844  68.7699945  38.5754423  24.5076033  68.3402911  39.7354693
  16.4419838  72.8943599  27.0169340  15.7489083  72.9687954  26.3609376
  16.1971590  72.1303943  27.5390857  25.1133495  64.4539200  34.4208831
  25.3935248  63.7862389  35.0469257  25.8984102  64.6468296  33.9083495
  22.9166963  83.6298194  25.9833857  22.3440930  84.2488381  25.5304329
  23.4899757  84.1797556  26.5173779  28.9842353  72.8756834  38.1680406
  29.9359776  72.9754932  38.1892630  28.8145803  72.0835103  38.6778490
  27.0056732  69.9612417  38.3539807  26.4106665  70.2417430  37.6586295
  26.7206429  70.4506318  39.1256548  26.1364223  83.9135344  27.1142439
  27.0694896  83.8480906  27.3175315  26.0487436  84.7491611  26.6556972
  28.7652240  83.2301215  24.0746387  28.6865871  82.8961078  24.9682145
  29.5861906  83.7222983  24.0737859  31.4630431  76.0962954  37.2822705
  31.4306751  75.1578955  37.4682389  32.0731054  76.1746991  36.5488530
  23.3013762  74.9659007  23.3249910  24.2472866  74.8365215  23.3938328
  22.9228007  74.2273669  23.8019338  31.6124919  72.8873997  37.3280989
  31.0963968  72.1032454  37.1410918  32.4964868  72.5592714  37.4927508
  29.2735646  66.6315013  33.2876801  29.0760467  66.3230101  34.1720133
  29.8835352  67.3576652  33.4174731  37.2806981  77.1578961  36.4228742
  38.0110369  76.8964249  36.9836446  36.6713926  76.4207683  36.4630810
  35.3622278  75.2986823  37.0203193  34.6355441  75.1642788  36.4119685
  34.9469565  75.6063652  37.8259912  23.1852454  79.0176753  44.7850566
  24.1055464  79.1955352  44.9790613  23.1502037  78.0732798  44.6330266
  21.4856679  72.8908983  23.2604795  20.5788134  72.5942096  23.3367508
  21.7632660  72.5938801  22.3939081  12.4034619  74.2115347  33.7103841
  12.0837404  73.3580655  33.4178215  11.8568047  74.4263925  34.4661808
  16.1814527  76.9277788  37.4273348  16.4000537  77.8594896  37.4461381
  16.5940301  76.5685762  38.2128151  23.1018745  67.4345873  29.4149036
  22.2919473  67.0892958  29.7904282  23.7903161  67.1253417  30.0036648
  25.0309293  66.5123920  31.0373333  25.5840331  66.9319373  31.6963356
  25.2679379  65.5859668  31.0796289  21.0542392  72.5010993  46.8176097
  20.9539119  73.4505350  46.7488188  20.8363934  72.1729232  45.9452167
  20.2555463  69.7495919  23.4016774  21.1174627  70.0750817  23.6612591
  20.4405808  68.9627414  22.8889840  12.2722879  77.8318258  35.6796963
  11.5786351  77.4172211  35.1666917  13.0195870  77.8738795  35.0830382
  28.4088100  68.6224445  30.5451997  27.8286769  69.2809249  30.1630049
  28.1424033  67.8001790  30.1339414  26.8591666  68.0229503  32.7473317
  27.3591445  68.1346037  31.9387636  27.5027274  67.7190556  33.3874126
  20.9173662  75.9308132  45.6341158  20.4340744  76.7308492  45.8405047
  21.0034601  75.9416077  44.6808602  14.1859622  77.7636512  33.5562978
  14.1630310  77.8624199  32.6044861  14.4960258  78.6101663  33.8780144
  16.8447000  79.8212667  37.6709592  17.7990253  79.7896609  37.6039524
  16.6459523  79.3603291  38.4859818  17.4346382  78.3913783  40.2380390
  18.2539271  78.8857862  40.2615227  17.7083189  77.4745751  40.2097957
  27.1912978  70.7824535  29.6008345  26.3038833  71.0674186  29.3828540
  27.6066967  70.6218299  28.7535622  30.5427514  70.8071056  33.3162684
  31.3187904  71.2967509  33.5887301  29.8175648  71.2329111  33.7734554
  32.9800073  71.5198676  34.3736625  33.5744563  71.2794412  33.6629933
  33.0526656  70.8005806  35.0010161  15.1997228  85.3632287  34.6879790
  15.0651696  84.6032687  34.1217788  14.7829291  86.0873186  34.2208579
  26.3356191  80.5469210  23.6956365  27.0392042  80.7519213  24.3114021
  25.6118840  81.1145972  23.9605449  27.1654002  76.2979071  29.8158635
  27.1089203  76.7547623  28.9766268  27.7182344  75.5369756  29.6381478
  30.9758808  72.0868803  30.6408755  30.7195742  71.6865439  31.4716963
  30.3511676  72.8012597  30.5158894  35.2871145  74.8264876  33.1480046
  34.7270703  74.8958066  33.9211608  34.6814649  74.6505861  32.4279542
  18.3566354  86.2601604  34.8998233  18.2398738  87.2047036  34.7976923
  17.5358801  85.9575165  35.2884032  28.2442889  80.9851739  25.7454825
  29.0788493  80.5532938  25.5632300  28.0827232  80.8133753  26.6731720
  27.8988781  77.4883853  27.1111165  27.8437585  77.3228124  26.1699609
  27.2734836  78.1959885  27.2673354  12.6881296  72.7251917  40.9372587
  13.3340160  72.2150871  41.4259812  12.4798447  73.4620599  41.5116012
  25.2134688  79.7932764  46.4364727  26.0825848  79.9673417  46.0751362
  24.7341440  80.6127181  46.3140457  21.2084906  66.9891962  26.6896483
  21.1963576  67.9333801  26.8464754  22.1008328  66.8062107  26.3955944
  19.3820868  86.9129865  38.1154161  20.2848115  86.9453476  38.4320656
  19.1558238  85.9830316  38.1300497  21.1374470  85.6660852  34.7764240
  20.1870101  85.6662714  34.6628612  21.4406957  84.9193587  34.2600274
  25.0237026  63.5834738  30.9442420  24.2569422  63.0293225  31.0899102
  25.4347731  63.6556607  31.8056571  17.0278787  69.8719534  45.0347601
  17.8910249  69.5156339  45.2450926  16.4544198  69.5333429  45.7223005
  36.8727164  91.5021390  35.8410002  37.5105574  91.3828138  35.1373342
  36.7548007  92.4502234  35.8997954  33.6816870  91.4548818  35.7771527
  33.3435382  91.3389883  34.8892062  34.5506638  91.0539984  35.7572533
  29.5403686  93.3084295  31.7668418  28.9768551  93.2174232  30.9984705
  29.4256081  92.4884199  32.2470910  34.1636653  92.6083670  41.7357732
  34.1525294  92.2136468  40.8638236  34.3257293  91.8749743  42.3291504
  27.0868118  94.8035486  34.6052638  27.8789410  94.4626311  34.1898937
  27.3264768  94.9130462  35.5254791  35.1203245  96.9755263  27.0782883
  34.4691224  97.5609343  26.6916896  35.9147607  97.5061458  27.1377920
  29.0458872  94.0644400  27.4770017  29.8189748  93.5173387  27.3382893
  29.3984271  94.9288649  27.6884478  30.8843914  95.3920782  40.6836916
  30.5933780  96.2966413  40.5683582  31.5200899  95.4337310  41.3980986
  31.8100121  92.7697631  37.2738276  32.4063693  92.5453653  36.5595239
  31.8675093  92.0282376  37.8763724  31.3825150  90.2237066  25.1088467
  31.6350670  89.7018587  24.3471930  30.4449709  90.0603211  25.2115150
  36.4268432  89.2272844  32.9163210  37.2131522  88.8092267  32.5653627
  36.6907137  90.1318936  33.0844858  36.5978510  94.6645695  27.6151867
  35.9624343  94.7380321  28.3272771  36.2675916  95.2539293  26.9370946
  41.8276860  89.1648077  33.8196189  42.5602031  88.5947294  34.0534018
  41.0716215  88.7769678  34.2602694  31.1021438  92.1265172  27.3112842
  30.9857696  91.4510075  27.9793926  31.2123698  91.6397546  26.4944995
  33.4452979  91.5875319  31.0159531  33.0811186  91.0605940  31.7272452
  34.3020095  91.1973788  30.8426016  39.3502280  82.8769652  38.2790797
  39.0185605  83.7465062  38.0552012  38.7547893  82.5605936  38.9584828
  33.0858466  86.6165219  26.0120880  33.2532869  87.4845455  26.3791351
  32.8955635  86.7792500  25.0882169  35.8433799  95.0782198  37.6786710
  35.5434522  95.9807236  37.5702517  35.4984859  94.8114381  38.5307863
  29.2946281  91.5295994  33.7123414  28.3696777  91.3972208  33.9201106
  29.5430694  92.3090214  34.2093357  39.2430943  87.5964738  35.3584147
  38.3347821  87.5280146  35.0642908  39.1918539  88.0736683  36.1865973
  33.0647687  89.0722876  26.9967546  32.9447312  89.5179927  27.8353027
  32.3700275  89.4208194  26.4381084  26.6555092  91.1729268  34.5467203
  26.7847473  91.4263747  35.4606615  25.9752543  91.7656976  34.2271858
  30.8254579 101.8426518  30.6457678  30.7478609 102.7934343  30.7246158
  30.2216223 101.4972390  31.3032604  33.3171809  89.0154383  43.3019044
  32.5405143  89.5748303  43.2921909  33.9562372  89.5011166  43.8233915
  41.1092590  85.7981176  37.1362021  40.4666970  86.0913709  36.4901816
  40.6047518  85.6834096  37.9415218  38.7632753  89.5444349  27.8247880
  39.6750609  89.7771736  27.6495578  38.2542400  90.1281394  27.2622959
  31.5718181  91.8239837  42.8637011  32.3132866  92.3624881  42.5871835
  30.8655167  92.4506125  43.0208563  37.0473521  93.9668977  41.4609173
  37.4556877  93.5251388  40.7163805  36.3250782  93.3921605  41.7143366
  33.4004591  88.9041584  38.8342730  34.2465786  89.3280997  38.9777379
  33.3403229  88.2475208  39.5281293  37.3702336  94.5270168  35.2161462
  36.7411198  94.6915882  34.5137530  36.9827998  94.9411777  35.9872426
  41.2491567  95.4624606  32.5705826  40.5642606  95.8423507  32.0202859
  41.3335417  96.0719932  33.3037773  36.5504036  86.5645952  40.4923904
  36.3064968  87.3188013  39.9558179  36.8263967  86.9431300  41.3271151
  38.5042499  93.1084565  39.1701169  38.7159394  93.7516325  38.4935550
  38.4572247  92.2746881  38.7023099  36.1068728  85.7202385  36.0737741
  35.2453207  86.0183639  36.3654479  36.1331163  85.9372784  35.1418774
  32.9230297  94.2644576  32.4811547  33.3868643  94.5432279  31.6916169
  32.6587096  93.3628020  32.2984638  29.8154378  93.8116057  35.4191310
  30.3855736  94.2403326  34.7808795  30.4062490  93.5298642  36.1175496
  31.8599183  90.3867728  29.2901112  32.5623227  90.8388772  29.7575038
  31.5279812  89.7451547  29.9181005  30.3079545  88.9779485  43.6652321
  29.6778206  89.6595766  43.8987718  30.2015633  88.8662566  42.7205460
  25.6024517  88.6451281  34.5918246  24.8123571  88.9008809  34.1158356
  26.0935765  89.4599619  34.6970286  39.6188327  95.9856520  37.3423526
  40.4405771  95.5836707  37.0606208  39.6150730  95.8824754  38.2939642
  27.5539263  89.0095860  31.5501722  26.7570426  89.1214554  32.0685218
  27.3264855  89.3482512  30.6842613  33.3844930  95.5340563  39.4984237
  33.4489363  95.9960971  40.3342409  32.6755854  94.9037928  39.6266547
  23.8862220  88.8981771  37.0233236  24.1370259  89.7828781  37.2890812
  24.4221769  88.7186373  36.2508328  47.7094320  92.3295269  33.6908498
  46.9558028  91.7602667  33.5352502  47.8441861  92.2957933  34.6379133
  33.0992948  97.2008671  29.3663217  32.9638623  98.0460207  29.7948065
  33.6402761  97.4027948  28.6029151  29.5860288  83.2800251  46.0277573
  29.1927233  82.7266449  46.7025217  30.4026428  83.5910829  46.4184090
  26.5522345  94.7184109  29.9391142  27.0646866  95.5127359  30.0896707
  27.2045058  94.0210399  29.8724744  28.3617230  97.8349865  32.0213896
  28.5383859  98.7567830  31.8334879  29.1574064  97.5208284  32.4508275
  32.5028249  84.6958130  43.6197829  33.2437962  85.2965283  43.5402292
  32.7346172  83.9535768  43.0615872  27.6469587  89.8814497  41.8976059
  27.5323102  88.9799754  42.1983158  26.7914104  90.1278194  41.5460875
  34.7261424  97.8232237  43.4963559  34.2825279  97.0368616  43.1784464
  35.3878638  98.0111388  42.8307450  29.4848546  99.3528039  38.0224238
  30.0355971  99.2245102  37.2501232  28.6460022  99.6522928  37.6719131
  36.8242663  98.1035037  41.5244961  36.8061138  98.9243918  41.0325230
  37.7462583  97.9789112  41.7495102  33.2815717  95.6179167  42.3668469
  33.8144053  94.8567455  42.1367777  32.7529798  95.3252819  43.1092623
  36.4485412  80.7239233  37.8962111  36.1049681  81.6140874  37.8201221
  36.8164374  80.5340890  37.0331696  24.5171262  93.0472763  30.7150713
  25.3546484  93.4569772  30.4984421  24.6949530  92.1072205  30.6850907
  36.4135694  90.7147844  26.4034546  35.8982318  91.4852448  26.6422933
  36.1413003  90.0412980  27.0267607  33.9982805  85.5597545  31.4619784
  33.1424402  85.1704395  31.2825423  34.4109757  85.6389505  30.6019570
  35.5281952  83.0943888  35.8611344  35.0246748  83.0574023  35.0479149
  35.8212559  84.0036631  35.9208001  31.7724838  83.1782618  34.8677526
  32.6377835  82.9825426  34.5083415  31.8402347  82.9492969  35.7946882
  41.3869969  93.4680198  28.3387719  40.6099411  93.1291358  27.8942881
  42.0661449  93.4732822  27.6642684  36.2021998  88.5874936  28.2294327
  35.8972133  88.9021085  29.0804470  37.1552440  88.6656356  28.2721660
  34.6468429  94.7465159  29.8787281  34.1189791  94.0117919  29.5660518
  34.1455932  95.5239836  29.6327249  39.6261275  92.9414180  34.9954327
  38.9684950  93.6313441  35.0834456  40.4301675  93.3310612  35.3388314
  29.3787157  85.4084826  32.2393893  29.9530909  85.1860007  31.5067085
  29.9658139  85.4773520  32.9922494  38.4366734  91.2958552  33.0458269
  38.9498616  91.9288544  33.5479979  39.0867958  90.6959748  32.6801629
  29.7056744  87.4389287  26.2589778  28.8694056  87.7763973  26.5799053
  29.5661514  87.3038266  25.3216915  31.6809825  82.2826074  30.9668962
  31.0274237  81.9675092  30.3425577  31.6390299  81.6601815  31.6928785
  32.7921030  92.5645369  22.8822254  31.8848091  92.3334623  23.0813403
  33.2892062  91.7682989  23.0696236  35.6989108 101.2742877  25.8018940
  35.0250807 101.5774573  26.4103898  36.0854930 102.0771957  25.4524397
  34.9147565  88.7708008  35.2916610  33.9970126  88.9922955  35.1338298
  35.3307709  88.8454318  34.4328317  35.6982613  90.1699424  30.4219290
  36.4454432  90.6820821  30.1126412  35.9674202  89.8483476  31.2823683
  33.9709263  92.6657964  27.4046244  33.0620482  92.3816997  27.5018714
  34.0004347  93.0857043  26.5449551  39.2028530  96.2764554  31.1737412
  38.7490858  95.4355464  31.2302602  38.5722497  96.9125952  31.5112192
  38.1461450  87.2056540  32.4038079  37.4084207  86.6933926  32.7348322
  38.3988224  86.7656921  31.5921356  37.6461470  98.1141051  32.1087230
  37.9384444  98.6746108  31.3899595  38.1560090  98.4069612  32.8640389
  38.2473077  79.9832792  32.9979848  38.5531954  79.1230155  32.7105764
  38.9725682  80.5750412  32.7978842  24.5397433  90.3863478  31.3861446
  24.3421833  89.7932839  30.6612513  23.9844097  90.0815689  32.1037385
  32.5194157  90.2786585  33.5056040  32.5742767  89.3260421  33.4298516
  31.7085359  90.4346024  33.9897338  33.6685351  94.2066708  24.7434323
  33.2304781  93.4902567  24.2839960  34.4095792  94.4342823  24.1819414
  30.4586517  88.8963645  31.2646418  29.6454383  89.1957815  31.6711611
  30.9545511  88.5019333  31.9820901  32.6095095  98.8921402  33.1980683
  32.5671274  99.1182248  32.2689215  33.5257794  98.6584776  33.3466484
  36.0560729  89.3605469  40.0961312  36.4110116  89.5876942  40.9555778
  36.7032860  89.6923846  39.4738568  41.7858466  92.4823905  30.8010641
  41.6476364  92.6725501  29.8731831  41.4294684  93.2443288  31.2578692
  29.9500592  86.4682000  36.8807653  30.5899971  86.3270759  36.1830617
  29.1178122  86.1816514  36.5046255  41.8127845  94.5500432  35.8121913
  42.2464352  94.4575721  36.6604967  42.5259426  94.5257933  35.1741929
  30.7260896  95.7684431  32.9942646  31.5201494  95.2734751  32.7925221
  30.0152588  95.2402294  32.6310351  35.5455740  98.1502526  37.3455013
  35.5992762  98.7193462  38.1132729  34.6770521  98.3204411  36.9809051
  27.0343659  89.9127512  29.0702398  26.1041247  89.8511968  29.2872361
  27.1301131  89.3903465  28.2739040  26.9529208  86.4382325  31.6580640
  27.2136025  87.3527658  31.5489801  27.7746380  85.9706768  31.8077253
  28.4254133  87.8520082  38.8279465  29.0977187  87.6437445  38.1792114
  27.5983920  87.6542168  38.3884697  42.6743395  94.5924133  38.3454798
  42.8679285  95.4969943  38.5914073  42.5744013  94.1331552  39.1793383
  34.3279706  84.4782023  40.8445126  33.6807621  85.1771973  40.7509602
  35.0980721  84.9118167  41.2121374  37.7358503  94.7430875  43.9195679
  37.5844010  94.5141427  43.0025763  37.7263183  95.7001477  43.9327024
  34.5043840  92.3162788  38.9041945  35.4335900  92.4673948  38.7310913
  34.0834870  92.4046809  38.0490592  33.3032172  96.3413453  36.6740483
  33.1643257  95.9732237  37.5466421  32.5146768  96.8561092  36.5024441
  33.8980324 101.4422549  28.0166019  34.0732079 100.9710592  28.8311642
  33.2113112 102.0688315  28.2447280  34.8537387  95.7195055  34.0629321
  34.5187219  95.6795825  34.9586971  34.3541332  95.0539771  33.5899731
  28.8281631  91.1262685  39.5881902  28.6901429  90.3942924  40.1893441
  29.7386554  91.0371585  39.3066090  37.7896578  93.0651090  24.3366380
  37.1725749  92.3397918  24.2399433  37.3213067  93.8260450  23.9933455
  31.4563931  90.8382645  39.0765581  32.1663550  90.1975837  39.0352200
  31.4133240  91.0895540  39.9991762  39.4450710  97.7749998  41.9972161
  39.3863256  97.0909218  41.3302744  39.8470228  98.5168988  41.5452787
  30.1692865  87.8247863  40.8961221  29.6330222  87.3738601  41.5482817
  29.5809574  87.9593771  40.1531685  28.4641409 104.5911912  34.7905880
  28.7038007 105.2230436  35.4684898  27.6210605 104.2399952  35.0771239
  29.5795124  87.2836514  23.4587685  28.7024591  87.1625315  23.0949931
  30.0552877  86.4922592  23.2066573  39.4468117  95.7389582  40.2286140
  38.5594896  95.4015504  40.3512539  40.0166668  95.0072613  40.4654906
  21.0997264  92.0713674  33.5529192  21.7868304  91.7575404  32.9650207
  20.9445393  92.9755038  33.2796443  25.9031987  86.9603870  37.9814215
  25.8190175  86.3529540  37.2464625  25.0814693  87.4512889  37.9823712
  32.9769271 100.3991034  37.1947384  32.9039442 101.2046006  37.7066688
  32.5346664 100.5983000  36.3695405  32.7659050  99.6362804  30.7050205
  31.9826572 100.1784485  30.7988430  33.4651796 100.1536784  31.1044446
  36.0755700  85.4457434  33.3484410  36.5724400  84.6927396  33.0285481
  35.3042682  85.4821750  32.7827620  43.9285458  91.1497799  34.9902702
  43.9175334  92.0322515  34.6196635  43.0602837  90.7969350  34.7957239
  35.4367954 100.2977868  39.3505542  36.1495926 100.9325333  39.2781444
  34.9457983 100.3941734  38.5345544  37.1585481  94.2029121  30.9222834
  36.2241760  94.3230583  30.7527538  37.3362150  93.3001588  30.6582844
  32.6590669  87.5874817  33.0756095  32.2888457  87.0345857  33.7637001
  33.1549762  86.9832950  32.5231095  40.5458033  90.0446440  31.4572868
  41.0118485  90.8774432  31.3833171  40.9965533  89.5791422  32.1618127
  30.4879868  98.0472312  40.1711113  31.1889327  98.6808795  40.3240507
  30.0174983  98.3887043  39.4106752  38.6134264  96.3890262  28.4559020
  38.8894108  96.2746856  29.3652894  37.7438762  95.9907746  28.4171193
  38.5174695  82.4127027  35.4963769  37.6037775  82.6431254  35.6645976
  38.9467797  82.4965471  36.3477802  38.2881154  90.6016919  37.9963663
  37.6352604  90.8492827  37.3416116  38.6661534  89.7881057  37.6626141
  35.2488328 100.6376612  32.0991834  35.4310722  99.8198268  32.5619586
  36.0721314 100.8544305  31.6616724  35.5830493  99.5644798  29.3606882
  36.1118260  99.0537252  28.7477044  35.8458713  99.2487328  30.2252415
  34.3368727  91.3436730  44.4829700  33.6609364  91.2430860  45.1532076
  35.1596361  91.1875944  44.9465698  26.0847586  97.5808667  37.1042216
  26.6701023  96.8352355  37.2370120  25.8872424  97.8912624  37.9878880
  28.9386241 100.6159914  32.1204658  28.2696616 101.1006042  31.6368698
  28.7999111 100.8629135  33.0348037  20.6765241  90.1514267  35.8246659
  20.7149340  89.6177858  36.6183777  20.1705533  89.6249473  35.2057636
  33.0791510 102.6503658  38.7187316  33.6309818 102.8135279  39.4836402
  33.4197703 103.2408096  38.0467341  28.0556003  84.9978808  39.3209201
  28.1197329  85.8593638  38.9086599  27.9923123  84.3852809  38.5881560
  27.5308275  87.0701940  42.9682235  28.1580314  86.6879017  43.5819760
  26.6736194  86.8516142  43.3337928  37.9302384  97.4764915  44.5735971
  38.4742288  98.0894874  44.0790926  37.3489229  98.0344494  45.0902984
  24.3073818  88.8778369  28.9000590  24.6027259  87.9689048  28.8467644
  23.4061854  88.8566109  28.5781593  36.2159897 100.5985633  35.7050999
  36.0911036  99.7975373  35.1961944  36.8738988 101.0931827  35.2164969
  27.8368065  86.9534366  34.8828139  27.1154651  87.5670334  34.7435612
  28.6261321  87.4892131  34.8044785  38.2794805  98.3994653  37.3330549
  37.3325141  98.2800005  37.2608875  38.6277578  97.5117151  37.4156810
  30.6394379  84.2888792  41.1568791  31.1628781  84.5351089  41.9195100
  30.4206712  85.1208827  40.7371928  26.0361660  86.5592467  29.0239915
  25.7074366  85.6789846  28.8415021  26.3901030  86.5040136  29.9116305
  35.2841239  98.1947370  33.5334901  35.1366201  97.2664077  33.7142471
  36.1094732  98.2167460  33.0491976  29.1503483  86.8465437  29.3915393
  29.4899555  87.3751358  28.6694001  29.5975603  87.1845843  30.1673960
  38.8875360  99.0175928  34.6199774  39.8121908  98.8118790  34.4824225
  38.7190664  98.7692329  35.5289115  31.8446924  85.2302487  38.8418461
  31.5043744  84.4310300  39.2439141  31.1385930  85.5304198  38.2695294
  32.4963396  82.3151800  37.2945784  33.3189465  81.8412278  37.1724674
  32.7401459  83.0942284  37.7944470  31.1371630  85.3440058  27.5908686
  31.8579993  85.7221311  27.0872403  30.5136934  86.0628935  27.6943664
  35.2802753  86.0485207  28.5267018  35.4966367  86.9309845  28.2255846
  34.7996820  85.6571421  27.7972660  30.0201974  89.0070920  35.1037763
  29.8746555  89.3211224  35.9962044  29.5427178  89.6255821  34.5508661
  31.8798357  85.9973468  35.1518652  31.8659926  85.1014562  34.8150950
  32.5970785  86.0044132  35.7856938  33.7324488  86.4310809  37.1971780
  33.4742266  87.3527879  37.1956110  33.2009528  86.0341243  37.8872244
  38.6770677  99.5361596  29.9761865  38.8507554  98.9708018  29.2235718
  39.1699568 100.3362491  29.7941355  24.4947636  91.5476265  38.0425424
  23.9501105  92.3236073  38.1745698  25.3726986  91.8947069  37.8844545
  31.2835253  84.8787849  30.4206222  31.4051164  83.9504495  30.6197110
  30.9937296  84.8926535  29.5084538  34.1526444  82.5642759  33.5572942
  34.1748140  82.6282092  32.6024922  34.5694503  81.7247268  33.7513448
  44.5310068  92.2998019  31.5952165  44.9741214  91.5505344  31.1971288
  43.6536578  92.2908155  31.2125897  39.6645849  98.8528360  27.0758763
  40.3596754  99.4735053  27.2946078  40.0068999  98.0023711  27.3511141
  25.2813658  90.6746161  40.9355581  24.5395394  90.8228796  41.5220211
  24.9606403  90.9354427  40.0722330  41.5637272  96.3028066  28.6046094
  42.0888596  96.6415338  27.8795414  41.4759625  95.3675081  28.4209229
  33.2257321 100.2162139  40.7335971  33.5344447  99.9711286  41.6058670
  34.0232803 100.4208778  40.2454841  33.2477933 102.3700049  32.9641347
  32.8082923 101.8776428  33.6574204  33.9986050 101.8273017  32.7233423
  25.7270272  98.5611590  32.9665975  26.5528292  98.2615362  32.5864619
  25.3764324  97.7919212  33.4155764  30.6951805  97.9138058  35.0363649
  30.0731814  97.2508763  34.7365877  31.3656672  97.9399190  34.3537297
  23.9278877  96.4797916  33.9254909  23.0910785  96.0520091  33.7438910
  23.9002523  96.6730360  34.8625700  30.7676333  86.3919846  44.6296155
  30.8164488  87.2681969  44.2473925  31.3098847  85.8497239  44.0567798
  41.2531178  96.9360969  43.9097292  40.4626722  96.9185108  43.3701792
  41.0164533  97.4749263  44.6646329  41.3729053  93.7853436  41.2230021
  41.4227058  93.6203443  42.1645543  41.2642977  92.9180695  40.8327901
  30.2565312  96.4641981  28.5122110  30.4053432  97.1477446  27.8588782
  31.0631756  96.4447071  29.0271565  38.6632816  89.7684364  42.5389327
  39.5642679  89.6290829  42.2473325  38.7380790  89.9338819  43.4787505
  32.9975621  87.1451219  41.3842514  32.1278931  87.4384785  41.1125102
  33.2335101  87.7291664  42.1049777  42.8747250  96.2050377  41.4672042
  42.5832059  96.5680358  42.3035503  42.2619382  95.4917386  41.2885374
  44.0742933  93.7703257  33.9874612  44.9089824  94.2093061  34.1512173
  44.2102061  93.2941910  33.1682858  41.1234438  91.3282992  39.9352100
  41.5988560  91.5210638  39.1270952  40.2000004  91.3842178  39.6895484
  28.0117945  92.4907159  29.5183178  27.7663987  91.5869489  29.7163389
  28.1813860  92.4924309  28.5762656  35.7014655  83.3630835  38.9007934
  36.2196599  84.0991862  38.5754423  35.3469788  83.6694829  39.7354693
  27.2813593  88.2235517  27.0169340  26.5882838  88.2979872  26.3609376
  27.0365345  87.4595860  27.5390857  35.9527249  79.7831118  34.4208831
  36.2329003  79.1154307  35.0469257  36.7377856  79.9760214  33.9083495
  33.7560718  98.9590112  25.9833857  33.1834685  99.5780299  25.5304329
  34.3293511  99.5089474  26.5173779  39.8236107  88.2048752  38.1680406
  40.7753530  88.3046850  38.1892630  39.6539558  87.4127021  38.6778490
  37.8450487  85.2904335  38.3539807  37.2500419  85.5709348  37.6586295
  37.5600184  85.7798236  39.1256548  36.9757977  99.2427262  27.1142439
  37.9088651  99.1772824  27.3175315  36.8881190 100.0783529  26.6556972
  39.6045994  98.5593132  24.0746387  39.5259626  98.2252996  24.9682145
  40.4255661  99.0514900  24.0737859  42.3024185  91.4254872  37.2822705
  42.2700505  90.4870872  37.4682389  42.9124809  91.5038908  36.5488530
  34.1407516  90.2950925  23.3249910  35.0866621  90.1657133  23.3938328
  33.7621761  89.5565587  23.8019338  42.4518674  88.2165915  37.3280989
  41.9357722  87.4324372  37.1410918  43.3358622  87.8884632  37.4927508
  40.1129401  81.9606931  33.2876801  39.9154222  81.6522019  34.1720133
  40.7229106  82.6868570  33.4174731  48.1200735  92.4870878  36.4228742
  48.8504124  92.2256167  36.9836446  47.5107681  91.7499600  36.4630810
  46.2016032  90.6278741  37.0203193  45.4749196  90.4934706  36.4119685
  45.7863319  90.9355570  37.8259912  34.0246209  94.3468671  44.7850566
  34.9449218  94.5247270  44.9790613  33.9895792  93.4024716  44.6330266
  32.3250433  88.2200901  23.2604795  31.4181889  87.9234014  23.3367508
  32.6026414  87.9230719  22.3939081  23.2428374  89.5407264  33.7103841
  22.9231158  88.6872573  33.4178215  22.6961802  89.7555843  34.4661808
  27.0208281  92.2569705  37.4273348  27.2394291  93.1886813  37.4461381
  27.4334055  91.8977680  38.2128151  33.9412499  82.7637791  29.4149036
  33.1313227  82.4184876  29.7904282  34.6296916  82.4545334  30.0036648
  35.8703047  81.8415838  31.0373333  36.4234086  82.2611291  31.6963356
  36.1073134  80.9151586  31.0796289  31.8936147  87.8302911  46.8176097
  31.7932873  88.7797268  46.7488188  31.6757689  87.5021150  45.9452167
  31.0949218  85.0787836  23.4016774  31.9568382  85.4042735  23.6612591
  31.2799562  84.2919332  22.8889840  23.1116634  93.1610176  35.6796963
  22.4180105  92.7464129  35.1666917  23.8589625  93.2030712  35.0830382
  39.2481854  83.9516363  30.5451997  38.6680523  84.6101167  30.1630049
  38.9817787  83.1293707  30.1339414  37.6985421  83.3521420  32.7473317
  38.1985199  83.4637955  31.9387636  38.3421029  83.0482473  33.3874126
  31.7567417  91.2600050  45.6341158  31.2734498  92.0600410  45.8405047
  31.8428356  91.2707995  44.6808602  25.0253376  93.0928430  33.5562978
  25.0024064  93.1916117  32.6044861  25.3354013  93.9393580  33.8780144
  27.6840754  95.1504585  37.6709592  28.6384008  95.1188527  37.6039524
  27.4853278  94.6895208  38.4859818  28.2740136  93.7205701  40.2380390
  29.0933025  94.2149779  40.2615227  28.5476944  92.8037669  40.2097957
  38.0306732  86.1116453  29.6008345  37.1432587  86.3966104  29.3828540
  38.4460721  85.9510216  28.7535622  41.3821269  86.1362974  33.3162684
  42.1581659  86.6259426  33.5887301  40.6569403  86.5621028  33.7734554
  43.8193827  86.8490593  34.3736625  44.4138318  86.6086329  33.6629933
  43.8920411  86.1297724  35.0010161  26.0390983 100.6924204  34.6879790
  25.9045451  99.9324605  34.1217788  25.6223045 101.4165104  34.2208579
  37.1749946  95.8761128  23.6956365  37.8785796  96.0811130  24.3114021
  36.4512595  96.4437890  23.9605449  38.0047756  91.6270989  29.8158635
  37.9482958  92.0839540  28.9766268  38.5576099  90.8661674  29.6381478
  41.8152562  87.4160721  30.6408755  41.5589496  87.0157357  31.4716963
  41.1905430  88.1304515  30.5158894  46.1264900  90.1556794  33.1480046
  45.5664458  90.2249983  33.9211608  45.5208403  89.9797779  32.4279542
  29.1960109 101.5893521  34.8998233  29.0792493 102.5338954  34.7976923
  28.3752555 101.2867083  35.2884032  39.0836643  96.3143657  25.7454825
  39.9182247  95.8824855  25.5632300  38.9220986  96.1425671  26.6731720
  38.7382535  92.8175770  27.1111165  38.6831339  92.6520042  26.1699609
  38.1128591  93.5251803  27.2673354  23.5275050  88.0543835  40.9372587
  24.1733914  87.5442789  41.4259812  23.3192202  88.7912516  41.5116012
  36.0528443  95.1224682  46.4364727  36.9219602  95.2965334  46.0751362
  35.5735194  95.9419099  46.3140457  32.0478661  82.3183879  26.6896483
  32.0357331  83.2625719  26.8464754  32.9402083  82.1354025  26.3955944
  30.2214623 102.2421783  38.1154161  31.1241870 102.2745393  38.4320656
  29.9951993 101.3122234  38.1300497  31.9768225 100.9952770  34.7764240
  31.0263856 100.9954631  34.6628612  32.2800711 100.2485504  34.2600274
  35.8630780  78.9126656  30.9442420  35.0963176  78.3585143  31.0899102
  36.2741485  78.9848525  31.8056571  27.8672541  85.2011452  45.0347601
  28.7304003  84.8448257  45.2450926  27.2937952  84.8625347  45.7223005
  47.7120918 106.8313308  35.8410002  48.3499328 106.7120055  35.1373342
  47.5941761 107.7794152  35.8997954  44.5210625 106.7840736  35.7771527
  44.1829136 106.6681801  34.8892062  45.3900393 106.3831901  35.7572533
  40.3797440 108.6376213  31.7668418  39.8162305 108.5466150  30.9984705
  40.2649835 107.8176117  32.2470910  45.0030408 107.9375588  41.7357732
  44.9919048 107.5428386  40.8638236  45.1651047 107.2041660  42.3291504
  37.9261872 110.1327404  34.6052638  38.7183164 109.7918229  34.1898937
  38.1658522 110.2422379  35.5254791  45.9596999 112.3047180  27.0782883
  45.3084979 112.8901261  26.6916896  46.7541362 112.8353375  27.1377920
  39.8852626 109.3936317  27.4770017  40.6583502 108.8465305  27.3382893
  40.2378025 110.2580567  27.6884478  41.7237669 110.7212700  40.6836916
  41.4327535 111.6258331  40.5683582  42.3594653 110.7629227  41.3980986
  42.6493876 108.0989548  37.2738276  43.2457448 107.8745571  36.5595239
  42.7068847 107.3574294  37.8763724  42.2218904 105.5528984  25.1088467
  42.4744425 105.0310505  24.3471930  41.2843463 105.3895129  25.2115150
  47.2662187 104.5564762  32.9163210  48.0525276 104.1384185  32.5653627
  47.5300891 105.4610854  33.0844858  47.4372264 109.9937612  27.6151867
  46.8018097 110.0672239  28.3272771  47.1069671 110.5831211  26.9370946
  52.6670614 104.4939995  33.8196189  53.3995786 103.9239212  34.0534018
  51.9109970 104.1061596  34.2602694  41.9415193 107.4557089  27.3112842
  41.8251451 106.7801993  27.9793926  42.0517453 106.9689463  26.4944995
  44.2846734 106.9167237  31.0159531  43.9204941 106.3897858  31.7272452
  45.1413850 106.5265706  30.8426016  50.1896034  98.2061569  38.2790797
  49.8579359  99.0756980  38.0552012  49.5941648  97.8897853  38.9584828
  43.9252221 101.9457136  26.0120880  44.0926623 102.8137373  26.3791351
  43.7349390 102.1084418  25.0882169  46.6827554 110.4074115  37.6786710
  46.3828277 111.3099154  37.5702517  46.3378613 110.1406298  38.5307863
  40.1340035 106.8587912  33.7123414  39.2090532 106.7264126  33.9201106
  40.3824449 107.6382131  34.2093357  50.0824698 102.9256655  35.3584147
  49.1741575 102.8572064  35.0642908  50.0312293 103.4028600  36.1865973
  43.9041442 104.4014794  26.9967546  43.7841067 104.8471845  27.8353027
  43.2094030 104.7500111  26.4381084  37.4948846 106.5021186  34.5467203
  37.6241228 106.7555665  35.4606615  36.8146298 107.0948894  34.2271858
  41.6648334 117.1718436  30.6457678  41.5872363 118.1226261  30.7246158
  41.0609977 116.8264308  31.3032604  44.1565563 104.3446301  43.3019044
  43.3798898 104.9040221  43.2921909  44.7956126 104.8303084  43.8233915
  51.9486344 101.1273094  37.1362021  51.3060724 101.4205627  36.4901816
  51.4441273 101.0126014  37.9415218  49.6026508 104.8736267  27.8247880
  50.5144364 105.1063654  27.6495578  49.0936155 105.4573311  27.2622959
  42.4111936 107.1531754  42.8637011  43.1526620 107.6916798  42.5871835
  41.7048921 107.7798043  43.0208563  47.8867275 109.2960895  41.4609173
  48.2950631 108.8543305  40.7163805  47.1644537 108.7213522  41.7143366
  44.2398345 104.2333502  38.8342730  45.0859541 104.6572915  38.9777379
  44.1796983 103.5767126  39.5281293  48.2096090 109.8562085  35.2161462
  47.5804952 110.0207800  34.5137530  47.8221752 110.2703695  35.9872426
  52.0885322 110.7916523  32.5705826  51.4036360 111.1715425  32.0202859
  52.1729171 111.4011850  33.3037773  47.3897791 101.8937870  40.4923904
  47.1458723 102.6479930  39.9558179  47.6657721 102.2723218  41.3271151
  49.3436254 108.4376482  39.1701169  49.5553149 109.0808242  38.4935550
  49.2966002 107.6038799  38.7023099  46.9462482 101.0494303  36.0737741
  46.0846962 101.3475557  36.3654479  46.9724917 101.2664702  35.1418774
  43.7624052 109.5936494  32.4811547  44.2262397 109.8724197  31.6916169
  43.4980850 108.6919938  32.2984638  40.6548133 109.1407975  35.4191310
  41.2249490 109.5695243  34.7808795  41.2456245 108.8590560  36.1175496
  42.6992938 105.7159646  29.2901112  43.4016981 106.1680690  29.7575038
  42.3673566 105.0743465  29.9181005  41.1473299 104.3071403  43.6652321
  40.5171960 104.9887683  43.8987718  41.0409387 104.1954484  42.7205460
  36.4418272 103.9743199  34.5918246  35.6517326 104.2300727  34.1158356
  36.9329519 104.7891536  34.6970286  50.4582081 111.3148438  37.3423526
  51.2799525 110.9128625  37.0606208  50.4544484 111.2116672  38.2939642
  38.3933017 104.3387778  31.5501722  37.5964181 104.4506472  32.0685218
  38.1658610 104.6774430  30.6842613  44.2238685 110.8632481  39.4984237
  44.2883117 111.3252888  40.3342409  43.5149609 110.2329846  39.6266547
  34.7255975 104.2273689  37.0233236  34.9764013 105.1120699  37.2890812
  35.2615523 104.0478291  36.2508328  58.5488075 107.6587186  33.6908498
  57.7951783 107.0894584  33.5352502  58.6835616 107.6249851  34.6379133
  43.9386703 112.5300589  29.3663217  43.8032377 113.3752124  29.7948065
  44.4796515 112.7319866  28.6029151  40.4254042  98.6092168  46.0277573
  40.0320988  98.0558367  46.7025217  41.2420183  98.9202747  46.4184090
  37.3916100 110.0476027  29.9391142  37.9040621 110.8419277  30.0896707
  38.0438813 109.3502317  29.8724744  39.2010985 113.1641783  32.0213896
  39.3777613 114.0859748  31.8334879  39.9967818 112.8500202  32.4508275
  43.3422003 100.0250047  43.6197829  44.0831717 100.6257201  43.5402292
  43.5739926  99.2827685  43.0615872  38.4863341 105.2106415  41.8976059
  38.3716856 104.3091672  42.1983158  37.6307859 105.4570111  41.5460875
  45.5655179 113.1524155  43.4963559  45.1219033 112.3660534  43.1784464
  46.2272393 113.3403306  42.8307450  40.3242300 114.6819957  38.0224238
  40.8749725 114.5537020  37.2501232  39.4853776 114.9814846  37.6719131
  47.6636417 113.4326955  41.5244961  47.6454892 114.2535836  41.0325230
  48.5856337 113.3081030  41.7495102  44.1209471 110.9471084  42.3668469
  44.6537808 110.1859373  42.1367777  43.5923552 110.6544736  43.1092623
  47.2879166  96.0531150  37.8962111  46.9443436  96.9432792  37.8201221
  47.6558129  95.8632808  37.0331696  35.3565017 108.3764681  30.7150713
  36.1940239 108.7861689  30.4984421  35.5343284 107.4364123  30.6850907
  47.2529449 106.0439761  26.4034546  46.7376072 106.8144366  26.6422933
  46.9806757 105.3704898  27.0267607  44.8376560 100.8889462  31.4619784
  43.9818156 100.4996313  31.2825423  45.2503512 100.9681423  30.6019570
  46.3675707  98.4235806  35.8611344  45.8640502  98.3865941  35.0479149
  46.6606313  99.3328548  35.9208001  42.6118592  98.5074535  34.8677526
  43.4771589  98.3117344  34.5083415  42.6796101  98.2784887  35.7946882
  52.2263723 108.7972116  28.3387719  51.4493166 108.4583276  27.8942881
  52.9055204 108.8024739  27.6642684  47.0415752 103.9166854  28.2294327
  46.7365888 104.2313003  29.0804470  47.9946194 103.9948273  28.2721660
  45.4862184 110.0757077  29.8787281  44.9583545 109.3409836  29.5660518
  44.9849687 110.8531753  29.6327249  50.4655030 108.2706097  34.9954327
  49.8078704 108.9605359  35.0834456  51.2695429 108.6602529  35.3388314
  40.2180912 100.7376743  32.2393893  40.7924663 100.5151925  31.5067085
  40.8051894 100.8065438  32.9922494  49.2760489 106.6250470  33.0458269
  49.7892370 107.2580462  33.5479979  49.9261713 106.0251666  32.6801629
  40.5450499 102.7681204  26.2589778  39.7087811 103.1055891  26.5799053
  40.4055268 102.6330184  25.3216915  42.5203579  97.6117992  30.9668962
  41.8667992  97.2967009  30.3425577  42.4784053  96.9893733  31.6928785
  43.6314784 107.8937287  22.8822254  42.7241846 107.6626541  23.0813403
  44.1285816 107.0974906  23.0696236  46.5382863 116.6034794  25.8018940
  45.8644562 116.9066491  26.4103898  46.9248685 117.4063875  25.4524397
  45.7541320 104.0999926  35.2916610  44.8363881 104.3214873  35.1338298
  46.1701463 104.1746236  34.4328317  46.5376367 105.4991341  30.4219290
  47.2848186 106.0112739  30.1126412  46.8067957 105.1775394  31.2823683
  44.8103018 107.9949882  27.4046244  43.9014237 107.7108915  27.5018714
  44.8398101 108.4148961  26.5449551  50.0422285 111.6056472  31.1737412
  49.5884612 110.7647381  31.2302602  49.4116252 112.2417870  31.5112192
  48.9855204 102.5348458  32.4038079  48.2477961 102.0225844  32.7348322
  49.2381978 102.0948839  31.5921356  48.4855224 113.4432968  32.1087230
  48.7778199 114.0038025  31.3899595  48.9953845 113.7361529  32.8640389
  49.0866832  95.3124710  32.9979848  49.3925709  94.4522073  32.7105764
  49.8119437  95.9042330  32.7978842  35.3791188 105.7155396  31.3861446
  35.1815588 105.1224757  30.6612513  34.8237852 105.4107606  32.1037385
  43.3587912 105.6078503  33.5056040  43.4136521 104.6552339  33.4298516
  42.5479114 105.7637942  33.9897338  44.5079105 109.5358626  24.7434323
  44.0698535 108.8194485  24.2839960  45.2489546 109.7634741  24.1819414
  41.2980271 104.2255562  31.2646418  40.4848137 104.5249733  31.6711611
  41.7939266 103.8311251  31.9820901  43.4488849 114.2213319  33.1980683
  43.4065028 114.4474166  32.2689215  44.3651548 113.9876694  33.3466484
  46.8954483 104.6897387  40.0961312  47.2503871 104.9168860  40.9555778
  47.5426614 105.0215764  39.4738568  52.6252220 107.8115823  30.8010641
  52.4870119 108.0017419  29.8731831  52.2688439 108.5735206  31.2578692
  40.7894346 101.7973918  36.8807653  41.4293726 101.6562677  36.1830617
  39.9571877 101.5108431  36.5046255  52.6521600 109.8792350  35.8121913
  53.0858106 109.7867639  36.6604967  53.3653180 109.8549850  35.1741929
  41.5654650 111.0976348  32.9942646  42.3595249 110.6026668  32.7925221
  40.8546343 110.5694211  32.6310351  46.3849495 113.4794444  37.3455013
  46.4386517 114.0485380  38.1132729  45.5164276 113.6496329  36.9809051
  37.8737414 105.2419430  29.0702398  36.9435002 105.1803886  29.2872361
  37.9694886 104.7195383  28.2739040  37.7922963 101.7674243  31.6580640
  38.0529780 102.6819576  31.5489801  38.6140135 101.2998685  31.8077253
  39.2647888 103.1812000  38.8279465  39.9370941 102.9729362  38.1792114
  38.4377675 102.9834086  38.3884697  53.5137149 109.9216050  38.3454798
  53.7073039 110.8261861  38.5914073  53.4137767 109.4623469  39.1793383
  45.1673460  99.8073941  40.8445126  44.5201375 100.5063891  40.7509602
  45.9374475 100.2410085  41.2121374  48.5752258 110.0722793  43.9195679
  48.4237764 109.8433345  43.0025763  48.5656937 111.0293395  43.9327024
  45.3437594 107.6454706  38.9041945  46.2729654 107.7965866  38.7310913
  44.9228624 107.7338727  38.0490592  44.1425926 111.6705370  36.6740483
  44.0037012 111.3024155  37.5466421  43.3540522 112.1853010  36.5024441
  44.7374078 116.7714467  28.0166019  44.9125834 116.3002510  28.8311642
  44.0506866 117.3980233  28.2447280  45.6931141 111.0486973  34.0629321
  45.3580974 111.0087743  34.9586971  45.1935087 110.3831689  33.5899731
  39.6675385 106.4554603  39.5881902  39.5295183 105.7234842  40.1893441
  40.5780309 106.3663503  39.3066090  48.6290333 108.3943007  24.3366380
  48.0119504 107.6689836  24.2399433  48.1606821 109.1552368  23.9933455
  42.2957686 106.1674562  39.0765581  43.0057304 105.5267755  39.0352200
  42.2526994 106.4187457  39.9991762  50.2844465 113.1041916  41.9972161
  50.2257011 112.4201136  41.3302744  50.6863983 113.8460906  41.5452787
  41.0086620 103.1539780  40.8961221  40.4723977 102.7030519  41.5482817
  40.4203328 103.2885689  40.1531685  40.4188879 102.6128432  23.4587685
  39.5418345 102.4917232  23.0949931  40.8946632 101.8214510  23.2066573
  50.2861872 111.0681500  40.2286140  49.3988651 110.7307421  40.3512539
  50.8560423 110.3364531  40.4654906  31.9391019 107.4005591  33.5529192
  32.6262059 107.0867321  32.9650207  31.7839148 108.3046956  33.2796443
  36.7425741 102.2895788  37.9814215  36.6583930 101.6821458  37.2464625
  35.9208448 102.7804806  37.9823712  43.8163025 115.7282952  37.1947384
  43.7433197 116.5337923  37.7066688  43.3740418 115.9274918  36.3695405
  43.6052805 114.9654722  30.7050205  42.8220327 115.5076402  30.7988430
  44.3045550 115.4828702  31.1044446  46.9149455 100.7749351  33.3484410
  47.4118155 100.0219314  33.0285481  46.1436436 100.8113668  32.7827620
  54.7679212 106.4789717  34.9902702  54.7569089 107.3614432  34.6196635
  53.8996592 106.1261268  34.7957239  46.2761709 115.6269786  39.3505542
  46.9889681 116.2617251  39.2781444  45.7851737 115.7233652  38.5345544
  47.9979236 109.5321039  30.9222834  47.0635514 109.6522501  30.7527538
  48.1755904 108.6293505  30.6582844  43.4984424 102.9166734  33.0756095
  43.1282211 102.3637775  33.7637001  43.9943516 102.3124868  32.5231095
  51.3851787 105.3738358  31.4572868  51.8512239 106.2066350  31.3833171
  51.8359288 104.9083340  32.1618127  41.3273622 113.3764229  40.1711113
  42.0283082 114.0100712  40.3240507  40.8568737 113.7178961  39.4106752
  49.4528018 111.7182179  28.4559020  49.7287862 111.6038774  29.3652894
  48.5832517 111.3199664  28.4171193  49.3568450  97.7418945  35.4963769
  48.4431530  97.9723172  35.6645976  49.7861551  97.8257389  36.3477802
  49.1274908 105.9308837  37.9963663  48.4746359 106.1784744  37.3416116
  49.5055288 105.1172975  37.6626141  46.0882082 115.9668530  32.0991834
  46.2704477 115.1490186  32.5619586  46.9115068 116.1836222  31.6616724
  46.4224248 114.8936715  29.3606882  46.9512014 114.3829170  28.7477044
  46.6852467 114.5779245  30.2252415  45.1762481 106.6728648  44.4829700
  44.5003118 106.5722777  45.1532076  45.9990115 106.5167862  44.9465698
  36.9241340 112.9100585  37.1042216  37.5094777 112.1644272  37.2370120
  36.7266179 113.2204541  37.9878880  39.7779996 115.9451832  32.1204658
  39.1090371 116.4297960  31.6368698  39.6392865 116.1921052  33.0348037
  31.5158995 105.4806185  35.8246659  31.5543095 104.9469775  36.6183777
  31.0099288 104.9541390  35.2057636  43.9185264 117.9795575  38.7187316
  44.4703572 118.1427197  39.4836402  44.2591458 118.5700013  38.0467341
  38.8949757 100.3270725  39.3209201  38.9591084 101.1885556  38.9086599
  38.8316878  99.7144727  38.5881560  38.3702030 102.3993858  42.9682235
  38.9974069 102.0170935  43.5819760  37.5129949 102.1808060  43.3337928
  48.7696138 112.8056833  44.5735971  49.3136042 113.4186791  44.0790926
  48.1882983 113.3636411  45.0902984  35.1467573 104.2070287  28.9000590
  35.4421014 103.2980965  28.8467644  34.2455608 104.1858026  28.5781593
  47.0553651 115.9277551  35.7050999  46.9304791 115.1267291  35.1961944
  47.7132743 116.4223744  35.2164969  38.6761820 102.2826283  34.8828139
  37.9548405 102.8962251  34.7435612  39.4655075 102.8184048  34.8044785
  49.1188560 113.7286571  37.3330549  48.1718895 113.6091922  37.2608875
  49.4671333 112.8409069  37.4156810  41.4788133  99.6180710  41.1568791
  42.0022535  99.8643007  41.9195100  41.2600466 100.4500745  40.7371928
  36.8755414 101.8884385  29.0239915  36.5468120 101.0081763  28.8415021
  37.2294785 101.8332053  29.9116305  46.1234993 113.5239287  33.5334901
  45.9759956 112.5955995  33.7142471  46.9488487 113.5459378  33.0491976
  39.9897237 102.1757354  29.3915393  40.3293310 102.7043276  28.6694001
  40.4369358 102.5137760  30.1673960  49.7269115 114.3467846  34.6199774
  50.6515662 114.1410707  34.4824225  49.5584418 114.0984247  35.5289115
  42.6840678 100.5594405  38.8418461  42.3437499  99.7602218  39.2439141
  41.9779685 100.8596116  38.2695294  43.3357150  97.6443717  37.2945784
  44.1583219  97.1704196  37.1724674  43.5795214  98.4234201  37.7944470
  41.9765385 100.6731976  27.5908686  42.6973747 101.0513229  27.0872403
  41.3530689 101.3920853  27.6943664  46.1196507 101.3777125  28.5267018
  46.3360122 102.2601763  28.2255846  45.6390575 100.9863338  27.7972660
  40.8595729 104.3362838  35.1037763  40.7140310 104.6503141  35.9962044
  40.3820932 104.9547738  34.5508661  42.7192112 101.3265386  35.1518652
  42.7053680 100.4306479  34.8150950  43.4364540 101.3336050  35.7856938
  44.5718242 101.7602726  37.1971780  44.3136020 102.6819797  37.1956110
  44.0403283 101.3633161  37.8872244  49.5164431 114.8653513  29.9761865
  49.6901309 114.2999936  29.2235718  50.0093322 115.6654408  29.7941355
  35.3341391 106.8768183  38.0425424  34.7894859 107.6527990  38.1745698
  36.2120741 107.2238987  37.8844545  42.1229008 100.2079766  30.4206222
  42.2444919  99.2796413  30.6197110  41.8331050 100.2218452  29.5084538
  44.9920198  97.8934677  33.5572942  45.0141895  97.9574010  32.6024922
  45.4088257  97.0539185  33.7513448  55.3703822 107.6289936  31.5952165
  55.8134968 106.8797262  31.1971288  54.4930333 107.6200073  31.2125897
  50.5039604 114.1820278  27.0758763  51.1990508 114.8026971  27.2946078
  50.8462754 113.3315629  27.3511141  36.1207413 106.0038079  40.9355581
  35.3789149 106.1520714  41.5220211  35.8000157 106.2646344  40.0722330
  52.4031027 111.6319983  28.6046094  52.9282351 111.9707256  27.8795414
  52.3153379 110.6966999  28.4209229  44.0651075 115.5454057  40.7335971
  44.3738202 115.3003204  41.6058670  44.8626558 115.7500695  40.2454841
  44.0871688 117.6991967  32.9641347  43.6476678 117.2068345  33.6574204
  44.8379804 117.1564934  32.7233423  36.5664027 113.8903508  32.9665975
  37.3922046 113.5907279  32.5864619  36.2158079 113.1211130  33.4155764
  41.5345560 113.2429976  35.0363649  40.9125569 112.5800681  34.7365877
  42.2050427 113.2691108  34.3537297  34.7672632 111.8089834  33.9254909
  33.9304540 111.3812008  33.7438910  34.7396277 112.0022277  34.8625700
  41.6070087 101.7211764  44.6296155  41.6558243 102.5973887  44.2473925
  42.1492601 101.1789157  44.0567798  52.0924933 112.2652887  43.9097292
  51.3020477 112.2477026  43.3701792  51.8558287 112.8041181  44.6646329
  52.2122808 109.1145353  41.2230021  52.2620813 108.9495361  42.1645543
  52.1036731 108.2472612  40.8327901  41.0959067 111.7933899  28.5122110
  41.2447187 112.4769363  27.8588782  41.9025510 111.7738989  29.0271565
  49.5026570 105.0976281  42.5389327  50.4036433 104.9582746  42.2473325
  49.5774545 105.2630736  43.4787505  43.8369376 102.4743136  41.3842514
  42.9672685 102.7676702  41.1125102  44.0728856 103.0583581  42.1049777
  53.7141005 111.5342295  41.4672042  53.4225813 111.8972275  42.3035503
  53.1013136 110.8209303  41.2885374  54.9136687 109.0995175  33.9874612
  55.7483578 109.5384979  34.1512173  55.0495816 108.6233828  33.1682858
  51.9628193 106.6574910  39.9352100  52.4382315 106.8502556  39.1270952
  51.0393758 106.7134095  39.6895484  38.8511700 107.8199077  29.5183178
  38.6057742 106.9161407  29.7163389  39.0207614 107.8216227  28.5762656
  46.5408409  98.6922753  38.9007934  47.0590353  99.4283780  38.5754423
  46.1863542  98.9986746  39.7354693  38.1207347 103.5527434  27.0169340
  37.4276592 103.6271789  26.3609376  37.8759099 102.7887778  27.5390857
  46.7921004  95.1123036  34.4208831  47.0722757  94.4446225  35.0469257
  47.5771611  95.3052131  33.9083495  44.5954472 114.2882030  25.9833857
  44.0228439 114.9072217  25.5304329  45.1687266 114.8381391  26.5173779
  50.6629862 103.5340670  38.1680406  51.6147285 103.6338767  38.1892630
  50.4933312 102.7418938  38.6778490  48.6844241 100.6196253  38.3539807
  48.0894174 100.9001266  37.6586295  48.3993938 101.1090154  39.1256548
  47.8151732 114.5719180  27.1142439  48.7482405 114.5064741  27.3175315
  47.7274945 115.4075447  26.6556972  50.4439749 113.8885050  24.0746387
  50.3653380 113.5544914  24.9682145  51.2649415 114.3806818  24.0737859
  53.1417940 106.7546789  37.2822705  53.1094260 105.8162790  37.4682389
  53.7518563 106.8330826  36.5488530  44.9801271 105.6242842  23.3249910
  45.9260375 105.4949050  23.3938328  44.6015516 104.8857504  23.8019338
  53.2912428 103.5457833  37.3280989  52.7751477 102.7616289  37.1410918
  54.1752377 103.2176549  37.4927508  50.9523155  97.2898848  33.2876801
  50.7547976  96.9813937  34.1720133  51.5622861  98.0160487  33.4174731
  58.9594490 107.8162796  36.4228742  59.6897878 107.5548084  36.9836446
  58.3501435 107.0791518  36.4630810  57.0409787 105.9570659  37.0203193
  56.3142950 105.8226624  36.4119685  56.6257074 106.2647487  37.8259912
  44.8639963 109.6760588  44.7850566  45.7842973 109.8539187  44.9790613
  44.8289546 108.7316634  44.6330266  43.1644188 103.5492819  23.2604795
  42.2575643 103.2525931  23.3367508  43.4420169 103.2522637  22.3939081
  34.0822128 104.8699182  33.7103841  33.7624913 104.0164490  33.4178215
  33.5355556 105.0847760  34.4661808  37.8602036 107.5861623  37.4273348
  38.0788045 108.5178731  37.4461381  38.2727810 107.2269597  38.2128151
  44.7806254  98.0929708  29.4149036  43.9706982  97.7476793  29.7904282
  45.4690670  97.7837252  30.0036648  46.7096802  97.1707755  31.0373333
  47.2627840  97.5903209  31.6963356  46.9466888  96.2443503  31.0796289
  42.7329901 103.1594829  46.8176097  42.6326628 104.1089186  46.7488188
  42.5151443 102.8313068  45.9452167  41.9342972 100.4079754  23.4016774
  42.7962136 100.7334652  23.6612591  42.1193317  99.6211250  22.8889840
  33.9510388 108.4902094  35.6796963  33.2573860 108.0756046  35.1666917
  34.6983379 108.5322630  35.0830382  50.0875609  99.2808280  30.5451997
  49.5074278  99.9393084  30.1630049  49.8211542  98.4585625  30.1339414
  48.5379175  98.6813338  32.7473317  49.0378954  98.7929873  31.9387636
  49.1814783  98.3774391  33.3874126  42.5961171 106.5891968  45.6341158
  42.1128253 107.3892328  45.8405047  42.6822110 106.5999913  44.6808602
  35.8647131 108.4220347  33.5562978  35.8417819 108.5208035  32.6044861
  36.1747767 109.2685498  33.8780144  38.5234509 110.4796502  37.6709592
  39.4777762 110.4480445  37.6039524  38.3247032 110.0187126  38.4859818
  39.1133891 109.0497618  40.2380390  39.9326780 109.5441697  40.2615227
  39.3870698 108.1329587  40.2097957  48.8700487 101.4408371  29.6008345
  47.9826342 101.7258021  29.3828540  49.2854476 101.2802134  28.7535622
  52.2215023 101.4654892  33.3162684  52.9975413 101.9551344  33.5887301
  51.4963157 101.8912946  33.7734554  54.6587582 102.1782511  34.3736625
  55.2532072 101.9378247  33.6629933  54.7314165 101.4589642  35.0010161
  48.0143700 111.2053045  23.6956365  48.7179550 111.4103048  24.3114021
  47.2906349 111.7729807  23.9605449  48.8441511 106.9562907  29.8158635
  48.7876712 107.4131458  28.9766268  49.3969853 106.1953591  29.6381478
  52.6546317 102.7452639  30.6408755  52.3983251 102.3449274  31.4716963
  52.0299185 103.4596432  30.5158894  56.9658654 105.4848712  33.1480046
  56.4058212 105.5541901  33.9211608  56.3602158 105.3089696  32.4279542
  49.9230398 111.6435575  25.7454825  50.7576002 111.2116773  25.5632300
  49.7614741 111.4717588  26.6731720  49.5776290 108.1467688  27.1111165
  49.5225094 107.9811959  26.1699609  48.9522345 108.8543721  27.2673354
  34.3668805 103.3835752  40.9372587  35.0127669 102.8734706  41.4259812
  34.1585956 104.1204434  41.5116012  46.8922197 110.4516600  46.4364727
  47.7613357 110.6257252  46.0751362  46.4128949 111.2711017  46.3140457
  42.8872415  97.6475797  26.6896483  42.8751085  98.5917637  26.8464754
  43.7795837  97.4645942  26.3955944  41.0608377 117.5713701  38.1154161
  41.9635624 117.6037311  38.4320656  40.8345747 116.6414152  38.1300497
  42.8161979 116.3244687  34.7764240  41.8657610 116.3246549  34.6628612
  43.1194466 115.5777422  34.2600274  46.7024535  94.2418574  30.9442420
  45.9356931  93.6877060  31.0899102  47.1135240  94.3140442  31.8056571
  38.7066296 100.5303369  45.0347601  39.5697757 100.1740174  45.2450926
  38.1331707 100.1917264  45.7223005  58.5514673 122.1605226  35.8410002
  59.1893083 122.0411973  35.1373342  58.4335516 123.1086070  35.8997954
  55.3604379 122.1132654  35.7771527  55.0222891 121.9973719  34.8892062
  56.2294147 121.7123819  35.7572533  55.8424162 123.2667506  41.7357732
  55.8312803 122.8720304  40.8638236  56.0044802 122.5333578  42.3291504
  53.0612659 120.8820901  25.1088467  53.3138179 120.3602422  24.3471930
  52.1237218 120.7187047  25.2115150  58.1055941 119.8856680  32.9163210
  58.8919031 119.4676103  32.5653627  58.3694646 120.7902772  33.0844858
  63.5064368 119.8231913  33.8196189  64.2389540 119.2531130  34.0534018
  62.7503724 119.4353513  34.2602694  55.1240488 122.2459154  31.0159531
  54.7598695 121.7189775  31.7272452  55.9807604 121.8557623  30.8426016
  61.0289789 113.5353487  38.2790797  60.6973114 114.4048898  38.0552012
  60.4335402 113.2189771  38.9584828  54.7645975 117.2749054  26.0120880
  54.9320378 118.1429290  26.3791351  54.5743144 117.4376336  25.0882169
  60.9218452 118.2548573  35.3584147  60.0135329 118.1863981  35.0642908
  60.8706048 118.7320518  36.1865973  54.7435196 119.7306711  26.9967546
  54.6234821 120.1763762  27.8353027  54.0487784 120.0792029  26.4381084
  54.9959318 119.6738219  43.3019044  54.2192652 120.2332139  43.2921909
  55.6349881 120.1595002  43.8233915  62.7880099 116.4565011  37.1362021
  62.1454479 116.7497545  36.4901816  62.2835027 116.3417932  37.9415218
  60.4420262 120.2028185  27.8247880  61.3538118 120.4355571  27.6495578
  59.9329909 120.7865229  27.2622959  55.0792100 119.5625419  38.8342730
  55.9253295 119.9864833  38.9777379  55.0190738 118.9059044  39.5281293
  58.2291545 117.2229788  40.4923904  57.9852477 117.9771848  39.9558179
  58.5051476 117.6015135  41.3271151  60.1830008 123.7668400  39.1701169
  60.3946903 124.4100160  38.4935550  60.1359756 122.9330717  38.7023099
  57.7856237 116.3786221  36.0737741  56.9240716 116.6767474  36.3654479
  57.8118672 116.5956620  35.1418774  53.5386692 121.0451564  29.2901112
  54.2410736 121.4972607  29.7575038  53.2067321 120.4035382  29.9181005
  51.9867054 119.6363320  43.6652321  51.3565715 120.3179601  43.8987718
  51.8803142 119.5246402  42.7205460  47.2812026 119.3035116  34.5918246
  46.4911080 119.5592645  34.1158356  47.7723274 120.1183454  34.6970286
  49.2326772 119.6679695  31.5501722  48.4357935 119.7798390  32.0685218
  49.0052364 120.0066348  30.6842613  69.3881829 122.9879104  33.6908498
  68.6345537 122.4186502  33.5352502  69.5229370 122.9541768  34.6379133
  51.2647797 113.9384086  46.0277573  50.8714742 113.3850285  46.7025217
  52.0813937 114.2494665  46.4184090  54.1815758 115.3541965  43.6197829
  54.9225471 115.9549118  43.5402292  54.4133681 114.6119603  43.0615872
  58.1272921 111.3823068  37.8962111  57.7837190 112.2724710  37.8201221
  58.4951883 111.1924726  37.0331696  58.0923203 121.3731679  26.4034546
  57.5769827 122.1436284  26.6422933  57.8200512 120.6996815  27.0267607
  55.6770314 116.2181380  31.4619784  54.8211911 115.8288230  31.2825423
  56.0897266 116.2973341  30.6019570  57.2069461 113.7527723  35.8611344
  56.7034257 113.7157858  35.0479149  57.5000068 114.6620466  35.9208001
  53.4512347 113.8366453  34.8677526  54.3165344 113.6409262  34.5083415
  53.5189856 113.6076805  35.7946882  63.0657477 124.1264034  28.3387719
  62.2886920 123.7875193  27.8942881  63.7448958 124.1316657  27.6642684
  57.8809507 119.2458771  28.2294327  57.5759642 119.5604920  29.0804470
  58.8339949 119.3240191  28.2721660  61.3048784 123.5998015  34.9954327
  60.6472459 124.2897276  35.0834456  62.1089184 123.9894447  35.3388314
  51.0574666 116.0668661  32.2393893  51.6318418 115.8443842  31.5067085
  51.6445648 116.1357355  32.9922494  60.1154243 121.9542388  33.0458269
  60.6286125 122.5872380  33.5479979  60.7655467 121.3543583  32.6801629
  51.3844253 118.0973122  26.2589778  50.5481565 118.4347808  26.5799053
  51.2449023 117.9622102  25.3216915  53.3597334 112.9409910  30.9668962
  52.7061746 112.6258927  30.3425577  53.3177808 112.3185650  31.6928785
  56.5935074 119.4291843  35.2916610  55.6757635 119.6506790  35.1338298
  57.0095218 119.5038154  34.4328317  57.3770122 120.8283259  30.4219290
  58.1241941 121.3404656  30.1126412  57.6461711 120.5067312  31.2823683
  59.8248959 117.8640375  32.4038079  59.0871716 117.3517761  32.7348322
  60.0775733 117.4240757  31.5921356  59.9260586 110.6416627  32.9979848
  60.2319463 109.7813991  32.7105764  60.6513191 111.2334247  32.7978842
  54.1981666 120.9370420  33.5056040  54.2530276 119.9844257  33.4298516
  53.3872868 121.0929859  33.9897338  52.1374026 119.5547480  31.2646418
  51.3241891 119.8541651  31.6711611  52.6333020 119.1603169  31.9820901
  57.7348238 120.0189305  40.0961312  58.0897625 120.2460778  40.9555778
  58.3820369 120.3507681  39.4738568  63.4645975 123.1407740  30.8010641
  63.3263873 123.3309336  29.8731831  63.1082193 123.9027123  31.2578692
  51.6288101 117.1265836  36.8807653  52.2687480 116.9854595  36.1830617
  50.7965631 116.8400349  36.5046255  63.4915354 125.2084267  35.8121913
  63.9251861 125.1159557  36.6604967  64.2046935 125.1841768  35.1741929
  48.7131168 120.5711348  29.0702398  47.7828756 120.5095803  29.2872361
  48.8088640 120.0487301  28.2739040  48.6316717 117.0966161  31.6580640
  48.8923534 118.0111494  31.5489801  49.4533889 116.6290603  31.8077253
  50.1041642 118.5103918  38.8279465  50.7764696 118.3021280  38.1792114
  49.2771429 118.3126004  38.3884697  64.3530904 125.2507968  38.3454798
  64.5466794 126.1553779  38.5914073  64.2531522 124.7915387  39.1793383
  56.0067214 115.1365859  40.8445126  55.3595130 115.8355808  40.7509602
  56.7768230 115.5702003  41.2121374  56.1831349 122.9746624  38.9041945
  57.1123409 123.1257783  38.7310913  55.7622379 123.0630644  38.0490592
  59.4684087 123.7234925  24.3366380  58.8513258 122.9981753  24.2399433
  59.0000576 124.4844285  23.9933455  53.1351440 121.4966480  39.0765581
  53.8451059 120.8559672  39.0352200  53.0920749 121.7479375  39.9991762
  51.8480374 118.4831698  40.8961221  51.3117731 118.0322436  41.5482817
  51.2597083 118.6177607  40.1531685  51.2582633 117.9420349  23.4587685
  50.3812100 117.8209150  23.0949931  51.7340386 117.1506428  23.2066573
  47.5819496 117.6187706  37.9814215  47.4977684 117.0113375  37.2464625
  46.7602202 118.1096724  37.9823712  57.7543209 116.1041269  33.3484410
  58.2511909 115.3511231  33.0285481  56.9830191 116.1405586  32.7827620
  65.6072967 121.8081635  34.9902702  65.5962843 122.6906350  34.6196635
  64.7390346 121.4553186  34.7957239  54.3378178 118.2458652  33.0756095
  53.9675966 117.6929693  33.7637001  54.8337271 117.6416786  32.5231095
  62.2245542 120.7030276  31.4572868  62.6905994 121.5358267  31.3833171
  62.6753042 120.2375257  32.1618127  60.1962204 113.0710863  35.4963769
  59.2825284 113.3015089  35.6645976  60.6255306 113.1549307  36.3477802
  59.9668663 121.2600755  37.9963663  59.3140113 121.5076662  37.3416116
  60.3449043 120.4464893  37.6626141  56.0156236 122.0020566  44.4829700
  55.3396873 121.9014695  45.1532076  56.8383870 121.8459779  44.9465698
  49.7343512 115.6562643  39.3209201  49.7984838 116.5177474  38.9086599
  49.6710632 115.0436645  38.5881560  49.2095784 117.7285775  42.9682235
  49.8367823 117.3462853  43.5819760  48.3523703 117.5099977  43.3337928
  45.9861327 119.5362205  28.9000590  46.2814768 118.6272883  28.8467644
  45.0849363 119.5149944  28.5781593  49.5155574 117.6118201  34.8828139
  48.7942160 118.2254169  34.7435612  50.3048830 118.1475966  34.8044785
  52.3181888 114.9472628  41.1568791  52.8416290 115.1934924  41.9195100
  52.0994221 115.7792662  40.7371928  47.7149169 117.2176302  29.0239915
  47.3861875 116.3373681  28.8415021  48.0688539 117.1623971  29.9116305
  50.8290992 117.5049272  29.3915393  51.1687064 118.0335193  28.6694001
  51.2763112 117.8429678  30.1673960  53.5234433 115.8886323  38.8418461
  53.1831253 115.0894136  39.2439141  52.8173439 116.1888034  38.2695294
  54.1750905 112.9735635  37.2945784  54.9976974 112.4996113  37.1724674
  54.4188968 113.7526119  37.7944470  52.8159139 116.0023894  27.5908686
  53.5367502 116.3805146  27.0872403  52.1924443 116.7212770  27.6943664
  56.9590262 116.7069043  28.5267018  57.1753876 117.5893680  28.2255846
  56.4784329 116.3155256  27.7972660  51.6989483 119.6654756  35.1037763
  51.5534064 119.9795059  35.9962044  51.2214687 120.2839656  34.5508661
  53.5585866 116.6557304  35.1518652  53.5447435 115.7598397  34.8150950
  54.2758294 116.6627968  35.7856938  55.4111997 117.0894644  37.1971780
  55.1529775 118.0111715  37.1956110  54.8797037 116.6925079  37.8872244
  52.9622762 115.5371684  30.4206222  53.0838673 114.6088330  30.6197110
  52.6724805 115.5510370  29.5084538  55.8313953 113.2226595  33.5572942
  55.8535649 113.2865928  32.6024922  56.2482012 112.3831103  33.7513448
  66.2097577 122.9581854  31.5952165  66.6528723 122.2089179  31.1971288
  65.3324087 122.9491990  31.2125897  52.4463842 117.0503681  44.6296155
  52.4951997 117.9265804  44.2473925  52.9886356 116.5081075  44.0567798
  63.0516562 124.4437271  41.2230021  63.1014567 124.2787279  42.1645543
  62.9430486 123.5764530  40.8327901  60.3420325 120.4268199  42.5389327
  61.2430188 120.2874664  42.2473325  60.4168299 120.5922654  43.4787505
  54.6763130 117.8035054  41.3842514  53.8066440 118.0968620  41.1125102
  54.9122610 118.3875499  42.1049777  65.7530442 124.4287092  33.9874612
  66.5877333 124.8676896  34.1512173  65.8889570 123.9525746  33.1682858
  62.8021947 121.9866827  39.9352100  63.2776069 122.1794474  39.1270952
  61.8787513 122.0426013  39.6895484  57.3802164 114.0214671  38.9007934
  57.8984108 114.7575698  38.5754423  57.0257297 114.3278664  39.7354693
  48.9601102 118.8819352  27.0169340  48.2670347 118.9563707  26.3609376
  48.7152854 118.1179696  27.5390857  57.6314758 110.4414953  34.4208831
  57.9116512 109.7738142  35.0469257  58.4165365 110.6344049  33.9083495
  61.5023616 118.8632587  38.1680406  62.4541039 118.9630685  38.1892630
  61.3327067 118.0710856  38.6778490  59.5237996 115.9488171  38.3539807
  58.9287928 116.2293183  37.6586295  59.2387693 116.4382071  39.1256548
  63.9811694 122.0838707  37.2822705  63.9488014 121.1454708  37.4682389
  64.5912318 122.1622744  36.5488530  55.8195025 120.9534760  23.3249910
  56.7654130 120.8240968  23.3938328  55.4409270 120.2149422  23.8019338
  64.1306183 118.8749750  37.3280989  63.6145231 118.0908207  37.1410918
  65.0146131 118.5468467  37.4927508  61.7916910 112.6190766  33.2876801
  61.5941731 112.3105854  34.1720133  62.4016615 113.3452405  33.4174731
  69.7988244 123.1454714  36.4228742  70.5291633 122.8840002  36.9836446
  69.1895190 122.4083436  36.4630810  67.8803541 121.2862576  37.0203193
  67.1536705 121.1518541  36.4119685  67.4650828 121.5939405  37.8259912
  54.0037942 118.8784736  23.2604795  53.0969398 118.5817849  23.3367508
  54.2813923 118.5814554  22.3939081  55.6200008 113.4221626  29.4149036
  54.8100736 113.0768711  29.7904282  56.3084425 113.1129170  30.0036648
  57.5490556 112.4999673  31.0373333  58.1021595 112.9195126  31.6963356
  57.7860643 111.5735421  31.0796289  53.5723656 118.4886747  46.8176097
  53.4720382 119.4381103  46.7488188  53.3545198 118.1604985  45.9452167
  52.7736727 115.7371672  23.4016774  53.6355891 116.0626570  23.6612591
  52.9587071 114.9503167  22.8889840  60.9269363 114.6100198  30.5451997
  60.3468032 115.2685002  30.1630049  60.6605296 113.7877543  30.1339414
  59.3772930 114.0105256  32.7473317  59.8772708 114.1221790  31.9387636
  60.0208538 113.7066309  33.3874126  59.7094241 116.7700288  29.6008345
  58.8220096 117.0549939  29.3828540  60.1248230 116.6094052  28.7535622
  63.0608778 116.7946809  33.3162684  63.8369168 117.2843262  33.5887301
  62.3356912 117.2204864  33.7734554  65.4981336 117.5074429  34.3736625
  66.0925827 117.2670165  33.6629933  65.5707920 116.7881559  35.0010161
  59.6835265 122.2854824  29.8158635  59.6270467 122.7423376  28.9766268
  60.2363608 121.5245509  29.6381478  63.4940071 118.0744556  30.6408755
  63.2377005 117.6741192  31.4716963  62.8692939 118.7888350  30.5158894
  67.8052409 120.8140629  33.1480046  67.2451967 120.8833819  33.9211608
  67.1995912 120.6381614  32.4279542  60.4170044 123.4759606  27.1111165
  60.3618848 123.3103877  26.1699609  59.7916100 124.1835639  27.2673354
  45.2062559 118.7127670  40.9372587  45.8521423 118.2026624  41.4259812
  44.9979711 119.4496352  41.5116012  53.7266170 112.9767715  26.6896483
  53.7144840 113.9209555  26.8464754  54.6189592 112.7937860  26.3955944
  57.5418289 109.5710491  30.9442420  56.7750685 109.0168978  31.0899102
  57.9528994 109.6432360  31.8056571  49.5460050 115.8595287  45.0347601
  50.4091512 115.5032092  45.2450926  48.9725461 115.5209182  45.7223005
  68.9666675 126.7114986  37.8962111  68.6230945 127.6016627  37.8201221
  69.3345638 126.5216643  37.0331696  70.7654341 125.9708545  32.9979848
  71.0713218 125.1105908  32.7105764  71.4906946 126.5626165  32.7978842
  68.4708513 125.7706871  34.4208831  68.7510266 125.1030060  35.0469257
  69.2559120 125.9635967  33.9083495  72.6310664 127.9482684  33.2876801
  72.4335485 127.6397772  34.1720133  73.2410370 128.6744323  33.4174731
  68.3812044 124.9002409  30.9442420  67.6144440 124.3460896  31.0899102
  68.7922749 124.9724278  31.8056571   6.9269448  28.7936368  28.7217467
   6.8681994  28.1095588  28.0548050   7.3288966  29.5355358  28.2698093
   5.4121122  28.4951285  31.2981278   5.9561026  29.1081243  30.8036232
   4.8307967  29.0530863  31.8148291   8.7349916  27.9547339  30.6342599
   7.9445460  27.9371478  30.0947098   8.4983271  28.4935633  31.3891635
  10.3565988  27.2236747  28.1917349  10.0650796  27.5866727  29.0280810
   9.7438119  26.5103755  28.0130681   3.5347180  26.1411052  33.1610034
   4.4038340  26.3151704  32.7996669   3.0553932  26.9605469  33.0385763
  15.1939656  37.8499678  22.5655309  15.8318066  37.7306425  21.8618649
  15.0760499  38.7980522  22.6243261  12.0029362  37.8027106  22.5016833
  11.6647874  37.6868170  21.6137368  12.8719131  37.4018271  22.4817839
  12.4849145  38.9561957  28.4603039  12.4737786  38.5614756  27.5883543
  12.6469785  38.2228030  29.0536810   5.4080610  41.1513774  21.3297945
   6.2001902  40.8104598  20.9144244   5.6477260  41.2608749  22.2500098
   9.2056407  41.7399069  27.4082223   8.9146273  42.6444700  27.2928889
   9.8413391  41.7815597  28.1226292  10.1312613  39.1175918  23.9983582
  10.7276186  38.8931940  23.2840545  10.1887585  38.3760663  24.6009030
  20.1489352  35.5126365  20.5441495  20.8814524  34.9425581  20.7779325
  19.3928707  35.1247965  20.9848001  17.6714772  29.2247939  25.0036104
  17.3398097  30.0943350  24.7797319  17.0760386  28.9084223  25.6830134
  14.1646292  41.4260485  24.4032017  13.8647015  42.3285524  24.2947824
  13.8197351  41.1592668  25.2553169  17.5643435  33.9443025  22.0829454
  16.6560313  33.8758433  21.7888215  17.5131031  34.4214970  22.9111279
   9.1467071  48.1904805  17.3702984   9.0691101  49.1412630  17.4491465
   8.5428715  47.8450678  18.0277911  11.6384301  35.3632671  30.0264351
  10.8617635  35.9226591  30.0167216  12.2774864  35.8489454  30.5479221
  19.4305082  32.1459463  23.8607328  18.7879462  32.4391997  23.2147122
  18.9260010  32.0312384  24.6660524   9.8930674  38.1718124  29.5882318
  10.6345358  38.7103168  29.3117142   9.1867659  38.7984413  29.7453870
  15.3686013  40.3147264  28.1854480  15.7769369  39.8729675  27.4409112
  14.6463275  39.7399892  28.4388672  11.7217083  35.2519871  25.5588037
  12.5678278  35.6759285  25.7022686  11.6615721  34.5953495  26.2526600
  15.6914828  40.8748455  21.9406768  15.0623690  41.0394169  21.2382836
  15.3040490  41.2890065  22.7117733  19.5704060  41.8102893  19.2951132
  18.8855098  42.1901794  18.7448166  19.6547909  42.4198219  20.0283080
  14.8716529  32.9124239  27.2169210  14.6277460  33.6666300  26.6803486
  15.1476459  33.2909587  28.0516457  16.8254991  39.4562852  25.8946476
  17.0371887  40.0994612  25.2180857  16.7784740  38.6225168  25.4268406
   8.1366871  40.1594345  22.1436617   8.7068228  40.5881613  21.5054101
   8.7274983  39.8776929  22.8420802   8.6292037  35.3257772  30.3897628
   7.9990698  36.0074053  30.6233025   8.5228125  35.2140854  29.4450766
  17.9400819  42.3334807  24.0668833  18.7618263  41.9314995  23.7851515
  17.9363222  42.2303041  25.0184949  11.7057423  41.8818851  26.2229544
  11.7701855  42.3439258  27.0587715  10.9968347  41.2516216  26.3511853
  26.0306812  38.6773556  20.4153805  25.2770521  38.1080954  20.2597809
  26.1654354  38.6436220  21.3624439   7.9072780  29.6278538  32.7522879
   7.5139726  29.0744736  33.4270523   8.7238920  29.9389116  33.1429397
   6.6829722  44.1828152  18.7459202   6.8596351  45.1046117  18.5580186
   7.4786556  43.8686572  19.1753582  10.8240741  31.0436417  30.3443136
  11.5650454  31.6443570  30.2647598  11.0558664  30.3014055  29.7861178
   5.9682079  36.2292784  28.6221365   5.8535594  35.3278042  28.9228464
   5.1126597  36.4756481  28.2706182  13.0473917  44.1710525  30.2208866
  12.6037771  43.3846903  29.9029771  13.7091130  44.3589675  29.5552757
   7.8061038  45.7006326  24.7469545   8.3568463  45.5723390  23.9746538
   6.9672514  46.0001215  24.3964437  15.1455155  44.4513325  28.2490267
  15.1273630  45.2722206  27.7570536  16.0675075  44.3267400  28.4740408
  11.6028209  41.9657454  29.0913776  12.1356546  41.2045742  28.8613084
  11.0742290  41.6731106  29.8337930  17.9473768  39.2892467  21.7199634
  17.2897442  39.9791728  21.8079763  18.7514167  39.6788899  22.0633620
  16.7579227  37.6436840  19.7703576  17.2711108  38.2766831  20.2725285
  17.4080450  37.0438035  19.4046936  13.2360057  35.1186295  22.0161916
  12.3182619  35.3401242  21.8583604  13.6520201  35.1932606  21.1573624
  17.5241023  42.6242841  17.8982718  17.0703350  41.7833751  17.9547909
  16.8934989  43.2604239  18.2357499  15.9673962  44.4619338  18.8332536
  16.2596936  45.0224395  18.1144902  16.4772583  44.7547899  19.5885696
  10.9307587  45.2399689  19.9225990  10.8883766  45.4660535  18.9934522
  11.8470286  45.0063063  20.0711791  14.3773221  35.7083756  26.8206619
  14.7322609  35.9355230  27.6801085  15.0245352  36.0402133  26.1983874
  20.1070958  38.8302192  17.5255948  19.9688856  39.0203788  16.5977137
  19.7507177  39.5921575  17.9823999  20.1340337  40.8978719  22.5367219
  20.5676844  40.8054008  23.3850273  20.8471918  40.8736220  21.8987235
  13.8668232  44.4980813  24.0700320  13.9205255  45.0671750  24.8378036
  12.9983014  44.6682698  23.7054357   6.7466626  34.1998370  25.5524771
   7.4189679  33.9915732  24.9037420   5.9196412  34.0020456  25.1130004
  20.9955887  40.9402420  25.0700105  21.1891777  41.8448230  25.3159380
  20.8956505  40.4809839  25.9038690  12.6492198  30.8260311  27.5690432
  12.0020113  31.5250260  27.4754909  13.4193213  31.2596454  27.9366680
  16.0570996  41.0909163  30.6440985  15.9056502  40.8619714  29.7271069
  16.0475675  42.0479764  30.6572330  12.8256332  38.6641075  25.6287252
  13.7548392  38.8152235  25.4556219  12.4047362  38.7525096  24.7735898
  11.6244664  42.6891740  23.3985790  11.4855750  42.3210524  24.2711728
  10.8359260  43.2039379  23.2269747  12.2192816  47.7900836  14.7411326
  12.3944572  47.3188880  15.5556949  11.5325604  48.4166603  14.9692587
  13.1749879  42.0673343  20.7874627  12.8399712  42.0274113  21.6832277
  12.6753825  41.4018058  20.3145038   7.1494123  37.4740973  26.3127208
   7.0113921  36.7421211  26.9138748   8.0599046  37.3849873  26.0311396
   9.7776424  37.1860932  25.8010888  10.4876042  36.5454124  25.7597507
   9.7345732  37.4373827  26.7237069  17.7663202  44.1228285  28.7217467
  17.7075749  43.4387505  28.0548050  18.1682721  44.8647275  28.2698093
   8.4905358  34.1726150  27.6206528   7.9542715  33.7216888  28.2728124
   7.9022066  34.3072059  26.8776992   6.7853901  50.9390199  21.5151186
   7.0250499  51.5708723  22.1930205   5.9423098  50.5878239  21.8016545
  17.7680610  42.0867869  26.9531447  16.8807388  41.7493791  27.0757846
  18.3379161  41.3550900  27.1900212  11.2981763  46.7469322  23.9192690
  11.2251935  47.5524293  24.4311995  10.8559156  46.9461287  23.0940712
  11.0871543  45.9841092  17.4295512  10.3039065  46.5262772  17.5233736
  11.7864288  46.5015071  17.8289753  22.2497950  37.4976087  21.7148009
  22.2387826  38.3800802  21.3441942  21.3815330  37.1447637  21.5202546
  13.7580447  46.6456156  26.0750849  14.4708419  47.2803620  26.0026750
  13.2670475  46.7420022  25.2590851   8.8092360  44.3950599  26.8956420
   9.5101820  45.0287082  27.0485814   8.3387475  44.7365331  26.1352059
  16.6093646  36.9495207  24.7208970  15.9565096  37.1971114  24.0661423
  16.9874026  36.1359345  24.3871447  13.5700820  46.9854900  18.8237140
  13.7523214  46.1676556  19.2864893  14.3933806  47.2022592  18.3862030
  13.9042985  45.9123085  16.0852189  14.4330752  45.4015539  15.4722351
  14.1671205  45.5965615  16.9497722  12.6581219  37.6915018  31.2075007
  11.9821856  37.5909147  31.8777382  13.4808853  37.5354231  31.6711004
   4.4060078  43.9286954  23.8287522   4.9913515  43.1830642  23.9615427
   4.2084917  44.2390911  24.7124186   7.2598733  46.9638201  18.8449965
   6.5909109  47.4484329  18.3614005   7.1211603  47.2107422  19.7593343
  11.4004002  48.9981945  25.4432623  11.9522310  49.1613567  26.2081708
  11.7410195  49.5886383  24.7712648   5.8520768  33.4180227  29.6927542
   6.4792807  33.0357305  30.3065066   4.9948687  33.1994429  30.0583235
  16.2514876  43.8243203  31.2981278  16.7954780  44.4373161  30.8036232
  15.6701721  44.3822781  31.8148291  14.5372389  46.9463921  22.4296305
  14.4123529  46.1453660  21.9207251  15.1951480  47.4410114  21.9410275
  16.6007298  44.7472941  24.0575855  15.6537633  44.6278292  23.9854182
  16.9490071  43.8595439  24.1402117   8.9606871  30.6367080  27.8814097
   9.4841273  30.8829376  28.6440407   8.7419204  31.4687114  27.4617235
  13.6053731  44.5425657  20.2580208  13.4578693  43.6142364  20.4387778
  14.4307224  44.5645748  19.7737283  17.2087853  45.3654216  21.3445080
  18.1334400  45.1597077  21.2069531  17.0403156  45.1170617  22.2534422
  10.1659416  31.5780775  25.5663768   9.8256236  30.7788588  25.9684448
   9.4598422  31.8782485  24.9940601  12.0536980  32.7789096  23.9217086
  11.7954758  33.7006167  23.9201417  11.5222021  32.3819530  24.6117551
  16.9983169  45.8839883  16.7007172  17.1720047  45.3186306  15.9481024
  17.4912060  46.6840778  16.5186662   2.8160129  37.8954552  24.7670731
   2.2713597  38.6714360  24.8991005   3.6939479  38.2425357  24.6089852
  22.8522560  38.6476306  18.3197472  23.2953706  37.8983631  17.9216595
  21.9749070  38.6386442  17.9371204  17.9858341  45.2006647  13.8004070
  18.6809246  45.8213340  14.0191385  18.3281492  44.3501999  14.0756448
   3.6026151  37.0224448  27.6600887   2.8607887  37.1707084  28.2465518
   3.2818895  37.2832714  26.7967637  19.8849765  42.6506353  15.3291401
  20.4101089  42.9893626  14.6040721  19.7972117  41.7153368  15.1454535
  11.5469813  46.5640427  27.4581277  11.8556940  46.3189573  28.3303977
  12.3445295  46.7687065  26.9700148  11.5690425  48.7178336  19.6886654
  11.1295416  48.2254715  20.3819511  12.3198542  48.1751304  19.4478729
   4.0482764  44.9089877  19.6911282   4.8740784  44.6093649  19.3109926
   3.6976816  44.1397500  20.1401071   9.0164297  44.2616345  21.7608956
   8.3944307  43.5987050  21.4611184   9.6869164  44.2877477  21.0782603
   9.0888825  32.7398133  31.3541462   9.1376980  33.6160256  30.9719231
   9.6311339  32.1975526  30.7813105  19.5743671  43.2839257  30.6342599
  18.7839214  43.2663395  30.0947098  19.3377025  43.8227550  31.3891635
  19.6941546  40.1331723  27.9475327  19.7439551  39.9681730  28.8890850
  19.5855469  39.2658982  27.5573208  16.9845308  36.1162651  29.2634634
  17.8855171  35.9769116  28.9718632  17.0593283  36.2817106  30.2032811
  11.3188113  33.4929506  28.1087820  10.4491423  33.7863072  27.8370409
  11.5547594  34.0769951  28.8295084  21.1959743  42.5528664  28.1917349
  20.9044551  42.9158645  29.0280810  20.5831874  41.8395673  28.0130681
  22.3955425  40.1181544  20.7119919  23.2302316  40.5571348  20.8757479
  22.5314554  39.6420197  19.8928165  19.4446931  37.6761279  26.6597407
  19.9201052  37.8688925  25.8516258  18.5212496  37.7320465  26.4140791
  14.0227147  29.7109123  25.6253241  14.5409091  30.4470150  25.2999729
  13.6682280  30.0173116  26.4600000  18.1448600  34.5527039  24.8925712
  19.0966023  34.6525137  24.9137937  17.9752050  33.7605308  25.4023797
  16.1662979  31.6382622  25.0785113  15.5712911  31.9187635  24.3831602
  15.8812676  32.1276523  25.8501854  20.6236678  37.7733159  24.0068012
  20.5912998  36.8349160  24.1927696  21.2337301  37.8517196  23.2733837
  20.7731166  34.5644202  24.0526295  20.2570215  33.7802659  23.8656224
  21.6571115  34.2362919  24.2172815  26.4413227  38.8349166  23.1474049
  27.1716616  38.5734454  23.7081752  25.8320173  38.0977888  23.1876117
  24.5228525  36.9757028  23.7448500  23.7961688  36.8412993  23.1364992
  24.1075811  37.2833857  24.5505218  12.3458701  40.6946958  31.5095873
  13.2661710  40.8725557  31.7035920  12.3108284  39.7503003  31.3575572
   5.3420773  38.6047993  24.1518654   5.5606783  39.5365100  24.1706688
   5.7546547  38.2455967  24.9373458  10.2148639  34.1781198  33.5421403
  10.1145366  35.1275555  33.4733494   9.9970181  33.8499437  32.6697473
  10.0779909  37.6078337  32.3586465   9.5946991  38.4078697  32.5650354
  10.1640848  37.6186282  31.4053909   6.0053246  41.4982872  24.3954899
   6.9596500  41.4666814  24.3284830   5.8065770  41.0373496  25.2105125
   6.5952628  40.0683988  26.9625696   7.4145517  40.5628067  26.9860534
   6.8689436  39.1515956  26.9343264  22.1406319  33.1968881  21.0981932
  22.7350810  32.9564616  20.3875240  22.2132903  32.4776011  21.7255468
   4.3603475  47.0402491  21.4125097   4.2257943  46.2802892  20.8463095
   3.9435537  47.7643391  20.9453885  24.4477392  36.5035081  19.8725353
  23.8876950  36.5728271  20.6456915  23.8420896  36.3276066  19.1524849
   7.5172601  47.9371808  21.6243539   7.4004985  48.8817241  21.5222229
   6.6965047  47.6345370  22.0129338   1.8487543  34.4022122  27.6617893
   2.4946406  33.8921076  28.1505119   1.6404694  35.1390804  28.2361319
  14.3740935  41.4702969  33.1610034  15.2432095  41.6443622  32.7996669
  13.8947686  42.2897386  33.0385763   8.5427115  48.5900070  24.8399468
   9.4454362  48.6223681  25.1565963   8.3164485  47.6600521  24.8545803
  10.2980717  47.3431057  21.5009546   9.3476348  47.3432919  21.3873919
  10.6013203  46.5963791  20.9845581   6.1885034  31.5489739  31.7592908
   7.0516495  31.1926544  31.9696232   5.6150444  31.2103634  32.4468312
  26.0333411  53.1791595  22.5655309  26.6711821  53.0598343  21.8618649
  25.9154254  54.1272439  22.6243261  22.8423117  53.1319023  22.5016833
  22.5041628  53.0160088  21.6137368  23.7112885  52.7310188  22.4817839
  18.7009933  54.9854500  18.4913724  18.1374798  54.8944437  17.7230012
  18.5862328  54.1654404  18.9716217  23.3242900  54.2853875  28.4603039
  23.3131541  53.8906673  27.5883543  23.4863539  53.5519948  29.0536810
  16.2474365  56.4805691  21.3297945  17.0395656  56.1396516  20.9144244
  16.4871015  56.5900666  22.2500098  24.2809491  58.6525468  13.8028189
  23.6297471  59.2379548  13.4162203  25.0753854  59.1831662  13.8623227
  18.2065118  55.7414605  14.2015324  18.9795994  55.1943592  14.0628199
  18.5590517  56.6058854  14.4129785  20.0450161  57.0690987  27.4082223
  19.7540027  57.9736618  27.2928889  20.6807145  57.1107515  28.1226292
  20.9706368  54.4467835  23.9983582  21.5669940  54.2223858  23.2840545
  21.0281339  53.7052581  24.6009030  20.5431396  51.9007271  11.8333773
  20.7956917  51.3788792  11.0717236  19.6055955  51.7373416  11.9360457
  25.5874679  50.9043049  19.6408517  26.3737768  50.4862472  19.2898934
  25.8513383  51.8089141  19.8090165  25.7584756  56.3415899  14.3397173
  25.1230589  56.4150526  15.0518078  25.4282163  56.9309498  13.6616253
  30.9883106  50.8418282  20.5441495  31.7208278  50.2717499  20.7779325
  30.2322462  50.4539883  20.9848001  20.2627685  53.8035377  14.0358148
  20.1463943  53.1280280  14.7039233  20.3729945  53.3167751  13.2190301
  22.6059226  53.2645524  17.7404838  22.2417433  52.7376145  18.4517759
  23.4626342  52.8743993  17.5671323  28.5108527  44.5539856  25.0036104
  28.1791851  45.4235267  24.7797319  27.9154140  44.2376140  25.6830134
  22.2464713  48.2935424  12.7366186  22.4139115  49.1615660  13.1036657
  22.0561882  48.4562705  11.8127475  25.0040046  56.7552402  24.4032017
  24.7040769  57.6577441  24.2947824  24.6591106  56.4884586  25.2553169
  18.4552528  53.2066199  20.4368721  17.5303024  53.0742413  20.6446413
  18.7036941  53.9860419  20.9338663  28.4037190  49.2734943  22.0829454
  27.4954067  49.2050351  21.7888215  28.3524786  49.7506888  22.9111279
  22.2253934  50.7493081  13.7212853  22.1053559  51.1950132  14.5598333
  21.5306522  51.0978399  13.1626391  15.8161339  52.8499473  21.2712510
  15.9453720  53.1033952  22.1851922  15.1358790  53.4427181  20.9517165
  19.9860826  63.5196723  17.3702984  19.9084856  64.4704548  17.4491465
  19.3822470  63.1742595  18.0277911  22.4778056  50.6924588  30.0264351
  21.7011390  51.2518508  30.0167216  23.1168619  51.1781371  30.5479221
  30.2698836  47.4751381  23.8607328  29.6273217  47.7683914  23.2147122
  29.7653765  47.3604301  24.6660524  27.9239000  51.2214554  14.5493187
  28.8356856  51.4541941  14.3740885  27.4148647  51.8051598  13.9868266
  20.7324428  53.5010042  29.5882318  21.4739112  54.0395086  29.3117142
  20.0261413  54.1276330  29.7453870  26.2079768  55.6439182  28.1854480
  26.6163124  55.2021593  27.4409112  25.4857029  55.0691810  28.4388672
  22.5610838  50.5811789  25.5588037  23.4072033  51.0051202  25.7022686
  22.5009475  49.9245413  26.2526600  26.5308582  56.2040373  21.9406768
  25.9017445  56.3686087  21.2382836  26.1434244  56.6181982  22.7117733
  30.4097814  57.1394811  19.2951132  29.7248852  57.5193712  18.7448166
  30.4941664  57.7490137  20.0283080  25.7110283  48.2416157  27.2169210
  25.4671215  48.9958218  26.6803486  25.9870214  48.6201505  28.0516457
  27.6648746  54.7854770  25.8946476  27.8765641  55.4286529  25.2180857
  27.6178494  53.9517086  25.4268406  25.2674975  47.3972590  22.7983048
  24.4059454  47.6953844  23.0899785  25.2937409  47.6142989  21.8664081
  22.0836544  55.9414781  19.2056854  22.5474890  56.2202484  18.4161476
  21.8193342  55.0398225  19.0229944  18.9760625  55.4886262  22.1436617
  19.5461982  55.9173531  21.5054101  19.5668737  55.2068847  22.8420802
  21.0205430  52.0637933  16.0146419  21.7229474  52.5158977  16.4820345
  20.6886059  51.4221752  16.6426312  19.4685792  50.6549690  30.3897628
  18.8384452  51.3365971  30.6233025  19.3621880  50.5432771  29.4450766
  14.7630764  50.3221486  21.3163552  13.9729818  50.5779014  20.8403663
  15.2542012  51.1369824  21.4215593  28.7794574  57.6626725  24.0668833
  29.6012017  57.2606912  23.7851515  28.7756977  57.5594959  25.0184949
  16.7145510  50.6866065  18.2747029  15.9176673  50.7984759  18.7930525
  16.4871102  51.0252717  17.4087919  22.5451177  57.2110768  26.2229544
  22.6095610  57.6731175  27.0587715  21.8362101  56.5808133  26.3511853
  13.0468467  50.5751976  23.7478543  13.2976506  51.4598986  24.0136119
  13.5828016  50.3956578  22.9753635  36.8700567  54.0065473  20.4153805
  36.1164275  53.4372872  20.2597809  37.0048108  53.9728138  21.3624439
  22.2599195  58.8778876  16.0908524  22.1244870  59.7230411  16.5193372
  22.8009007  59.0798153  15.3274458  18.7466534  44.9570456  32.7522879
  18.3533480  44.4036654  33.4270523  19.5632675  45.2681034  33.1429397
  15.7128592  56.3954314  16.6636449  16.2253113  57.1897564  16.8142014
  16.3651305  55.6980604  16.5970050  17.5223477  59.5120070  18.7459202
  17.6990105  60.4338035  18.5580186  18.3180310  59.1978489  19.1753582
  21.6634495  46.3728335  30.3443136  22.4044209  46.9735488  30.2647598
  21.8952418  45.6305972  29.7861178  16.8075834  51.5584702  28.6221365
  16.6929349  50.6569959  28.9228464  15.9520351  51.8048399  28.2706182
  23.8867671  59.5002442  30.2208866  23.4431525  58.7138821  29.9029771
  24.5484885  59.6881593  29.5552757  18.6454792  61.0298244  24.7469545
  19.1962218  60.9015307  23.9746538  17.8066268  61.3293133  24.3964437
  25.9848909  59.7805242  28.2490267  25.9667385  60.6014123  27.7570536
  26.9068829  59.6559317  28.4740408  22.4421963  57.2949372  29.0913776
  22.9750300  56.5337660  28.8613084  21.9136045  57.0023023  29.8337930
  25.6091658  42.4009438  24.6207417  25.2655928  43.2911079  24.5446528
  25.9770621  42.2111095  23.7577002  13.6777509  54.7242968  17.4396020
  14.5152731  55.1339976  17.2229727  13.8555777  53.7842410  17.4096213
  25.5741941  52.3918049  13.1279853  25.0588565  53.1622653  13.3668240
  25.3019250  51.7183185  13.7512914  23.1589052  47.2367750  18.1865091
  22.3030649  46.8474600  18.0070730  23.5716004  47.3159710  17.3264876
  24.6888199  44.7714093  22.5856651  24.1852994  44.7344228  21.7724456
  24.9818806  45.6806836  22.6453307  20.9331085  44.8552823  21.5922832
  21.7984081  44.6595631  21.2328722  21.0008594  44.6263174  22.5192189
  30.5476215  55.1450403  15.0633026  29.7705658  54.8061563  14.6188188
  31.2267696  55.1503027  14.3887991  25.3628244  50.2645141  14.9539634
  25.0578380  50.5791290  15.8049777  26.3158686  50.3426561  14.9966967
  23.8074676  56.4235364  16.6032588  23.2796038  55.6888124  16.2905825
  23.3062179  57.2010040  16.3572556  28.7867522  54.6184385  21.7199634
  28.1291197  55.3083646  21.8079763  29.5907921  55.0080817  22.0633620
  18.5393404  47.0855030  18.9639199  19.1137156  46.8630212  18.2312392
  19.1264386  47.1543725  19.7167800  27.5972981  52.9728757  19.7703576
  28.1104863  53.6058749  20.2725285  28.2474205  52.3729953  19.4046936
  18.8662991  49.1159491  12.9835084  18.0300303  49.4534178  13.3044359
  18.7267761  48.9808471  12.0462221  20.8416071  43.9596279  17.6914269
  20.1880484  43.6445297  17.0670883  20.7996546  43.3372020  18.4174092
  21.9527276  54.2415574   9.6067561  21.0454338  54.0104828   9.8058710
  22.4498308  53.4453194   9.7941542  24.8595355  62.9513082  12.5264247
  24.1857054  63.2544778  13.1349205  25.2461177  63.7542162  12.1769704
  24.0753812  50.4478213  22.0161916  23.1576373  50.6693160  21.8583604
  24.4913955  50.5224523  21.1573624  24.8588860  51.8469629  17.1464597
  25.6060679  52.3591026  16.8371719  25.1280449  51.5253681  18.0068990
  23.1315510  54.3428169  14.1291551  22.2226729  54.0587202  14.2264021
  23.1610594  54.7627248  13.2694858  28.3634777  57.9534759  17.8982718
  27.9097104  57.1125669  17.9547909  27.7328744  58.5896157  18.2357499
  27.3067697  48.8826745  19.1283386  26.5690454  48.3704131  19.4593628
  27.5594470  48.4427126  18.3166663  26.8067716  59.7911255  18.8332536
  27.0990691  60.3516313  18.1144902  27.3166337  60.0839816  19.5885696
  27.4079324  41.6602997  19.7225155  27.7138201  40.8000360  19.4351070
  28.1331929  42.2520617  19.5224149  13.7003680  52.0633683  18.1106753
  13.5028080  51.4703044  17.3857820  13.1450344  51.7585894  18.8282692
  21.6800404  51.9556790  20.2301346  21.7349014  51.0030626  20.1543823
  20.8691606  52.1116229  20.7142645  22.8291598  55.8836913  11.4679629
  22.3911028  55.1672772  11.0085267  23.5702038  56.1113028  10.9064721
  19.6192764  50.5733850  17.9891725  18.8060629  50.8728020  18.3956917
  20.1151758  50.1789538  18.7066207  21.7701342  60.5691607  19.9225990
  21.7277520  60.7952453  18.9934522  22.6864040  60.3354981  20.0711791
  25.2166975  51.0375674  26.8206619  25.5716363  51.2647147  27.6801085
  25.8639107  51.3694051  26.1983874  30.9464712  54.1594110  17.5255948
  30.8082611  54.3495706  16.5977137  30.5900931  54.9213493  17.9823999
  19.1106839  48.1452205  23.6052960  19.7506218  48.0040964  22.9075923
  18.2784369  47.8586719  23.2291562  30.9734092  56.2270637  22.5367219
  31.4070599  56.1345926  23.3850273  31.6865673  56.2028137  21.8987235
  19.8867142  57.4454636  19.7187952  20.6807741  56.9504956  19.5170527
  19.1758835  56.9172499  19.3555658  24.7061987  59.8272731  24.0700320
  24.7599009  60.3963667  24.8378036  23.8376768  59.9974616  23.7054357
  16.1949906  51.5897717  15.7947705  15.2647494  51.5282173  16.0117667
  16.2907378  51.0673670  14.9984346  16.1135455  48.1152530  18.3825947
  16.3742272  49.0297863  18.2735107  16.9352627  47.6476973  18.5322560
  17.5860380  49.5290287  25.5524771  18.2583434  49.3207649  24.9037420
  16.7590167  49.3312373  25.1130004  31.8349642  56.2694338  25.0700105
  32.0285532  57.1740148  25.3159380  31.7350260  55.8101757  25.9038690
  23.4885952  46.1552228  27.5690432  22.8413867  46.8542178  27.4754909
  24.2586968  46.5888372  27.9366680  26.8964750  56.4201080  30.6440985
  26.7450257  56.1911632  29.7271069  26.8869430  57.3771682  30.6572330
  23.6650087  53.9932993  25.6287252  24.5942147  54.1444153  25.4556219
  23.2441117  54.0817014  24.7735898  22.4638418  58.0183658  23.3985790
  22.3249504  57.6502442  24.2711728  21.6753015  58.5331297  23.2269747
  23.0586570  63.1192754  14.7411326  23.2338326  62.6480797  15.5556949
  22.3719358  63.7458520  14.9692587  24.0143634  57.3965260  20.7874627
  23.6793466  57.3566030  21.6832277  23.5147579  56.7309976  20.3145038
  17.9887878  52.8032890  26.3127208  17.8507675  52.0713129  26.9138748
  18.8992801  52.7141790  26.0311396  26.9502825  54.7421295  11.0611687
  26.3331996  54.0168123  10.9644740  26.4819314  55.5030655  10.7178761
  20.6170178  52.5152850  25.8010888  21.3269797  51.8746042  25.7597507
  20.5739486  52.7665744  26.7237069  28.6056957  59.4520203  28.7217467
  28.5469503  58.7679423  28.0548050  29.0076475  60.1939193  28.2698093
  19.3299112  49.5018067  27.6206528  18.7936469  49.0508806  28.2728124
  18.7415821  49.6363976  26.8776992  17.6247656  66.2682117  21.5151186
  17.8644254  66.9000641  22.1930205  16.7816852  65.9170157  21.8016545
  28.6074364  57.4159787  26.9531447  27.7201143  57.0785709  27.0757846
  29.1772915  56.6842818  27.1900212  10.2603511  53.7483879  20.2774498
  10.9474551  53.4345609  19.6895514  10.1051640  54.6525243  20.0041750
  15.0638233  48.6374075  24.7059522  14.9796422  48.0299745  23.9709932
  14.2420940  49.1283094  24.7069018  22.1375518  62.0761239  23.9192690
  22.0645689  62.8816211  24.4311995  21.6952911  62.2753205  23.0940712
  21.9265297  61.3133009  17.4295512  21.1432819  61.8554689  17.5233736
  22.6258042  61.8306989  17.8289753  25.2361947  47.1227639  20.0729717
  25.7330647  46.3697601  19.7530787  24.4648929  47.1591955  19.5072926
  33.0891705  52.8268004  21.7148009  33.0781581  53.7092720  21.3441942
  32.2209084  52.4739555  21.5202546  24.5974201  61.9748073  26.0750849
  25.3102173  62.6095538  26.0026750  24.1064230  62.0711939  25.2590851
  26.3191728  55.8799326  17.6468141  25.3848007  56.0000788  17.4772845
  26.4968396  54.9771793  17.3828150  21.8196916  49.2645022  19.8001402
  21.4494704  48.7116062  20.4882307  22.3156008  48.6603155  19.2476402
  29.7064279  51.7216645  18.1818175  30.1724732  52.5544637  18.1078477
  30.1571780  51.2561627  18.8863433  19.6486115  59.7242517  26.8956420
  20.3495574  60.3579000  27.0485814  19.1781230  60.0657248  26.1352059
  27.7740510  58.0660467  15.1804327  28.0500354  57.9517061  16.0898201
  26.9045009  57.6677951  15.1416500  27.6780942  44.0897232  22.2209076
  26.7644022  44.3201459  22.3891283  28.1074044  44.1735676  23.0723108
  27.4487401  52.2787124  24.7208970  26.7958851  52.5263032  24.0661423
  27.8267780  51.4651262  24.3871447  24.4094574  62.3146817  18.8237140
  24.5916969  61.4968473  19.2864893  25.2327560  62.5314510  18.3862030
  24.7436740  61.2415002  16.0852189  25.2724506  60.7307457  15.4722351
  25.0064960  60.9257533  16.9497722  23.4974974  53.0206935  31.2075007
  22.8215611  52.9201065  31.8777382  24.3202607  52.8646149  31.6711004
  15.2453833  59.2578872  23.8287522  15.8307269  58.5122560  23.9615427
  15.0478671  59.5682828  24.7124186  18.0992488  62.2930119  18.8449965
  17.4302863  62.7776247  18.3614005  17.9605358  62.5399340  19.7593343
   9.8371487  51.8284472  22.5491966   9.8755587  51.2948063  23.3429084
   9.3311780  51.3019677  21.9302943  22.2397756  64.3273863  25.4432623
  22.7916064  64.4905484  26.2081708  22.5803950  64.9178301  24.7712648
  17.2162250  46.6749012  26.0454508  17.2803576  47.5363843  25.6331906
  17.1529370  46.0623014  25.3126866  16.6914522  48.7472145  29.6927542
  17.3186561  48.3649222  30.3065066  15.8342441  48.5286347  30.0583235
  27.0908631  59.1535120  31.2981278  27.6348535  59.7665078  30.8036232
  26.5095476  59.7114699  31.8148291  13.4680065  50.5548574  15.6245897
  13.7633506  49.6459253  15.5712951  12.5668101  50.5336314  15.3026899
  25.3766144  62.2755838  22.4296305  25.2517283  61.4745578  21.9207251
  26.0345235  62.7702032  21.9410275  16.9974312  48.6304571  21.6073446
  16.2760898  49.2440538  21.4680919  17.7867568  49.1662336  21.5290091
  27.4401052  60.0764858  24.0575855  26.4931388  59.9570209  23.9854182
  27.7883825  59.1887356  24.1402117  19.8000625  45.9658997  27.8814097
  20.3235027  46.2121294  28.6440407  19.5812959  46.7979032  27.4617235
  15.1967907  48.2362672  15.7485222  14.8680613  47.3560051  15.5660328
  15.5507277  48.1810340  16.6361611  24.4447485  59.8717575  20.2580208
  24.2972448  58.9434282  20.4387778  25.2700979  59.8937665  19.7737283
  18.3109730  48.5235642  16.1160700  18.6505802  49.0521563  15.3939308
  18.7581850  48.8616048  16.8919266  28.0481607  60.6946133  21.3445080
  28.9728155  60.4888995  21.2069531  27.8796911  60.4462534  22.2534422
  21.0053171  46.9072692  25.5663768  20.6649991  46.1080505  25.9684448
  20.2992177  47.2074403  24.9940601  21.6569642  43.9922005  24.0191091
  22.4795712  43.5182483  23.8969981  21.9007706  44.7712489  24.5189777
  20.2977877  47.0210263  14.3153992  21.0186239  47.3991516  13.8117709
  19.6743181  47.7399140  14.4188970  24.4409000  47.7255412  15.2512325
  24.6572614  48.6080050  14.9501153  23.9603067  47.3341626  14.5217967
  19.1808221  50.6841125  21.8283069  19.0352802  50.9981428  22.7207351
  18.7033425  51.3026026  21.2753968  21.0404604  47.6743673  21.8763959
  21.0266173  46.7784767  21.5396257  21.7577032  47.6814337  22.5102245
  22.8930735  48.1081014  23.9217086  22.6348513  49.0298084  23.9201417
  22.3615775  47.7111448  24.6117551  27.8376923  61.2131801  16.7007172
  28.0113801  60.6478223  15.9481024  28.3305815  62.0132696  16.5186662
  13.6553883  53.2246470  24.7670731  13.1107351  54.0006278  24.8991005
  14.5333233  53.5717274  24.6089852  20.4441500  46.5558054  17.1451529
  20.5657411  45.6274700  17.3442417  20.1543542  46.5696740  16.2329845
  23.3132690  44.2412964  20.2818249  23.3354387  44.3052297  19.3270229
  23.7300749  43.4017473  20.4758755  33.6916315  53.9768224  18.3197472
  34.1347461  53.2275549  17.9216595  32.8142825  53.9678360  17.9371204
  28.8252096  60.5298565  13.8004070  29.5203001  61.1505258  14.0191385
  29.1675246  59.6793916  14.0756448  14.4419905  52.3516366  27.6600887
  13.7001641  52.4999001  28.2465518  14.1212649  52.6124632  26.7967637
  30.7243519  57.9798271  15.3291401  31.2494843  58.3185543  14.6040721
  30.6365872  57.0445286  15.1454535  22.3863568  61.8932344  27.4581277
  22.6950694  61.6481491  28.3303977  23.1839050  62.0978983  26.9700148
  22.4084180  64.0470254  19.6886654  21.9689170  63.5546633  20.3819511
  23.1592297  63.5043222  19.4478729  14.8876519  60.2381795  19.6911282
  15.7134539  59.9385567  19.3109926  14.5370571  59.4689417  20.1401071
  19.8558052  59.5908263  21.7608956  19.2338061  58.9278968  21.4611184
  20.5262919  59.6169395  21.0782603  13.0885124  58.1568121  20.6500216
  12.2517032  57.7290296  20.4684217  13.0608769  58.3500565  21.5871007
  19.9282579  48.0690051  31.3541462  19.9770735  48.9452174  30.9719231
  20.4705094  47.5267444  30.7813105  30.4137425  58.6131174  30.6342599
  29.6232969  58.5955313  30.0947098  30.1770780  59.1519468  31.3891635
  30.5335300  55.4623641  27.9475327  30.5833305  55.2973648  28.8890850
  30.4249224  54.5950900  27.5573208  19.4171559  58.1412186  15.2367416
  19.5659679  58.8247651  14.5834089  20.2238002  58.1217276  15.7516872
  27.8239063  51.4454569  29.2634634  28.7248925  51.3061034  28.9718632
  27.8987037  51.6109024  30.2032811  22.1581868  48.8221423  28.1087820
  21.2885177  49.1154989  27.8370409  22.3941348  49.4061868  28.8295084
  32.0353497  57.8820582  28.1917349  31.7438305  58.2450563  29.0280810
  31.4225628  57.1687590  28.0130681  33.2349179  55.4473462  20.7119919
  34.0696071  55.8863266  20.8757479  33.3708308  54.9712115  19.8928165
  30.2840685  53.0053197  26.6597407  30.7594807  53.1980843  25.8516258
  29.3606251  53.0612383  26.4140791  17.1724192  54.1677364  16.2428485
  16.9270234  53.2639694  16.4408695  17.3420106  54.1694514  15.3007963
  24.8620902  45.0401040  25.6253241  25.3802846  45.7762067  25.2999729
  24.5076035  45.3465034  26.4600000  16.4419839  49.9005722  13.7414647
  15.7489084  49.9750077  13.0854683  16.1971591  49.1366065  14.2636164
  25.1133496  41.4601323  21.1454137  25.3935250  40.7924512  21.7714564
  25.8984103  41.6530418  20.6328801  22.9166964  60.6360317  12.7079164
  22.3440931  61.2550504  12.2549636  23.4899758  61.1859678  13.2419086
  28.9842354  49.8818957  24.8925712  29.9359777  49.9817055  24.9137937
  28.8145805  49.0897225  25.4023797  27.0056734  46.9674540  25.0785113
  26.4106666  47.2479553  24.3831602  26.7206430  47.4568441  25.8501854
  26.1364224  60.9197467  13.8387746  27.0694897  60.8543029  14.0420621
  26.0487437  61.7553734  13.3802279  28.7652241  60.2363337  10.7991694
  28.6865872  59.9023201  11.6927451  29.5861908  60.7285105  10.7983166
  31.4630432  53.1025077  24.0068012  31.4306752  52.1641077  24.1927696
  32.0731056  53.1809113  23.2733837  23.3013763  51.9721130  10.0495216
  24.2472868  51.8427338  10.1183634  22.9228008  51.2335791  10.5264644
  31.6124921  49.8936120  24.0526295  31.0963969  49.1094577  23.8656224
  32.4964869  49.5654837  24.2172815  29.2735647  43.6377136  20.0122108
  29.0760469  43.3292224  20.8965440  29.8835353  44.3638774  20.1420038
  37.2806982  54.1641083  23.1474049  38.0110370  53.9026372  23.7081752
  36.6713927  53.4269805  23.1876117  35.3622279  52.3048946  23.7448500
  34.6355443  52.1704911  23.1364992  34.9469566  52.6125775  24.5505218
  23.1852455  56.0238876  31.5095873  24.1055465  56.2017475  31.7035920
  23.1502038  55.0794921  31.3575572  12.4034620  51.2177469  20.4349148
  12.0837405  50.3642778  20.1423522  11.8568049  51.4326047  21.1907115
  16.1814528  53.9339910  24.1518654  16.4000538  54.8657018  24.1706688
  16.5940302  53.5747885  24.9373458  23.1018746  44.4407996  16.1394343
  22.2919474  44.0955081  16.5149589  23.7903163  44.1315539  16.7281954
  25.0309294  43.5186042  17.7618639  25.5840333  43.9381496  18.4208662
  25.2679380  42.5921791  17.8041595  21.0542393  49.5073116  33.5421403
  20.9539120  50.4567473  33.4733494  20.8363935  49.1791355  32.6697473
  12.2722880  54.8380381  22.4042269  11.5786352  54.4234334  21.8912224
  13.0195871  54.8800917  21.8075688  28.4088101  45.6286568  17.2697304
  27.8286770  46.2871372  16.8875356  28.1424034  44.8063912  16.8584721
  26.8591668  45.0291625  19.4718624  27.3591446  45.1408160  18.6632943
  27.5027275  44.7252678  20.1119432  20.9173663  52.9370255  32.3586465
  20.4340745  53.7370615  32.5650354  21.0034602  52.9478200  31.4053909
  14.1859623  54.7698635  20.2808284  14.1630311  54.8686322  19.3290167
  14.4960259  55.6163785  20.6025450  16.8447001  56.8274790  24.3954899
  17.7990254  56.7958732  24.3284830  16.6459524  56.3665413  25.2105125
  17.4346383  55.3975906  26.9625696  18.2539272  55.8919984  26.9860534
  17.7083191  54.4807874  26.9343264  27.1912979  47.7886658  16.3253652
  26.3038834  48.0736309  16.1073847  27.6066968  47.6280421  15.4780929
  30.5427515  47.8133179  20.0407991  31.3187905  48.3029631  20.3132608
  29.8175649  48.2391233  20.4979861  32.9800074  48.5260798  21.0981932
  33.5744565  48.2856534  20.3875240  33.0526658  47.8067929  21.7255468
  15.1997230  62.3694409  21.4125097  15.0651698  61.6094810  20.8463095
  14.7829292  63.0935309  20.9453885  26.3356193  57.5531333  10.4201672
  27.0392043  57.7581335  11.0359327  25.6118841  58.1208095  10.6850755
  27.1654003  53.3041194  16.5403942  27.1089204  53.7609745  15.7011574
  27.7182345  52.5431879  16.3626785  30.9758809  49.0930926  17.3654061
  30.7195743  48.6927561  18.1962269  30.3511677  49.8074720  17.2404201
  35.2871147  51.8326999  19.8725353  34.7270705  51.9020188  20.6456915
  34.6814650  51.6567984  19.1524849  18.3566356  63.2663726  21.6243539
  18.2398740  64.2109159  21.5222229  17.5358802  62.9637288  22.0129338
  28.2442890  57.9913862  12.4700132  29.0788494  57.5595060  12.2877607
  28.0827233  57.8195876  13.3977026  27.8988782  54.4945975  13.8356471
  27.8437586  54.3290247  12.8944915  27.2734838  55.2022008  13.9918661
  12.6881297  49.7314040  27.6617893  13.3340161  49.2212994  28.1505119
  12.4798448  50.4682721  28.2361319  25.2134689  56.7994887  33.1610034
  26.0825849  56.9735539  32.7996669  24.7341441  57.6189304  33.0385763
  21.2084908  43.9954084  13.4141790  21.1963578  44.9395924  13.5710060
  22.1008330  43.8124230  13.1201251  19.3820870  63.9191988  24.8399468
  20.2848116  63.9515598  25.1565963  19.1558240  62.9892439  24.8545803
  21.1374472  62.6722975  21.5009546  20.1870103  62.6724836  21.3873919
  21.4406958  61.9255709  20.9845581  25.0237027  40.5896861  17.6687726
  24.2569423  40.0355348  17.8144409  25.4347732  40.6618730  18.5301878
  17.0278788  46.8781657  31.7592908  17.8910250  46.5218461  31.9696232
  16.4544199  46.5395551  32.4468312  36.8727165  68.5083513  22.5655309
  37.5105575  68.3890260  21.8618649  36.7548008  69.4564357  22.6243261
  33.6816871  68.4610941  22.5016833  33.3435383  68.3452006  21.6137368
  34.5506640  68.0602106  22.4817839  29.5403687  70.3146417  18.4913724
  28.9768552  70.2236354  17.7230012  29.4256082  69.4946322  18.9716217
  34.1636654  69.6145793  28.4603039  34.1525295  69.2198591  27.5883543
  34.3257294  68.8811865  29.0536810  27.0868119  71.8097609  21.3297945
  27.8789411  71.4688434  20.9144244  27.3264769  71.9192584  22.2500098
  35.1203246  73.9817385  13.8028189  34.4691226  74.5671466  13.4162203
  35.9147609  74.5123580  13.8623227  29.0458873  71.0706522  14.2015324
  29.8189749  70.5235509  14.0628199  29.3984272  71.9350772  14.4129785
  30.8843916  72.3982905  27.4082223  30.5933782  73.3028535  27.2928889
  31.5200900  72.4399432  28.1226292  31.8100122  69.7759753  23.9983582
  32.4063695  69.5515776  23.2840545  31.8675094  69.0344499  24.6009030
  31.3825151  67.2299188  11.8333773  31.6350671  66.7080710  11.0717236
  30.4449710  67.0665334  11.9360457  36.4268434  66.2334967  19.6408517
  37.2131523  65.8154390  19.2898934  36.6907138  67.1381059  19.8090165
  36.5978511  71.6707817  14.3397173  35.9624344  71.7442444  15.0518078
  36.2675917  72.2601416  13.6616253  41.8276861  66.1710200  20.5441495
  42.5602033  65.6009417  20.7779325  41.0716216  65.7831800  20.9848001
  31.1021440  69.1327294  14.0358148  30.9857698  68.4572198  14.7039233
  31.2123699  68.6459668  13.2190301  33.4452980  68.5937442  17.7404838
  33.0811188  68.0668062  18.4517759  34.3020096  68.2035911  17.5671323
  39.3502281  59.8831774  25.0036104  39.0185606  60.7527185  24.7797319
  38.7547894  59.5668058  25.6830134  33.0858467  63.6227341  12.7366186
  33.2532870  64.4907578  13.1036657  32.8955637  63.7854623  11.8127475
  35.8433801  72.0844320  24.4032017  35.5434524  72.9869359  24.2947824
  35.4984860  71.8176503  25.2553169  29.2946282  68.5358117  20.4368721
  28.3696779  68.4034331  20.6446413  29.5430695  69.3152336  20.9338663
  39.2430944  64.6026860  22.0829454  38.3347822  64.5342269  21.7888215
  39.1918540  65.0798805  22.9111279  33.0647688  66.0784999  13.7212853
  32.9447314  66.5242049  14.5598333  32.3700277  66.4270316  13.1626391
  26.6555093  68.1791391  21.2712510  26.7847474  68.4325869  22.1851922
  25.9752544  68.7719099  20.9517165  30.8254580  78.8488640  17.3702984
  30.7478610  79.7996466  17.4491465  30.2216224  78.5034513  18.0277911
  33.3171810  66.0216506  30.0264351  32.5405144  66.5810426  30.0167216
  33.9562373  66.5073289  30.5479221  41.1092591  62.8043299  23.8607328
  40.4666971  63.0975832  23.2147122  40.6047519  62.6896219  24.6660524
  38.7632754  66.5506472  14.5493187  39.6750611  66.7833859  14.3740885
  38.2542402  67.1343516  13.9868266  31.5718183  68.8301959  29.5882318
  32.3132867  69.3687003  29.3117142  30.8655168  69.4568248  29.7453870
  37.0473522  70.9731100  28.1854480  37.4556878  70.5313510  27.4409112
  36.3250784  70.3983727  28.4388672  33.4004592  65.9103706  25.5588037
  34.2465787  66.3343120  25.7022686  33.3403230  65.2537331  26.2526600
  37.3702337  71.5332290  21.9406768  36.7411199  71.6978004  21.2382836
  36.9827999  71.9473900  22.7117733  41.2491569  72.4686728  19.2951132
  40.5642607  72.8485630  18.7448166  41.3335418  73.0782055  20.0283080
  36.5504038  63.5708075  27.2169210  36.3064969  64.3250135  26.6803486
  36.8263968  63.9493422  28.0516457  38.5042500  70.1146687  25.8946476
  38.7159396  70.7578447  25.2180857  38.4572249  69.2809004  25.4268406
  36.1068729  62.7264508  22.7983048  35.2453208  63.0245761  23.0899785
  36.1331164  62.9434907  21.8664081  32.9230299  71.2706698  19.2056854
  33.3868644  71.5494401  18.4161476  32.6587097  70.3690143  19.0229944
  29.8154380  70.8178180  22.1436617  30.3855737  71.2465448  21.5054101
  30.4062492  70.5360765  22.8420802  31.8599185  67.3929851  16.0146419
  32.5623228  67.8450894  16.4820345  31.5279813  66.7513670  16.6426312
  30.3079546  65.9841607  30.3897628  29.6778207  66.6657888  30.6233025
  30.2015634  65.8724689  29.4450766  25.6024519  65.6513403  21.3163552
  24.8123573  65.9070932  20.8403663  26.0935766  66.4661741  21.4215593
  39.6188328  72.9918643  24.0668833  40.4405772  72.5898830  23.7851515
  39.6150731  72.8886877  25.0184949  27.5539264  66.0157983  18.2747029
  26.7570427  66.1276677  18.7930525  27.3264856  66.3544635  17.4087919
  33.3844932  72.5402686  26.2229544  33.4489364  73.0023093  27.0587715
  32.6755856  71.9100051  26.3511853  23.8862222  65.9043894  23.7478543
  24.1370260  66.7890904  24.0136119  24.4221770  65.7248495  22.9753635
  47.7094321  69.3357391  20.4153805  46.9558030  68.7664789  20.2597809
  47.8441863  69.3020056  21.3624439  33.0992949  74.2070793  16.0908524
  32.9638624  75.0522329  16.5193372  33.6402762  74.4090071  15.3274458
  29.5860289  60.2862373  32.7522879  29.1927235  59.7328572  33.4270523
  30.4026429  60.5972952  33.1429397  26.5522347  71.7246231  16.6636449
  27.0646867  72.5189482  16.8142014  27.2045060  71.0272522  16.5970050
  28.3617231  74.8411988  18.7459202  28.5383860  75.7629952  18.5580186
  29.1574065  74.5270407  19.1753582  32.5028250  61.7020252  30.3443136
  33.2437963  62.3027405  30.2647598  32.7346173  60.9597890  29.7861178
  27.6469588  66.8876620  28.6221365  27.5323103  65.9861877  28.9228464
  26.7914106  67.1340316  28.2706182  34.7261426  74.8294360  30.2208866
  34.2825280  74.0430738  29.9029771  35.3878639  75.0173510  29.5552757
  29.4848547  76.3590162  24.7469545  30.0355972  76.2307225  23.9746538
  28.6460023  76.6585051  24.3964437  36.8242664  75.1097160  28.2490267
  36.8061139  75.9306041  27.7570536  37.7462584  74.9851235  28.4740408
  33.2815718  72.6241289  29.0913776  33.8144055  71.8629578  28.8613084
  32.7529799  72.3314941  29.8337930  36.4485413  57.7301355  24.6207417
  36.1049682  58.6202997  24.5446528  36.8164376  57.5403013  23.7577002
  24.5171264  70.0534886  17.4396020  25.3546486  70.4631894  17.2229727
  24.6949531  69.1134328  17.4096213  36.4135696  67.7209966  13.1279853
  35.8982319  68.4914571  13.3668240  36.1413004  67.0475103  13.7512914
  33.9982807  62.5659667  18.1865091  33.1424403  62.1766518  18.0070730
  34.4109758  62.6451628  17.3264876  35.5281953  60.1006010  22.5856651
  35.0246749  60.0636146  21.7724456  35.8212560  61.0098753  22.6453307
  31.7724839  60.1844740  21.5922832  32.6377836  59.9887549  21.2328722
  31.8402348  59.9555092  22.5192189  41.3869970  70.4742321  15.0633026
  40.6099413  70.1353481  14.6188188  42.0661451  70.4794944  14.3887991
  36.2021999  65.5937059  14.9539634  35.8972134  65.9083208  15.8049777
  37.1552441  65.6718478  14.9966967  34.6468431  71.7527282  16.6032588
  34.1189792  71.0180041  16.2905825  34.1455933  72.5301958  16.3572556
  39.6261277  69.9476302  21.7199634  38.9684951  70.6375564  21.8079763
  40.4301676  70.3372734  22.0633620  29.3787158  62.4146948  18.9639199
  29.9530910  62.1922130  18.2312392  29.9658141  62.4835643  19.7167800
  38.4366735  68.3020675  19.7703576  38.9498617  68.9350667  20.2725285
  39.0867959  67.7021871  19.4046936  29.7056745  64.4451409  12.9835084
  28.8694058  64.7826096  13.3044359  29.5661515  64.3100389  12.0462221
  31.6809826  59.2888197  17.6914269  31.0274238  58.9737214  17.0670883
  31.6390300  58.6663937  18.4174092  32.7921031  69.5707492   9.6067561
  31.8848093  69.3396746   9.8058710  33.2892063  68.7745111   9.7941542
  35.6989110  78.2804999  12.5264247  35.0250808  78.5836696  13.1349205
  36.0854932  79.0834080  12.1769704  34.9147566  65.7770131  22.0161916
  33.9970128  65.9985078  21.8583604  35.3307710  65.8516441  21.1573624
  35.6982614  67.1761546  17.1464597  36.4454433  67.6882943  16.8371719
  35.9674204  66.8545599  18.0068990  33.9709264  69.6720087  14.1291551
  33.0620484  69.3879120  14.2264021  34.0004348  70.0919166  13.2694858
  39.2028532  73.2826676  17.8982718  38.7490859  72.4417586  17.9547909
  38.5722498  73.9188075  18.2357499  38.1461451  64.2118662  19.1283386
  37.4084208  63.6996049  19.4593628  38.3988225  63.7719044  18.3166663
  37.6461471  75.1203173  18.8332536  37.9384445  75.6808230  18.1144902
  38.1560092  75.4131734  19.5885696  38.2473079  56.9894914  19.7225155
  38.5531955  56.1292278  19.4351070  38.9725683  57.5812535  19.5224149
  24.5397435  67.3925601  18.1106753  24.3421834  66.7994962  17.3857820
  23.9844099  67.0877811  18.8282692  32.5194158  67.2848708  20.2301346
  32.5742768  66.3322544  20.1543823  31.7085360  67.4408147  20.7142645
  33.6685352  71.2128831  11.4679629  33.2304782  70.4964690  11.0085267
  34.4095793  71.4404945  10.9064721  30.4586518  65.9025767  17.9891725
  29.6454384  66.2019938  18.3956917  30.9545512  65.5081456  18.7066207
  32.6095096  75.8983524  19.9225990  32.5671275  76.1244371  18.9934522
  33.5257795  75.6646899  20.0711791  36.0560730  66.3667592  26.8206619
  36.4110118  66.5939065  27.6801085  36.7032861  66.6985969  26.1983874
  41.7858467  69.4886028  17.5255948  41.6476365  69.6787624  16.5977137
  41.4294686  70.2505410  17.9823999  29.9500593  63.4744123  23.6052960
  30.5899972  63.3332882  22.9075923  29.1178124  63.1878636  23.2291562
  41.8127846  71.5562555  22.5367219  42.2464353  71.4637844  23.3850273
  42.5259427  71.5320055  21.8987235  30.7260897  72.7746553  19.7187952
  31.5201495  72.2796873  19.5170527  30.0152589  72.2464416  19.3555658
  35.5455741  75.1564649  24.0700320  35.5992764  75.7255585  24.8378036
  34.6770523  75.3266534  23.7054357  27.0343660  66.9189635  15.7947705
  26.1041248  66.8574090  16.0117667  27.1301132  66.3965588  14.9984346
  26.9529209  63.4444448  18.3825947  27.2136027  64.3589781  18.2735107
  27.7746382  62.9768890  18.5322560  28.4254135  64.8582205  25.5524771
  29.0977188  64.6499567  24.9037420  27.5983921  64.6604291  25.1130004
  42.6743396  71.5986255  25.0700105  42.8679286  72.5032066  25.3159380
  42.5744014  71.1393674  25.9038690  34.3279707  61.4844146  27.5690432
  33.6807622  62.1834096  27.4754909  35.0980722  61.9180290  27.9366680
  37.7358505  71.7492998  30.6440985  37.5844011  71.5203550  29.7271069
  37.7263184  72.7063599  30.6572330  34.5043841  69.3224911  25.6287252
  35.4335901  69.4736070  25.4556219  34.0834871  69.4108932  24.7735898
  33.3032173  73.3475575  23.3985790  33.1643259  72.9794360  24.2711728
  32.5146769  73.8623215  23.2269747  33.8980325  78.4484672  14.7411326
  34.0732081  77.9772715  15.5556949  33.2113113  79.0750438  14.9692587
  34.8537388  72.7257178  20.7874627  34.5187221  72.6857948  21.6832277
  34.3541334  72.0601894  20.3145038  28.8281632  68.1324808  26.3127208
  28.6901430  67.4005047  26.9138748  29.7386555  68.0433708  26.0311396
  37.7896580  70.0713212  11.0611687  37.1725750  69.3460040  10.9644740
  37.3213068  70.8322573  10.7178761  31.4563933  67.8444767  25.8010888
  32.1663551  67.2037959  25.7597507  31.4133241  68.0957662  26.7237069
  39.4450711  74.7812121  28.7217467  39.3863258  74.0971341  28.0548050
  39.8470230  75.5231111  28.2698093  30.1692867  64.8309985  27.6206528
  29.6330224  64.3800724  28.2728124  29.5809575  64.9655894  26.8776992
  28.4641410  81.5974034  21.5151186  28.7038008  82.2292559  22.1930205
  27.6210607  81.2462074  21.8016545  29.5795126  64.2898637  10.1832991
  28.7024592  64.1687437   9.8195238  30.0552879  63.4984715   9.9311880
  39.4468119  72.7451705  26.9531447  38.5594897  72.4077626  27.0757846
  40.0166670  72.0134736  27.1900212  21.0997266  69.0775796  20.2774498
  21.7868306  68.7637526  19.6895514  20.9445394  69.9817161  20.0041750
  25.9031988  63.9665993  24.7059522  25.8190177  63.3591662  23.9709932
  25.0814694  64.4575011  24.7069018  32.9769272  77.4053157  23.9192690
  32.9039443  78.2108128  24.4311995  32.5346665  77.6045123  23.0940712
  32.7659052  76.6424927  17.4295512  31.9826574  77.1846607  17.5233736
  33.4651797  77.1598907  17.8289753  36.0755702  62.4519556  20.0729717
  36.5724401  61.6989519  19.7530787  35.3042683  62.4883873  19.5072926
  43.9285459  68.1559922  21.7148009  43.9175335  69.0384637  21.3441942
  43.0602839  67.8031473  21.5202546  35.4367956  77.3039991  26.0750849
  36.1495928  77.9387456  26.0026750  34.9457984  77.4003857  25.2590851
  37.1585482  71.2091244  17.6468141  36.2241761  71.3292706  17.4772845
  37.3362151  70.3063710  17.3828150  32.6590671  64.5936939  19.8001402
  32.2888458  64.0407980  20.4882307  33.1549763  63.9895073  19.2476402
  40.5458034  67.0508563  18.1818175  41.0118486  67.8836554  18.1078477
  40.9965534  66.5853544  18.8863433  30.4879869  75.0534434  26.8956420
  31.1889329  75.6870917  27.0485814  30.0174984  75.3949166  26.1352059
  38.6134265  73.3952384  15.1804327  38.8894109  73.2808979  16.0898201
  37.7438764  72.9969869  15.1416500  38.5174697  59.4189150  22.2209076
  37.6037776  59.6493377  22.3891283  38.9467798  59.5027594  23.0723108
  38.2881155  67.6079042  24.7208970  37.6352605  67.8554949  24.0661423
  38.6661535  66.7943180  24.3871447  35.2488329  77.6438735  18.8237140
  35.4310723  76.8260391  19.2864893  36.0721315  77.8606427  18.3862030
  35.5830494  76.5706920  16.0852189  36.1118261  76.0599375  15.4722351
  35.8458714  76.2549450  16.9497722  34.3368728  68.3498853  31.2075007
  33.6609365  68.2492982  31.8777382  35.1596362  68.1938067  31.6711004
  26.0847587  74.5870789  23.8287522  26.6701024  73.8414477  23.9615427
  25.8872426  74.8974746  24.7124186  28.9386242  77.6222037  18.8449965
  28.2696618  78.1068164  18.3614005  28.7999112  77.8691257  19.7593343
  20.6765242  67.1576390  22.5491966  20.7149341  66.6239980  23.3429084
  20.1705535  66.6311595  21.9302943  33.0791511  79.6565780  25.4432623
  33.6309819  79.8197402  26.2081708  33.4197704  80.2470218  24.7712648
  28.0556004  62.0040930  26.0454508  28.1197331  62.8655761  25.6331906
  27.9923124  61.3914932  25.3126866  27.5308277  64.0764063  29.6927542
  28.1580316  63.6941140  30.3065066  26.6736196  63.8578265  30.0583235
  37.9302385  74.4827038  31.2981278  38.4742289  75.0956996  30.8036232
  37.3489230  75.0406616  31.8148291  24.3073819  65.8840492  15.6245897
  24.6027261  64.9751170  15.5712951  23.4061855  65.8628231  15.3026899
  36.2159898  77.6047756  22.4296305  36.0911038  76.8037496  21.9207251
  36.8738989  78.0993949  21.9410275  27.8368066  63.9596488  21.6073446
  27.1154652  64.5732456  21.4680919  28.6261322  64.4954253  21.5290091
  38.2794807  75.4056776  24.0575855  37.3325142  75.2862127  23.9854182
  38.6277580  74.5179274  24.1402117  30.6394380  61.2950915  27.8814097
  31.1628782  61.5413211  28.6440407  30.4206713  62.1270950  27.4617235
  26.0361661  63.5654589  15.7485222  25.7074367  62.6851968  15.5660328
  26.3901032  63.5102258  16.6361611  35.2841240  75.2009492  20.2580208
  35.1366202  74.2726200  20.4387778  36.1094733  75.2229583  19.7737283
  29.1503484  63.8527559  16.1160700  29.4899557  64.3813481  15.3939308
  29.5975605  64.1907965  16.8919266  38.8875362  76.0238051  21.3445080
  39.8121909  75.8180912  21.2069531  38.7190665  75.7754452  22.2534422
  31.8446925  62.2364610  25.5663768  31.5043745  61.4372423  25.9684448
  31.1385931  62.5366321  24.9940601  32.4963397  59.3213922  24.0191091
  33.3189466  58.8474401  23.8969981  32.7401460  60.1004406  24.5189777
  31.1371631  62.3502181  14.3153992  31.8579994  62.7283434  13.8117709
  30.5136935  63.0691058  14.4188970  35.2802754  63.0547330  15.2512325
  35.4966369  63.9371968  14.9501153  34.7996821  62.6633543  14.5217967
  30.0201976  66.0133043  21.8283069  29.8746556  66.3273346  22.7207351
  29.5427179  66.6317943  21.2753968  31.8798358  63.0035591  21.8763959
  31.8659927  62.1076684  21.5396257  32.5970787  63.0106255  22.5102245
  33.7324489  63.4372931  23.9217086  33.4742267  64.3590002  23.9201417
  33.2009530  63.0403366  24.6117551  38.6770678  76.5423718  16.7007172
  38.8507555  75.9770141  15.9481024  39.1699569  77.3424613  16.5186662
  24.4947638  68.5538387  24.7670731  23.9501106  69.3298195  24.8991005
  25.3726988  68.9009192  24.6089852  31.2835254  61.8849971  17.1451529
  31.4051166  60.9566618  17.3442417  30.9937297  61.8988657  16.2329845
  34.1526445  59.5704882  20.2818249  34.1748142  59.6344215  19.3270229
  34.5694504  58.7309390  20.4758755  44.5310069  69.3060141  18.3197472
  44.9741215  68.5567467  17.9216595  43.6536579  69.2970278  17.9371204
  39.6645850  75.8590483  13.8004070  40.3596755  76.4797175  14.0191385
  40.0069001  75.0085834  14.0756448  25.2813660  67.6808284  27.6600887
  24.5395396  67.8290919  28.2465518  24.9606404  67.9416549  26.7967637
  41.5637274  73.3090188  15.3291401  42.0888598  73.6477461  14.6040721
  41.4759626  72.3737204  15.1454535  33.2257322  77.2224262  27.4581277
  33.5344449  76.9773409  28.3303977  34.0232804  77.4270900  26.9700148
  33.2477934  79.3762172  19.6886654  32.8082925  78.8838550  20.3819511
  33.9986051  78.8335139  19.4478729  25.7270273  75.5673712  19.6911282
  26.5528293  75.2677484  19.3109926  25.3764325  74.7981335  20.1401071
  30.6951806  74.9200181  21.7608956  30.0731816  74.2570886  21.4611184
  31.3656673  74.9461313  21.0782603  23.9278878  73.4860039  20.6500216
  23.0910787  73.0582213  20.4684217  23.9002524  73.6792482  21.5871007
  30.7676334  63.3981969  31.3541462  30.8164489  64.2744091  30.9719231
  31.3098848  62.8559362  30.7813105  41.2531180  73.9423092  30.6342599
  40.4626723  73.9247231  30.0947098  41.0164534  74.4811386  31.3891635
  41.3729055  70.7915558  27.9475327  41.4227060  70.6265566  28.8890850
  41.2642978  69.9242817  27.5573208  30.2565313  73.4704104  15.2367416
  30.4053434  74.1539568  14.5834089  31.0631757  73.4509194  15.7516872
  38.6632817  66.7746486  29.2634634  39.5642680  66.6352951  28.9718632
  38.7380792  66.9400941  30.2032811  32.9975622  64.1513341  28.1087820
  32.1278932  64.4446907  27.8370409  33.2335103  64.7353786  28.8295084
  42.8747252  73.2112500  28.1917349  42.5832060  73.5742480  29.0280810
  42.2619383  72.4979508  28.0130681  44.0742934  70.7765380  20.7119919
  44.9089825  71.2155184  20.8757479  44.2102063  70.3004033  19.8928165
  41.1234440  68.3345114  26.6597407  41.5988561  68.5272761  25.8516258
  40.2000005  68.3904300  26.4140791  28.0117946  69.4969282  16.2428485
  27.7663988  68.5931612  16.4408695  28.1813861  69.4986432  15.3007963
  35.7014656  60.3692958  25.6253241  36.2196600  61.1053985  25.2999729
  35.3469789  60.6756951  26.4600000  27.2813594  65.2297639  13.7414647
  26.5882839  65.3041994  13.0854683  27.0365346  64.4657983  14.2636164
  35.9527250  56.7893241  21.1454137  36.2329004  56.1216430  21.7714564
  36.7377857  56.9822336  20.6328801  33.7560719  75.9652234  12.7079164
  33.1834686  76.5842422  12.2549636  34.3293513  76.5151596  13.2419086
  39.8236109  65.2110875  24.8925712  40.7753532  65.3108972  24.9137937
  39.6539559  64.4189143  25.4023797  37.8450488  62.2966458  25.0785113
  37.2500420  62.5771470  24.3831602  37.5600185  62.7860359  25.8501854
  36.9757979  76.2489385  13.8387746  37.9088652  76.1834946  14.0420621
  36.8881192  77.0845651  13.3802279  39.6045995  75.5655255  10.7991694
  39.5259627  75.2315119  11.6927451  40.4255662  76.0577023  10.7983166
  42.3024187  68.4316994  24.0068012  42.2700507  67.4932995  24.1927696
  42.9124810  68.5101031  23.2733837  34.1407517  67.3013047  10.0495216
  35.0866622  67.1719255  10.1183634  33.7621762  66.5627709  10.5264644
  42.4518675  65.2228038  24.0526295  41.9357724  64.4386494  23.8656224
  43.3358624  64.8946754  24.2172815  40.1129402  58.9669053  20.0122108
  39.9154223  58.6584141  20.8965440  40.7229108  59.6930692  20.1420038
  48.1200736  69.4933001  23.1474049  48.8504125  69.2318289  23.7081752
  47.5107682  68.7561723  23.1876117  46.2016034  67.6340864  23.7448500
  45.4749197  67.4996829  23.1364992  45.7863320  67.9417692  24.5505218
  34.0246210  71.3530793  31.5095873  34.9449219  71.5309392  31.7035920
  33.9895793  70.4086839  31.3575572  32.3250435  65.2263024   9.9850101
  31.4181890  64.9296136  10.0612815  32.6026416  64.9292842   9.1184388
  23.2428375  66.5469387  20.4349148  22.9231159  65.6934695  20.1423522
  22.6961803  66.7617965  21.1907115  27.0208282  69.2631828  24.1518654
  27.2394292  70.1948936  24.1706688  27.4334056  68.9039802  24.9373458
  33.9412500  59.7699913  16.1394343  33.1313229  59.4246998  16.5149589
  34.6296917  59.4607457  16.7281954  35.8703049  58.8477960  17.7618639
  36.4234087  59.2673414  18.4208662  36.1073135  57.9213708  17.8041595
  31.8936148  64.8365034  33.5421403  31.7932875  65.7859391  33.4733494
  31.6757690  64.5083273  32.6697473  31.0949219  62.0849959  10.1262081
  31.9568383  62.4104857  10.3857898  31.2799563  61.2981455   9.6135146
  23.1116635  70.1672298  22.4042269  22.4180106  69.7526251  21.8912224
  23.8589626  70.2092835  21.8075688  39.2481856  60.9578485  17.2697304
  38.6680525  61.6163289  16.8875356  38.9817788  60.1355830  16.8584721
  37.6985422  60.3583543  19.4718624  38.1985200  60.4700078  18.6632943
  38.3421030  60.0544596  20.1119432  31.7567418  68.2662173  32.3586465
  31.2734500  69.0662533  32.5650354  31.8428357  68.2770117  31.4053909
  25.0253377  70.0990552  20.2808284  25.0024066  70.1978240  19.3290167
  25.3354014  70.9455703  20.6025450  27.6840755  72.1566707  24.3954899
  28.6384009  72.1250650  24.3284830  27.4853279  71.6957331  25.2105125
  28.2740137  70.7267823  26.9625696  29.0933026  71.2211902  26.9860534
  28.5476945  69.8099791  26.9343264  38.0306734  63.1178576  16.3253652
  37.1432589  63.4028226  16.1073847  38.4460723  62.9572339  15.4780929
  41.3821270  63.1425097  20.0407991  42.1581660  63.6321549  20.3132608
  40.6569404  63.5683151  20.4979861  43.8193828  63.8552716  21.0981932
  44.4138319  63.6148452  20.3875240  43.8920412  63.1359846  21.7255468
  26.0390984  77.6986327  21.4125097  25.9045452  76.9386728  20.8463095
  25.6223046  78.4227227  20.9453885  37.1749947  72.8823250  10.4201672
  37.8785797  73.0873253  11.0359327  36.4512596  73.4500012  10.6850755
  38.0047757  68.6333112  16.5403942  37.9482959  69.0901663  15.7011574
  38.5576100  67.8723796  16.3626785  41.8152563  64.4222843  17.3654061
  41.5589498  64.0219479  18.1962269  41.1905431  65.1366637  17.2404201
  46.1264901  67.1618917  19.8725353  45.5664459  67.2312106  20.6456915
  45.5208405  66.9859901  19.1524849  29.1960110  78.5955644  21.6243539
  29.0792494  79.5401076  21.5222229  28.3752556  78.2929205  22.0129338
  39.0836645  73.3205780  12.4700132  39.9182248  72.8886978  12.2877607
  38.9220987  73.1487793  13.3977026  38.7382537  69.8237893  13.8356471
  38.6831341  69.6582164  12.8944915  38.1128592  70.5313926  13.9918661
  23.5275052  65.0605957  27.6617893  24.1733915  64.5504911  28.1505119
  23.3192203  65.7974639  28.2361319  36.0528444  72.1286805  33.1610034
  36.9219604  72.3027457  32.7996669  35.5735195  72.9481222  33.0385763
  32.0478662  59.3246002  13.4141790  32.0357332  60.2687842  13.5710060
  32.9402084  59.1416147  13.1201251  30.2214624  79.2483906  24.8399468
  31.1241871  79.2807516  25.1565963  29.9951994  78.3184357  24.8545803
  31.9768226  78.0014892  21.5009546  31.0263857  78.0016754  21.3873919
  32.2800712  77.2547627  20.9845581  35.8630782  55.9188778  17.6687726
  35.0963177  55.3647265  17.8144409  36.2741487  55.9910647  18.5301878
  27.8672543  62.2073574  31.7592908  28.7304004  61.8510379  31.9696232
  27.2937953  61.8687469  32.4468312  47.7120920  83.8375431  22.5655309
  48.3499330  83.7182178  21.8618649  47.5941763  84.7856275  22.6243261
  44.5210626  83.7902859  22.5016833  44.1829137  83.6743923  21.6137368
  45.3900394  83.3894024  22.4817839  40.3797442  85.6438335  18.4913724
  39.8162307  85.5528272  17.7230012  40.2649837  84.8238240  18.9716217
  45.0030409  84.9437710  28.4603039  44.9919050  84.5490509  27.5883543
  45.1651048  84.2103783  29.0536810  37.9261874  87.1389527  21.3297945
  38.7183165  86.7980351  20.9144244  38.1658524  87.2484502  22.2500098
  45.9597000  89.3109303  13.8028189  45.3084980  89.8963383  13.4162203
  46.7541363  89.8415498  13.8623227  39.8852627  86.3998440  14.2015324
  40.6583503  85.8527427  14.0628199  40.2378026  87.2642689  14.4129785
  41.7237670  87.7274822  27.4082223  41.4327536  88.6320453  27.2928889
  42.3594654  87.7691350  28.1226292  42.6493877  85.1051671  23.9983582
  43.2457449  84.8807693  23.2840545  42.7068848  84.3636416  24.6009030
  42.2218905  82.5591106  11.8333773  42.4744426  82.0372627  11.0717236
  41.2843464  82.3957252  11.9360457  47.2662188  81.5626884  19.6408517
  48.0525277  81.1446308  19.2898934  47.5300892  82.4672977  19.8090165
  47.4372265  86.9999735  14.3397173  46.8018098  87.0734361  15.0518078
  47.1069672  87.5893334  13.6616253  52.6670615  81.5002118  20.5441495
  53.3995787  80.9301335  20.7779325  51.9109971  81.1123718  20.9848001
  41.9415194  84.4619212  14.0358148  41.8251452  83.7864115  14.7039233
  42.0517454  83.9751586  13.2190301  44.2846735  83.9229359  17.7404838
  43.9204942  83.3959980  18.4517759  45.1413851  83.5327828  17.5671323
  50.1896036  75.2123692  25.0036104  49.8579360  76.0819103  24.7797319
  49.5941649  74.8959976  25.6830134  43.9252222  78.9519259  12.7366186
  44.0926624  79.8199495  13.1036657  43.7349391  79.1146541  11.8127475
  46.6827555  87.4136238  24.4032017  46.3828278  88.3161277  24.2947824
  46.3378615  87.1468421  25.2553169  40.1340037  83.8650035  20.4368721
  39.2090533  83.7326249  20.6446413  40.3824450  84.6444254  20.9338663
  50.0824699  79.9318778  22.0829454  49.1741576  79.8634186  21.7888215
  50.0312295  80.4090723  22.9111279  43.9041443  81.4076916  13.7212853
  43.7841068  81.8533967  14.5598333  43.2094031  81.7562234  13.1626391
  37.4948848  83.5083308  21.2712510  37.6241229  83.7617787  22.1851922
  36.8146299  84.1011016  20.9517165  41.6648335  94.1780558  17.3702984
  41.5872365  95.1288383  17.4491465  41.0609979  93.8326431  18.0277911
  44.1565565  81.3508424  30.0264351  43.3798899  81.9102344  30.0167216
  44.7956128  81.8365207  30.5479221  51.9486345  78.1335216  23.8607328
  51.3060726  78.4267750  23.2147122  51.4441274  78.0188137  24.6660524
  49.6026509  81.8798390  14.5493187  50.5144365  82.1125776  14.3740885
  49.0936156  82.4635434  13.9868266  42.4111937  84.1593877  29.5882318
  43.1526621  84.6978921  29.3117142  41.7048922  84.7860166  29.7453870
  47.8867277  86.3023017  28.1854480  48.2950633  85.8605428  27.4409112
  47.1644538  85.7275645  28.4388672  44.2398347  81.2395624  25.5588037
  45.0859542  81.6635038  25.7022686  44.1796984  80.5829248  26.2526600
  48.2096091  86.8624208  21.9406768  47.5804954  87.0269922  21.2382836
  47.8221753  87.2765818  22.7117733  52.0885323  87.7978646  19.2951132
  51.4036361  88.1777547  18.7448166  52.1729172  88.4073973  20.0283080
  47.3897792  78.8999993  27.2169210  47.1458724  79.6542053  26.6803486
  47.6657723  79.2785340  28.0516457  49.3436255  85.4438605  25.8946476
  49.5553150  86.0870365  25.2180857  49.2966003  84.6100921  25.4268406
  46.9462484  78.0556426  22.7983048  46.0846963  78.3537679  23.0899785
  46.9724918  78.2726824  21.8664081  43.7624053  86.5998616  19.2056854
  44.2262399  86.8786319  18.4161476  43.4980851  85.6982061  19.0229944
  40.6548134  86.1470098  22.1436617  41.2249491  86.5757366  21.5054101
  41.2456246  85.8652682  22.8420802  42.6992939  82.7221768  16.0146419
  43.4016983  83.1742812  16.4820345  42.3673568  82.0805587  16.6426312
  41.1473301  81.3133525  30.3897628  40.5171961  81.9949806  30.6233025
  41.0409389  81.2016607  29.4450766  36.4418273  80.9805321  21.3163552
  35.6517327  81.2362850  20.8403663  36.9329521  81.7953659  21.4215593
  50.4582083  88.3210560  24.0668833  51.2799526  87.9190748  23.7851515
  50.4544486  88.2178794  25.0184949  38.3933019  81.3449900  18.2747029
  37.5964182  81.4568595  18.7930525  38.1658611  81.6836553  17.4087919
  44.2238686  87.8694604  26.2229544  44.2883119  88.3315011  27.0587715
  43.5149610  87.2391969  26.3511853  34.7255976  81.2335812  23.7478543
  34.9764015  82.1182822  24.0136119  35.2615525  81.0540413  22.9753635
  58.5488076  84.6649309  20.4153805  57.7951784  84.0956707  20.2597809
  58.6835617  84.6311973  21.3624439  43.9386704  89.5362711  16.0908524
  43.8032379  90.3814247  16.5193372  44.4796516  89.7381989  15.3274458
  40.4254043  75.6154291  32.7522879  40.0320989  75.0620490  33.4270523
  41.2420184  75.9264869  33.1429397  37.3916101  87.0538149  16.6636449
  37.9040622  87.8481399  16.8142014  38.0438814  86.3564440  16.5970050
  39.2010986  90.1703905  18.7459202  39.3777614  91.0921870  18.5580186
  39.9967819  89.8562325  19.1753582  43.3422004  77.0312170  30.3443136
  44.0831718  77.6319323  30.2647598  43.5739927  76.2889808  29.7861178
  38.4863342  82.2168537  28.6221365  38.3716858  81.3153795  28.9228464
  37.6307860  82.4632234  28.2706182  45.5655180  90.1586278  30.2208866
  45.1219034  89.3722656  29.9029771  46.2272394  90.3465428  29.5552757
  40.3242301  91.6882079  24.7469545  40.8749727  91.5599143  23.9746538
  39.4853777  91.9876968  24.3964437  47.6636418  90.4389078  28.2490267
  47.6454894  91.2597959  27.7570536  48.5856338  90.3143153  28.4740408
  44.1209472  87.9533207  29.0913776  44.6537809  87.1921495  28.8613084
  43.5923554  87.6606859  29.8337930  47.2879167  73.0593273  24.6207417
  46.9443437  73.9494915  24.5446528  47.6558130  72.8694931  23.7577002
  35.3565018  85.3826803  17.4396020  36.1940240  85.7923812  17.2229727
  35.5343286  84.4426246  17.4096213  47.2529450  83.0501884  13.1279853
  46.7376074  83.8206489  13.3668240  46.9806759  82.3767020  13.7512914
  44.8376561  77.8951585  18.1865091  43.9818158  77.5058435  18.0070730
  45.2503513  77.9743546  17.3264876  46.3675708  75.4297928  22.5856651
  45.8640503  75.3928063  21.7724456  46.6606315  76.3390671  22.6453307
  42.6118594  75.5136658  21.5922832  43.4771590  75.3179467  21.2328722
  42.6796103  75.2847010  22.5192189  52.2263724  85.8034239  15.0633026
  51.4493167  85.4645398  14.6188188  52.9055205  85.8086862  14.3887991
  47.0415753  80.9228976  14.9539634  46.7365889  81.2375125  15.8049777
  47.9946195  81.0010396  14.9966967  45.4862185  87.0819200  16.6032588
  44.9583547  86.3471959  16.2905825  44.9849688  87.8593876  16.3572556
  50.4655031  85.2768220  21.7199634  49.8078706  85.9667481  21.8079763
  51.2695430  85.6664652  22.0633620  40.2180913  77.7438866  18.9639199
  40.7924665  77.5214047  18.2312392  40.8051895  77.8127560  19.7167800
  49.2760490  83.6312593  19.7703576  49.7892372  84.2642585  20.2725285
  49.9261714  83.0313788  19.4046936  40.5450500  79.7743327  12.9835084
  39.7087812  80.1118013  13.3044359  40.4055270  79.6392307  12.0462221
  42.5203580  74.6180115  17.6914269  41.8667993  74.3029132  17.0670883
  42.4784055  73.9955855  18.4174092  43.6314785  84.8999410   9.6067561
  42.7241847  84.6688663   9.8058710  44.1285817  84.1037029   9.7941542
  46.5382864  93.6096917  12.5264247  45.8644563  93.9128614  13.1349205
  46.9248686  94.4125997  12.1769704  45.7541321  81.1062048  22.0161916
  44.8363882  81.3276995  21.8583604  46.1701464  81.1808359  21.1573624
  46.5376369  82.5053464  17.1464597  47.2848188  83.0174861  16.8371719
  46.8067958  82.1837517  18.0068990  44.8103019  85.0012005  14.1291551
  43.9014238  84.7171037  14.2264021  44.8398103  85.4211083  13.2694858
  50.0422286  88.6118594  17.8982718  49.5884613  87.7709504  17.9547909
  49.4116253  89.2479993  18.2357499  48.9855206  79.5410580  19.1283386
  48.2477963  79.0287966  19.4593628  49.2381979  79.1010962  18.3166663
  48.4855225  90.4495091  18.8332536  48.7778200  91.0100148  18.1144902
  48.9953846  90.7423652  19.5885696  49.0866833  72.3186832  19.7225155
  49.3925710  71.4584196  19.4351070  49.8119438  72.9104452  19.5224149
  35.3791189  82.7217519  18.1106753  35.1815589  82.1286879  17.3857820
  34.8237853  82.4169729  18.8282692  43.3587913  82.6140625  20.2301346
  43.4136523  81.6614462  20.1543823  42.5479115  82.7700064  20.7142645
  44.5079107  86.5420748  11.4679629  44.0698536  85.8256607  11.0085267
  45.2489547  86.7696863  10.9064721  41.2980273  81.2317685  17.9891725
  40.4848138  81.5311856  18.3956917  41.7939267  80.8373374  18.7066207
  43.4488851  91.2275442  19.9225990  43.4065029  91.4536288  18.9934522
  44.3651549  90.9938816  20.0711791  46.8954484  81.6959509  26.8206619
  47.2503872  81.9230983  27.6801085  47.5426616  82.0277886  26.1983874
  52.6252221  84.8177945  17.5255948  52.4870120  85.0079541  16.5977137
  52.2688440  85.5797328  17.9823999  40.7894347  78.8036041  23.6052960
  41.4293727  78.6624800  22.9075923  39.9571878  78.5170554  23.2291562
  52.6521601  86.8854472  22.5367219  53.0858108  86.7929761  23.3850273
  53.3653182  86.8611973  21.8987235  41.5654651  88.1038471  19.7187952
  42.3595250  87.6088791  19.5170527  40.8546344  87.5756334  19.3555658
  46.3849496  90.4856566  24.0700320  46.4386518  91.0547503  24.8378036
  45.5164277  90.6558451  23.7054357  37.8737415  82.2481553  15.7947705
  36.9435003  82.1866008  16.0117667  37.9694887  81.7257505  14.9984346
  37.7922964  78.7736365  18.3825947  38.0529781  79.6881699  18.2735107
  38.6140136  78.3060808  18.5322560  39.2647889  80.1874123  25.5524771
  39.9370943  79.9791485  24.9037420  38.4377676  79.9896209  25.1130004
  53.5137151  86.9278173  25.0700105  53.7073041  87.8323984  25.3159380
  53.4137769  86.4685592  25.9038690  45.1673461  76.8136064  27.5690432
  44.5201376  77.5126013  27.4754909  45.9374477  77.2472208  27.9366680
  48.5752259  87.0784916  30.6440985  48.4237766  86.8495467  29.7271069
  48.5656939  88.0355517  30.6572330  45.3437596  84.6516828  25.6287252
  46.2729656  84.8027988  25.4556219  44.9228626  84.7400849  24.7735898
  44.1425927  88.6767493  23.3985790  44.0037013  88.3086277  24.2711728
  43.3540524  89.1915132  23.2269747  44.7374079  93.7776589  14.7411326
  44.9125835  93.3064633  15.5556949  44.0506867  94.4042356  14.9692587
  45.6931143  88.0549096  20.7874627  45.3580975  88.0149866  21.6832277
  45.1935088  87.3893812  20.3145038  39.6675386  83.4616726  26.3127208
  39.5295184  82.7296964  26.9138748  40.5780310  83.3725626  26.0311396
  48.6290334  85.4005130  11.0611687  48.0119505  84.6751958  10.9644740
  48.1606823  86.1614490  10.7178761  42.2957687  83.1736685  25.8010888
  43.0057306  82.5329877  25.7597507  42.2526995  83.4249580  26.7237069
  50.2844466  90.1104038  28.7217467  50.2257012  89.4263258  28.0548050
  50.6863984  90.8523028  28.2698093  41.0086621  80.1601903  27.6206528
  40.4723978  79.7092641  28.2728124  40.4203330  80.2947812  26.8776992
  39.3035165  96.9265952  21.5151186  39.5431763  97.5584476  22.1930205
  38.4604361  96.5753992  21.8016545  40.4188880  79.6190554  10.1832991
  39.5418346  79.4979355   9.8195238  40.8946633  78.8276633   9.9311880
  50.2861873  88.0743622  26.9531447  49.3988652  87.7369544  27.0757846
  50.8560424  87.3426653  27.1900212  31.9391020  84.4067714  20.2774498
  32.6262060  84.0929444  19.6895514  31.7839149  85.3109079  20.0041750
  36.7425742  79.2957911  24.7059522  36.6583931  78.6883580  23.9709932
  35.9208449  79.7866929  24.7069018  43.8163027  92.7345075  23.9192690
  43.7433198  93.5400046  24.4311995  43.3740420  92.9337040  23.0940712
  43.6052806  91.9716845  17.4295512  42.8220328  92.5138525  17.5233736
  44.3045551  92.4890824  17.8289753  46.9149456  77.7811474  20.0729717
  47.4118156  77.0281436  19.7530787  46.1436438  77.8175791  19.5072926
  54.7679214  83.4851840  21.7148009  54.7569090  84.3676555  21.3441942
  53.8996593  83.1323390  21.5202546  46.2761710  92.6331909  26.0750849
  46.9889682  93.2679373  26.0026750  45.7851739  92.7295775  25.2590851
  47.9979237  86.5383161  17.6468141  47.0635516  86.6584624  17.4772845
  48.1755905  85.6355628  17.3828150  43.4984425  79.9228857  19.8001402
  43.1282213  79.3699897  20.4882307  43.9943517  79.3186991  19.2476402
  51.3851788  82.3800481  18.1818175  51.8512240  83.2128472  18.1078477
  51.8359289  81.9145462  18.8863433  41.3273624  90.3826352  26.8956420
  42.0283083  91.0162835  27.0485814  40.8568739  90.7241084  26.1352059
  49.4528019  88.7244302  15.1804327  49.7287863  88.6100896  16.0898201
  48.5832518  88.3261787  15.1416500  49.3568451  74.7481068  22.2209076
  48.4431531  74.9785294  22.3891283  49.7861552  74.8319512  23.0723108
  49.1274910  82.9370960  24.7208970  48.4746360  83.1846867  24.0661423
  49.5055289  82.1235098  24.3871447  46.0882083  92.9730653  18.8237140
  46.2704478  92.1552309  19.2864893  46.9115069  93.1898345  18.3862030
  46.4224249  91.8998838  16.0852189  46.9512015  91.3891292  15.4722351
  46.6852468  91.5841368  16.9497722  45.1762483  83.6790771  31.2075007
  44.5003120  83.5784900  31.8777382  45.9990116  83.5229984  31.6711004
  36.9241342  89.9162707  23.8287522  37.5094778  89.1706395  23.9615427
  36.7266180  90.2266664  24.7124186  39.7779997  92.9513955  18.8449965
  39.1090372  93.4360082  18.3614005  39.6392867  93.1983175  19.7593343
  31.5158996  82.4868307  22.5491966  31.5543096  81.9531898  23.3429084
  31.0099289  81.9603513  21.9302943  43.9185265  94.9857698  25.4432623
  44.4703573  95.1489320  26.2081708  44.2591459  95.5762136  24.7712648
  38.8949759  77.3332848  26.0454508  38.9591085  78.1947679  25.6331906
  38.8316879  76.7206849  25.3126866  38.3702031  79.4055980  29.6927542
  38.9974070  79.0233058  30.3065066  37.5129950  79.1870182  30.0583235
  48.7696140  89.8118956  31.2981278  49.3136044  90.4248914  30.8036232
  48.1882985  90.3698534  31.8148291  35.1467574  81.2132409  15.6245897
  35.4421015  80.3043088  15.5712951  34.2455610  81.1920149  15.3026899
  47.0553653  92.9339674  22.4296305  46.9304792  92.1329413  21.9207251
  47.7132744  93.4285867  21.9410275  38.6761821  79.2888406  21.6073446
  37.9548407  79.9024374  21.4680919  39.4655077  79.8246171  21.5290091
  49.1188561  90.7348694  24.0575855  48.1718897  90.6154045  23.9854182
  49.4671334  89.8471192  24.1402117  41.4788134  76.6242833  27.8814097
  42.0022536  76.8705129  28.6440407  41.2600468  77.4562867  27.4617235
  36.8755416  78.8946507  15.7485222  36.5468122  78.0143886  15.5660328
  37.2294786  78.8394176  16.6361611  46.1234994  90.5301410  20.2580208
  45.9759957  89.6018117  20.4387778  46.9488488  90.5521501  19.7737283
  39.9897239  79.1819477  16.1160700  40.3293311  79.7105398  15.3939308
  40.4369359  79.5199883  16.8919266  49.7269116  91.3529969  21.3445080
  50.6515664  91.1472830  21.2069531  49.5584420  91.1046370  22.2534422
  42.6840680  77.5656528  25.5663768  42.3437500  76.7664341  25.9684448
  41.9779686  77.8658239  24.9940601  43.3357151  74.6505840  24.0191091
  44.1583221  74.1766318  23.8969981  43.5795215  75.4296324  24.5189777
  41.9765386  77.6794099  14.3153992  42.6973748  78.0575351  13.8117709
  41.3530690  78.3982975  14.4188970  46.1196509  78.3839248  15.2512325
  46.3360123  79.2663885  14.9501153  45.6390576  77.9925461  14.5217967
  40.8595730  81.3424961  21.8283069  40.7140311  81.6565264  22.7207351
  40.3820934  81.9609861  21.2753968  42.7192113  78.3327509  21.8763959
  42.7053682  77.4368602  21.5396257  43.4364541  78.3398172  22.5102245
  44.5718244  78.7664849  23.9217086  44.3136022  79.6881920  23.9201417
  44.0403284  78.3695283  24.6117551  49.5164432  91.8715636  16.7007172
  49.6901310  91.3062059  15.9481024  50.0093324  92.6716531  16.5186662
  35.3341392  83.8830305  24.7670731  34.7894860  84.6590113  24.8991005
  36.2120742  84.2301110  24.6089852  42.1229009  77.2141889  17.1451529
  42.2444920  76.2858535  17.3442417  41.8331051  77.2280575  16.2329845
  44.9920199  74.8996799  20.2818249  45.0141896  74.9636133  19.3270229
  45.4088258  74.0601308  20.4758755  55.3703824  84.6352059  18.3197472
  55.8134970  83.8859384  17.9216595  54.4930334  84.6262195  17.9371204
  50.5039605  91.1882400  13.8004070  51.1990510  91.8089093  14.0191385
  50.8462755  90.3377752  14.0756448  36.1207414  83.0100201  27.6600887
  35.3789150  83.1582837  28.2465518  35.8000158  83.2708467  26.7967637
  52.4031028  88.6382106  15.3291401  52.9282352  88.9769379  14.6040721
  52.3153381  87.7029121  15.1454535  44.0651077  92.5516180  27.4581277
  44.3738203  92.3065326  28.3303977  44.8626559  92.7562818  26.9700148
  44.0871689  94.7054089  19.6886654  43.6476679  94.2130468  20.3819511
  44.8379806  94.1627057  19.4478729  36.5664028  90.8965630  19.6911282
  37.3922048  90.5969402  19.3109926  36.2158080  90.1273253  20.1401071
  41.5345561  90.2492098  21.7608956  40.9125570  89.5862803  21.4611184
  42.2050428  90.2753230  21.0782603  34.7672633  88.8151957  20.6500216
  33.9304541  88.3874131  20.4684217  34.7396278  89.0084400  21.5871007
  41.6070088  78.7273886  31.3541462  41.6558244  79.6036009  30.9719231
  42.1492603  78.1851279  30.7813105  52.0924934  89.2715010  30.6342599
  51.3020478  89.2539148  30.0947098  51.8558289  89.8103303  31.3891635
  52.2122809  86.1207476  27.9475327  52.2620814  85.9557483  28.8890850
  52.1036733  85.2534735  27.5573208  41.0959068  88.7996022  15.2367416
  41.2447188  89.4831486  14.5834089  41.9025511  88.7801112  15.7516872
  49.5026572  82.1038404  29.2634634  50.4036434  81.9644869  28.9718632
  49.5774546  82.2692859  30.2032811  43.8369377  79.4805259  28.1087820
  42.9672686  79.7738825  27.8370409  44.0728857  80.0645704  28.8295084
  53.7141006  88.5404418  28.1917349  53.4225814  88.9034398  29.0280810
  53.1013137  87.8271426  28.0130681  54.9136688  86.1057297  20.7119919
  55.7483580  86.5447101  20.8757479  55.0495817  85.6295951  19.8928165
  51.9628194  83.6637032  26.6597407  52.4382316  83.8564678  25.8516258
  51.0393760  83.7196218  26.4140791  38.8511701  84.8261199  16.2428485
  38.6057743  83.9223529  16.4408695  39.0207615  84.8278350  15.3007963
  46.5408411  75.6984876  25.6253241  47.0590355  76.4345903  25.2999729
  46.1863543  76.0048869  26.4600000  38.1207348  80.5589557  13.7414647
  37.4276593  80.6333912  13.0854683  37.8759100  79.7949901  14.2636164
  46.7921005  72.1185158  21.1454137  47.0722759  71.4508347  21.7714564
  47.5771612  72.3114254  20.6328801  44.5954473  91.2944152  12.7079164
  44.0228440  91.9134339  12.2549636  45.1687267  91.8443514  13.2419086
  50.6629863  80.5402792  24.8925712  51.6147286  80.6400890  24.9137937
  50.4933314  79.7481061  25.4023797  48.6844243  77.6258375  25.0785113
  48.0894175  77.9063388  24.3831602  48.3993939  78.1152276  25.8501854
  47.8151733  91.5781302  13.8387746  48.7482406  91.5126864  14.0420621
  47.7274946  92.4137569  13.3802279  50.4439750  90.8947173  10.7991694
  50.3653381  90.5607036  11.6927451  51.2649417  91.3868941  10.7983166
  53.1417941  83.7608912  24.0068012  53.1094261  82.8224913  24.1927696
  53.7518565  83.8392949  23.2733837  44.9801272  82.6304965  10.0495216
  45.9260377  82.5011173  10.1183634  44.6015517  81.8919627  10.5264644
  53.2912430  80.5519955  24.0526295  52.7751478  79.7678412  23.8656224
  54.1752378  80.2238672  24.2172815  50.9523156  74.2960971  20.0122108
  50.7547978  73.9876059  20.8965440  51.5622862  75.0222610  20.1420038
  58.9594491  84.8224919  23.1474049  59.6897879  84.5610207  23.7081752
  58.3501436  84.0853641  23.1876117  57.0409788  82.9632781  23.7448500
  56.3142952  82.8288746  23.1364992  56.6257075  83.2709610  24.5505218
  44.8639964  86.6822711  31.5095873  45.7842974  86.8601310  31.7035920
  44.8289547  85.7378756  31.3575572  43.1644189  80.5554941   9.9850101
  42.2575644  80.2588054  10.0612815  43.4420170  80.2584759   9.1184388
  34.0822129  81.8761305  20.4349148  33.7624914  81.0226613  20.1423522
  33.5355558  82.0909883  21.1907115  37.8602037  84.5923746  24.1518654
  38.0788047  85.5240853  24.1706688  38.2727811  84.2331720  24.9373458
  44.7806255  75.0991831  16.1394343  43.9706983  74.7538916  16.5149589
  45.4690672  74.7899375  16.7281954  46.7096803  74.1769878  17.7618639
  47.2627842  74.5965331  18.4208662  46.9466889  73.2505626  17.8041595
  42.7329902  80.1656951  33.5421403  42.6326629  81.1151308  33.4733494
  42.5151444  79.8375190  32.6697473  41.9342974  77.4141876  10.1262081
  42.7962138  77.7396775  10.3857898  42.1193318  76.6273372   9.6135146
  33.9510389  85.4964216  22.4042269  33.2573861  85.0818169  21.8912224
  34.6983380  85.5384753  21.8075688  50.0875610  76.2870403  17.2697304
  49.5074279  76.9455207  16.8875356  49.8211543  75.4647748  16.8584721
  48.5379177  75.6875461  19.4718624  49.0378955  75.7991995  18.6632943
  49.1814784  75.3836514  20.1119432  42.5961172  83.5954090  32.3586465
  42.1128254  84.3954450  32.5650354  42.6822111  83.6062035  31.4053909
  35.8647132  85.4282470  20.2808284  35.8417820  85.5270157  19.3290167
  36.1747768  86.2747621  20.6025450  38.5234510  87.4858625  24.3954899
  39.4777763  87.4542567  24.3284830  38.3247033  87.0249249  25.2105125
  39.1133892  86.0559741  26.9625696  39.9326781  86.5503820  26.9860534
  39.3870700  85.1391709  26.9343264  48.8700488  78.4470493  16.3253652
  47.9826343  78.7320144  16.1073847  49.2854477  78.2864257  15.4780929
  52.2215024  78.4717014  20.0407991  52.9975414  78.9613467  20.3132608
  51.4963158  78.8975069  20.4979861  54.6587583  79.1844634  21.0981932
  55.2532074  78.9440369  20.3875240  54.7314167  78.4651764  21.7255468
  36.8784739  93.0278244  21.4125097  36.7439207  92.2678645  20.8463095
  36.4616801  93.7519144  20.9453885  48.0143702  88.2115168  10.4201672
  48.7179552  88.4165171  11.0359327  47.2906350  88.7791930  10.6850755
  48.8441512  83.9625029  16.5403942  48.7876713  84.4193581  15.7011574
  49.3969854  83.2015714  16.3626785  52.6546318  79.7514761  17.3654061
  52.3983252  79.3511397  18.1962269  52.0299186  80.4658555  17.2404201
  56.9658656  82.4910834  19.8725353  56.4058214  82.5604024  20.6456915
  56.3602159  82.3151819  19.1524849  40.0353864  93.9247561  21.6243539
  39.9186249  94.8692994  21.5222229  39.2146311  93.6221123  22.0129338
  49.9230399  88.6497697  12.4700132  50.7576003  88.2178896  12.2877607
  49.7614742  88.4779711  13.3977026  49.5776291  85.1529811  13.8356471
  49.5225095  84.9874082  12.8944915  48.9522346  85.8605843  13.9918661
  34.3668806  80.3897875  27.6617893  35.0127670  79.8796829  28.1505119
  34.1585957  81.1266557  28.2361319  46.8922198  87.4578722  33.1610034
  47.7613358  87.6319375  32.7996669  46.4128950  88.2773139  33.0385763
  42.8872417  74.6537920  13.4141790  42.8751086  75.5979759  13.5710060
  43.7795839  74.4708065  13.1201251  41.0608379  94.5775823  24.8399468
  41.9635625  94.6099434  25.1565963  40.8345749  93.6476274  24.8545803
  42.8161981  93.3306810  21.5009546  41.8657612  93.3308672  21.3873919
  43.1194467  92.5839545  20.9845581  46.7024536  71.2480696  17.6687726
  45.9356932  70.6939183  17.8144409  47.1135241  71.3202565  18.5301878
  38.7066297  77.5365492  31.7592908  39.5697759  77.1802297  31.9696232
  38.1331708  77.1979387  32.4468312  58.5514674  99.1667348  22.5655309
  59.1893084  99.0474096  21.8618649  58.4335517 100.1148192  22.6243261
  55.3604380  99.1194776  22.5016833  55.0222892  99.0035841  21.6137368
  56.2294149  98.7185942  22.4817839  51.2191196 100.9730253  18.4913724
  50.6556061 100.8820190  17.7230012  51.1043591 100.1530157  18.9716217
  55.8424163 100.2729628  28.4603039  55.8312804  99.8782426  27.5883543
  56.0044803  99.5395701  29.0536810  48.7655628 102.4681444  21.3297945
  49.5576920 102.1272269  20.9144244  49.0052278 102.5776419  22.2500098
  56.7990755 104.6401221  13.8028189  56.1478735 105.2255301  13.4162203
  57.5935118 105.1707415  13.8623227  50.7246382 101.7290358  14.2015324
  51.4977258 101.1819345  14.0628199  51.0771781 102.5934607  14.4129785
  52.5631425 103.0566740  27.4082223  52.2721291 103.9612371  27.2928889
  53.1988409 103.0983268  28.1226292  53.4887631 100.4343588  23.9983582
  54.0851204 100.2099611  23.2840545  53.5462603  99.6928334  24.6009030
  53.0612660  97.8883024  11.8333773  53.3138180  97.3664545  11.0717236
  52.1237219  97.7249169  11.9360457  58.1055943  96.8918802  19.6408517
  58.8919032  96.4738225  19.2898934  58.3694647  97.7964894  19.8090165
  58.2766020 102.3291652  14.3397173  57.6411853 102.4026279  15.0518078
  57.9463426 102.9185251  13.6616253  63.5064370  96.8294035  20.5441495
  64.2389542  96.2593252  20.7779325  62.7503725  96.4415636  20.9848001
  52.7808949  99.7911130  14.0358148  52.6645207  99.1156033  14.7039233
  52.8911208  99.3043504  13.2190301  55.1240489  99.2521277  17.7404838
  54.7598697  98.7251898  18.4517759  55.9807605  98.8619746  17.5671323
  61.0289790  90.5415609  25.0036104  60.6973115  91.4111020  24.7797319
  60.4335403  90.2251893  25.6830134  54.7645976  94.2811177  12.7366186
  54.9320379  95.1491413  13.1036657  54.5743146  94.4438458  11.8127475
  57.5221310 102.7428155  24.4032017  57.2222033 103.6453194  24.2947824
  57.1772369 102.4760339  25.2553169  50.9733791  99.1941952  20.4368721
  50.0484288  99.0618166  20.6446413  51.2218204  99.9736172  20.9338663
  60.9218453  95.2610696  22.0829454  60.0135331  95.1926104  21.7888215
  60.8706049  95.7382641  22.9111279  54.7435197  96.7368834  13.7212853
  54.6234823  97.1825885  14.5598333  54.0487786  97.0854152  13.1626391
  48.3342602  98.8375226  21.2712510  48.4634983  99.0909705  22.1851922
  47.6540053  99.4302934  20.9517165  52.5042089 109.5072476  17.3702984
  52.4266119 110.4580301  17.4491465  51.9003733 109.1618348  18.0277911
  54.9959319  96.6800341  30.0264351  54.2192653  97.2394261  30.0167216
  55.6349882  97.1657124  30.5479221  62.7880100  93.4627134  23.8607328
  62.1454480  93.7559667  23.2147122  62.2835028  93.3480054  24.6660524
  60.4420263  97.2090307  14.5493187  61.3538120  97.4417694  14.3740885
  59.9329911  97.7927351  13.9868266  53.2505691  99.4885795  29.5882318
  53.9920376 100.0270839  29.3117142  52.5442677 100.1152083  29.7453870
  58.7261031 101.6314935  28.1854480  59.1344387 101.1897346  27.4409112
  58.0038293 101.0567563  28.4388672  55.0792101  96.5687542  25.5588037
  55.9253296  96.9926955  25.7022686  55.0190739  95.9121166  26.2526600
  59.0489846 102.1916126  21.9406768  58.4198708 102.3561840  21.2382836
  58.6615508 102.6057735  22.7117733  62.9279078 103.1270564  19.2951132
  62.2430116 103.5069465  18.7448166  63.0122927 103.7365890  20.0283080
  58.2291547  94.2291910  27.2169210  57.9852478  94.9833971  26.6803486
  58.5051477  94.6077258  28.0516457  60.1830009 100.7730523  25.8946476
  60.3946905 101.4162282  25.2180857  60.1359758  99.9392839  25.4268406
  57.7856238  93.3848343  22.7983048  56.9240717  93.6829597  23.0899785
  57.8118673  93.6018742  21.8664081  54.6017808 101.9290534  19.2056854
  55.0656153 102.2078237  18.4161476  54.3374606 101.0273978  19.0229944
  51.4941889 101.4762015  22.1436617  52.0643246 101.9049284  21.5054101
  52.0850001 101.1944600  22.8420802  53.5386694  98.0513686  16.0146419
  54.2410737  98.5034730  16.4820345  53.2067322  97.4097505  16.6426312
  51.9867055  96.6425443  30.3897628  51.3565716  97.3241724  30.6233025
  51.8803143  96.5308524  29.4450766  47.2812028  96.3097239  21.3163552
  46.4911082  96.5654767  20.8403663  47.7723275  97.1245577  21.4215593
  61.2975837 103.6502478  24.0668833  62.1193281 103.2482665  23.7851515
  61.2938240 103.5470712  25.0184949  49.2326773  96.6741818  18.2747029
  48.4357936  96.7860512  18.7930525  49.0052365  97.0128470  17.4087919
  55.0632441 103.1986521  26.2229544  55.1276873 103.6606929  27.0587715
  54.3543365 102.5683886  26.3511853  45.5649731  96.5627729  23.7478543
  45.8157769  97.4474739  24.0136119  46.1009279  96.3832331  22.9753635
  69.3881830  99.9941226  20.4153805  68.6345539  99.4248625  20.2597809
  69.5229371  99.9603891  21.3624439  54.7780458 104.8654629  16.0908524
  54.6426133 105.7106165  16.5193372  55.3190271 105.0673906  15.3274458
  51.2647798  90.9446209  32.7522879  50.8714744  90.3912407  33.4270523
  52.0813938  91.2556787  33.1429397  48.2309856 102.3830067  16.6636449
  48.7434376 103.1773317  16.8142014  48.8832569 101.6856357  16.5970050
  50.0404740 105.4995823  18.7459202  50.2171369 106.4213788  18.5580186
  50.8361574 105.1854242  19.1753582  54.1815759  92.3604088  30.3443136
  54.9225472  92.9611241  30.2647598  54.4133682  91.6181726  29.7861178
  49.3257097  97.5460455  28.6221365  49.2110612  96.6445712  28.9228464
  48.4701615  97.7924152  28.2706182  56.4048935 105.4878195  30.2208866
  55.9612789 104.7014574  29.9029771  57.0666148 105.6757346  29.5552757
  51.1636056 107.0173997  24.7469545  51.7143481 106.8891060  23.9746538
  50.3247532 107.3168886  24.3964437  58.5030173 105.7680995  28.2490267
  58.4848648 106.5889876  27.7570536  59.4250093 105.6435070  28.4740408
  54.9603227 103.2825125  29.0913776  55.4931564 102.5213413  28.8613084
  54.4317308 102.9898777  29.8337930  58.1272922  88.3885191  24.6207417
  57.7837191  89.2786832  24.5446528  58.4951885  88.1986848  23.7577002
  46.1958773 100.7118721  17.4396020  47.0333995 101.1215729  17.2229727
  46.3737040  99.7718163  17.4096213  58.0923205  98.3793802  13.1279853
  57.5769828  99.1498406  13.3668240  57.8200513  97.7058938  13.7512914
  55.6770316  93.2243503  18.1865091  54.8211912  92.8350353  18.0070730
  56.0897267  93.3035463  17.3264876  57.2069462  90.7589846  22.5856651
  56.7034258  90.7219981  21.7724456  57.5000069  91.6682589  22.6453307
  53.4512348  90.8428576  21.5922832  54.3165345  90.6471384  21.2328722
  53.5189857  90.6138927  22.5192189  63.0657479 101.1326156  15.0633026
  62.2886922 100.7937316  14.6188188  63.7448960 101.1378780  14.3887991
  57.8809508  96.2520894  14.9539634  57.5759643  96.5667043  15.8049777
  58.8339950  96.3302314  14.9966967  56.3255940 102.4111117  16.6032588
  55.7977301 101.6763877  16.2905825  55.8243442 103.1885794  16.3572556
  61.3048786 100.6060138  21.7199634  60.6472460 101.2959399  21.8079763
  62.1089185 100.9956570  22.0633620  51.0574667  93.0730783  18.9639199
  51.6318419  92.8505965  18.2312392  51.6445650  93.1419478  19.7167800
  60.1154244  98.9604510  19.7703576  60.6286126  99.5934502  20.2725285
  60.7655468  98.3605706  19.4046936  51.3844254  95.1035244  12.9835084
  50.5481567  95.4409931  13.3044359  51.2449024  94.9684224  12.0462221
  53.3597335  89.9472032  17.6914269  52.7061747  89.6321050  17.0670883
  53.3177809  89.3247773  18.4174092  54.4708540 100.2291327   9.6067561
  53.5635602  99.9980581   9.8058710  54.9679572  99.4328947   9.7941542
  56.5935075  96.4353966  22.0161916  55.6757637  96.6568913  21.8583604
  57.0095219  96.5100276  21.1573624  57.3770123  97.8345382  17.1464597
  58.1241942  98.3466779  16.8371719  57.6461713  97.5129434  18.0068990
  55.6496773 100.3303922  14.1291551  54.7407993 100.0462955  14.2264021
  55.6791857 100.7503001  13.2694858  60.8816041 103.9410512  17.8982718
  60.4278368 103.1001422  17.9547909  60.2510007 104.5771910  18.2357499
  59.8248960  94.8702498  19.1283386  59.0871717  94.3579884  19.4593628
  60.0775734  94.4302879  18.3166663  59.3248980 105.7787008  18.8332536
  59.6171954 106.3392066  18.1144902  59.8347600 106.0715569  19.5885696
  59.9260588  87.6478750  19.7225155  60.2319464  86.7876113  19.4351070
  60.6513192  88.2396370  19.5224149  46.2184944  98.0509436  18.1106753
  46.0209343  97.4578797  17.3857820  45.6631608  97.7461647  18.8282692
  54.1981667  97.9432543  20.2301346  54.2530277  96.9906379  20.1543823
  53.3872869  98.0991982  20.7142645  55.3472861 101.8712666  11.4679629
  54.9092291 101.1548525  11.0085267  56.0883302 102.0988781  10.9064721
  52.1374027  96.5609603  17.9891725  51.3241893  96.8603773  18.3956917
  52.6333021  96.1665291  18.7066207  54.2882605 106.5567360  19.9225990
  54.2458784 106.7828206  18.9934522  55.2045304 106.3230734  20.0711791
  57.7348239  97.0251427  26.8206619  58.0897627  97.2522900  27.6801085
  58.3820370  97.3569804  26.1983874  63.4645976 100.1469863  17.5255948
  63.3263874 100.3371459  16.5977137  63.1082195 100.9089246  17.9823999
  51.6288102  94.1327958  23.6052960  52.2687481  93.9916717  22.9075923
  50.7965633  93.8462472  23.2291562  63.4915355 102.2146390  22.5367219
  63.9251862 102.1221679  23.3850273  64.2046936 102.1903890  21.8987235
  52.4048406 103.4330389  19.7187952  53.1989004 102.9380709  19.5170527
  51.6940098 102.9048252  19.3555658  57.2243250 105.8148484  24.0700320
  57.2780273 106.3839420  24.8378036  56.3558032 105.9850369  23.7054357
  48.7131169  97.5773470  15.7947705  47.7828757  97.5157926  16.0117667
  48.8088641  97.0549423  14.9984346  48.6316718  94.1028283  18.3825947
  48.8923536  95.0173616  18.2735107  49.4533891  93.6352726  18.5322560
  50.1041644  95.5166040  25.5524771  50.7764697  95.3083402  24.9037420
  49.2771430  95.3188126  25.1130004  64.3530905 102.2570091  25.0700105
  64.5466795 103.1615901  25.3159380  64.2531523 101.7977510  25.9038690
  56.0067216  92.1427981  27.5690432  55.3595131  92.8417931  27.4754909
  56.7768231  92.5764125  27.9366680  59.4146014 102.4076833  30.6440985
  59.2631520 102.1787385  29.7271069  59.4050693 103.3647435  30.6572330
  56.1831350  99.9808746  25.6287252  57.1123410 100.1319906  25.4556219
  55.7622380 100.0692767  24.7735898  54.9819682 104.0059411  23.3985790
  54.8430768 103.6378195  24.2711728  54.1934278 104.5207050  23.2269747
  55.5767834 109.1068507  14.7411326  55.7519590 108.6356550  15.5556949
  54.8900622 109.7334273  14.9692587  56.5324897 103.3841013  20.7874627
  56.1974730 103.3441783  21.6832277  56.0328843 102.7185729  20.3145038
  50.5069141  98.7908643  26.3127208  50.3688939  98.0588882  26.9138748
  51.4174064  98.7017543  26.0311396  59.4684089 100.7297048  11.0611687
  58.8513259 100.0043876  10.9644740  59.0000577 101.4906408  10.7178761
  53.1351442  98.5028603  25.8010888  53.8451060  97.8621795  25.7597507
  53.0920750  98.7541497  26.7237069  61.1238220 105.4395956  28.7217467
  61.0650766 104.7555176  28.0548050  61.5257739 106.1814946  28.2698093
  51.8480376  95.4893821  27.6206528  51.3117733  95.0384559  28.2728124
  51.2597084  95.6239729  26.8776992  50.1428919 112.2557870  21.5151186
  50.3825517 112.8876394  22.1930205  49.2998116 111.9045910  21.8016545
  51.2582635  94.9482472  10.1832991  50.3812101  94.8271273   9.8195238
  51.7340388  94.1568550   9.9311880  61.1255628 103.4035540  26.9531447
  60.2382406 103.0661462  27.0757846  61.6954179 102.6718571  27.1900212
  42.7784775  99.7359632  20.2774498  43.4655815  99.4221362  19.6895514
  42.6232903 100.6400996  20.0041750  47.5819497  94.6249828  24.7059522
  47.4977686  94.0175498  23.9709932  46.7602203  95.1158847  24.7069018
  54.6556781 108.0636992  23.9192690  54.5826952 108.8691964  24.4311995
  54.2134174 108.2628958  23.0940712  54.4446561 107.3008762  17.4295512
  53.6614083 107.8430442  17.5233736  55.1439306 107.8182742  17.8289753
  57.7543211  93.1103392  20.0729717  58.2511910  92.3573354  19.7530787
  56.9830192  93.1467708  19.5072926  65.6072968  98.8143757  21.7148009
  65.5962844  99.6968473  21.3441942  64.7390348  98.4615308  21.5202546
  57.1155465 107.9623826  26.0750849  57.8283437 108.5971291  26.0026750
  56.6245493 108.0587692  25.2590851  58.8372991 101.8675079  17.6468141
  57.9029270 101.9876541  17.4772845  59.0149660 100.9647546  17.3828150
  54.3378179  95.2520775  19.8001402  53.9675967  94.6991815  20.4882307
  54.8337272  94.6478908  19.2476402  62.2245543  97.7092398  18.1818175
  62.6905995  98.5420390  18.1078477  62.6753043  97.2437380  18.8863433
  52.1667378 105.7118270  26.8956420  52.8676838 106.3454753  27.0485814
  51.6962493 106.0533001  26.1352059  60.2921774 104.0536220  15.1804327
  60.5681618 103.9392814  16.0898201  59.4226273 103.6553704  15.1416500
  60.1962206  90.0772985  22.2209076  59.2825285  90.3077212  22.3891283
  60.6255307  90.1611429  23.0723108  59.9668664  98.2662877  24.7208970
  59.3140114  98.5138785  24.0661423  60.3449044  97.4527015  24.3871447
  56.9275838 108.3022570  18.8237140  57.1098232 107.4844226  19.2864893
  57.7508824 108.5190263  18.3862030  57.2618003 107.2290756  16.0852189
  57.7905770 106.7183210  15.4722351  57.5246223 106.9133286  16.9497722
  56.0156237  99.0082688  31.2075007  55.3396874  98.9076818  31.8777382
  56.8383871  98.8521902  31.6711004  47.7635096 105.2454625  23.8287522
  48.3488533 104.4998313  23.9615427  47.5659935 105.5558582  24.7124186
  50.6173751 108.2805872  18.8449965  49.9484127 108.7652000  18.3614005
  50.4786621 108.5275093  19.7593343  42.3552751  97.8160225  22.5491966
  42.3936850  97.2823816  23.3429084  41.8493044  97.2895431  21.9302943
  54.7579020 110.3149616  25.4432623  55.3097328 110.4781237  26.2081708
  55.0985213 110.9054054  24.7712648  49.7343513  92.6624766  26.0454508
  49.7984840  93.5239596  25.6331906  49.6710633  92.0498767  25.3126866
  49.2095786  94.7347898  29.6927542  49.8367824  94.3524975  30.3065066
  48.3523705  94.5162100  30.0583235  59.6089894 105.1410873  31.2981278
  60.1529798 105.7540831  30.8036232  59.0276739 105.6990452  31.8148291
  45.9861328  96.5424327  15.6245897  46.2814770  95.6335006  15.5712951
  45.0849364  96.5212067  15.3026899  57.8947407 108.2631591  22.4296305
  57.7698547 107.4621331  21.9207251  58.5526498 108.7577785  21.9410275
  49.5155575  94.6180324  21.6073446  48.7942161  95.2316291  21.4680919
  50.3048831  95.1538089  21.5290091  59.9582316 106.0640611  24.0575855
  59.0112651 105.9445963  23.9854182  60.3065089 105.1763109  24.1402117
  52.3181889  91.9534750  27.8814097  52.8416291  92.1997047  28.6440407
  52.0994222  92.7854785  27.4617235  47.7149170  94.2238425  15.7485222
  47.3861876  93.3435804  15.5660328  48.0688541  94.1686094  16.6361611
  56.9628749 105.8593328  20.2580208  56.8153711 104.9310035  20.4387778
  57.7882242 105.8813418  19.7737283  50.8290993  94.5111395  16.1160700
  51.1687066  95.0397316  15.3939308  51.2763114  94.8491801  16.8919266
  60.5662871 106.6821886  21.3445080  61.4909418 106.4764748  21.2069531
  60.3978174 106.4338287  22.2534422  53.5234434  92.8948445  25.5663768
  53.1831254  92.0956258  25.9684448  52.8173440  93.1950156  24.9940601
  54.1750906  89.9797758  24.0191091  54.9976975  89.5058236  23.8969981
  54.4188969  90.7588242  24.5189777  52.8159140  93.0086016  14.3153992
  53.5367503  93.3867269  13.8117709  52.1924444  93.7274893  14.4188970
  56.9590263  93.7131165  15.2512325  57.1753878  94.5955803  14.9501153
  56.4784330  93.3217379  14.5217967  51.6989485  96.6716878  21.8283069
  51.5534065  96.9857181  22.7207351  51.2214688  97.2901779  21.2753968
  53.5585867  93.6619426  21.8763959  53.5447436  92.7660520  21.5396257
  54.2758296  93.6690090  22.5102245  55.4111998  94.0956767  23.9217086
  55.1529776  95.0173837  23.9201417  54.8797039  93.6987201  24.6117551
  60.3558187 107.2007554  16.7007172  60.5295064 106.6353976  15.9481024
  60.8487078 108.0008449  16.5186662  46.1735147  99.2122223  24.7670731
  45.6288615  99.9882031  24.8991005  47.0514497  99.5593027  24.6089852
  52.9622763  92.5433807  17.1451529  53.0838675  91.6150453  17.3442417
  52.6724806  92.5572493  16.2329845  55.8313954  90.2288717  20.2818249
  55.8535651  90.2928050  19.3270229  56.2482013  89.3893226  20.4758755
  66.2097578  99.9643977  18.3197472  66.6528724  99.2151302  17.9216595
  65.3324088  99.9554113  17.9371204  61.3433359 106.5174318  13.8004070
  62.0384264 107.1381011  14.0191385  61.6856510 105.6669669  14.0756448
  46.9601169  98.3392119  27.6600887  46.2182905  98.4874754  28.2465518
  46.6393913  98.6000385  26.7967637  63.2424783 103.9674024  15.3291401
  63.7676107 104.3061296  14.6040721  63.1547135 103.0321039  15.1454535
  54.9044831 107.8808097  27.4581277  55.2131958 107.6357244  28.3303977
  55.7020313 108.0854736  26.9700148  54.9265443 110.0346007  19.6886654
  54.4870434 109.5422386  20.3819511  55.6773560 109.4918975  19.4478729
  47.4057782 106.2257548  19.6911282  48.2315802 105.9261320  19.3109926
  47.0551834 105.4565170  20.1401071  52.3739315 105.5784016  21.7608956
  51.7519325 104.9154721  21.4611184  53.0444182 105.6045148  21.0782603
  45.6066387 104.1443874  20.6500216  44.7698296 103.7166049  20.4684217
  45.5790033 104.3376318  21.5871007  52.4463843  94.0565804  31.3541462
  52.4951998  94.9327927  30.9719231  52.9886357  93.5143197  30.7813105
  62.9318689 104.6006927  30.6342599  62.1414232 104.5831066  30.0947098
  62.6952043 105.1395221  31.3891635  63.0516564 101.4499394  27.9475327
  63.1014569 101.2849401  28.8890850  62.9430487 100.5826653  27.5573208
  51.9352822 104.1287939  15.2367416  52.0840943 104.8123404  14.5834089
  52.7419266 104.1093029  15.7516872  60.3420326  97.4330322  29.2634634
  61.2430189  97.2936787  28.9718632  60.4168301  97.5984777  30.2032811
  54.6763131  94.8097176  28.1087820  53.8066441  95.1030743  27.8370409
  54.9122612  95.3937621  28.8295084  64.5534760 103.8696335  28.1917349
  64.2619569 104.2326316  29.0280810  63.9406892 103.1563343  28.0130681
  65.7530443 101.4349215  20.7119919  66.5877334 101.8739019  20.8757479
  65.8889572 100.9587868  19.8928165  62.8021949  98.9928950  26.6597407
  63.2776070  99.1856596  25.8516258  61.8787514  99.0488136  26.4140791
  49.6905455 100.1553117  16.2428485  49.4451497  99.2515447  16.4408695
  49.8601370 100.1570267  15.3007963  57.3802165  91.0276793  25.6253241
  57.8984109  91.7637820  25.2999729  57.0257298  91.3340787  26.4600000
  48.9601103  95.8881475  13.7414647  48.2670348  95.9625830  13.0854683
  48.7152855  95.1241818  14.2636164  57.6314759  87.4477076  21.1454137
  57.9116513  86.7800265  21.7714564  58.4165366  87.6406172  20.6328801
  55.4348228 106.6236070  12.7079164  54.8622195 107.2426257  12.2549636
  56.0081022 107.1735432  13.2419086  61.5023618  95.8694710  24.8925712
  62.4541041  95.9692808  24.9137937  61.3327068  95.0772978  25.4023797
  59.5237997  92.9550293  25.0785113  58.9287929  93.2355306  24.3831602
  59.2387694  93.4444194  25.8501854  58.6545488 106.9073220  13.8387746
  59.5876161 106.8418782  14.0420621  58.5668700 107.7429487  13.3802279
  63.9811696  99.0900830  24.0068012  63.9488016  98.1516830  24.1927696
  64.5912319  99.1684866  23.2733837  55.8195026  97.9596883  10.0495216
  56.7654131  97.8303091  10.1183634  55.4409271  97.2211544  10.5264644
  64.1306184  95.8811873  24.0526295  63.6145233  95.0970330  23.8656224
  65.0146133  95.5530590  24.2172815  61.7916911  89.6252889  20.0122108
  61.5941732  89.3167977  20.8965440  62.4016616  90.3514528  20.1420038
  69.7988245 100.1516836  23.1474049  70.5291634  99.8902125  23.7081752
  69.1895191  99.4145558  23.1876117  67.8803542  98.2924699  23.7448500
  67.1536706  98.1580664  23.1364992  67.4650829  98.6001528  24.5505218
  55.7033719 102.0114629  31.5095873  56.6236728 102.1893228  31.7035920
  55.6683302 101.0670674  31.3575572  54.0037944  95.8846859   9.9850101
  53.0969399  95.5879972  10.0612815  54.2813925  95.5876677   9.1184388
  44.9215884  97.2053222  20.4349148  44.6018668  96.3518531  20.1423522
  44.3749312  97.4201801  21.1907115  48.6995791  99.9215663  24.1518654
  48.9181801 100.8532771  24.1706688  49.1121565  99.5623638  24.9373458
  55.6200009  90.4283749  16.1394343  54.8100738  90.0830834  16.5149589
  56.3084426  90.1191292  16.7281954  57.5490558  89.5061795  17.7618639
  58.1021596  89.9257249  18.4208662  57.7860644  88.5797544  17.8041595
  53.5723657  95.4948869  33.5421403  53.4720384  96.4443226  33.4733494
  53.3545199  95.1667108  32.6697473  52.7736728  92.7433794  10.1262081
  53.6355892  93.0688692  10.3857898  52.9587072  91.9565290   9.6135146
  44.7904144 100.8256134  22.4042269  44.0967615 100.4110087  21.8912224
  45.5377135 100.8676670  21.8075688  60.9269365  91.6162321  17.2697304
  60.3468034  92.2747125  16.8875356  60.6605297  90.7939665  16.8584721
  59.3772931  91.0167378  19.4718624  59.8772709  91.1283913  18.6632943
  60.0208539  90.7128431  20.1119432  53.4354927  98.9246008  32.3586465
  52.9522009  99.7246368  32.5650354  53.5215866  98.9353953  31.4053909
  46.7040886 100.7574388  20.2808284  46.6811575 100.8562075  19.3290167
  47.0141523 101.6039538  20.6025450  49.3628264 102.8150543  24.3954899
  50.3171518 102.7834485  24.3284830  49.1640788 102.3541166  25.2105125
  49.9527646 101.3851659  26.9625696  50.7720535 101.8795737  26.9860534
  50.2264454 100.4683627  26.9343264  59.7094243  93.7762411  16.3253652
  58.8220098  94.0612062  16.1073847  60.1248232  93.6156174  15.4780929
  63.0608779  93.8008932  20.0407991  63.8369169  94.2905384  20.3132608
  62.3356913  94.2266986  20.4979861  65.4981337  94.5136551  21.0981932
  66.0925828  94.2732287  20.3875240  65.5707921  93.7943682  21.7255468
  47.7178493 108.3570162  21.4125097  47.5832961 107.5970563  20.8463095
  47.3010555 109.0811062  20.9453885  59.6835266  99.2916947  16.5403942
  59.6270468  99.7485498  15.7011574  60.2363609  98.5307632  16.3626785
  63.4940072  95.0806679  17.3654061  63.2377007  94.6803314  18.1962269
  62.8692940  95.7950473  17.2404201  67.8052410  97.8202752  19.8725353
  67.2451968  97.8895941  20.6456915  67.1995914  97.6443737  19.1524849
  50.8747619 109.2539479  21.6243539  50.7580003 110.1984912  21.5222229
  50.0540065 108.9513041  22.0129338  60.7624154 103.9789615  12.4700132
  61.5969757 103.5470813  12.2877607  60.6008496 103.8071629  13.3977026
  60.4170046 100.4821728  13.8356471  60.3618849 100.3166000  12.8944915
  59.7916101 101.1897761  13.9918661  45.2062561  95.7189793  27.6617893
  45.8521424  95.2088747  28.1505119  44.9979712  96.4558474  28.2361319
  57.7315953 102.7870640  33.1610034  58.6007113 102.9611292  32.7996669
  57.2522704 103.6065057  33.0385763  53.7266171  89.9829837  13.4141790
  53.7144841  90.9271677  13.5710060  54.6189593  89.7999983  13.1201251
  51.9002133 109.9067741  24.8399468  52.8029380 109.9391351  25.1565963
  51.6739503 108.9768192  24.8545803  53.6555735 108.6598728  21.5009546
  52.7051366 108.6600589  21.3873919  53.9588221 107.9131462  20.9845581
  57.5418291  86.5772614  17.6687726  56.7750686  86.0231101  17.8144409
  57.9528996  86.6494483  18.5301878  49.5460052  92.8657410  31.7592908
  50.4091513  92.5094214  31.9696232  48.9725462  92.5271304  32.4468312
  69.3908429 114.4959266  22.5655309  70.0286839 114.3766013  21.8618649
  69.2729272 115.4440110  22.6243261  66.1998135 114.4486694  22.5016833
  65.8616646 114.3327759  21.6137368  67.0687903 114.0477859  22.4817839
  66.6817918 115.6021546  28.4603039  66.6706559 115.2074344  27.5883543
  66.8438557 114.8687618  29.0536810  59.6049383 117.7973362  21.3297945
  60.3970674 117.4564187  20.9144244  59.8446033 117.9068337  22.2500098
  63.4025179 118.3858658  27.4082223  63.1115045 119.2904288  27.2928889
  64.0382163 118.4275185  28.1226292  64.3281386 115.7635506  23.9983582
  64.9244958 115.5391529  23.2840545  64.3856357 115.0220252  24.6009030
  71.8683545 105.8707527  25.0036104  71.5366869 106.7402938  24.7797319
  71.2729158 105.5543811  25.6830134  68.3615064 118.0720073  24.4032017
  68.0615787 118.9745112  24.2947824  68.0166124 117.8052256  25.2553169
  61.8127546 114.5233870  20.4368721  60.8878042 114.3910084  20.6446413
  62.0611959 115.3028089  20.9338663  71.7612208 110.5902613  22.0829454
  70.8529085 110.5218022  21.7888215  71.7099804 111.0674558  22.9111279
  59.1736357 114.1667144  21.2712510  59.3028738 114.4201622  22.1851922
  58.4933808 114.7594852  20.9517165  65.8353074 112.0092259  30.0264351
  65.0586408 112.5686179  30.0167216  66.4743637 112.4949042  30.5479221
  73.6273854 108.7919052  23.8607328  72.9848235 109.0851585  23.2147122
  73.1228783 108.6771972  24.6660524  64.0899446 114.8177712  29.5882318
  64.8314130 115.3562756  29.3117142  63.3836431 115.4444001  29.7453870
  69.5654786 116.9606853  28.1854480  69.9738142 116.5189263  27.4409112
  68.8432047 116.3859480  28.4388672  65.9185856 111.8979460  25.5588037
  66.7647051 112.3218873  25.7022686  65.8584493 111.2413084  26.2526600
  69.0685301 109.5583828  27.2169210  68.8246233 110.3125888  26.6803486
  69.3445232 109.9369175  28.0516457  71.0223764 116.1022440  25.8946476
  71.2340659 116.7454200  25.2180857  70.9753512 115.2684757  25.4268406
  68.6249993 108.7140261  22.7983048  67.7634472 109.0121514  23.0899785
  68.6512427 108.9310660  21.8664081  62.3335643 116.8053933  22.1436617
  62.9037000 117.2341201  21.5054101  62.9243755 116.5236518  22.8420802
  62.8260810 111.9717360  30.3897628  62.1959470 112.6533641  30.6233025
  62.7196898 111.8600442  29.4450766  58.1205782 111.6389156  21.3163552
  57.3304836 111.8946685  20.8403663  58.6117030 112.4537494  21.4215593
  60.0720528 112.0033736  18.2747029  59.2751691 112.1152430  18.7930525
  59.8446120 112.3420388  17.4087919  65.9026195 118.5278439  26.2229544
  65.9670628 118.9898846  27.0587715  65.1937119 117.8975804  26.3511853
  56.4043485 111.8919647  23.7478543  56.6551524 112.7766657  24.0136119
  56.9403034 111.7124248  22.9753635  62.1041552 106.2738126  32.7522879
  61.7108498 105.7204325  33.4270523  62.9207693 106.5848705  33.1429397
  65.0209513 107.6896005  30.3443136  65.7619227 108.2903159  30.2647598
  65.2527436 106.9473643  29.7861178  60.1650851 112.8752373  28.6221365
  60.0504367 111.9737630  28.9228464  59.3095369 113.1216069  28.2706182
  67.2442689 120.8170113  30.2208866  66.8006543 120.0306492  29.9029771
  67.9059903 121.0049263  29.5552757  62.0029810 122.3465915  24.7469545
  62.5537235 122.2182978  23.9746538  61.1641286 122.6460804  24.3964437
  69.3423927 121.0972913  28.2490267  69.3242403 121.9181794  27.7570536
  70.2643847 120.9726988  28.4740408  65.7996981 118.6117042  29.0913776
  66.3325318 117.8505331  28.8613084  65.2711063 118.3190694  29.8337930
  68.9666676 103.7177108  24.6207417  68.6230946 104.6078750  24.5446528
  69.3345639 103.5278766  23.7577002  66.5164070 108.5535420  18.1865091
  65.6605666 108.1642271  18.0070730  66.9291022 108.6327381  17.3264876
  68.0463217 106.0881763  22.5856651  67.5428012 106.0511899  21.7724456
  68.3393824 106.9974506  22.6453307  64.2906103 106.1720493  21.5922832
  65.1559099 105.9763302  21.2328722  64.3583612 105.9430845  22.5192189
  61.8968422 108.4022701  18.9639199  62.4712174 108.1797883  18.2312392
  62.4839404 108.4711396  19.7167800  64.1991089 105.2763950  17.6914269
  63.5455502 104.9612967  17.0670883  64.1571564 104.6539691  18.4174092
  67.4328830 111.7645884  22.0161916  66.5151391 111.9860831  21.8583604
  67.8488973 111.8392194  21.1573624  70.7654342 102.9770668  19.7225155
  71.0713219 102.1168031  19.4351070  71.4906947 103.5688288  19.5224149
  57.0578698 113.3801354  18.1106753  56.8603098 112.7870715  17.3857820
  56.5025362 113.0753564  18.8282692  65.0375422 113.2724461  20.2301346
  65.0924032 112.3198297  20.1543823  64.2266624 113.4283900  20.7142645
  62.9767782 111.8901520  17.9891725  62.1635647 112.1895691  18.3956917
  63.4726776 111.4957209  18.7066207  68.5741993 112.3543345  26.8206619
  68.9291381 112.5814818  27.6801085  69.2214125 112.6861722  26.1983874
  62.4681856 109.4619876  23.6052960  63.1081236 109.3208635  22.9075923
  61.6359387 109.1754389  23.2291562  59.4710473 109.4320201  18.3825947
  59.7317290 110.3465534  18.2735107  60.2927645 108.9644643  18.5322560
  60.9435398 110.8457958  25.5524771  61.6158452 110.6375320  24.9037420
  60.1165185 110.6480044  25.1130004  66.8460970 107.4719899  27.5690432
  66.1988885 108.1709849  27.4754909  67.6161986 107.9056043  27.9366680
  70.2539768 117.7368751  30.6440985  70.1025275 117.5079303  29.7271069
  70.2444448 118.6939353  30.6572330  67.0225105 115.3100664  25.6287252
  67.9517165 115.4611823  25.4556219  66.6016135 115.3984685  24.7735898
  65.8213436 119.3351328  23.3985790  65.6824522 118.9670113  24.2711728
  65.0328033 119.8498968  23.2269747  61.3462895 114.1200561  26.3127208
  61.2082693 113.3880800  26.9138748  62.2567819 114.0309461  26.0311396
  63.9745196 113.8320520  25.8010888  64.6844815 113.1913713  25.7597507
  63.9314504 114.0833415  26.7237069  71.9631975 120.7687874  28.7217467
  71.9044521 120.0847094  28.0548050  72.3651493 121.5106864  28.2698093
  62.6874130 110.8185738  27.6206528  62.1511487 110.3676477  28.2728124
  62.0990839 110.9531647  26.8776992  71.9649382 118.7327458  26.9531447
  71.0776161 118.3953379  27.0757846  72.5347933 118.0010489  27.1900212
  53.6178529 115.0651549  20.2774498  54.3049569 114.7513279  19.6895514
  53.4626658 115.9692914  20.0041750  58.4213251 109.9541746  24.7059522
  58.3371440 109.3467415  23.9709932  57.5995958 110.4450764  24.7069018
  68.5936965 108.4395309  20.0729717  69.0905665 107.6865272  19.7530787
  67.8223947 108.4759626  19.5072926  65.1771934 110.5812692  19.8001402
  64.8069721 110.0283733  20.4882307  65.6731026 109.9770826  19.2476402
  63.0061133 121.0410187  26.8956420  63.7070592 121.6746670  27.0485814
  62.5356248 121.3824919  26.1352059  71.0355960 105.4064903  22.2209076
  70.1219040 105.6369130  22.3891283  71.4649061 105.4903347  23.0723108
  70.8062419 113.5954795  24.7208970  70.1533869 113.8430702  24.0661423
  71.1842798 112.7818933  24.3871447  66.8549992 114.3374606  31.2075007
  66.1790629 114.2368735  31.8777382  67.6777625 114.1813820  31.6711004
  58.6028851 120.5746542  23.8287522  59.1882287 119.8290230  23.9615427
  58.4053689 120.8850499  24.7124186  53.1946505 113.1452143  22.5491966
  53.2330605 112.6115733  23.3429084  52.6886798 112.6187348  21.9302943
  60.5737268 107.9916683  26.0454508  60.6378594 108.8531514  25.6331906
  60.5104388 107.3790685  25.3126866  60.0489540 110.0639816  29.6927542
  60.6761579 109.6816893  30.3065066  59.1917459 109.8454018  30.0583235
  70.4483649 120.4702791  31.2981278  70.9923553 121.0832749  30.8036232
  69.8670494 121.0282369  31.8148291  56.8255083 111.8716245  15.6245897
  57.1208524 110.9626923  15.5712951  55.9243119 111.8503984  15.3026899
  60.3549330 109.9472241  21.6073446  59.6335916 110.5608209  21.4680919
  61.1442586 110.4830006  21.5290091  63.1575643 107.2826668  27.8814097
  63.6810045 107.5288964  28.6440407  62.9387977 108.1146703  27.4617235
  58.5542925 109.5530343  15.7485222  58.2255631 108.6727721  15.5660328
  58.9082295 109.4978011  16.6361611  64.3628188 108.2240363  25.5663768
  64.0225009 107.4248176  25.9684448  63.6567195 108.5242074  24.9940601
  65.0144660 105.3089675  24.0191091  65.8370730 104.8350154  23.8969981
  65.2582724 106.0880159  24.5189777  62.5383239 112.0008796  21.8283069
  62.3927820 112.3149099  22.7207351  62.0608443 112.6193696  21.2753968
  64.3979622 108.9911344  21.8763959  64.3841191 108.0952437  21.5396257
  65.1152050 108.9982008  22.5102245  66.2505753 109.4248684  23.9217086
  65.9923530 110.3465755  23.9201417  65.7190793 109.0279119  24.6117551
  57.0128901 114.5414140  24.7670731  56.4682369 115.3173948  24.8991005
  57.8908251 114.8884945  24.6089852  63.8016518 107.8725724  17.1451529
  63.9232429 106.9442371  17.3442417  63.5118560 107.8864410  16.2329845
  66.6707708 105.5580635  20.2818249  66.6929405 105.6219968  19.3270229
  67.0875767 104.7185143  20.4758755  57.7994923 113.6684037  27.6600887
  57.0576659 113.8166672  28.2465518  57.4787667 113.9292302  26.7967637
  65.7438586 123.2100015  27.4581277  66.0525712 122.9649162  28.3303977
  66.5414068 123.4146653  26.9700148  56.4460142 119.4735792  20.6500216
  55.6092050 119.0457966  20.4684217  56.4183787 119.6668235  21.5871007
  63.2857597 109.3857722  31.3541462  63.3345753 110.2619845  30.9719231
  63.8280112 108.8435115  30.7813105  73.7712443 119.9298845  30.6342599
  72.9807987 119.9122984  30.0947098  73.5345798 120.4687139  31.3891635
  73.8910318 116.7791311  27.9475327  73.9408323 116.6141319  28.8890850
  73.7824241 115.9118570  27.5573208  71.1814081 112.7622239  29.2634634
  72.0823943 112.6228704  28.9718632  71.2562055 112.9276694  30.2032811
  65.5156886 110.1389094  28.1087820  64.6460195 110.4322660  27.8370409
  65.7516366 110.7229539  28.8295084  75.3928515 119.1988253  28.1917349
  75.1013323 119.5618233  29.0280810  74.7800646 118.4855261  28.0130681
  73.6415703 114.3220867  26.6597407  74.1169825 114.5148514  25.8516258
  72.7181269 114.3780053  26.4140791  68.2195920 106.3568711  25.6253241
  68.7377864 107.0929738  25.2999729  67.8651052 106.6632704  26.4600000
  68.4708514 102.7768994  21.1454137  68.7510268 102.1092183  21.7714564
  69.2559121 102.9698089  20.6328801  72.3417372 111.1986628  24.8925712
  73.2934795 111.2984725  24.9137937  72.1720823 110.4064896  25.4023797
  70.3631752 108.2842211  25.0785113  69.7681684 108.5647224  24.3831602
  70.0781448 108.7736112  25.8501854  74.9699938 111.2103791  24.0526295
  74.4538987 110.4262247  23.8656224  75.8539887 110.8822507  24.2172815
  72.6310665 104.9544806  20.0122108  72.4335487 104.6459894  20.8965440
  73.2410371 105.6806445  20.1420038  66.5427473 117.3406546  31.5095873
  67.4630483 117.5185145  31.7035920  66.5077056 116.3962592  31.3575572
  55.7609638 112.5345140  20.4349148  55.4412423 111.6810448  20.1423522
  55.2143067 112.7493718  21.1907115  59.5389546 115.2507581  24.1518654
  59.7575556 116.1824689  24.1706688  59.9515320 114.8915555  24.9373458
  66.4593764 105.7575666  16.1394343  65.6494492 105.4122751  16.5149589
  67.1478181 105.4483210  16.7281954  68.3884312 104.8353713  17.7618639
  68.9415351 105.2549167  18.4208662  68.6254398 103.9089461  17.8041595
  64.4117411 110.8240787  33.5421403  64.3114138 111.7735144  33.4733494
  64.1938953 110.4959026  32.6697473  55.6297898 116.1548052  22.4042269
  54.9361370 115.7402004  21.8912224  56.3770889 116.1968588  21.8075688
  70.2166685 106.3459296  19.4718624  70.7166464 106.4575831  18.6632943
  70.8602293 106.0420349  20.1119432  64.2748681 114.2537926  32.3586465
  63.7915763 115.0538286  32.5650354  64.3609620 114.2645871  31.4053909
  57.5434641 116.0866305  20.2808284  57.5205329 116.1853993  19.3290167
  57.8535277 116.9331456  20.6025450  60.2022019 118.1442460  24.3954899
  61.1565272 118.1126403  24.3284830  60.0034542 117.6833084  25.2105125
  60.7921401 116.7143576  26.9625696  61.6114290 117.2087655  26.9860534
  61.0658209 115.7975545  26.9343264  56.0456315 111.0481710  27.6617893
  56.6915179 110.5380664  28.1505119  55.8373466 111.7850392  28.2361319
  68.5709707 118.1162558  33.1610034  69.4400867 118.2903210  32.7996669
  68.0916459 118.9356975  33.0385763  62.7395888 125.2359659  24.8399468
  63.6423134 125.2683269  25.1565963  62.5133258 124.3060110  24.8545803
  68.3812045 101.9064532  17.6687726  67.6144441 101.3523018  17.8144409
  68.7922750 101.9786400  18.5301878  60.3853806 108.1949327  31.7592908
  61.2485268 107.8386132  31.9696232  59.8119217 107.8563222  32.4468312
  72.9435307 121.6030044  32.7522879  72.5502253 121.0496243  33.4270523
  73.7601447 121.9140622  33.1429397  75.8603268 123.0187923  30.3443136
  76.6012981 123.6195076  30.2647598  76.0921191 122.2765561  29.7861178
  70.8883295 125.3931733  29.6927542  71.5155333 125.0108811  30.3065066
  70.0311214 125.1745935  30.0583235  74.1251352 124.7149639  31.3541462
  74.1739507 125.5911762  30.9719231  74.6673866 124.1727032  30.7813105
  75.2511166 126.1532704  33.5421403  75.1507893 127.1027061  33.4733494
  75.0332708 125.8250943  32.6697473  66.8850070 126.3773628  27.6617893
  67.5308933 125.8672582  28.1505119  66.6767221 127.1142310  28.2361319
  71.2247561 123.5241245  31.7592908  72.0879022 123.1678050  31.9696232
  70.6512971 123.1855140  32.4468312  28.6056958  36.4582326  15.4462774
  28.5469504  35.7741546  14.7793357  29.0076477  37.2001316  14.9943400
  27.0908632  36.1597243  18.0226584  27.6348536  36.7727201  17.5281539
  26.5095477  36.7176821  18.5393597  30.4137426  35.6193297  17.3587905
  29.6232970  35.6017436  16.8192405  30.1770781  36.1581591  18.1136942
  32.0353498  34.8882705  14.9162656  31.7438307  35.2512685  15.7526116
  31.4225630  34.1749713  14.7375988  25.2134691  33.8057010  19.8855341
  26.0825850  33.9797662  19.5241976  24.7341442  34.6251426  19.7631070
  36.8727166  45.5145636   9.2900615  37.5105576  45.3952383   8.5863955
  36.7548009  46.4626480   9.3488567  33.6816873  45.4673064   9.2262140
  33.3435384  45.3514128   8.3382675  34.5506641  45.0664229   9.2063146
  34.1636656  46.6207915  15.1848345  34.1525296  46.2260714  14.3128849
  34.3257295  45.8873988  15.7782117  27.0868120  48.8159732   8.0543251
  27.8789412  48.4750556   7.6389551  27.3264770  48.9254707   8.9745405
  30.8843917  49.4045027  14.1327529  30.5933783  50.3090658  14.0174196
  31.5200901  49.4461555  14.8471599  31.8100124  46.7821876  10.7228889
  32.4063696  46.5577898  10.0085852  31.8675095  46.0406621  11.3254337
  41.8276862  43.1772323   7.2686802  42.5602034  42.6071539   7.5024631
  41.0716218  42.7893923   7.7093307  39.3502282  36.8893897  11.7281410
  39.0185607  37.7589308  11.5042625  38.7547896  36.5730181  12.4075441
  35.8433802  49.0906443  11.1277323  35.5434525  49.9931482  11.0193130
  35.4984861  48.8238626  11.9798476  39.2430946  41.6088983   8.8074760
  38.3347823  41.5404391   8.5133521  39.1918541  42.0860928   9.6356586
  30.8254582  55.8550763   4.0948291  30.7478611  56.8058588   4.1736771
  30.2216225  55.5096636   4.7523217  33.3171811  43.0278628  16.7509658
  32.5405146  43.5872549  16.7412522  33.9562375  43.5135411  17.2724528
  41.1092592  39.8105421  10.5852634  40.4666972  40.1037954   9.9392429
  40.6047521  39.6958342  11.3905831  31.5718184  45.8364082  16.3127625
  32.3132868  46.3749126  16.0362448  30.8655169  46.4630371  16.4699177
  37.0473523  47.9793222  14.9099786  37.4556879  47.5375633  14.1654419
  36.3250785  47.4045850  15.1633979  33.4004593  42.9165829  12.2833343
  34.2465789  43.3405243  12.4267992  33.3403231  42.2599453  12.9771906
  37.3702338  48.5394413   8.6652075  36.7411201  48.7040127   7.9628143
  36.9828000  48.9536022   9.4363039  41.2491570  49.4748851   6.0196439
  40.5642608  49.8547752   5.4693472  41.3335419  50.0844177   6.7528387
  36.5504039  40.5770197  13.9414517  36.3064971  41.3312258  13.4048793
  36.8263969  40.9555545  14.7761764  38.5042502  47.1208810  12.6191782
  38.7159397  47.7640570  11.9426163  38.4572250  46.2871126  12.1513712
  29.8154381  47.8240303   8.8681923  30.3855738  48.2527571   8.2299408
  30.4062493  47.5422887   9.5666109  30.3079548  42.9903730  17.1142935
  29.6778208  43.6720011  17.3478332  30.2015635  42.8786812  16.1696073
  39.6188330  49.9980765  10.7914140  40.4405773  49.5960953  10.5096821
  39.6150732  49.8948999  11.7430256  33.3844933  49.5464809  12.9474850
  33.4489365  50.0085216  13.7833022  32.6755857  48.9162173  13.0757160
  47.7094323  46.3419514   7.1399111  46.9558031  45.7726912   6.9843116
  47.8441864  46.3082178   8.0869746  29.5860290  37.2924496  19.4768186
  29.1927236  36.7390694  20.1515830  30.4026431  37.6035074  19.8674703
  28.3617233  51.8474110   5.4704509  28.5383861  52.7692075   5.2825493
  29.1574066  51.5332530   5.8998889  32.5028251  38.7082375  17.0688442
  33.2437965  39.3089528  16.9892905  32.7346174  37.9660013  16.5106485
  27.6469589  43.8938742  15.3466672  27.5323104  42.9923999  15.6473771
  26.7914107  44.1402439  14.9951489  34.7261427  51.8356483  16.9454173
  34.2825281  51.0492861  16.6275077  35.3878641  52.0235633  16.2798063
  29.4848548  53.3652284  11.4714851  30.0355973  53.2369347  10.6991845
  28.6460024  53.6647173  11.1209744  36.8242665  52.1159282  14.9735574
  36.8061140  52.9368164  14.4815843  37.7462585  51.9913358  15.1985715
  33.2815719  49.6303412  15.8159082  33.8144056  48.8691700  15.5858390
  32.7529800  49.3377064  16.5583237  39.6261278  46.9538425   8.4444941
  38.9684952  47.6437686   8.5325069  40.4301677  47.3434857   8.7878927
  38.4366737  45.3082798   6.4948882  38.9498618  45.9412789   6.9970592
  39.0867961  44.7083993   6.1292242  34.9147568  42.7832253   8.7407223
  33.9970129  43.0047200   8.5828911  35.3307711  42.8578564   7.8818930
  39.2028533  50.2888799   4.6228025  38.7490860  49.4479709   4.6793215
  38.5722500  50.9250197   4.9602805  37.6461472  52.1265296   5.5577843
  37.9384447  52.6870353   4.8390209  38.1560093  52.4193857   6.3131002
  32.6095097  52.9045647   6.6471296  32.5671276  53.1306493   5.7179828
  33.5257796  52.6709021   6.7957097  36.0560731  43.3729714  13.5451926
  36.4110119  43.6001188  14.4046391  36.7032862  43.7048091  12.9229181
  41.7858468  46.4948150   4.2501255  41.6476367  46.6849746   3.3222444
  41.4294687  47.2567533   4.7069306  41.8127848  48.5624677   9.2612526
  42.2464354  48.4699966  10.1095580  42.5259428  48.5382178   8.6232542
  35.5455743  52.1626771  10.7945627  35.5992765  52.7317708  11.5623343
  34.6770524  52.3328656  10.4299664  28.4254136  41.8644328  12.2770078
  29.0977189  41.6561690  11.6282727  27.5983923  41.6666414  11.8375310
  42.6743397  48.6048378  11.7945411  42.8679287  49.5094188  12.0404686
  42.5744015  48.1455797  12.6283997  34.3279708  38.4906269  14.2935739
  33.6807623  39.1896218  14.2000215  35.0980723  38.9242412  14.6611987
  37.7358506  48.7555121  17.3686292  37.5844012  48.5265672  16.4516376
  37.7263185  49.7125722  17.3817637  34.5043842  46.3287033  12.3532559
  35.4335902  46.4798193  12.1801526  34.0834872  46.4171054  11.4981205
  33.3032174  50.3537698  10.1231096  33.1643260  49.9856482  10.9957034
  32.5146770  50.8685337   9.9515054  33.8980326  55.4546794   1.4656633
  34.0732082  54.9834837   2.2802255  33.2113114  56.0812560   1.6937893
  34.8537389  49.7319301   7.5119934  34.5187222  49.6920070   8.4077584
  34.3541335  49.0664016   7.0390344  28.8281633  45.1386931  13.0372515
  28.6901431  44.4067169  13.6384054  29.7386557  45.0495831  12.7556703
  31.4563934  44.8506890  12.5256195  32.1663552  44.2100082  12.4842813
  31.4133242  45.1019785  13.4482376  39.4450713  51.7874243  15.4462774
  39.3863259  51.1033463  14.7793357  39.8470231  52.5293233  14.9943400
  30.1692868  41.8372108  14.3451834  29.6330225  41.3862846  14.9973431
  29.5809576  41.9718017  13.6022299  28.4641411  58.6036157   8.2396493
  28.7038010  59.2354681   8.9175511  27.6210608  58.2524197   8.5261852
  39.4468120  49.7513827  13.6776754  38.5594899  49.4139749  13.8003152
  40.0166671  49.0196858  13.9145519  32.9769273  54.4115279  10.6437997
  32.9039445  55.2170251  11.1557301  32.5346666  54.6107245   9.8186018
  32.7659053  53.6487050   4.1540818  31.9826575  54.1908730   4.2479043
  33.4651798  54.1661029   4.5535060  43.9285460  45.1622045   8.4393315
  43.9175337  46.0446760   8.0687248  43.0602840  44.8093595   8.2447852
  35.4367957  54.3102114  12.7996155  36.1495929  54.9449578  12.7272057
  34.9457985  54.4065980  11.9836157  30.4879870  52.0596557  13.6201726
  31.1889330  52.6933040  13.7731121  30.0174985  52.4011289  12.8597366
  38.2881156  44.6141164  11.4454277  37.6352607  44.8617072  10.7906729
  38.6661536  43.8005303  11.1116754  35.2488330  54.6500858   5.5482447
  35.4310725  53.8322514   6.0110199  36.0721316  54.8668550   5.1107337
  35.5830496  53.5769043   2.8097495  36.1118262  53.0661497   2.1967658
  35.8458715  53.2611573   3.6743028  34.3368729  45.3560976  17.9320314
  33.6609366  45.2555105  18.6022689  35.1596363  45.2000189  18.3956311
  26.0847588  51.5932912  10.5532829  26.6701025  50.8476600  10.6860733
  25.8872427  51.9036869  11.4369493  28.9386244  54.6284159   5.5695271
  28.2696619  55.1130287   5.0859311  28.7999113  54.8753380   6.4838650
  33.0791512  56.6627903  12.1677930  33.6309820  56.8259524  12.9327015
  33.4197706  57.2532341  11.4957955  27.5308278  41.0826185  16.4172849
  28.1580317  40.7003263  17.0310373  26.6736197  40.8640387  16.7828541
  37.9302387  51.4889160  18.0226584  38.4742291  52.1019119  17.5281539
  37.3489231  52.0468739  18.5393597  36.2159899  54.6109878   9.1541612
  36.0911039  53.8099618   8.6452557  36.8738991  55.1056072   8.6655582
  38.2794808  52.4118899  10.7821162  37.3325143  52.2924250  10.7099489
  38.6277581  51.5241397  10.8647423  30.6394381  38.3013037  14.6059404
  31.1628783  38.5475334  15.3685713  30.4206714  39.1333072  14.1862541
  35.2841241  52.2071615   6.9825514  35.1366204  51.2788322   7.1633084
  36.1094735  52.2291705   6.4982589  38.8875363  53.0300174   8.0690387
  39.8121910  52.8243035   7.9314838  38.7190666  52.7816575   8.9779728
  31.8446926  39.2426733  12.2909074  31.5043747  38.4434546  12.6929754
  31.1385933  39.5428443  11.7185908  33.7324490  40.4435054  10.6462393
  33.4742268  41.3652124  10.6446723  33.2009531  40.0465488  11.3362857
  38.6770679  53.5485841   3.4252478  38.8507557  52.9832263   2.6726331
  39.1699570  54.3486736   3.2431968  24.4947639  45.5600510  11.4916037
  23.9501107  46.3360318  11.6236312  25.3726989  45.9071315  11.3335159
  44.5310070  46.3122264   5.0442778  44.9741216  45.5629589   4.6461901
  43.6536581  46.3032400   4.6616510  39.6645852  52.8652605   0.5249377
  40.3596756  53.4859298   0.7436691  40.0069002  52.0147957   0.8001755
  25.2813661  44.6870406  14.3846194  24.5395397  44.8353042  14.9710825
  24.9606405  44.9478672  13.5212944  41.5637275  50.3152311   2.0536707
  42.0888599  50.6539584   1.3286027  41.4759627  49.3799326   1.8699842
  33.2257324  54.2286385  14.1826584  33.5344450  53.9835531  15.0549284
  34.0232806  54.4333023  13.6945454  33.2477936  56.3824294   6.4131961
  32.8082926  55.8900673   7.1064817  33.9986053  55.8397262   6.1724036
  25.7270275  52.5735835   6.4156589  26.5528294  52.2739607   6.0355232
  25.3764327  51.8043457   6.8646377  30.6951808  51.9262303   8.4854262
  30.0731817  51.2633008   8.1856490  31.3656675  51.9523435   7.8027910
  30.7676335  40.4044091  18.0786768  30.8164491  41.2806214  17.6964538
  31.3098849  39.8621484  17.5058412  41.2531181  50.9485215  17.3587905
  40.4626725  50.9309353  16.8192405  41.0164535  51.4873508  18.1136942
  41.3729056  47.7977681  14.6720634  41.4227061  47.6327688  15.6136157
  41.2642979  46.9304940  14.2818515  38.6632818  43.7808609  15.9879941
  39.5642681  43.6415074  15.6963938  38.7380793  43.9463064  16.9278118
  32.9975624  41.1575464  14.8333127  32.1278933  41.4509030  14.5615716
  33.2335104  41.7415909  15.5540391  42.8747253  50.2174622  14.9162656
  42.5832061  50.5804603  15.7526116  42.2619384  49.5041631  14.7375988
  44.0742935  47.7827502   7.4365226  44.9089826  48.2217306   7.6002786
  44.2102064  47.3066155   6.6173472  41.1234441  45.3407237  13.3842713
  41.5988563  45.5334883  12.5761565  40.2000006  45.3966423  13.1386097
  35.7014657  37.3755081  12.3498547  36.2196601  38.1116108  12.0245036
  35.3469790  37.6819074  13.1845307  39.8236110  42.2172997  11.6171019
  40.7753533  42.3171095  11.6383243  39.6539560  41.4251266  12.1269103
  37.8450489  39.3028580  11.8030420  37.2500422  39.5833593  11.1076909
  37.5600186  39.7922481  12.5747161  42.3024188  45.4379117  10.7313319
  42.2700508  44.4995118  10.9173003  42.9124811  45.5163154   9.9979144
  42.4518676  42.2290160  10.7771602  41.9357725  41.4448617  10.5901531
  43.3358625  41.9008877  10.9418121  48.1200738  46.4995124   9.8719356
  48.8504126  46.2380412  10.4327059  47.5107683  45.7623846   9.9121424
  46.2016035  44.6402986  10.4693807  45.4749198  44.5058951   9.8610298
  45.7863322  44.9479815  11.2750525  34.0246211  48.3592916  18.2341180
  34.9449221  48.5371515  18.4281226  33.9895794  47.4148961  18.0820879
  27.0208284  46.2693951  10.8763961  27.2394294  47.2011058  10.8951995
  27.4334058  45.9101925  11.6618765  31.8936149  41.8427156  20.2666710
  31.7932876  42.7921513  20.1978801  31.6757691  41.5145395  19.3942780
  31.7567419  45.2724295  19.0831772  31.2734501  46.0724655  19.2895661
  31.8428358  45.2832240  18.1299215  27.6840757  49.1628830  11.1200205
  28.6384010  49.1312772  11.0530137  27.4853280  48.7019454  11.9350431
  28.2740139  47.7329946  13.6871003  29.0933028  48.2274025  13.7105840
  28.5476946  46.8161914  13.6588570  43.8193830  40.8614838   7.8227238
  44.4138320  40.6210574   7.1120547  43.8920413  40.1421969   8.4500775
  26.0390985  54.7048449   8.1370403  25.9045453  53.9448850   7.5708401
  25.6223048  55.4289349   7.6699192  46.1264902  44.1681039   6.5970660
  45.5664460  44.2374229   7.3702222  45.5208406  43.9922024   5.8770156
  29.1960111  55.6017766   8.3488846  29.0792495  56.5463199   8.2467536
  28.3752558  55.2991328   8.7374645  23.5275053  42.0668080  14.3863200
  24.1733917  41.5567034  14.8750425  23.3192204  42.8036761  14.9606625
  36.0528445  49.1348927  19.8855341  36.9219605  49.3089580  19.5241976
  35.5735197  49.9543344  19.7631070  30.2214625  56.2546028  11.5644774
  31.1241872  56.2869639  11.8811269  29.9951995  55.3246479  11.5791110
  31.9768227  55.0077015   8.2254853  31.0263858  55.0078876   8.1119225
  32.2800714  54.2609749   7.7090887  27.8672544  39.2135697  18.4838214
  28.7304006  38.8572502  18.6941539  27.2937955  38.8749592  19.1713619
  47.7120921  60.8437553   9.2900615  48.3499331  60.7244301   8.5863955
  47.5941764  61.7918397   9.3488567  44.5210627  60.7964981   9.2262140
  44.1829139  60.6806046   8.3382675  45.3900395  60.3956146   9.2063146
  40.3797443  62.6500458   5.2159031  39.8162308  62.5590395   4.4475319
  40.2649838  61.8300362   5.6961523  45.0030410  61.9499833  15.1848345
  44.9919051  61.5552631  14.3128849  45.1651050  61.2165906  15.7782117
  37.9261875  64.1451649   8.0543251  38.7183167  63.8042474   7.6389551
  38.1658525  64.2546624   8.9745405  45.9597002  66.3171425   0.5273496
  45.3084981  66.9025506   0.1407510  46.7541364  66.8477620   0.5868533
  39.8852629  63.4060563   0.9260630  40.6583505  62.8589550   0.7873506
  40.2378028  64.2704812   1.1375092  41.7237671  64.7336945  14.1327529
  41.4327537  65.6382576  14.0174196  42.3594656  64.7753472  14.8471599
  42.6493878  62.1113793  10.7228889  43.2457450  61.8869816  10.0085852
  42.7068850  61.3698539  11.3254337  42.2218907  59.5653229  -1.4420920
  42.4744427  59.0434750  -2.2037457  41.2843466  59.4019374  -1.3394236
  47.2662189  58.5689007   6.3653823  48.0525279  58.1508430   6.0144240
  47.5300894  59.4735099   6.5335472  47.4372267  64.0061857   1.0642480
  46.8018100  64.0796484   1.7763385  47.1069673  64.5955456   0.3861559
  52.6670617  58.5064240   7.2686802  53.3995788  57.9363457   7.5024631
  51.9109972  58.1185841   7.7093307  41.9415195  61.4681335   0.7603455
  41.8251453  60.7926238   1.4284539  42.0517455  60.9813709  -0.0564392
  44.2846736  60.9291482   4.4650144  43.9204943  60.4022103   5.1763066
  45.1413852  60.5389951   4.2916630  50.1896037  52.2185814  11.7281410
  49.8579362  53.0881225  11.5042625  49.5941650  51.9022098  12.4075441
  43.9252223  55.9581381  -0.5388507  44.0926626  56.8261618  -0.1718036
  43.7349392  56.1208663  -1.4627218  46.6827556  64.4198360  11.1277323
  46.3828279  65.3223399  11.0193130  46.3378616  64.1530544  11.9798476
  40.1340038  60.8712157   7.1614028  39.2090534  60.7388371   7.3691719
  40.3824451  61.6506376   7.6583970  50.0824700  56.9380901   8.8074760
  49.1741578  56.8696309   8.5133521  50.0312296  57.4152846   9.6356586
  43.9041444  58.4139039   0.4458160  43.7841069  58.8596090   1.2843640
  43.2094032  58.7624357  -0.1128302  37.4948849  60.5145431   7.9957817
  37.6241230  60.7679910   8.9097228  36.8146300  61.1073139   7.6762472
  41.6648336  71.1842681   4.0948291  41.5872366  72.1350506   4.1736771
  41.0609980  70.8388553   4.7523217  44.1565566  58.3570546  16.7509658
  43.3798900  58.9164466  16.7412522  44.7956129  58.8427329  17.2724528
  51.9486347  55.1397339  10.5852634  51.3060727  55.4329872   9.9392429
  51.4441275  55.0250259  11.3905831  49.6026510  58.8860512   1.2738494
  50.5144366  59.1187899   1.0986191  49.0936157  59.4697556   0.7113572
  42.4111938  61.1656000  16.3127625  43.1526623  61.7041043  16.0362448
  41.7048924  61.7922288  16.4699177  47.8867278  63.3085140  14.9099786
  48.2950634  62.8667551  14.1654419  47.1644539  62.7337768  15.1633979
  44.2398348  58.2457747  12.2833343  45.0859543  58.6697160  12.4267992
  44.1796986  57.5891371  12.9771906  48.2096093  63.8686331   8.6652075
  47.5804955  64.0332045   7.9628143  47.8221755  64.2827940   9.4363039
  52.0885324  64.8040768   6.0196439  51.4036363  65.1839670   5.4693472
  52.1729174  65.4136095   6.7528387  47.3897793  55.9062115  13.9414517
  47.1458725  56.6604176  13.4048793  47.6657724  56.2847463  14.7761764
  49.3436256  62.4500727  12.6191782  49.5553151  63.0932487  11.9426163
  49.2966004  61.6163044  12.1513712  46.9462485  55.0618548   9.5228355
  46.0846964  55.3599802   9.8145092  46.9724920  55.2788947   8.5909387
  43.7624054  63.6060739   5.9302160  44.2262400  63.8848442   5.1406783
  43.4980853  62.7044183   5.7475251  40.6548135  63.1532220   8.8681923
  41.2249493  63.5819489   8.2299408  41.2456247  62.8714805   9.5666109
  42.6992940  59.7283891   2.7391725  43.4016984  60.1804935   3.2065652
  42.3673569  59.0867710   3.3671618  41.1473302  58.3195648  17.1142935
  40.5171963  59.0011929  17.3478332  41.0409390  58.2078729  16.1696073
  36.4418274  57.9867444   8.0408859  35.6517328  58.2424972   7.5648970
  36.9329522  58.8015782   8.1460899  50.4582084  65.3272683  10.7914140
  51.2799528  64.9252870  10.5096821  50.4544487  65.2240917  11.7430256
  38.3933020  58.3512023   4.9992336  37.5964183  58.4630717   5.5175831
  38.1658612  58.6898675   4.1333226  44.2238687  64.8756726  12.9474850
  44.2883120  65.3377133  13.7833022  43.5149611  64.2454091  13.0757160
  34.7255977  58.2397934  10.4723850  34.9764016  59.1244944  10.7381426
  35.2615526  58.0602536   9.6998942  58.5488077  61.6711431   7.1399111
  57.7951785  61.1018829   6.9843116  58.6835618  61.6374096   8.0869746
  43.9386705  66.5424834   2.8153831  43.8032380  67.3876369   3.2438678
  44.4796518  66.7444111   2.0519764  40.4254045  52.6216414  19.4768186
  40.0320990  52.0682612  20.1515830  41.2420185  52.9326992  19.8674703
  37.3916102  64.0600272   3.3881756  37.9040623  64.8543522   3.5387320
  38.0438815  63.3626562   3.3215357  39.2010987  67.1766028   5.4704509
  39.3777616  68.0983993   5.2825493  39.9967821  66.8624447   5.8998889
  43.3422006  54.0374293  17.0688442  44.0831719  54.6381446  16.9892905
  43.5739929  53.2951930  16.5106485  38.4863344  59.2230660  15.3466672
  38.3716859  58.3215917  15.6473771  37.6307861  59.4694357  14.9951489
  45.5655181  67.1648400  16.9454173  45.1219036  66.3784779  16.6275077
  46.2272395  67.3527551  16.2798063  40.3242303  68.6944202  11.4714851
  40.8749728  68.5661265  10.6991845  39.4853779  68.9939091  11.1209744
  47.6636420  67.4451200  14.9735574  47.6454895  68.2660081  14.4815843
  48.5856340  67.3205275  15.1985715  44.1209474  64.9595330  15.8159082
  44.6537810  64.1983618  15.5858390  43.5923555  64.6668981  16.5583237
  47.2879169  50.0655396  11.3452724  46.9443438  50.9557037  11.2691835
  47.6558131  49.8757053  10.4822309  35.3565019  62.3888926   4.1641326
  36.1940241  62.7985934   3.9475034  35.5343287  61.4488368   4.1341520
  47.2529451  60.0564007  -0.1474841  46.7376075  60.8268611   0.0913547
  46.9806760  59.3829143   0.4758221  44.8376562  54.9013707   4.9110398
  43.9818159  54.5120558   4.7316036  45.2503514  54.9805668   4.0510183
  46.3675709  52.4360051   9.3101957  45.8640505  52.3990186   8.4969763
  46.6606316  53.3452793   9.3698614  42.6118595  52.5198780   8.3168139
  43.4771592  52.3241589   7.9574028  42.6796104  52.2909132   9.2437496
  52.2263726  62.8096361   1.7878333  51.4493168  62.4707521   1.3433495
  52.9055206  62.8148984   1.1133298  47.0415755  57.9291099   1.6784940
  46.7365890  58.2437248   2.5295084  47.9946197  58.0072519   1.7212273
  45.4862186  64.0881322   3.3277894  44.9583548  63.3534082   3.0151132
  44.9849689  64.8655998   3.0817863  50.4655032  62.2830343   8.4444941
  49.8078707  62.9729604   8.5325069  51.2695432  62.6726775   8.7878927
  40.2180914  54.7500988   5.6884506  40.7924666  54.5276170   4.9557699
  40.8051896  54.8189683   6.4413107  49.2760491  60.6374715   6.4948882
  49.7892373  61.2704707   6.9970592  49.9261715  60.0375911   6.1292242
  40.5450501  56.7805449  -0.2919609  39.7087813  57.1180136   0.0289666
  40.4055271  56.6454429  -1.2292472  42.5203582  51.6242237   4.4159575
  41.8667994  51.3091254   3.7916190  42.4784056  51.0017978   5.1419398
  43.6314787  61.9061532  -3.6687133  42.7241848  61.6750786  -3.4695984
  44.1285819  61.1099152  -3.4813151  46.5382865  70.6159040  -0.7490446
  45.8644564  70.9190736  -0.1405489  46.9248687  71.4188120  -1.0984989
  45.7541322  58.1124171   8.7407223  44.8363883  58.3339118   8.5828911
  46.1701466  58.1870481   7.8818930  46.5376370  59.5115587   3.8709903
  47.2848189  60.0236984   3.5617025  46.8067959  59.1899639   4.7314297
  44.8103020  62.0074127   0.8536857  43.9014239  61.7233160   0.9509327
  44.8398104  62.4273206  -0.0059836  50.0422287  65.6180717   4.6228025
  49.5884615  64.7771627   4.6793215  49.4116254  66.2542115   4.9602805
  48.9855207  56.5472703   5.8528692  48.2477964  56.0350089   6.1838935
  49.2381981  56.1073084   5.0411969  48.4855227  67.4557213   5.5577843
  48.7778201  68.0162271   4.8390209  48.9953847  67.7485774   6.3131002
  49.0866834  49.3248955   6.4470462  49.3925711  48.4646318   6.1596377
  49.8119439  49.9166575   6.2469456  35.3791190  59.7279641   4.8352060
  35.1815590  59.1349002   4.1103126  34.8237854  59.4231852   5.5527998
  43.3587914  59.6202748   6.9546653  43.4136524  58.6676584   6.8789129
  42.5479116  59.7762187   7.4387951  44.5079108  63.5482871  -1.8075064
  44.0698538  62.8318730  -2.2669427  45.2489549  63.7758986  -2.3689973
  41.2980274  58.2379808   4.7137032  40.4848140  58.5373978   5.1202224
  41.7939268  57.8435496   5.4311514  43.4488852  68.2337565   6.6471296
  43.4065031  68.4598411   5.7179828  44.3651551  68.0000939   6.7957097
  46.8954486  58.7021632  13.5451926  47.2503873  58.9293105  14.4046391
  47.5426617  59.0340009  12.9229181  52.6252223  61.8240068   4.2501255
  52.4870121  62.0141664   3.3222444  52.2688441  62.5859451   4.7069306
  40.7894349  55.8098163  10.3298267  41.4293728  55.6686922   9.6321230
  39.9571879  55.5232676   9.9536869  52.6521602  63.8916595   9.2612526
  53.0858109  63.7991884  10.1095580  53.3653183  63.8674095   8.6232542
  41.5654653  65.1100594   6.4433259  42.3595251  64.6150914   6.2415834
  40.8546345  64.5818457   6.0800965  46.3849497  67.4918689  10.7945627
  46.4386519  68.0609625  11.5623343  45.5164278  67.6620574  10.4299664
  37.8737416  59.2543675   2.5193012  36.9435004  59.1928131   2.7362974
  37.9694888  58.7319628   1.7229653  37.7922965  55.7798488   5.1071253
  38.0529782  56.6943821   4.9980414  38.6140137  55.3122931   5.2567866
  39.2647890  57.1936245  12.2770078  39.9370944  56.9853607  11.6282727
  38.4377677  56.9958331  11.8375310  53.5137152  63.9340296  11.7945411
  53.7073042  64.8386106  12.0404686  53.4137770  63.4747715  12.6283997
  45.1673463  53.8198186  14.2935739  44.5201378  54.5188136  14.2000215
  45.9374478  54.2534330  14.6611987  48.5752260  64.0847038  17.3686292
  48.4237767  63.8557590  16.4516376  48.5656940  65.0417640  17.3817637
  45.3437597  61.6578951  12.3532559  46.2729657  61.8090111  12.1801526
  44.9228627  61.7462972  11.4981205  44.1425929  65.6829616  10.1231096
  44.0037014  65.3148400  10.9957034  43.3540525  66.1977255   9.9515054
  44.7374081  70.7838712   1.4656633  44.9125836  70.3126755   2.2802255
  44.0506869  71.4104478   1.6937893  45.6931144  65.0611218   7.5119934
  45.3580976  65.0211988   8.4077584  45.1935089  64.3955934   7.0390344
  39.6675388  60.4678848  13.0372515  39.5295186  59.7359087  13.6384054
  40.5780311  60.3787748  12.7556703  48.6290335  62.4067253  -2.2143006
  48.0119506  61.6814081  -2.3109954  48.1606824  63.1676613  -2.5575932
  42.2957688  60.1798808  12.5256195  43.0057307  59.5392000  12.4842813
  42.2526997  60.4311702  13.4482376  50.2844467  67.1166161  15.4462774
  50.2257013  66.4325381  14.7793357  50.6863985  67.8585151  14.9943400
  41.0086622  57.1664025  14.3451834  40.4723979  56.7154764  14.9973431
  40.4203331  57.3009934  13.6022299  39.3035166  73.9328075   8.2396493
  39.5431764  74.5646599   8.9175511  38.4604362  73.5816115   8.5261852
  50.2861874  65.0805745  13.6776754  49.3988653  64.7431667  13.8003152
  50.8560425  64.3488776  13.9145519  31.9391021  61.4129837   7.0019805
  32.6262061  61.0991567   6.4140820  31.7839150  62.3171201   6.7287056
  36.7425744  56.3020033  11.4304829  36.6583932  55.6945703  10.6955239
  35.9208450  56.7929051  11.4314325  43.8163028  69.7407197  10.6437997
  43.7433199  70.5462169  11.1557301  43.3740421  69.9399163   9.8186018
  43.6052807  68.9778967   4.1540818  42.8220329  69.5200647   4.2479043
  44.3045553  69.4952947   4.5535060  46.9149457  54.7873597   6.7975024
  47.4118157  54.0343559   6.4776094  46.1436439  54.8237913   6.2318233
  54.7679215  60.4913962   8.4393315  54.7569091  61.3738678   8.0687248
  53.8996594  60.1385513   8.2447852  46.2761711  69.6394031  12.7996155
  46.9889683  70.2741496  12.7272057  45.7851740  69.7357897  11.9836157
  47.9979238  63.5445284   4.3713447  47.0635517  63.6646746   4.2018151
  48.1755907  62.6417751   4.1073457  43.4984426  56.9290980   6.5246708
  43.1282214  56.3762020   7.2127614  43.9943519  56.3249113   5.9721708
  51.3851790  59.3862603   4.9063481  51.8512242  60.2190595   4.8323784
  51.8359290  58.9207585   5.6108740  41.3273625  67.3888475  13.6201726
  42.0283084  68.0224958  13.7731121  40.8568740  67.7303206  12.8597366
  49.4528021  65.7306424   1.9049633  49.7287865  65.6163019   2.8143507
  48.5832519  65.3323909   1.8661806  49.3568452  51.7543190   8.9454383
  48.4431532  51.9847417   9.1136590  49.7861554  51.8381634   9.7968415
  49.1274911  59.9433082  11.4454277  48.4746361  60.1908990  10.7906729
  49.5055291  59.1297220  11.1116754  46.0882085  69.9792775   5.5482447
  46.2704479  69.1614431   6.0110199  46.9115071  70.1960468   5.1107337
  46.4224250  68.9060960   2.8097495  46.9512017  68.3953415   2.1967658
  46.6852470  68.5903491   3.6743028  45.1762484  60.6852893  17.9320314
  44.5003121  60.5847023  18.6022689  45.9990118  60.5292107  18.3956311
  36.9241343  66.9224830  10.5532829  37.5094780  66.1768518  10.6860733
  36.7266181  67.2328786  11.4369493  39.7779998  69.9576077   5.5695271
  39.1090373  70.4422205   5.0859311  39.6392868  70.2045298   6.4838650
  31.5158998  59.4930430   9.2737272  31.5543097  58.9594021  10.0674390
  31.0099290  58.9665635   8.6548249  43.9185267  71.9919821  12.1677930
  44.4703575  72.1551442  12.9327015  44.2591460  72.5824258  11.4957955
  38.8949760  54.3394970  12.7699814  38.9591086  55.2009801  12.3577212
  38.8316880  53.7268972  12.0372173  38.3702032  56.4118103  16.4172849
  38.9974071  56.0295180  17.0310373  37.5129951  56.1932305  16.7828541
  48.7696141  66.8181078  18.0226584  49.3136045  67.4311036  17.5281539
  48.1882986  67.3760657  18.5393597  35.1467575  58.2194532   2.3491204
  35.4421016  57.3105211   2.2958257  34.2455611  58.1982272   2.0272206
  47.0553654  69.9401796   9.1541612  46.9304793  69.1391536   8.6452557
  47.7132745  70.4347990   8.6655582  38.6761822  56.2950529   8.3318752
  37.9548408  56.9086496   8.1926225  39.4655078  56.8308293   8.2535398
  49.1188562  67.7410816  10.7821162  48.1718898  67.6216167  10.7099489
  49.4671335  66.8533314  10.8647423  41.4788136  53.6304955  14.6059404
  42.0022538  53.8767252  15.3685713  41.2600469  54.4624990  14.1862541
  36.8755417  55.9008630   2.4730529  36.5468123  55.0206009   2.2905635
  37.2294787  55.8456298   3.3606918  46.1234996  67.5363532   6.9825514
  45.9759958  66.6080240   7.1633084  46.9488489  67.5583623   6.4982589
  39.9897240  56.1881600   2.8406006  40.3293312  56.7167521   2.1184615
  40.4369360  56.5262006   3.6164573  49.7269117  68.3592091   8.0690387
  50.6515665  68.1534953   7.9314838  49.5584421  68.1108492   8.9779728
  42.6840681  54.5718650  12.2909074  42.3437501  53.7726463  12.6929754
  41.9779687  54.8720361  11.7185908  43.3357153  51.6567963  10.7436397
  44.1583222  51.1828441  10.6215288  43.5795216  52.4358446  11.2435084
  41.9765387  54.6856221   1.0399299  42.6973750  55.0637474   0.5363016
  41.3530691  55.4045098   1.1434277  46.1196510  55.3901370   1.9757631
  46.3360124  56.2726008   1.6746460  45.6390577  54.9987584   1.2463273
  40.8595731  58.3487083   8.5528376  40.7140312  58.6627386   9.4452658
  40.3820935  58.9671984   7.9999275  42.7192114  55.3389631   8.6009266
  42.7053683  54.4430725   8.2641564  43.4364542  55.3460295   9.2347552
  44.5718245  55.7726972  10.6462393  44.3136023  56.6944042  10.6446723
  44.0403285  55.3757406  11.3362857  49.5164434  68.8777759   3.4252478
  49.6901311  68.3124181   2.6726331  50.0093325  69.6778654   3.2431968
  35.3341393  60.8892428  11.4916037  34.7894862  61.6652236  11.6236312
  36.2120743  61.2363232  11.3335159  42.1229010  54.2204012   3.8696836
  42.2444921  53.2920658   4.0687723  41.8331053  54.2342698   2.9575151
  44.9920201  51.9058922   7.0063556  45.0141897  51.9698255   6.0515535
  45.4088260  51.0663431   7.2004062  55.3703825  61.6414182   5.0442778
  55.8134971  60.8921507   4.6461901  54.4930335  61.6324318   4.6616510
  50.5039606  68.1944523   0.5249377  51.1990511  68.8151216   0.7436691
  50.8462756  67.3439874   0.8001755  36.1207415  60.0162324  14.3846194
  35.3789151  60.1644959  14.9710825  35.8000160  60.2770590  13.5212944
  52.4031029  65.6444229   2.0536707  52.9282353  65.9831501   1.3286027
  52.3153382  64.7091244   1.8699842  44.0651078  69.5578302  14.1826584
  44.3738204  69.3127449  15.0549284  44.8626560  69.7624941  13.6945454
  44.0871690  71.7116212   6.4131961  43.6476680  71.2192591   7.1064817
  44.8379807  71.1689180   6.1724036  36.5664029  67.9027753   6.4156589
  37.3922049  67.6031525   6.0355232  36.2158081  67.1335375   6.8646377
  41.5345562  67.2554221   8.4854262  40.9125571  66.5924926   8.1856490
  42.2050429  67.2815353   7.8027910  34.7672634  65.8214079   7.3745522
  33.9304542  65.3936254   7.1929524  34.7396280  66.0146523   8.3116314
  41.6070090  55.7336009  18.0786768  41.6558245  56.6098132  17.6964538
  42.1492604  55.1913402  17.5058412  52.0924935  66.2777132  17.3587905
  51.3020479  66.2601271  16.8192405  51.8558290  66.8165426  18.1136942
  52.2122810  63.1269599  14.6720634  52.2620815  62.9619606  15.6136157
  52.1036734  62.2596858  14.2818515  41.0959069  65.8058144   1.9612723
  41.2447189  66.4893609   1.3079396  41.9025513  65.7863234   2.4762179
  49.5026573  59.1100527  15.9879941  50.4036436  58.9706991  15.6963938
  49.5774547  59.2754981  16.9278118  43.8369378  56.4867381  14.8333127
  42.9672688  56.7800947  14.5615716  44.0728859  57.0707826  15.5540391
  53.7141007  65.5466540  14.9162656  53.4225816  65.9096521  15.7526116
  53.1013139  64.8333548  14.7375988  54.9136690  63.1119420   7.4365226
  55.7483581  63.5509224   7.6002786  55.0495818  62.6358073   6.6173472
  51.9628195  60.6699155  13.3842713  52.4382317  60.8626801  12.5761565
  51.0393761  60.7258341  13.1386097  38.8511702  61.8323322   2.9673792
  38.6057744  60.9285652   3.1654002  39.0207617  61.8340472   2.0253270
  46.5408412  52.7046998  12.3498547  47.0590356  53.4408025  12.0245036
  46.1863545  53.0110992  13.1845307  38.1207350  57.5651680   0.4659953
  37.4276595  57.6396034  -0.1900011  37.8759102  56.8012023   0.9881470
  46.7921006  49.1247281   7.8699444  47.0722760  48.4570470   8.4959871
  47.5771613  49.3176376   7.3574108  44.5954475  68.3006275  -0.5675530
  44.0228442  68.9196462  -1.0205058  45.1687268  68.8505636  -0.0335608
  50.6629864  57.5464915  11.6171019  51.6147287  57.6463012  11.6383243
  50.4933315  56.7543183  12.1269103  48.6844244  54.6320498  11.8030420
  48.0894176  54.9125511  11.1076909  48.3993941  55.1214399  12.5747161
  47.8151734  68.5843425   0.5633053  48.7482408  68.5188987   0.7665928
  47.7274947  69.4199692   0.1047585  50.4439751  67.9009295  -2.4763000
  50.3653383  67.5669159  -1.5827242  51.2649418  68.3931063  -2.4771528
  53.1417942  60.7671035  10.7313319  53.1094262  59.8287035  10.9173003
  53.7518566  60.8455071   9.9979144  44.9801273  59.6367087  -3.2259477
  45.9260378  59.5073296  -3.1571059  44.6015518  58.8981749  -2.7490049
  53.2912431  57.5582078  10.7771602  52.7751479  56.7740535  10.5901531
  54.1752379  57.2300795  10.9418121  50.9523158  51.3023094   6.7367415
  50.7547979  50.9938182   7.6210747  51.5622863  52.0284732   6.8665344
  58.9594492  61.8287041   9.8719356  59.6897881  61.5672329  10.4327059
  58.3501438  61.0915763   9.9121424  57.0409789  59.9694904  10.4693807
  56.3142953  59.8350869   9.8610298  56.6257076  60.2771733  11.2750525
  44.8639966  63.6884834  18.2341180  45.7842975  63.8663433  18.4281226
  44.8289549  62.7440879  18.0820879  34.0822131  58.8823427   7.1594454
  33.7624915  58.0288735   6.8668828  33.5355559  59.0972005   7.9152422
  37.8602038  61.5985868  10.8763961  38.0788048  62.5302976  10.8951995
  38.2727812  61.2393843  11.6618765  44.7806256  52.1053954   2.8639649
  43.9706984  51.7601039   3.2394895  45.4690673  51.7961497   3.4527261
  46.7096804  51.1832000   4.4863946  47.2627843  51.6027454   5.1453969
  46.9466891  50.2567749   4.5286902  42.7329904  57.1719074  20.2666710
  42.6326630  58.1213431  20.1978801  42.5151446  56.8437313  19.3942780
  33.9510391  62.5026339   9.1287576  33.2573862  62.0880292   8.6157530
  34.6983382  62.5446875   8.5320995  50.0875611  53.2932526   3.9942610
  49.5074280  53.9517330   3.6120663  49.8211544  52.4709870   3.5830028
  48.5379178  52.6937583   6.1963931  49.0378956  52.8054118   5.3878249
  49.1814786  52.3898636   6.8364739  42.5961174  60.6016213  19.0831772
  42.1128255  61.4016573  19.2895661  42.6822113  60.6124158  18.1299215
  35.8647133  62.4344593   7.0053591  35.8417821  62.5332280   6.0535474
  36.1747770  63.2809743   7.3270757  38.5234511  64.4920748  11.1200205
  39.4777765  64.4604690  11.0530137  38.3247035  64.0311371  11.9350431
  39.1133893  63.0621864  13.6871003  39.9326782  63.5565942  13.7105840
  39.3870701  62.1453832  13.6588570  48.8700489  55.4532616   3.0498958
  47.9826344  55.7382267   2.8319153  49.2854478  55.2926379   2.2026235
  52.2215026  55.4779137   6.7653298  52.9975416  55.9675589   7.0377915
  51.4963160  55.9037191   7.2225167  54.6587584  56.1906756   7.8227238
  55.2532075  55.9502492   7.1120547  54.7314168  55.4713887   8.4500775
  36.8784740  70.0340367   8.1370403  36.7439208  69.2740768   7.5708401
  36.4616802  70.7581267   7.6699192  48.0143703  65.2177291  -2.8553022
  48.7179553  65.4227293  -2.2395366  47.2906352  65.7854053  -2.5903938
  48.8441513  60.9687152   3.2649249  48.7876715  61.4255703   2.4256881
  49.3969856  60.2077836   3.0872091  52.6546319  56.7576884   4.0899368
  52.3983253  56.3573519   4.9207576  52.0299187  57.4720678   3.9649507
  56.9658657  59.4972957   6.5970660  56.4058215  59.5666146   7.3702222
  56.3602160  59.3213942   5.8770156  40.0353866  70.9309684   8.3488846
  39.9186250  71.8755117   8.2467536  39.2146312  70.6283246   8.7374645
  49.9230400  65.6559820  -0.8054561  50.7576004  65.2241018  -0.9877087
  49.7614743  65.4841833   0.1222333  49.5776292  62.1591933   0.5601778
  49.5225096  61.9936205  -0.3809778  48.9522348  62.8667966   0.7163968
  34.3668807  57.3959997  14.3863200  35.0127671  56.8858951  14.8750425
  34.1585959  58.1328679  14.9606625  46.8922200  64.4640845  19.8855341
  47.7613359  64.6381497  19.5241976  46.4128951  65.2835262  19.7631070
  42.8872418  51.6600042   0.1387096  42.8751088  52.6041882   0.2955367
  43.7795840  51.4770188  -0.1553443  41.0608380  71.5837946  11.5644774
  41.9635627  71.6161556  11.8811269  40.8345750  70.6538397  11.5791110
  42.8161982  70.3368933   8.2254853  41.8657613  70.3370794   8.1119225
  43.1194468  69.5901667   7.7090887  46.7024537  48.2542819   4.3933033
  45.9356933  47.7001305   4.5389715  47.1135242  48.3264688   5.2547185
  38.7066298  54.5427615  18.4838214  39.5697760  54.1864419  18.6941539
  38.1331709  54.2041509  19.1713619  58.5514675  76.1729471   9.2900615
  59.1893085  76.0536218   8.5863955  58.4335518  77.1210315   9.3488567
  55.3604382  76.1256899   9.2262140  55.0222893  76.0097964   8.3382675
  56.2294150  75.7248064   9.2063146  51.2191197  77.9792375   5.2159031
  50.6556062  77.8882312   4.4475319  51.1043592  77.1592280   5.6961523
  55.8424165  77.2791751  15.1848345  55.8312805  76.8844549  14.3128849
  56.0044804  76.5457823  15.7782117  48.7655629  79.4743567   8.0543251
  49.5576921  79.1334392   7.6389551  49.0052279  79.5838542   8.9745405
  56.7990756  81.6463343   0.5273496  56.1478736  82.2317424   0.1407510
  57.5935119  82.1769538   0.5868533  50.7246383  78.7352480   0.9260630
  51.4977259  78.1881467   0.7873506  51.0771782  79.5996730   1.1375092
  52.5631426  80.0628863  14.1327529  52.2721292  80.9674493  14.0174196
  53.1988410  80.1045390  14.8471599  53.4887633  77.4405711  10.7228889
  54.0851205  77.2161733  10.0085852  53.5462604  76.6990457  11.3254337
  53.0612661  74.8945146  -1.4420920  53.3138182  74.3726668  -2.2037457
  52.1237220  74.7311292  -1.3394236  58.1055944  73.8980925   6.3653823
  58.8919033  73.4800348   6.0144240  58.3694648  74.8027017   6.5335472
  58.2766021  79.3353775   1.0642480  57.6411854  79.4088402   1.7763385
  57.9463428  79.9247374   0.3861559  63.5064371  73.8356158   7.2686802
  64.2389543  73.2655375   7.5024631  62.7503727  73.4477758   7.7093307
  52.7808950  76.7973252   0.7603455  52.6645208  76.1218156   1.4284539
  52.8911210  76.3105626  -0.0564392  55.1240491  76.2583399   4.4650144
  54.7598698  75.7314020   5.1763066  55.9807607  75.8681869   4.2916630
  61.0289791  67.5477732  11.7281410  60.6973116  68.4173143  11.5042625
  60.4335405  67.2314016  12.4075441  54.7645978  71.2873299  -0.5388507
  54.9320380  72.1553536  -0.1718036  54.5743147  71.4500581  -1.4627218
  57.5221311  79.7490278  11.1277323  57.2222034  80.6515317  11.0193130
  57.1772370  79.4822461  11.9798476  50.9733792  76.2004075   7.1614028
  50.0484289  76.0680289   7.3691719  51.2218206  76.9798294   7.6583970
  60.9218455  72.2672818   8.8074760  60.0135332  72.1988227   8.5133521
  60.8706050  72.7444763   9.6356586  54.7435199  73.7430957   0.4458160
  54.6234824  74.1888007   1.2843640  54.0487787  74.0916274  -0.1128302
  48.3342603  75.8437348   7.9957817  48.4634985  76.0971827   8.9097228
  47.6540055  76.4365056   7.6762472  52.5042091  86.5134598   4.0948291
  52.4266120  87.4642423   4.1736771  51.9003734  86.1680471   4.7523217
  54.9959320  73.6862464  16.7509658  54.2192655  74.2456384  16.7412522
  55.6349884  74.1719247  17.2724528  62.7880101  70.4689257  10.5852634
  62.1454481  70.7621790   9.9392429  62.2835030  70.3542177  11.3905831
  60.4420265  74.2152430   1.2738494  61.3538121  74.4479817   1.0986191
  59.9329912  74.7989474   0.7113572  53.2505693  76.4947917  16.3127625
  53.9920377  77.0332961  16.0362448  52.5442678  77.1214206  16.4699177
  58.7261032  78.6377058  14.9099786  59.1344388  78.1959468  14.1654419
  58.0038294  78.0629685  15.1633979  55.0792102  73.5749664  12.2833343
  55.9253298  73.9989078  12.4267992  55.0190740  72.9183289  12.9771906
  59.0489847  79.1978248   8.6652075  58.4198709  79.3623962   7.9628143
  58.6615509  79.6119858   9.4363039  62.9279079  80.1332686   6.0196439
  62.2430117  80.5131588   5.4693472  63.0122928  80.7428013   6.7528387
  58.2291548  71.2354033  13.9414517  57.9852480  71.9896093  13.4048793
  58.5051478  71.6139380  14.7761764  60.1830011  77.7792645  12.6191782
  60.3946906  78.4224405  11.9426163  60.1359759  76.9454962  12.1513712
  57.7856239  70.3910466   9.5228355  56.9240719  70.6891719   9.8145092
  57.8118674  70.6080865   8.5909387  54.6017809  78.9352656   5.9302160
  55.0656154  79.2140359   5.1406783  54.3374607  78.0336101   5.7475251
  51.4941890  78.4824138   8.8681923  52.0643247  78.9111406   8.2299408
  52.0850002  78.2006723   9.5666109  53.5386695  75.0575809   2.7391725
  54.2410738  75.5096852   3.2065652  53.2067323  74.4159628   3.3671618
  51.9867056  73.6487565  17.1142935  51.3565717  74.3303846  17.3478332
  51.8803144  73.5370647  16.1696073  47.2812029  73.3159361   8.0408859
  46.4911083  73.5716890   7.5648970  47.7723276  74.1307699   8.1460899
  61.2975838  80.6564601  10.7914140  62.1193282  80.2544788  10.5096821
  61.2938241  80.5532835  11.7430256  49.2326774  73.6803941   4.9992336
  48.4357938  73.7922635   5.5175831  49.0052367  74.0190593   4.1333226
  55.0632442  80.2048644  12.9474850  55.1276874  80.6669051  13.7833022
  54.3543366  79.5746009  13.0757160  45.5649732  73.5689852  10.4723850
  45.8157770  74.4536862  10.7381426  46.1009280  73.3894453   9.6998942
  69.3881832  77.0003349   7.1399111  68.6345540  76.4310747   6.9843116
  69.5229373  76.9666014   8.0869746  54.7780460  81.8716751   2.8153831
  54.6426134  82.7168287   3.2438678  55.3190272  82.0736029   2.0519764
  51.2647799  67.9508331  19.4768186  50.8714745  67.3974530  20.1515830
  52.0813940  68.2618910  19.8674703  48.2309857  79.3892189   3.3881756
  48.7434378  80.1835440   3.5387320  48.8832570  78.6918480   3.3215357
  50.0404742  82.5057946   5.4704509  50.2171370  83.4275910   5.2825493
  50.8361575  82.1916365   5.8998889  54.1815760  69.3666210  17.0688442
  54.9225474  69.9673363  16.9892905  54.4133683  68.6243848  16.5106485
  49.3257098  74.5522578  15.3466672  49.2110613  73.6507835  15.6473771
  48.4701616  74.7986274  14.9951489  56.4048936  82.4940318  16.9454173
  55.9612790  81.7076696  16.6275077  57.0666150  82.6819468  16.2798063
  51.1636057  84.0236119  11.4714851  51.7143482  83.8953183  10.6991845
  50.3247533  84.3231008  11.1209744  58.5030174  82.7743118  14.9735574
  58.4848649  83.5951999  14.4815843  59.4250094  82.6497193  15.1985715
  54.9603228  80.2887247  15.8159082  55.4931565  79.5275535  15.5858390
  54.4317309  79.9960899  16.5583237  58.1272923  65.3947313  11.3452724
  57.7837193  66.2848955  11.2691835  58.4951886  65.2048971  10.4822309
  46.1958774  77.7180844   4.1641326  47.0333996  78.1277852   3.9475034
  46.3737041  76.7780286   4.1341520  58.0923206  75.3855924  -0.1474841
  57.5769829  76.1560529   0.0913547  57.8200514  74.7121061   0.4758221
  55.6770317  70.2305625   4.9110398  54.8211913  69.8412476   4.7316036
  56.0897269  70.3097586   4.0510183  57.2069464  67.7651968   9.3101957
  56.7034259  67.7282104   8.4969763  57.5000070  68.6744711   9.3698614
  53.4512349  67.8490698   8.3168139  54.3165346  67.6533507   7.9574028
  53.5189858  67.6201050   9.2437496  63.0657480  78.1388279   1.7878333
  62.2886923  77.7999439   1.3433495  63.7448961  78.1440902   1.1133298
  57.8809509  73.2583016   1.6784940  57.5759645  73.5729166   2.5295084
  58.8339951  73.3364436   1.7212273  56.3255941  79.4173240   3.3277894
  55.7977302  78.6825999   3.0151132  55.8243444  80.1947916   3.0817863
  61.3048787  77.6122260   8.4444941  60.6472461  78.3021522   8.5325069
  62.1089186  78.0018692   8.7878927  51.0574669  70.0792906   5.6884506
  51.6318420  69.8568088   4.9557699  51.6445651  70.1481601   6.4413107
  60.1154246  75.9666633   6.4948882  60.6286127  76.5996625   6.9970592
  60.7655470  75.3667828   6.1292242  51.3844256  72.1097367  -0.2919609
  50.5481568  72.4472054   0.0289666  51.2449025  71.9746347  -1.2292472
  53.3597336  66.9534155   4.4159575  52.7061749  66.6383172   3.7916190
  53.3177810  66.3309895   5.1419398  54.4708541  77.2353450  -3.6687133
  53.5635603  77.0042703  -3.4695984  54.9679573  76.4391069  -3.4813151
  56.5935077  73.4416088   8.7407223  55.6757638  73.6631036   8.5828911
  57.0095220  73.5162399   7.8818930  57.3770124  74.8407504   3.8709903
  58.1241943  75.3528901   3.5617025  57.6461714  74.5191557   4.7314297
  55.6496775  77.3366045   0.8536857  54.7407994  77.0525078   0.9509327
  55.6791858  77.7565123  -0.0059836  60.8816042  80.9472634   4.6228025
  60.4278369  80.1063544   4.6793215  60.2510009  81.5834033   4.9602805
  59.8248961  71.8764620   5.8528692  59.0871718  71.3642007   6.1838935
  60.0775735  71.4365002   5.0411969  59.3248981  82.7849131   5.5577843
  59.6171956  83.3454188   4.8390209  59.8347602  83.0777692   6.3131002
  59.9260589  64.6540872   6.4470462  60.2319466  63.7938236   6.1596377
  60.6513194  65.2458493   6.2469456  46.2184945  75.0571559   4.8352060
  46.0209345  74.4640920   4.1103126  45.6631609  74.7523769   5.5527998
  54.1981669  74.9494666   6.9546653  54.2530278  73.9968502   6.8789129
  53.3872871  75.1054105   7.4387951  55.3472862  78.8774789  -1.8075064
  54.9092292  78.1610648  -2.2669427  56.0883303  79.1050903  -2.3689973
  52.1374028  73.5671725   4.7137032  51.3241894  73.8665896   5.1202224
  52.6333023  73.1727414   5.4311514  54.2882606  83.5629482   6.6471296
  54.2458785  83.7890328   5.7179828  55.2045305  83.3292857   6.7957097
  57.7348240  74.0313550  13.5451926  58.0897628  74.2585023  14.4046391
  58.3820371  74.3631927  12.9229181  63.4645977  77.1531986   4.2501255
  63.3263876  77.3433582   3.3222444  63.1082196  77.9151368   4.7069306
  51.6288103  71.1390081  10.3298267  52.2687483  70.9978840   9.6321230
  50.7965634  70.8524594   9.9536869  63.4915357  79.2208513   9.2612526
  63.9251863  79.1283802  10.1095580  64.2046937  79.1966013   8.6232542
  52.4048407  80.4392511   6.4433259  53.1989006  79.9442831   6.2415834
  51.6940100  79.9110374   6.0800965  57.2243252  82.8210607  10.7945627
  57.2780274  83.3901543  11.5623343  56.3558033  82.9912492  10.4299664
  48.7131171  74.5835593   2.5193012  47.7828759  74.5220048   2.7362974
  48.8088643  74.0611546   1.7229653  48.6316720  71.1090406   5.1071253
  48.8923537  72.0235739   4.9980414  49.4533892  70.6414848   5.2567866
  50.1041645  72.5228163  12.2770078  50.7764698  72.3145525  11.6282727
  49.2771432  72.3250249  11.8375310  64.3530906  79.2632213  11.7945411
  64.5466796  80.1678024  12.0404686  64.2531524  78.8039632  12.6283997
  56.0067217  69.1490104  14.2935739  55.3595132  69.8480054  14.2000215
  56.7768232  69.5826248  14.6611987  59.4146015  79.4138956  17.3686292
  59.2631521  79.1849508  16.4516376  59.4050694  80.3709557  17.3817637
  56.1831351  76.9870869  12.3532559  57.1123411  77.1382028  12.1801526
  55.7622381  77.0754890  11.4981205  54.9819683  81.0121533  10.1231096
  54.8430769  80.6440318  10.9957034  54.1934279  81.5269173   9.9515054
  55.5767835  86.1130630   1.4656633  55.7519591  85.6418673   2.2802255
  54.8900623  86.7396396   1.6937893  56.5324898  80.3903136   7.5119934
  56.1974731  80.3503906   8.4077584  56.0328844  79.7247852   7.0390344
  50.5069142  75.7970766  13.0372515  50.3688940  75.0651005  13.6384054
  51.4174066  75.7079666  12.7556703  59.4684090  77.7359170  -2.2143006
  58.8513261  77.0105998  -2.3109954  59.0000578  78.4968530  -2.5575932
  53.1351443  75.5090725  12.5256195  53.8451061  74.8683917  12.4842813
  53.0920751  75.7603620  13.4482376  61.1238222  82.4458079  15.4462774
  61.0650768  81.7617299  14.7793357  61.5257740  83.1877069  14.9943400
  51.8480377  72.4955943  14.3451834  51.3117734  72.0446682  14.9973431
  51.2597085  72.6301852  13.6022299  50.1428920  89.2619992   8.2396493
  50.3825519  89.8938517   8.9175511  49.2998117  88.9108032   8.5261852
  51.2582636  71.9544595  -3.0921702  50.3812102  71.8333395  -3.4559455
  51.7340389  71.1630673  -3.3442813  61.1255629  80.4097663  13.6776754
  60.2382408  80.0723584  13.8003152  61.6954180  79.6780694  13.9145519
  42.7784776  76.7421754   7.0019805  43.4655816  76.4283484   6.4140820
  42.6232905  77.6463119   6.7287056  47.5819498  71.6311951  11.4304829
  47.4977687  71.0237620  10.6955239  46.7602205  72.1220969  11.4314325
  54.6556782  85.0699115  10.6437997  54.5826954  85.8754086  11.1557301
  54.2134175  85.2691081   9.8186018  54.4446562  84.3070885   4.1540818
  53.6614084  84.8492565   4.2479043  55.1439307  84.8244865   4.5535060
  57.7543212  70.1165514   6.7975024  58.2511912  69.3635477   6.4776094
  56.9830193  70.1529831   6.2318233  65.6072969  75.8205880   8.4393315
  65.5962846  76.7030595   8.0687248  64.7390349  75.4677431   8.2447852
  57.1155466  84.9685949  12.7996155  57.8283438  85.6033414  12.7272057
  56.6245494  85.0649815  11.9836157  58.8372993  78.8737202   4.3713447
  57.9029271  78.9938664   4.2018151  59.0149661  77.9709668   4.1073457
  54.3378181  72.2582897   6.5246708  53.9675968  71.7053938   7.2127614
  54.8337273  71.6541031   5.9721708  62.2245544  74.7154521   4.9063481
  62.6905996  75.5482512   4.8323784  62.6753045  74.2499502   5.6108740
  52.1667379  82.7180392  13.6201726  52.8676839  83.3516875  13.7731121
  51.6962494  83.0595124  12.8597366  60.2921775  81.0598342   1.9049633
  60.5681619  80.9454937   2.8143507  59.4226274  80.6615827   1.8661806
  60.1962207  67.0835108   8.9454383  59.2825287  67.3139335   9.1136590
  60.6255308  67.1673552   9.7968415  59.9668665  75.2725000  11.4454277
  59.3140116  75.5200907  10.7906729  60.3449045  74.4589138  11.1116754
  56.9275839  85.3084693   5.5482447  57.1098234  84.4906349   6.0110199
  57.7508825  85.5252385   5.1107337  57.2618005  84.2352878   2.8097495
  57.7905771  83.7245333   2.1967658  57.5246224  83.9195408   3.6743028
  56.0156238  76.0144811  17.9320314  55.3396875  75.9138940  18.6022689
  56.8383872  75.8584025  18.3956311  47.7635097  82.2516747  10.5532829
  48.3488534  81.5060435  10.6860733  47.5659936  82.5620704  11.4369493
  50.6173753  85.2867995   5.5695271  49.9484128  85.7714122   5.0859311
  50.4786622  85.5337215   6.4838650  42.3552752  74.8222348   9.2737272
  42.3936852  74.2885938  10.0674390  41.8493045  74.2957553   8.6548249
  54.7579021  87.3211738  12.1677930  55.3097329  87.4843360  12.9327015
  55.0985215  87.9116176  11.4957955  49.7343514  69.6686888  12.7699814
  49.7984841  70.5301719  12.3577212  49.6710635  69.0560890  12.0372173
  49.2095787  71.7410021  16.4172849  49.8367826  71.3587098  17.0310373
  48.3523706  71.5224223  16.7828541  59.6089896  82.1472996  18.0226584
  60.1529799  82.7602954  17.5281539  59.0276740  82.7052574  18.5393597
  45.9861330  73.5486450   2.3491204  46.2814771  72.6397128   2.2958257
  45.0849365  73.5274189   2.0272206  57.8947408  85.2693714   9.1541612
  57.7698548  84.4683454   8.6452557  58.5526500  85.7639907   8.6655582
  49.5155577  71.6242446   8.3318752  48.7942162  72.2378414   8.1926225
  50.3048832  72.1600211   8.2535398  59.9582317  83.0702734  10.7821162
  59.0112652  82.9508085  10.7099489  60.3065090  82.1825232  10.8647423
  52.3181890  68.9596873  14.6059404  52.8416292  69.2059169  15.3685713
  52.0994223  69.7916908  14.1862541  47.7149171  71.2300547   2.4730529
  47.3861877  70.3497926   2.2905635  48.0688542  71.1748216   3.3606918
  56.9628750  82.8655450   6.9825514  56.8153713  81.9372158   7.1633084
  57.7882244  82.8875541   6.4982589  50.8290994  71.5173517   2.8406006
  51.1687067  72.0459438   2.1184615  51.2763115  71.8553923   3.6164573
  60.5662872  83.6884009   8.0690387  61.4909419  83.4826870   7.9314838
  60.3978175  83.4400410   8.9779728  53.5234435  69.9010568  12.2909074
  53.1831256  69.1018381  12.6929754  52.8173442  70.2012279  11.7185908
  54.1750907  66.9859880  10.7436397  54.9976976  66.5120359  10.6215288
  54.4188971  67.7650364  11.2435084  52.8159142  70.0148139   1.0399299
  53.5367504  70.3929392   0.5363016  52.1924446  70.7337016   1.1434277
  56.9590264  70.7193288   1.9757631  57.1753879  71.6017926   1.6746460
  56.4784332  70.3279501   1.2463273  51.6989486  73.6779001   8.5528376
  51.5534067  73.9919304   9.4452658  51.2214689  74.2963901   7.9999275
  53.5585869  70.6681549   8.6009266  53.5447437  69.7722642   8.2641564
  54.2758297  70.6752213   9.2347552  55.4111999  71.1018889  10.6462393
  55.1529777  72.0235960  10.6446723  54.8797040  70.7049324  11.3362857
  60.3558188  84.2069676   3.4252478  60.5295066  83.6416099   2.6726331
  60.8487079  85.0070571   3.2431968  46.1735148  76.2184345  11.4916037
  45.6288616  76.9944153  11.6236312  47.0514498  76.5655150  11.3335159
  52.9622765  69.5495929   3.8696836  53.0838676  68.6212575   4.0687723
  52.6724807  69.5634615   2.9575151  55.8313955  67.2350840   7.0063556
  55.8535652  67.2990173   6.0515535  56.2482014  66.3955348   7.2004062
  66.2097579  76.9706099   5.0442778  66.6528725  76.2213424   4.6461901
  65.3324090  76.9616236   4.6616510  61.3433361  83.5236441   0.5249377
  62.0384265  84.1443133   0.7436691  61.6856511  82.6731792   0.8001755
  46.9601170  75.3454242  14.3846194  46.2182906  75.4936877  14.9710825
  46.6393914  75.6062507  13.5212944  63.2424784  80.9736146   2.0536707
  63.7676108  81.3123419   1.3286027  63.1547136  80.0383162   1.8699842
  54.9044832  84.8870220  14.1826584  55.2131959  84.6419367  15.0549284
  55.7020315  85.0916858  13.6945454  54.9265445  87.0408130   6.4131961
  54.4870435  86.5484508   7.1064817  55.6773562  86.4981097   6.1724036
  47.4057784  83.2319670   6.4156589  48.2315803  82.9323442   6.0355232
  47.0551836  82.4627293   6.8646377  52.3739317  82.5846139   8.4854262
  51.7519326  81.9216844   8.1856490  53.0444184  82.6107271   7.8027910
  45.6066389  81.1505997   7.3745522  44.7698297  80.7228171   7.1929524
  45.5790034  81.3438440   8.3116314  52.4463844  71.0627927  18.0786768
  52.4952000  71.9390049  17.6964538  52.9886358  70.5205320  17.5058412
  62.9318690  81.6069050  17.3587905  62.1414234  81.5893189  16.8192405
  62.6952044  82.1457344  18.1136942  63.0516565  78.4561516  14.6720634
  63.1014570  78.2911524  15.6136157  62.9430488  77.5888775  14.2818515
  51.9352824  81.1350062   1.9612723  52.0840944  81.8185526   1.3079396
  52.7419267  81.1155152   2.4762179  60.3420327  74.4392444  15.9879941
  61.2430190  74.2998909  15.6963938  60.4168302  74.6046899  16.9278118
  54.6763133  71.8159299  14.8333127  53.8066442  72.1092865  14.5615716
  54.9122613  72.3999744  15.5540391  64.5534762  80.8758458  14.9162656
  64.2619570  81.2388438  15.7526116  63.9406893  80.1625466  14.7375988
  65.7530444  78.4411338   7.4365226  66.5877335  78.8801142   7.6002786
  65.8889573  77.9649991   6.6173472  62.8021950  75.9991072  13.3842713
  63.2776072  76.1918719  12.5761565  61.8787515  76.0550258  13.1386097
  49.6905457  77.1615240   2.9673792  49.4451499  76.2577570   3.1654002
  49.8601371  77.1632390   2.0253270  57.3802166  68.0338916  12.3498547
  57.8984110  68.7699943  12.0245036  57.0257299  68.3402909  13.1845307
  48.9601104  72.8943597   0.4659953  48.2670349  72.9687952  -0.1900011
  48.7152856  72.1303941   0.9881470  57.6314761  64.4539199   7.8699444
  57.9116514  63.7862388   8.4959871  58.4165368  64.6468294   7.3574108
  55.4348229  83.6298192  -0.5675530  54.8622196  84.2488380  -1.0205058
  56.0081023  84.1797554  -0.0335608  61.5023619  72.8756832  11.6171019
  62.4541042  72.9754930  11.6383243  61.3327069  72.0835101  12.1269103
  59.5237998  69.9612416  11.8030420  58.9287931  70.2417428  11.1076909
  59.2387695  70.4506317  12.5747161  58.6545489  83.9135343   0.5633053
  59.5876162  83.8480904   0.7665928  58.5668702  84.7491609   0.1047585
  63.9811697  76.0962952  10.7313319  63.9488017  75.1578953  10.9173003
  64.5912320  76.1746989   9.9979144  55.8195028  74.9659005  -3.2259477
  56.7654132  74.8365213  -3.1571059  55.4409273  74.2273667  -2.7490049
  64.1306185  72.8873996  10.7771602  63.6145234  72.1032452  10.5901531
  65.0146134  72.5592712  10.9418121  61.7916912  66.6315011   6.7367415
  61.5941733  66.3230099   7.6210747  62.4016618  67.3576650   6.8665344
  69.7988247  77.1578959   9.8719356  70.5291635  76.8964247  10.4327059
  69.1895192  76.4207681   9.9121424  67.8803544  75.2986822  10.4693807
  67.1536707  75.1642787   9.8610298  67.4650831  75.6063650  11.2750525
  55.7033720  79.0176751  18.2341180  56.6236730  79.1955350  18.4281226
  55.6683303  78.0732797  18.0820879  54.0037945  72.8908982  -3.2904592
  53.0969400  72.5942094  -3.2141878  54.2813926  72.5938800  -4.1570306
  44.9215885  74.2115345   7.1594454  44.6018670  73.3580653   6.8668828
  44.3749313  74.4263923   7.9152422  48.6995793  76.9277786  10.8763961
  48.9181802  77.8594894  10.8951995  49.1121567  76.5685760  11.6618765
  55.6200011  67.4345871   2.8639649  54.8100739  67.0892956   3.2394895
  56.3084427  67.1253415   3.4527261  57.5490559  66.5123918   4.4863946
  58.1021597  66.9319371   5.1453969  57.7860645  65.5859666   4.5286902
  53.5723658  72.5010992  20.2666710  53.4720385  73.4505349  20.1978801
  53.3545200  72.1729231  19.3942780  52.7736729  69.7495917  -3.1492613
  53.6355893  70.0750815  -2.8896795  52.9587074  68.9627413  -3.6619547
  44.7904145  77.8318256   9.1287576  44.0967617  77.4172209   8.6157530
  45.5377136  77.8738793   8.5320995  60.9269366  68.6224443   3.9942610
  60.3468035  69.2809247   3.6120663  60.6605299  67.8001788   3.5830028
  59.3772932  68.0229501   6.1963931  59.8772711  68.1346035   5.3878249
  60.0208540  67.7190554   6.8364739  53.4354928  75.9308131  19.0831772
  52.9522010  76.7308491  19.2895661  53.5215867  75.9416075  18.1299215
  46.7040888  77.7636510   7.0053591  46.6811576  77.8624198   6.0535474
  47.0141524  78.6101661   7.3270757  49.3628266  79.8212665  11.1200205
  50.3171519  79.7896608  11.0530137  49.1640789  79.3603289  11.9350431
  49.9527648  78.3913781  13.6871003  50.7720537  78.8857860  13.7105840
  50.2264455  77.4745749  13.6588570  59.7094244  70.7824534   3.0498958
  58.8220099  71.0674184   2.8319153  60.1248233  70.6218297   2.2026235
  63.0608780  70.8071055   6.7653298  63.8369170  71.2967507   7.0377915
  62.3356914  71.2329109   7.2225167  65.4981339  71.5198674   7.8227238
  66.0925829  71.2794410   7.1120547  65.5707922  70.8005804   8.4500775
  47.7178494  85.3632285   8.1370403  47.5832962  84.6032686   7.5708401
  47.3010557  86.0873185   7.6699192  59.6835268  76.2979070   3.2649249
  59.6270469  76.7547621   2.4256881  60.2363610  75.5369754   3.0872091
  63.4940074  72.0868801   4.0899368  63.2377008  71.6865437   4.9207576
  62.8692942  72.8012595   3.9649507  67.8052411  74.8264875   6.5970660
  67.2451969  74.8958064   7.3702222  67.1995915  74.6505859   5.8770156
  50.8747620  86.2601602   8.3488846  50.7580004  87.2047034   8.2467536
  50.0540067  85.9575163   8.7374645  60.7624155  80.9851737  -0.8054561
  61.5969759  80.5532936  -0.9877087  60.6008498  80.8133751   0.1222333
  60.4170047  77.4883851   0.5601778  60.3618851  77.3228122  -0.3809778
  59.7916102  78.1959884   0.7163968  45.2062562  72.7251915  14.3863200
  45.8521426  72.2150869  14.8750425  44.9979713  73.4620597  14.9606625
  57.7315954  79.7932763  19.8855341  58.6007114  79.9673415  19.5241976
  57.2522706  80.6127179  19.7631070  53.7266172  66.9891960   0.1387096
  53.7144842  67.9333800   0.2955367  54.6189594  66.8062105  -0.1553443
  51.9002134  86.9129864  11.5644774  52.8029381  86.9453474  11.8811269
  51.6739504  85.9830315  11.5791110  53.6555736  85.6660850   8.2254853
  52.7051367  85.6662712   8.1119225  53.9588223  84.9193585   7.7090887
  57.5418292  63.5834736   4.3933033  56.7750688  63.0293223   4.5389715
  57.9528997  63.6556605   5.2547185  49.5460053  69.8719532  18.4838214
  50.4091514  69.5156337  18.6941539  48.9725464  69.5333427  19.1713619
  69.3908430  91.5021389   9.2900615  70.0286840  91.3828136   8.5863955
  69.2729273  92.4502233   9.3488567  66.1998136  91.4548817   9.2262140
  65.8616648  91.3389881   8.3382675  67.0687904  91.0539982   9.2063146
  66.6817919  92.6083668  15.1848345  66.6706560  92.2136467  14.3128849
  66.8438559  91.8749741  15.7782117  59.6049384  94.8035485   8.0543251
  60.3970676  94.4626309   7.6389551  59.8446034  94.9130460   8.9745405
  63.4025180  95.3920780  14.1327529  63.1115046  96.2966411  14.0174196
  64.0382165  95.4337308  14.8471599  64.3281387  92.7697629  10.7228889
  64.9244959  92.5453651  10.0085852  64.3856359  92.0282374  11.3254337
  71.8683546  82.8769650  11.7281410  71.5366871  83.7465061  11.5042625
  71.2729159  82.5605934  12.4075441  68.3615065  95.0782196  11.1277323
  68.0615788  95.9807235  11.0193130  68.0166125  94.8114379  11.9798476
  61.8127547  91.5295993   7.1614028  60.8878043  91.3972207   7.3691719
  62.0611960  92.3090212   7.6583970  71.7612209  87.5964736   8.8074760
  70.8529086  87.5280144   8.5133521  71.7099805  88.0736681   9.6356586
  59.1736358  91.1729266   7.9957817  59.3028739  91.4263745   8.9097228
  58.4933809  91.7656974   7.6762472  65.8353075  89.0154382  16.7509658
  65.0586409  89.5748302  16.7412522  66.4743638  89.5011164  17.2724528
  73.6273856  85.7981174  10.5852634  72.9848236  86.0913707   9.9392429
  73.1228784  85.6834095  11.3905831  64.0899447  91.8239835  16.3127625
  64.8314132  92.3624879  16.0362448  63.3836433  92.4506124  16.4699177
  69.5654787  93.9668975  14.9099786  69.9738143  93.5251386  14.1654419
  68.8432048  93.3921603  15.1633979  65.9185857  88.9041582  12.2833343
  66.7647052  89.3280996  12.4267992  65.8584495  88.2475206  12.9771906
  69.0685302  86.5645950  13.9414517  68.8246234  87.3188011  13.4048793
  69.3445233  86.9431298  14.7761764  71.0223765  93.1084563  12.6191782
  71.2340660  93.7516323  11.9426163  70.9753513  92.2746879  12.1513712
  68.6249994  85.7202383   9.5228355  67.7634473  86.0183637   9.8145092
  68.6512429  85.9372782   8.5909387  62.3335644  93.8116056   8.8681923
  62.9037002  94.2403324   8.2299408  62.9243756  93.5298640   9.5666109
  62.8260811  88.9779483  17.1142935  62.1959472  89.6595764  17.3478332
  62.7196899  88.8662565  16.1696073  58.1205783  88.6451279   8.0408859
  57.3304837  88.9008808   7.5648970  58.6117031  89.4599617   8.1460899
  60.0720529  89.0095858   4.9992336  59.2751692  89.1214553   5.5175831
  59.8446121  89.3482511   4.1333226  65.9026196  95.5340562  12.9474850
  65.9670629  95.9960969  13.7833022  65.1937120  94.9037926  13.0757160
  56.4043486  88.8981770  10.4723850  56.6551525  89.7828779  10.7381426
  56.9403035  88.7186371   9.6998942  62.1041554  83.2800249  19.4768186
  61.7108499  82.7266447  20.1515830  62.9207694  83.5910827  19.8674703
  65.0209515  84.6958128  17.0688442  65.7619228  85.2965281  16.9892905
  65.2527438  83.9535766  16.5106485  60.1650853  89.8814495  15.3466672
  60.0504368  88.9799752  15.6473771  59.3095370  90.1278192  14.9951489
  67.2442690  97.8232236  16.9454173  66.8006545  97.0368614  16.6275077
  67.9059904  98.0111386  16.2798063  62.0029812  99.3528037  11.4714851
  62.5537237  99.2245101  10.6991845  61.1641288  99.6522926  11.1209744
  69.3423929  98.1035035  14.9735574  69.3242404  98.9243917  14.4815843
  70.2643849  97.9789111  15.1985715  65.7996983  95.6179165  15.8159082
  66.3325319  94.8567453  15.5858390  65.2711064  95.3252817  16.5583237
  68.9666678  80.7239231  11.3452724  68.6230947  81.6140873  11.2691835
  69.3345640  80.5340889  10.4822309  66.5164071  85.5597543   4.9110398
  65.6605668  85.1704393   4.7316036  66.9291023  85.6389504   4.0510183
  68.0463218  83.0943886   9.3101957  67.5428014  83.0574021   8.4969763
  68.3393825  84.0036629   9.3698614  64.2906104  83.1782616   8.3168139
  65.1559101  82.9825424   7.9574028  64.3583613  82.9492968   9.2437496
  61.8968423  85.4084824   5.6884506  62.4712175  85.1860005   4.9557699
  62.4839405  85.4773518   6.4413107  64.1991091  82.2826073   4.4159575
  63.5455503  81.9675090   3.7916190  64.1571565  81.6601813   5.1419398
  67.4328831  88.7708006   8.7407223  66.5151392  88.9922953   8.5828911
  67.8488975  88.8454317   7.8818930  70.7654343  79.9832790   6.4470462
  71.0713220  79.1230154   6.1596377  71.4906948  80.5750410   6.2469456
  57.0578699  90.3863477   4.8352060  56.8603099  89.7932837   4.1103126
  56.5025363  90.0815687   5.5527998  65.0375423  90.2786583   6.9546653
  65.0924033  89.3260420   6.8789129  64.2266625  90.4346022   7.4387951
  62.9767783  88.8963643   4.7137032  62.1635649  89.1957813   5.1202224
  63.4726777  88.5019332   5.4311514  68.5741995  89.3605467  13.5451926
  68.9291382  89.5876941  14.4046391  69.2214126  89.6923844  12.9229181
  62.4681858  86.4681998  10.3298267  63.1081237  86.3270758   9.6321230
  61.6359388  86.1816512   9.9536869  59.4710474  86.4382323   5.1071253
  59.7317291  87.3527657   4.9980414  60.2927646  85.9706766   5.2567866
  60.9435399  87.8520081  12.2770078  61.6158453  87.6437443  11.6282727
  60.1165186  87.6542167  11.8375310  66.8460971  84.4782022  14.2935739
  66.1988887  85.1771971  14.2000215  67.6161987  84.9118165  14.6611987
  70.2539769  94.7430874  17.3686292  70.1025276  94.5141425  16.4516376
  70.2444449  95.7001475  17.3817637  67.0225106  92.3162786  12.3532559
  67.9517166  92.4673946  12.1801526  66.6016136  92.4046807  11.4981205
  65.8213438  96.3413451  10.1231096  65.6824523  95.9732235  10.9957034
  65.0328034  96.8561090   9.9515054  61.3462897  91.1262684  13.0372515
  61.2082695  90.3942922  13.6384054  62.2567820  91.0371584  12.7556703
  63.9745197  90.8382643  12.5256195  64.6844816  90.1975835  12.4842813
  63.9314506  91.0895538  13.4482376  71.9631976  97.7749996  15.4462774
  71.9044522  97.0909216  14.7793357  72.3651494  98.5168986  14.9943400
  62.6874131  87.8247861  14.3451834  62.1511488  87.3738599  14.9973431
  62.0990840  87.9593770  13.6022299  71.9649383  95.7389580  13.6776754
  71.0776162  95.4015502  13.8003152  72.5347934  95.0072611  13.9145519
  53.6178530  92.0713672   7.0019805  54.3049570  91.7575402   6.4140820
  53.4626659  92.9755037   6.7287056  58.4213253  86.9603868  11.4304829
  58.3371441  86.3529538  10.6955239  57.5995959  87.4512887  11.4314325
  68.5936966  85.4457432   6.7975024  69.0905666  84.6927394   6.4776094
  67.8223948  85.4821749   6.2318233  65.1771935  87.5874815   6.5246708
  64.8069723  87.0345855   7.2127614  65.6731028  86.9832948   5.9721708
  63.0061134  98.0472310  13.6201726  63.7070593  98.6808793  13.7731121
  62.5356249  98.3887042  12.8597366  71.0355961  82.4127026   8.9454383
  70.1219041  82.6431252   9.1136590  71.4649063  82.4965470   9.7968415
  70.8062420  90.6016917  11.4454277  70.1533870  90.8492825  10.7906729
  71.1842800  89.7881056  11.1116754  66.8549993  91.3436729  17.9320314
  66.1790630  91.2430858  18.6022689  67.6777627  91.1875942  18.3956311
  58.6028852  97.5808665  10.5532829  59.1882289  96.8352353  10.6860733
  58.4053690  97.8912622  11.4369493  53.1946507  90.1514265   9.2737272
  53.2330606  89.6177856  10.0674390  52.6886799  89.6249471   8.6548249
  60.5737269  84.9978806  12.7699814  60.6378595  85.8593637  12.3577212
  60.5104389  84.3852807  12.0372173  60.0489541  87.0701938  16.4172849
  60.6761580  86.6879016  17.0310373  59.1917460  86.8516140  16.7828541
  70.4483650  97.4764913  18.0226584  70.9923554  98.0894872  17.5281539
  69.8670495  98.0344492  18.5393597  56.8255084  88.8778367   2.3491204
  57.1208525  87.9689046   2.2958257  55.9243120  88.8566107   2.0272206
  60.3549331  86.9534364   8.3318752  59.6335917  87.5670332   8.1926225
  61.1442587  87.4892129   8.2535398  63.1575645  84.2888791  14.6059404
  63.6810047  84.5351087  15.3685713  62.9387978  85.1208825  14.1862541
  58.5542926  86.5592465   2.4730529  58.2255632  85.6789844   2.2905635
  58.9082296  86.5040134   3.3606918  64.3628190  85.2302486  12.2909074
  64.0225010  84.4310299  12.6929754  63.6567196  85.5304196  11.7185908
  65.0144662  82.3151798  10.7436397  65.8370731  81.8412276  10.6215288
  65.2582725  83.0942282  11.2435084  62.5383240  89.0070919   8.5528376
  62.3927821  89.3211222   9.4452658  62.0608444  89.6255819   7.9999275
  64.3979623  85.9973467   8.6009266  64.3841192  85.1014560   8.2641564
  65.1152051  86.0044130   9.2347552  66.2505754  86.4310807  10.6462393
  65.9923532  87.3527878  10.6446723  65.7190794  86.0341241  11.3362857
  57.0128902  91.5476263  11.4916037  56.4682371  92.3236071  11.6236312
  57.8908252  91.8947068  11.3335159  63.8016519  84.8787847   3.8696836
  63.9232430  83.9504493   4.0687723  63.5118562  84.8926533   2.9575151
  66.6707710  82.5642757   7.0063556  66.6929406  82.6282090   6.0515535
  67.0875769  81.7247266   7.2004062  57.7994924  90.6746159  14.3846194
  57.0576660  90.8228795  14.9710825  57.4787669  90.9354425  13.5212944
  65.7438587 100.2162138  14.1826584  66.0525713  99.9711284  15.0549284
  66.5414069 100.4208776  13.6945454  56.4460143  96.4797915   7.3745522
  55.6092051  96.0520089   7.1929524  56.4183788  96.6730358   8.3116314
  63.2857599  86.3919844  18.0786768  63.3345754  87.2681967  17.6964538
  63.8280113  85.8497237  17.5058412  73.7712444  96.9360968  17.3587905
  72.9807988  96.9185106  16.8192405  73.5345799  97.4749261  18.1136942
  73.8910319  93.7853434  14.6720634  73.9408324  93.6203441  15.6136157
  73.7824243  92.9180693  14.2818515  71.1814082  89.7684362  15.9879941
  72.0823945  89.6290827  15.6963938  71.2562056  89.9338817  16.9278118
  65.5156887  87.1451217  14.8333127  64.6460197  87.4384783  14.5615716
  65.7516367  87.7291662  15.5540391  75.3928516  96.2050375  14.9162656
  75.1013325  96.5680356  15.7526116  74.7800648  95.4917384  14.7375988
  73.6415704  91.3282990  13.3842713  74.1169826  91.5210636  12.5761565
  72.7181270  91.3842176  13.1386097  68.2195921  83.3630834  12.3498547
  68.7377865  84.0991861  12.0245036  67.8651054  83.6694827  13.1845307
  68.4708515  79.7831116   7.8699444  68.7510269  79.1154305   8.4959871
  69.2559122  79.9760212   7.3574108  72.3417373  88.2048750  11.6171019
  73.2934796  88.3046848  11.6383243  72.1720824  87.4127019  12.1269103
  70.3631753  85.2904333  11.8030420  69.7681685  85.5709346  11.1076909
  70.0781450  85.7798234  12.5747161  74.9699940  88.2165913  10.7771602
  74.4538988  87.4324370  10.5901531  75.8539888  87.8884630  10.9418121
  72.6310667  81.9606929   6.7367415  72.4335488  81.6522017   7.6210747
  73.2410372  82.6868568   6.8665344  66.5427475  94.3468669  18.2341180
  67.4630484  94.5247268  18.4281226  66.5077058  93.4024714  18.0820879
  55.7609640  89.5407263   7.1594454  55.4412424  88.6872571   6.8668828
  55.2143068  89.7555841   7.9152422  59.5389547  92.2569704  10.8763961
  59.7575557  93.1886811  10.8951995  59.9515321  91.8977678  11.6618765
  66.4593765  82.7637789   2.8639649  65.6494493  82.4184874   3.2394895
  67.1478182  82.4545333   3.4527261  68.3884313  81.8415836   4.4863946
  68.9415352  82.2611289   5.1453969  68.6254400  80.9151584   4.5286902
  64.4117413  87.8302909  20.2666710  64.3114139  88.7797266  20.1978801
  64.1938955  87.5021148  19.3942780  55.6297900  93.1610174   9.1287576
  54.9361371  92.7464127   8.6157530  56.3770891  93.2030711   8.5320995
  70.2166687  83.3521419   6.1963931  70.7166465  83.4637953   5.3878249
  70.8602295  83.0482471   6.8364739  64.2748683  91.2600048  19.0831772
  63.7915764  92.0600408  19.2895661  64.3609622  91.2707993  18.1299215
  57.5434642  93.0928428   7.0053591  57.5205330  93.1916115   6.0535474
  57.8535279  93.9393579   7.3270757  60.2022020  95.1504583  11.1200205
  61.1565274  95.1188525  11.0530137  60.0034544  94.6895207  11.9350431
  60.7921402  93.7205699  13.6871003  61.6114291  94.2149778  13.7105840
  61.0658210  92.8037667  13.6588570  56.0456316  88.0543833  14.3863200
  56.6915180  87.5442787  14.8750425  55.8373468  88.7912514  14.9606625
  68.5709709  95.1224680  19.8855341  69.4400868  95.2965333  19.5241976
  68.0916460  95.9419097  19.7631070  62.7395889 102.2421781  11.5644774
  63.6423136 102.2745392  11.8811269  62.5133259 101.3122232  11.5791110
  68.3812046  78.9126654   4.3933033  67.6144442  78.3585141   4.5389715
  68.7922751  78.9848523   5.2547185  60.3853807  85.2011450  18.4838214
  61.2485269  84.8448255  18.6941539  59.8119218  84.8625345  19.1713619
  72.9435308  98.6092167  19.4768186  72.5502254  98.0558365  20.1515830
  73.7601449  98.9202745  19.8674703  75.8603269 100.0250046  17.0688442
  76.6012983 100.6257199  16.9892905  76.0921192  99.2827683  16.5106485
  70.8883296 102.3993856  16.4172849  71.5155335 102.0170933  17.0310373
  70.0311215 102.1808058  16.7828541  74.1251353 101.7211762  18.0786768
  74.1739509 102.5973885  17.6964538  74.6673867 101.1789155  17.5058412
  75.2511167 103.1594827  20.2666710  75.1507894 104.1089184  20.1978801
  75.0332709 102.8313066  19.3942780  66.8850071 103.3835751  14.3863200
  67.5308935 102.8734705  14.8750425  66.6767222 104.1204432  14.9606625
  71.2247562 100.5303368  18.4838214  72.0879023 100.1740172  18.6941539
  70.6512973 100.1917262  19.1713619  50.2844468  44.1228283   2.1708081
  50.2257015  43.4387504   1.5038664  50.6863987  44.8647273   1.7188707
  48.7696142  43.8243201   4.7471891  49.3136046  44.4373159   4.2526846
  48.1882987  44.3822779   5.2638904  52.0924937  43.2839255   4.0833212
  51.3020480  43.2663394   3.5437711  51.8558291  43.8227549   4.8382249
  53.7141009  42.5528663   1.6407962  53.4225817  42.9158643   2.4771423
  53.1013140  41.8395671   1.4621294  46.8922201  41.4702968   6.6100647
  47.7613361  41.6443620   6.2487282  46.4128952  42.2897384   6.4876377
  58.5514677  53.1791594  -3.9854078  59.1893087  53.0598341  -4.6890738
  58.4335520  54.1272437  -3.9266126  55.3604383  53.1319022  -4.0492553
  55.0222894  53.0160086  -4.9372019  56.2294151  52.7310187  -4.0691547
  55.8424166  54.2853873   1.9093652  55.8312807  53.8906672   1.0374156
  56.0044805  53.5519946   2.5027424  48.7655631  56.4805690  -5.2211442
  49.5576922  56.1396514  -5.6365143  49.0052281  56.5900665  -4.3009289
  52.5631427  57.0690985   0.8572836  52.2721293  57.9736616   0.7419502
  53.1988411  57.1107513   1.5716906  53.4887634  54.4467834  -2.5525804
  54.0851206  54.2223856  -3.2668841  53.5462605  53.7052579  -1.9500356
  63.5064372  50.8418281  -6.0067892  64.2389544  50.2717497  -5.7730062
  62.7503728  50.4539881  -5.5661386  61.0289793  44.5539855  -1.5473283
  60.6973117  45.4235266  -1.7712068  60.4335406  44.2376139  -0.8679253
  57.5221312  56.7552401  -2.1477370  57.2222035  57.6577439  -2.2561563
  57.1772372  56.4884584  -1.2956217  60.9218456  49.2734941  -4.4679933
  60.0135333  49.2050349  -4.7621172  60.8706052  49.7506886  -3.6398107
  52.5042092  63.5196721  -9.1806403  52.4266122  64.4704546  -9.1017922
  51.9003736  63.1742594  -8.5231476  54.9959322  50.6924586   3.4754964
  54.2192656  51.2518507   3.4657829  55.6349885  51.1781369   3.9969834
  62.7880102  47.4751379  -2.6902059  62.1454483  47.7683912  -3.3362264
  62.2835031  47.3604300  -1.8848862  53.2505694  53.5010040   3.0372931
  53.9920378  54.0395084   2.7607755  52.5442679  54.1276329   3.1944483
  58.7261034  55.6439180   1.6345093  59.1344390  55.2021591   0.8899725
  58.0038295  55.0691808   1.8879286  55.0792104  50.5811787  -0.9921350
  55.9253299  51.0051201  -0.8486701  55.0190741  49.9245411  -0.2982787
  59.0489848  56.2040371  -4.6102618  58.4198711  56.3686085  -5.3126550
  58.6615510  56.6181980  -3.8391654  62.9279080  57.1394809  -7.2558254
  62.2430118  57.5193710  -7.8061221  63.0122930  57.7490135  -6.5226307
  58.2291549  48.2416155   0.6659823  57.9852481  48.9958216   0.1294099
  58.5051480  48.6201503   1.5007071  60.1830012  54.7854768  -0.6562911
  60.3946907  55.4286528  -1.3328530  60.1359760  53.9517084  -1.1240981
  51.4941891  55.4886261  -4.4072770  52.0643248  55.9173529  -5.0455285
  52.0850003  55.2068845  -3.7088584  51.9867058  50.6549688   3.8388241
  51.3565718  51.3365969   4.0723638  51.8803146  50.5432770   2.8941380
  61.2975840  57.6626723  -2.4840554  62.1193283  57.2606910  -2.7657872
  61.2938243  57.5594957  -1.5324438  55.0632443  57.2110766  -0.3279843
  55.1276876  57.6731174   0.5078329  54.3543367  56.5808131  -0.1997533
  69.3881833  54.0065472  -6.1355582  68.6345541  53.4372870  -6.2911578
  69.5229374  53.9728136  -5.1884947  51.2647800  44.9570454   6.2013492
  50.8714746  44.4036652   6.8761137  52.0813941  45.2681032   6.5920010
  50.0404743  59.5120068  -7.8050185  50.2171371  60.4338033  -7.9929201
  50.8361576  59.1978487  -7.3755805  54.1815761  46.3728333   3.7933749
  54.9225475  46.9735486   3.7138211  54.4133684  45.6305971   3.2351792
  49.3257099  51.5584700   2.0711979  49.2110615  50.6569957   2.3719078
  48.4701617  51.8048397   1.7196795  56.4048937  59.5002440   3.6699479
  55.9612791  58.7138819   3.3520384  57.0666151  59.6881591   3.0043370
  51.1636058  61.0298242  -1.8039842  51.7143484  60.9015305  -2.5762848
  50.3247534  61.3293131  -2.1544949  58.5030175  59.7805240   1.6980881
  58.4848651  60.6014121   1.2061150  59.4250095  59.6559316   1.9231022
  54.9603229  57.2949370   2.5404389  55.4931566  56.5337658   2.3103697
  54.4317311  57.0023022   3.2828543  61.3048788  54.6184383  -4.8309753
  60.6472463  55.3083644  -4.7429624  62.1089187  55.0080815  -4.4875766
  60.1154247  52.9728756  -6.7805811  60.6286129  53.6058747  -6.2784101
  60.7655471  52.3729951  -7.1462451  56.5935078  50.4478211  -4.5347470
  55.6757639  50.6693158  -4.6925782  57.0095221  50.5224522  -5.3935763
  60.8816043  57.9534757  -8.6526668  60.4278370  57.1125667  -8.5961478
  60.2510010  58.5896155  -8.3151888  59.3248982  59.7911254  -7.7176850
  59.6171957  60.3516311  -8.4364485  59.8347603  60.0839815  -6.9623691
  54.2882608  60.5691605  -6.6283397  54.2458786  60.7952451  -7.5574865
  55.2045306  60.3354979  -6.4797596  57.7348241  51.0375672   0.2697232
  58.0897629  51.2647145   1.1291698  58.3820373  51.3694049  -0.3525513
  63.4645978  54.1594108  -9.0253439  63.3263877  54.3495704  -9.9532250
  63.1082197  54.9213491  -8.5685388  63.4915358  56.2270635  -4.0142167
  63.9251865  56.1345924  -3.1659113  64.2046939  56.2028136  -4.6522151
  57.2243253  59.8272729  -2.4809067  57.2780275  60.3963666  -1.7131351
  56.3558034  59.9974614  -2.8455030  50.1041646  49.5290286  -0.9984615
  50.7764700  49.3207648  -1.6471967  49.2771433  49.3312372  -1.4379383
  64.3530908  56.2694336  -1.4809282  64.5466798  57.1740146  -1.2350007
  64.2531526  55.8101755  -0.6470697  56.0067218  46.1552226   1.0181045
  55.3595133  46.8542176   0.9245522  56.7768234  46.5888370   1.3857294
  59.4146016  56.4201079   4.0931599  59.2631523  56.1911630   3.1761682
  59.4050696  57.3771680   4.1062944  56.1831353  53.9932991  -0.9222135
  57.1123413  54.1444151  -1.0953168  55.7622383  54.0817012  -1.7773488
  54.9819684  58.0183656  -3.1523597  54.8430770  57.6502440  -2.2797659
  54.1934281  58.5331295  -3.3239639  55.5767836  63.1192752 -11.8098061
  55.7519592  62.6480795 -10.9952438  54.8900624  63.7458518 -11.5816800
  56.5324900  57.3965258  -5.7634759  56.1974732  57.3566028  -4.8677110
  56.0328845  56.7309974  -6.2364349  50.5069144  52.8032889  -0.2382178
  50.3688941  52.0713127   0.3629361  51.4174067  52.7141789  -0.5197991
  53.1351444  52.5152848  -0.7498499  53.8451063  51.8746040  -0.7911880
  53.0920752  52.7665743   0.1727682  61.1238223  59.4520201   2.1708081
  61.0650769  58.7679421   1.5038664  61.5257741  60.1939191   1.7188707
  51.8480378  49.5018066   1.0697141  51.3117735  49.0508804   1.7218737
  51.2597087  49.6363975   0.3267605  50.1428922  66.2682115  -5.0358201
  50.3825520  66.9000639  -4.3579182  49.2998118  65.9170155  -4.7492841
  61.1255630  57.4159785   0.4022060  60.2382409  57.0785707   0.5248459
  61.6954181  56.6842816   0.6390826  54.6556784  62.0761237  -2.6316697
  54.5826955  62.8816209  -2.1197392  54.2134177  62.2753203  -3.4568675
  54.4446563  61.3133007  -9.1213875  53.6614085  61.8554688  -9.0275650
  55.1439308  61.8306987  -8.7219634  65.6072971  52.8268002  -4.8361378
  65.5962847  53.7092718  -5.2067445  64.7390350  52.4739553  -5.0306841
  57.1155467  61.9748071  -0.4758538  57.8283439  62.6095536  -0.5482636
  56.6245496  62.0711937  -1.2918536  52.1667381  59.7242515   0.3447033
  52.8676840  60.3578998   0.4976427  51.6962496  60.0657246  -0.4157328
  59.9668667  52.2787122  -1.8300417  59.3140117  52.5263030  -2.4847964
  60.3449046  51.4651261  -2.1637939  56.9275840  62.3146816  -7.7272246
  57.1098235  61.4968472  -7.2644494  57.7508826  62.5314508  -8.1647356
  57.2618006  61.2415001 -10.4657198  57.7905772  60.7307455 -11.0787036
  57.5246225  60.9257531  -9.6011665  56.0156240  53.0206933   4.6565620
  55.3396877  52.9201063   5.3267996  56.8383873  52.8646147   5.1201618
  47.7635099  59.2578870  -2.7221864  48.3488535  58.5122558  -2.5893960
  47.5659937  59.5682827  -1.8385200  50.6173754  62.2930117  -7.7059422
  49.9484129  62.7776245  -8.1895382  50.4786624  62.5399338  -6.7916043
  54.7579022  64.3273861  -1.1076764  55.3097330  64.4905482  -0.3427678
  55.0985216  64.9178299  -1.7796739  49.2095788  48.7472143   3.1418155
  49.8367827  48.3649221   3.7555680  48.3523707  48.5286345   3.5073848
  59.6089897  59.1535118   4.7471891  60.1529801  59.7665077   4.2526846
  59.0276742  59.7114697   5.2638904  57.8947410  62.2755836  -4.1213081
  57.7698549  61.4745576  -4.6302136  58.5526501  62.7702030  -4.6099111
  59.9582318  60.0764857  -2.4933531  59.0112654  59.9570208  -2.5655205
  60.3065091  59.1887355  -2.4107270  52.3181891  45.9658995   1.3304711
  52.8416293  46.2121292   2.0931020  52.0994225  46.7979030   0.9107848
  56.9628751  59.8717573  -6.2929179  56.8153714  58.9434280  -6.1121609
  57.7882245  59.8937663  -6.7772104  60.5662873  60.6946131  -5.2064306
  61.4909421  60.4888993  -5.3439855  60.3978177  60.4462533  -4.2974965
  53.5234437  46.9072691  -0.9845619  53.1831257  46.1080504  -0.5824939
  52.8173443  47.2074401  -1.5568786  55.4112001  48.1081012  -2.6292300
  55.1529779  49.0298082  -2.6307970  54.8797041  47.7111446  -1.9391836
  60.3558189  61.2131799  -9.8502215  60.5295067  60.6478221 -10.6028362
  60.8487081  62.0132694 -10.0322725  46.1735149  53.2246468  -1.7838656
  45.6288617  54.0006276  -1.6518382  47.0514499  53.5717272  -1.9419535
  66.2097581  53.9768222  -8.2311915  66.6528727  53.2275547  -8.6292792
  65.3324091  53.9678358  -8.6138183  61.3433362  60.5298563 -12.7505317
  62.0384267  61.1505256 -12.5318002  61.6856512  59.6793915 -12.4752939
  46.9601171  52.3516364   1.1091501  46.2182907  52.4999000   1.6956131
  46.6393915  52.6124630   0.2458250  63.2424785  57.9798269 -11.2217986
  63.7676109  58.3185542 -11.9468666  63.1547138  57.0445284 -11.4054851
  54.9044834  61.8932342   0.9071891  55.2131960  61.6481489   1.7794590
  55.7020316  62.0978981   0.4190761  54.9265446  64.0470252  -6.8622733
  54.4870436  63.5546631  -6.1689876  55.6773563  63.5043220  -7.1030657
  47.4057785  60.2381793  -6.8598105  48.2315805  59.9385565  -7.2399461
  47.0551837  59.4689415  -6.4108316  52.3739318  59.5908261  -4.7900431
  51.7519327  58.9278966  -5.0898203  53.0444185  59.6169393  -5.4726783
  52.4463845  48.0690049   4.8032075  52.4952001  48.9452172   4.4209845
  52.9886360  47.5267442   4.2303718  62.9318691  58.6131172   4.0833212
  62.1414235  58.5955311   3.5437711  62.6952046  59.1519466   4.8382249
  63.0516566  55.4623639   1.3965941  63.1014571  55.2973646   2.3381463
  62.9430490  54.5950898   1.0063821  60.3420329  51.4454567   2.7125247
  61.2430191  51.3061032   2.4209245  60.4168303  51.6109022   3.6523425
  54.6763134  48.8221422   1.5578434  53.8066443  49.1154988   1.2861022
  54.9122614  49.4061867   2.2785697  64.5534763  57.8820580   1.6407962
  64.2619571  58.2450561   2.4771423  63.9406894  57.1687589   1.4621294
  65.7530445  55.4473460  -5.8389468  66.5877337  55.8863264  -5.6751907
  65.8889574  54.9712113  -6.6581222  62.8021951  53.0053195   0.1088020
  63.2776073  53.1980841  -0.6993128  61.8787517  53.0612381  -0.1368596
  57.3802168  45.0401039  -0.9256146  57.8984112  45.7762065  -1.2509657
  57.0257301  45.3465032  -0.0909387  61.5023620  49.8818955  -1.6583674
  62.4541043  49.9817053  -1.6371450  61.3327071  49.0897224  -1.1485590
  59.5238000  46.9674538  -1.4724273  58.9287932  47.2479551  -2.1677785
  59.2387696  47.4568439  -0.7007532  63.9811698  53.1025075  -2.5441375
  63.9488018  52.1641076  -2.3581691  64.5912322  53.1809112  -3.2775550
  64.1306187  49.8936118  -2.4983091  63.6145235  49.1094575  -2.6853163
  65.0146135  49.5654835  -2.3336572  69.7988248  54.1641082  -3.4035338
  70.5291636  53.9026370  -2.8427634  69.1895193  53.4269804  -3.3633270
  67.8803545  52.3048944  -2.8060887  67.1536709  52.1704909  -3.4144395
  67.4650832  52.6125773  -2.0004169  55.7033721  56.0238874   4.9586486
  56.6236731  56.2017473   5.1526533  55.6683304  55.0794919   4.8066186
  48.6995794  53.9339909  -2.3990732  48.9181804  54.8657016  -2.3802699
  49.1121568  53.5747883  -1.6135929  53.5723659  49.5073114   6.9912017
  53.4720386  50.4567471   6.9224108  53.3545201  49.1791353   6.1188087
  53.4354929  52.9370253   5.8077078  52.9522011  53.7370613   6.0140967
  53.5215868  52.9478198   4.8544522  49.3628267  56.8274788  -2.1554488
  50.3171520  56.7958730  -2.2224556  49.1640790  56.3665412  -1.3404262
  49.9527649  55.3975904   0.4116310  50.7720538  55.8919983   0.4351147
  50.2264457  54.4807872   0.3833877  65.4981340  48.5260796  -5.4527455
  66.0925831  48.2856532  -6.1634147  65.5707924  47.8067927  -4.8253919
  47.7178496  62.3694407  -5.1384290  47.5832964  61.6094808  -5.7046292
  47.3010558  63.0935307  -5.6055501  67.8052413  51.8326997  -6.6784034
  67.2451971  51.9020187  -5.9052472  67.1995916  51.6567982  -7.3984538
  50.8747621  63.2663724  -4.9265848  50.7580006  64.2109157  -5.0287157
  50.0540068  62.9637286  -4.5380048  45.2062563  49.7314038   1.1108507
  45.8521427  49.2212992   1.5995732  44.9979714  50.4682719   1.6851932
  57.7315955  56.7994885   6.6100647  58.6007115  56.9735538   6.2487282
  57.2522707  57.6189302   6.4876377  51.9002136  63.9191986  -1.7109919
  52.8029382  63.9515597  -1.3943424  51.6739506  62.9892437  -1.6963583
  53.6555738  62.6722973  -5.0499840  52.7051369  62.6724834  -5.1635468
  53.9588224  61.9255707  -5.5663806  49.5460054  46.8781655   5.2083521
  50.4091516  46.5218460   5.4186845  48.9725465  46.5395550   5.8958925
  69.3908431  68.5083511  -3.9854078  70.0286841  68.3890259  -4.6890738
  69.2729274  69.4564355  -3.9266126  66.1998137  68.4610939  -4.0492553
  65.8616649  68.3452004  -4.9372019  67.0687906  68.0602104  -4.0691547
  66.6817920  69.6145791   1.9093652  66.6706561  69.2198589   1.0374156
  66.8438560  68.8811864   2.5027424  59.6049385  71.8097607  -5.2211442
  60.3970677  71.4688432  -5.6365143  59.8446035  71.9192582  -4.3009289
  63.4025182  72.3982903   0.8572836  63.1115048  73.3028534   0.7419502
  64.0382166  72.4399430   1.5716906  64.3281388  69.7759751  -2.5525804
  64.9244961  69.5515774  -3.2668841  64.3856360  69.0344497  -1.9500356
  71.8683547  59.8831772  -1.5473283  71.5366872  60.7527183  -1.7712068
  71.2729160  59.5668056  -0.8679253  68.3615067  72.0844318  -2.1477370
  68.0615790  72.9869357  -2.2561563  68.0166126  71.8176502  -1.2956217
  61.8127548  68.5358115  -6.1140666  60.8878045  68.4034329  -5.9062974
  62.0611961  69.3152334  -5.6170723  71.7612210  64.6026859  -4.4679933
  70.8529088  64.5342267  -4.7621172  71.7099806  65.0798803  -3.6398107
  59.1736359  68.1791389  -5.2796877  59.3028740  68.4325868  -4.3657465
  58.4933810  68.7719097  -5.5992222  65.8353076  66.0216504   3.4754964
  65.0586410  66.5810424   3.4657829  66.4743639  66.5073287   3.9969834
  73.6273857  62.8043297  -2.6902059  72.9848237  63.0975830  -3.3362264
  73.1228785  62.6896217  -1.8848862  64.0899449  68.8301957   3.0372931
  64.8314133  69.3687001   2.7607755  63.3836434  69.4568246   3.1944483
  69.5654788  70.9731098   1.6345093  69.9738144  70.5313508   0.8899725
  68.8432050  70.3983725   1.8879286  65.9185858  65.9103705  -0.9921350
  66.7647053  66.3343118  -0.8486701  65.8584496  65.2537329  -0.2982787
  69.0685304  63.5708073   0.6659823  68.8246235  64.3250134   0.1294099
  69.3445234  63.9493421   1.5007071  71.0223766  70.1146685  -0.6562911
  71.2340662  70.7578445  -1.3328530  70.9753515  69.2809002  -1.1240981
  68.6249995  62.7264506  -3.7526339  67.7634474  63.0245760  -3.4609601
  68.6512430  62.9434905  -4.6845306  62.3335646  70.8178178  -4.4072770
  62.9037003  71.2465447  -5.0455285  62.9243758  70.5360763  -3.7088584
  62.8260812  65.9841606   3.8388241  62.1959473  66.6657887   4.0723638
  62.7196900  65.8724687   2.8941380  58.1205785  65.6513402  -5.2345834
  57.3304839  65.9070930  -5.7105724  58.6117032  66.4661740  -5.1293794
  60.0720530  66.0157981  -8.2762358  59.2751693  66.1276675  -7.7578862
  59.8446122  66.3544633  -9.1421467  65.9026198  72.5402684  -0.3279843
  65.9670630  73.0023091   0.5078329  65.1937122  71.9100049  -0.1997533
  56.4043488  65.9043892  -2.8030844  56.6551526  66.7890902  -2.5373268
  56.9403036  65.7248494  -3.5755752  62.1041555  60.2862371   6.2013492
  61.7108501  59.7328570   6.8761137  62.9207695  60.5972950   6.5920010
  65.0209516  61.7020251   3.7933749  65.7619229  62.3027404   3.7138211
  65.2527439  60.9597888   3.2351792  60.1650854  66.8876618   2.0711979
  60.0504369  65.9861875   2.3719078  59.3095372  67.1340315   1.7196795
  67.2442692  74.8294358   3.6699479  66.8006546  74.0430737   3.3520384
  67.9059905  75.0173509   3.0043370  62.0029813  76.3590160  -1.8039842
  62.5537238  76.2307223  -2.5762848  61.1641289  76.6585049  -2.1544949
  69.3423930  75.1097158   1.6980881  69.3242405  75.9306039   1.2061150
  70.2643850  74.9851233   1.9231022  65.7996984  72.6241288   2.5404389
  66.3325321  71.8629576   2.3103697  65.2711065  72.3314939   3.2828543
  68.9666679  57.7301354  -1.9301969  68.6230948  58.6202995  -2.0062859
  69.3345642  57.5403011  -2.7932384  66.5164073  62.5659665  -8.3644296
  65.6605669  62.1766516  -8.5438657  66.9291024  62.6451626  -9.2244510
  68.0463219  60.1006009  -3.9652736  67.5428015  60.0636144  -4.7784931
  68.3393826  61.0098751  -3.9056079  64.2906105  60.1844738  -4.9586554
  65.1559102  59.9887547  -5.3180665  64.3583614  59.9555090  -4.0317198
  61.8968424  62.4146946  -7.5870188  62.4712176  62.1922128  -8.3196995
  62.4839407  62.4835641  -6.8341586  64.1991092  59.2888195  -8.8595118
  63.5455504  58.9737212  -9.4838503  64.1571566  58.6663936  -8.1335295
  67.4328832  65.7770129  -4.5347470  66.5151394  65.9985076  -4.6925782
  67.8488976  65.8516439  -5.3935763  70.7654345  56.9894913  -6.8284232
  71.0713221  56.1292276  -7.1158317  71.4906949  57.5812533  -7.0285238
  57.0578701  67.3925599  -8.4402634  56.8603100  66.7994960  -9.1651567
  56.5025365  67.0877809  -7.7226695  65.0375424  67.2848706  -6.3208041
  65.0924034  66.3322542  -6.3965564  64.2266626  67.4408145  -5.8366742
  62.9767784  65.9025766  -8.5617662  62.1635650  66.2019936  -8.1552470
  63.4726778  65.5081454  -7.8443179  68.5741996  66.3667590   0.2697232
  68.9291384  66.5939063   1.1291698  69.2214127  66.6985967  -0.3525513
  62.4681859  63.4744121  -2.9456427  63.1081238  63.3332880  -3.6433463
  61.6359390  63.1878634  -3.3217825  59.4710475  63.4444446  -8.1683440
  59.7317293  64.3589779  -8.2774279  60.2927648  62.9768889  -8.0186827
  60.9435401  64.8582203  -0.9984615  61.6158454  64.6499565  -1.6471967
  60.1165187  64.6604289  -1.4379383  66.8460973  61.4844144   1.0181045
  66.1988888  62.1834094   0.9245522  67.6161988  61.9180288   1.3857294
  70.2539771  71.7492996   4.0931599  70.1025277  71.5203548   3.1761682
  70.2444450  72.7063598   4.1062944  67.0225107  69.3224909  -0.9222135
  67.9517167  69.4736069  -1.0953168  66.6016137  69.4108930  -1.7773488
  65.8213439  73.3475573  -3.1523597  65.6824525  72.9794358  -2.2797659
  65.0328035  73.8623213  -3.3239639  61.3462898  68.1324806  -0.2382178
  61.2082696  67.4005045   0.3629361  62.2567821  68.0433706  -0.5197991
  63.9745199  67.8444766  -0.7498499  64.6844817  67.2037958  -0.7911880
  63.9314507  68.0957660   0.1727682  71.9631977  74.7812119   2.1708081
  71.9044523  74.0971339   1.5038664  72.3651496  75.5231109   1.7188707
  62.6874133  64.8309983   1.0697141  62.1511490  64.3800722   1.7218737
  62.0990841  64.9655892   0.3267605  71.9649385  72.7451703   0.4022060
  71.0776163  72.4077625   0.5248459  72.5347936  72.0134734   0.6390826
  53.6178532  69.0775795  -6.2734888  54.3049572  68.7637525  -6.8613873
  53.4626660  69.9817159  -6.5467637  58.4213254  63.9665991  -1.8449865
  58.3371443  63.3591661  -2.5799455  57.5995960  64.4575009  -1.8440368
  68.5936968  62.4519555  -6.4779670  69.0905667  61.6989517  -6.7978599
  67.8223949  62.4883871  -7.0436460  65.1771936  64.5936938  -6.7507985
  64.8069724  64.0407978  -6.0627079  65.6731029  63.9895071  -7.3032985
  63.0061135  75.0534433   0.3447033  63.7070595  75.6870916   0.4976427
  62.5356250  75.3949164  -0.4157328  71.0355963  59.4189148  -4.3300311
  70.1219042  59.6493375  -4.1618104  71.4649064  59.5027592  -3.4786278
  70.8062421  67.6079040  -1.8300417  70.1533871  67.8554948  -2.4847964
  71.1842801  66.7943178  -2.1637939  66.8549994  68.3498851   4.6565620
  66.1790631  68.2492980   5.3267996  67.6777628  68.1938065   5.1201618
  58.6028853  74.5870788  -2.7221864  59.1882290  73.8414476  -2.5893960
  58.4053692  74.8974744  -1.8385200  53.1946508  67.1576388  -4.0017421
  53.2330607  66.6239979  -3.2080303  52.6886801  66.6311593  -4.6206444
  60.5737270  62.0040928  -0.5054879  60.6378597  62.8655759  -0.9177481
  60.5104390  61.3914930  -1.2382520  60.0489543  64.0764061   3.1418155
  60.6761581  63.6941138   3.7555680  59.1917462  63.8578263   3.5073848
  70.4483651  74.4827036   4.7471891  70.9923555  75.0956994   4.2526846
  69.8670496  75.0406615   5.2638904  56.8255085  65.8840490 -10.9263490
  57.1208527  64.9751168 -10.9796436  55.9243121  65.8628229 -11.2482487
  60.3549332  63.9596487  -4.9435941  59.6335918  64.5732454  -5.0828468
  61.1442588  64.4954251  -5.0219295  63.1575646  61.2950913   1.3304711
  63.6810048  61.5413210   2.0931020  62.9387979  62.1270948   0.9107848
  58.5542927  63.5654588 -10.8024165  58.2255633  62.6851967 -10.9849059
  58.9082298  63.5102256  -9.9147775  64.3628191  62.2364608  -0.9845619
  64.0225011  61.4372421  -0.5824939  63.6567197  62.5366319  -1.5568786
  65.0144663  59.3213921  -2.5318296  65.8370732  58.8474399  -2.6539406
  65.2582726  60.1004404  -2.0319610  62.5383242  66.0133041  -4.7226317
  62.3927822  66.3273344  -3.8302036  62.0608445  66.6317942  -5.2755419
  64.3979624  63.0035589  -4.6745428  64.3841193  62.1076683  -5.0113130
  65.1152053  63.0106253  -4.0407142  66.2505755  63.4372929  -2.6292300
  65.9923533  64.3590000  -2.6307970  65.7190796  63.0403364  -1.9391836
  57.0128904  68.5538386  -1.7838656  56.4682372  69.3298194  -1.6518382
  57.8908254  68.9009190  -1.9419535  63.8016520  61.8849970  -9.4057858
  63.9232432  60.9566616  -9.2066970  63.5118563  61.8988656 -10.3179542
  66.6707711  59.5704880  -6.2691138  66.6929408  59.6344213  -7.2239158
  67.0875770  58.7309389  -6.0750632  57.7994926  67.6808282   1.1091501
  57.0576662  67.8290917   1.6956131  57.4787670  67.9416548   0.2458250
  65.7438588  77.2224260   0.9071891  66.0525715  76.9773407   1.7794590
  66.5414070  77.4270899   0.4190761  56.4460144  73.4860037  -5.9009171
  55.6092053  73.0582211  -6.0825170  56.4183790  73.6792480  -4.9638380
  63.2857600  63.3981967   4.8032075  63.3345755  64.2744090   4.4209845
  63.8280114  62.8559360   4.2303718  73.7712446  73.9423090   4.0833212
  72.9807989  73.9247229   3.5437711  73.5345800  74.4811384   4.8382249
  73.8910321  70.7915557   1.3965941  73.9408326  70.6265564   2.3381463
  73.7824244  69.9242816   1.0063821  71.1814083  66.7746485   2.7125247
  72.0823946  66.6352949   2.4209245  71.2562058  66.9400939   3.6523425
  65.5156888  64.1513339   1.5578434  64.6460198  64.4446905   1.2861022
  65.7516369  64.7353784   2.2785697  75.3928517  73.2112498   1.6407962
  75.1013326  73.5742479   2.4771423  74.7800649  72.4979506   1.4621294
  73.6415706  68.3345113   0.1088020  74.1169827  68.5272759  -0.6993128
  72.7181271  68.3904299  -0.1368596  68.2195922  60.3692956  -0.9256146
  68.7377866  61.1053983  -1.2509657  67.8651055  60.6756950  -0.0909387
  68.4708516  56.7893239  -5.4055249  68.7510270  56.1216428  -4.7794823
  69.2559123  56.9822334  -5.9180586  72.3417375  65.2110873  -1.6583674
  73.2934798  65.3108970  -1.6371450  72.1720825  64.4189141  -1.1485590
  70.3631754  62.2966456  -1.4724273  69.7681686  62.5771469  -2.1677785
  70.0781451  62.7860357  -0.7007532  74.9699941  65.2228036  -2.4983091
  74.4538990  64.4386493  -2.6853163  75.8539890  64.8946753  -2.3336572
  72.6310668  58.9669051  -6.5387279  72.4335489  58.6584140  -5.6543947
  73.2410374  59.6930690  -6.4089349  66.5427476  71.3530792   4.9586486
  67.4630485  71.5309391   5.1526533  66.5077059  70.4086837   4.8066186
  55.7609641  66.5469385  -6.1160239  55.4412425  65.6934693  -6.4085865
  55.2143069  66.7617963  -5.3602272  59.5389548  69.2631826  -2.3990732
  59.7575558  70.1948934  -2.3802699  59.9515322  68.9039801  -1.6135929
  66.4593766  59.7699912 -10.4115044  65.6494495  59.4246997 -10.0359798
  67.1478183  59.4607455  -9.8227432  68.3884315  58.8477958  -8.7890747
  68.9415353  59.2673412  -8.1300724  68.6254401  57.9213706  -8.7467791
  64.4117414  64.8365032   6.9912017  64.3114141  65.7859389   6.9224108
  64.1938956  64.5083271   6.1188087  55.6297901  70.1672297  -4.1467117
  54.9361372  69.7526250  -4.6597163  56.3770892  70.2092833  -4.7433698
  70.2166688  60.3583541  -7.0790763  70.7166466  60.4700076  -7.8876444
  70.8602296  60.0544594  -6.4389954  64.2748684  68.2662171   5.8077078
  63.7915766  69.0662531   6.0140967  64.3609623  68.2770116   4.8544522
  57.5434643  70.0990551  -6.2701102  57.5205332  70.1978238  -7.2219219
  57.8535280  70.9455701  -5.9483936  60.2022021  72.1566706  -2.1554488
  61.1565275  72.1250648  -2.2224556  60.0034545  71.6957329  -1.3404262
  60.7921403  70.7267822   0.4116310  61.6114292  71.2211900   0.4351147
  61.0658211  69.8099790   0.3833877  56.0456318  65.0605955   1.1108507
  56.6915181  64.5504909   1.5995732  55.8373469  65.7974637   1.6851932
  68.5709710  72.1286803   6.6100647  69.4400870  72.3027455   6.2487282
  68.0916461  72.9481220   6.4876377  62.7395890  79.2483904  -1.7109919
  63.6423137  79.2807514  -1.3943424  62.5133260  78.3184355  -1.6963583
  68.3812048  55.9188777  -8.8821660  67.6144443  55.3647263  -8.7364978
  68.7922753  55.9910645  -8.0207509  60.3853809  62.2073573   5.2083521
  61.2485270  61.8510377   5.4186845  59.8119219  61.8687467   5.8958925
  72.9435309  75.6154289   6.2013492  72.5502255  75.0620488   6.8761137
  73.7601450  75.9264868   6.5920010  75.8603270  77.0312168   3.7933749
  76.6012984  77.6319321   3.7138211  76.0921193  76.2889806   3.2351792
  70.8883297  79.4055979   3.1418155  71.5155336  79.0233056   3.7555680
  70.0311216  79.1870181   3.5073848  74.1251354  78.7273885   4.8032075
  74.1739510  79.6036007   4.4209845  74.6673869  78.1851278   4.2303718
  75.2511168  80.1656950   6.9912017  75.1507895  81.1151307   6.9224108
  75.0332710  79.8375189   6.1188087  66.8850072  80.3897873   1.1108507
  67.5308936  79.8796827   1.5995732  66.6767223  81.1266555   1.6851932
  71.2247563  77.5365490   5.2083521  72.0879025  77.1802295   5.4186845
  70.6512974  77.1979385   5.8958925  71.9631979  51.7874241 -11.1046613
  71.9044525  51.1033462 -11.7716030  72.3651497  52.5293231 -11.5565987
  70.4483653  51.4889159  -8.5282803  70.9923556  52.1019117  -9.0227848
  69.8670497  52.0468737  -8.0115790  73.7712447  50.9485213  -9.1921481
  72.9807991  50.9309352  -9.7316982  73.5345801  51.4873506  -8.4372445
  75.3928519  50.2174621 -11.6346731  75.1013327  50.5804601 -10.7983270
  74.7800650  49.5041629 -11.8133399  68.5709711  49.1348926  -6.6654046
  69.4400871  49.3089578  -7.0267411  68.0916463  49.9543342  -6.7878317
  72.9435311  52.6216412  -7.0741201  72.5502256  52.0682610  -6.3993557
  73.7601451  52.9326990  -6.6834683  75.8603272  54.0374291  -9.4820944
  76.6012985  54.6381444  -9.5616482  76.0921195  53.2951929 -10.0402902
  70.8883298  56.4118101 -10.1336538  71.5155337  56.0295179  -9.5199014
  70.0311217  56.1932303  -9.7680846  74.1251356  55.7336007  -8.4722618
  74.1739511  56.6098130  -8.8544849  74.6673870  55.1913400  -9.0450975
  75.2511170  57.1719072  -6.2842677  75.1507896  58.1213429  -6.3530586
  75.0332712  56.8437311  -7.1566607  66.8850073  57.3959996 -12.1646187
  67.5308937  56.8858950 -11.6758962  66.6767225  58.1328677 -11.5902761
  71.2247564  54.5427613  -8.0671172  72.0879026  54.1864418  -7.8567848
  70.6512975  54.2041508  -7.3795768   4.3519301  99.9941228  46.9663188
   3.5983009  99.4248626  46.8107193   4.4866842  99.9603893  47.9133823
   0.7167913 101.4349217  47.2629303   1.5514805 101.8739021  47.4266863
   0.8527042 100.9587870  46.4437549   4.7625716 100.1516838  49.6983433
   5.4929104  99.8902126  50.2591136   4.1532661  99.4145560  49.7385501
   2.8441013  98.2924701  50.2957884   2.1174177  98.1580666  49.6874375
   2.4288300  98.6001529  51.1014602   0.4618808  94.5136553  47.6491315
   1.0563299  94.2732289  46.9384624   0.5345392  93.7943684  48.2764852
   2.7689881  97.8202754  46.4234737   2.2089439  97.8895943  47.1966299
   2.1633384  97.6443738  45.7034233   3.9304147 103.7177110  51.1716801
   3.5868416 104.6078752  51.0955912   4.2983110 103.5278768  50.3086386
   5.7291813 102.9770669  46.2734539   6.0350689 102.1168033  45.9860454
   6.4544417 103.5688289  46.0733533   3.4345984 102.7768995  47.6963521
   3.7147738 102.1092184  48.3223948   4.2196591 102.9698091  47.1838185
   7.5948136 104.9544808  46.5631492   7.3972957 104.6459896  47.4474824
   8.2047842 105.6806447  46.6929421   3.3449516 101.9064533  44.2197110
   2.5781911 101.3523020  44.3653792   3.7560221 101.9786402  45.0811262
   4.3519302  77.0003351  33.6908495   3.5983010  76.4310749  33.5352499
   4.4866843  76.9666015  34.6379130   0.7167915  78.4411339  33.9874609
   1.5514806  78.8801143  34.1512170   0.8527043  77.9649993  33.1682855
   4.7625717  77.1578961  36.4228739   5.4929106  76.8964249  36.9836443
   4.1532663  76.4207683  36.4630807   2.8441014  75.2986823  37.0203190
   2.1174178  75.1642788  36.4119682   2.4288301  75.6063652  37.8259908
   0.4618809  71.5198676  34.3736622   1.0563300  71.2794412  33.6629930
   0.5345393  70.8005806  35.0010158   2.7689882  74.8264876  33.1480043
   2.2089440  74.8958066  33.9211605   2.1633385  74.6505861  32.4279539
   4.3545900  91.5021390  35.8409999   4.9924310  91.3828138  35.1373339
   4.2366743  92.4502234  35.8997951   1.1635607  91.4548818  35.7771524
   0.8254118  91.3389883  34.8892058   2.0325375  91.0539984  35.7572530
   1.6455390  92.6083670  41.7357729   1.6344030  92.2136468  40.8638233
   1.8076029  91.8749743  42.3291501   3.9087169  89.2272844  32.9163207
   4.6950258  88.8092267  32.5653624   4.1725873  90.1318936  33.0844855
   9.3095596  89.1648077  33.8196185  10.0420768  88.5947294  34.0534015
   8.5534952  88.7769678  34.2602691   0.9271716  91.5875319  31.0159528
   0.5629923  91.0605940  31.7272449   1.7838832  91.1973788  30.8426013
   6.8321016  82.8769652  38.2790794   6.5004341  83.7465062  38.0552009
   6.2366630  82.5605936  38.9584824   3.3252536  95.0782198  37.6786707
   3.0253259  95.9807236  37.5702514   2.9803595  94.8114381  38.5307860
   6.7249680  87.5964738  35.3584144   5.8166557  87.5280146  35.0642905
   6.6737275  88.0736683  36.1865970   8.5911326  85.7981176  37.1362018
   7.9485706  86.0913709  36.4901813   8.0866255  85.6834096  37.9415215
   6.2451490  89.5444349  27.8247877   7.1569346  89.7771736  27.6495575
   5.7361137  90.1281394  27.2622956   4.5292257  93.9668977  41.4609170
   4.9375613  93.5251388  40.7163802   3.8069519  93.3921605  41.7143363
   0.8823327  88.9041584  38.8342727   1.7284523  89.3280997  38.9777376
   0.8221965  88.2475208  39.5281290   4.8521072  94.5270168  35.2161459
   4.2229935  94.6915882  34.5137527   4.4646734  94.9411777  35.9872423
   8.7310304  95.4624606  32.5705823   8.0461342  95.8423507  32.0202856
   8.8154153  96.0719932  33.3037770   4.0322773  86.5645952  40.4923900
   3.7883705  87.3188013  39.9558176   4.3082703  86.9431300  41.3271148
   5.9861236  93.1084565  39.1701166   6.1978131  93.7516325  38.4935547
   5.9390984  92.2746881  38.7023096   3.5887465  85.7202385  36.0737738
   2.7271944  86.0183639  36.3654476   3.6149899  85.9372784  35.1418771
   7.1007064  95.9856520  37.3423523   7.9224507  95.5836707  37.0606205
   7.0969466  95.8824754  38.2939639  15.1913057  92.3295269  33.6908495
  14.4376765  91.7602667  33.5352499  15.3260598  92.2957933  34.6379130
   2.2080161  97.8232237  43.4963556   1.7644015  97.0368616  43.1784461
   2.8697375  98.0111388  42.8307447   4.3061399  98.1035037  41.5244958
   4.2879874  98.9243918  41.0325227   5.2281319  97.9789112  41.7495099
   3.9304148  80.7239233  37.8962108   3.5868418  81.6140874  37.8201218
   4.2983111  80.5340890  37.0331693   1.4801542  85.5597545  31.4619781
   0.6243138  85.1704395  31.2825420   1.8928494  85.6389505  30.6019567
   3.0100689  83.0943888  35.8611341   2.5065484  83.0574023  35.0479146
   3.3031295  84.0036631  35.9207998   8.8688705  93.4680198  28.3387716
   8.0918148  93.1291358  27.8942878   9.5480186  93.4732822  27.6642681
   3.6840734  88.5874936  28.2294324   3.3790870  88.9021085  29.0804467
   4.6371176  88.6656356  28.2721657   7.1080012  92.9414180  34.9954324
   6.4503686  93.6313441  35.0834453   7.9120411  93.3310612  35.3388311
   5.9185471  91.2958552  33.0458266   6.4317353  91.9288544  33.5479976
   6.5686695  90.6959748  32.6801626   2.3966302  88.7708008  35.2916607
   1.4788863  88.9922955  35.1338295   2.8126445  88.8454318  34.4328314
   3.1801349  90.1699424  30.4219287   3.9273168  90.6820821  30.1126409
   3.4492939  89.8483476  31.2823680   6.6847267  96.2764554  31.1737409
   6.2309594  95.4355464  31.2302599   6.0541234  96.9125952  31.5112189
   5.6280187  87.2056540  32.4038076   4.8902943  86.6933926  32.7348319
   5.8806960  86.7656921  31.5921353   5.1280206  98.1141051  32.1087227
   5.4203181  98.6746108  31.3899592   5.6378827  98.4069612  32.8640386
   5.7291814  79.9832792  32.9979845   6.0350691  79.1230155  32.7105760
   6.4544419  80.5750412  32.7978839   3.5379465  89.3605469  40.0961309
   3.8928853  89.5876942  40.9555775   4.1851596  89.6923846  39.4738564
   9.2677202  92.4823905  30.8010638   9.1295101  92.6725501  29.8731827
   8.9113421  93.2443288  31.2578689   9.2946582  94.5500432  35.8121910
   9.7283088  94.4575721  36.6604964  10.0078162  94.5257933  35.1741926
   3.0274477  98.1502526  37.3455010   3.0811499  98.7193462  38.1132726
   2.1589258  98.3204411  36.9809047  10.1562131  94.5924133  38.3454795
  10.3498021  95.4969943  38.5914070  10.0562749  94.1331552  39.1793380
   1.8098442  84.4782023  40.8445122   1.1626357  85.1771973  40.7509599
   2.5799457  84.9118167  41.2121371   5.2177240  94.7430875  43.9195676
   5.0662746  94.5141427  43.0025759   5.2081919  95.7001477  43.9327021
   1.9862576  92.3162788  38.9041942   2.9154636  92.4673948  38.7310909
   1.5653606  92.4046809  38.0490589   2.3356123  95.7195055  34.0629318
   2.0005956  95.6795825  34.9586967   1.8360069  95.0539771  33.5899728
   6.9269447  97.7749998  41.9972158   6.8681993  97.0909218  41.3302741
   7.3288965  98.5168988  41.5452784   6.9286854  95.7389582  40.2286137
   6.0413633  95.4015504  40.3512536   7.4985405  95.0072613  40.4654903
   3.5574437  85.4457434  33.3484407   4.0543137  84.6927396  33.0285478
   2.7861419  85.4821750  32.7827617  11.4104194  91.1497799  34.9902699
  11.3994071  92.0322515  34.6196632  10.5421574  90.7969350  34.7957236
   2.9186691 100.2977868  39.3505539   3.6314663 100.9325333  39.2781441
   2.4276719 100.3941734  38.5345541   4.6404218  94.2029121  30.9222831
   3.7060496  94.3230583  30.7527535   4.8180886  93.3001588  30.6582841
   8.0276769  90.0446440  31.4572865   8.4937221  90.8774432  31.3833168
   8.4784270  89.5791422  32.1618123   6.0953000  96.3890262  28.4559017
   6.3712844  96.2746856  29.3652891   5.2257499  95.9907746  28.4171190
   5.9993432  82.4127027  35.4963766   5.0856512  82.6431254  35.6645973
   6.4286533  82.4965471  36.3477799   5.7699890  90.6016919  37.9963660
   5.1171341  90.8492827  37.3416113   6.1480270  89.7881057  37.6626138
   1.8187463  91.3436730  44.4829697   1.1428100  91.2430860  45.1532073
   2.6415097  91.1875944  44.9465695   0.5610246 102.6503658  38.7187313
   1.1128554 102.8135279  39.4836399   0.9016440 103.2408096  38.0467338
   5.4121121  97.4764915  44.5735968   5.9561025  98.0894874  44.0790923
   4.8307965  98.0344494  45.0902981   3.6978633 100.5985633  35.7050996
   3.5729773  99.7975373  35.1961941   4.3557725 101.0931827  35.2164966
   5.7613542  98.3994653  37.3330546   4.8143877  98.2800005  37.2608872
   6.1096315  97.5117151  37.4156807   2.7659975  98.1947370  33.5334898
   2.6184938  97.2664077  33.7142468   3.5913469  98.2167460  33.0491973
   6.3694097  99.0175928  34.6199771   7.2940644  98.8118790  34.4824222
   6.2009400  98.7692329  35.5289112   2.7621489  86.0485207  28.5267015
   2.9785104  86.9309845  28.2255843   2.2815557  85.6571421  27.7972657
   1.2143224  86.4310809  37.1971777   0.9561002  87.3527879  37.1956107
   0.6828265  86.0341243  37.8872241   6.1589413  99.5361596  29.9761862
   6.3326291  98.9708018  29.2235715   6.6518304 100.3362491  29.7941352
   1.6345180  82.5642759  33.5572939   1.6566877  82.6282092  32.6024919
   2.0513239  81.7247268  33.7513445  12.0128804  92.2998019  31.5952162
  12.4559950  91.5505344  31.1971285  11.1355315  92.2908155  31.2125894
   9.0456009  96.3028066  28.6046091   9.5707333  96.6415338  27.8795411
   8.9578361  95.3675081  28.4209226   0.7076058 100.2162139  40.7335968
   1.0163184  99.9711286  41.6058667   1.5051540 100.4208778  40.2454838
   8.7349915  96.9360969  43.9097289   7.9445459  96.9185108  43.3701788
   8.4983269  97.4749263  44.6646326   8.8547790  93.7853436  41.2230018
   8.9045795  93.6203443  42.1645540   8.7461713  92.9180695  40.8327898
   6.1451552  89.7684364  42.5389324   7.0461415  89.6290829  42.2473322
   6.2199527  89.9338819  43.4787502  10.3565987  96.2050377  41.4672039
  10.0650795  96.5680358  42.3035500   9.7438118  95.4917386  41.2885371
  11.5561669  93.7703257  33.9874609  12.3908560  94.2093061  34.1512170
  11.6920798  93.2941910  33.1682855   8.6053175  91.3282992  39.9352097
   9.0807297  91.5210638  39.1270949   7.6818740  91.3842178  39.6895481
   3.1833392  83.3630835  38.9007931   3.7015335  84.0991862  38.5754420
   2.8288524  83.6694829  39.7354690   3.4345986  79.7831118  34.4208828
   3.7147739  79.1154307  35.0469254   4.2196593  79.9760214  33.9083491
   7.3054844  88.2048752  38.1680403   8.2572267  88.3046850  38.1892627
   7.1358294  87.4127021  38.6778487   5.3269223  85.2904335  38.3539804
   4.7319156  85.5709348  37.6586292   5.0418920  85.7798236  39.1256545
   9.7842922  91.4254872  37.2822702   9.7519242  90.4870872  37.4682386
  10.3943545  91.5038908  36.5488527   9.9337410  88.2165915  37.3280986
   9.4176459  87.4324372  37.1410914  10.8177359  87.8884632  37.4927505
   7.5948137  81.9606931  33.2876798   7.3972958  81.6522019  34.1720130
   8.2047843  82.6868570  33.4174728  15.6019472  92.4870878  36.4228739
  16.3322860  92.2256167  36.9836443  14.9926417  91.7499600  36.4630807
  13.6834769  90.6278741  37.0203190  12.9567932  90.4934706  36.4119682
  13.2682056  90.9355570  37.8259908   1.5064945  94.3468671  44.7850563
   2.4267955  94.5247270  44.9790610   1.4714528  93.4024716  44.6330263
   1.4231236  82.7637791  29.4149033   0.6131964  82.4184876  29.7904279
   2.1115652  82.4545334  30.0036645   3.3521784  81.8415838  31.0373330
   3.9052822  82.2611291  31.6963353   3.5891870  80.9151586  31.0796286
   6.7300591  83.9516363  30.5451994   6.1499260  84.6101167  30.1630046
   6.4636524  83.1293707  30.1339411   5.1804157  83.3521420  32.7473314
   5.6803936  83.4637955  31.9387633   5.8239765  83.0482473  33.3874123
   5.5125469  86.1116453  29.6008342   4.6251324  86.3966104  29.3828537
   5.9279458  85.9510216  28.7535619   8.8640005  86.1362974  33.3162681
   9.6400395  86.6259426  33.5887298   8.1388139  86.5621028  33.7734551
  11.3012564  86.8490593  34.3736622  11.8957055  86.6086329  33.6629930
  11.3739147  86.1297724  35.0010158   5.4866493  91.6270989  29.8158632
   5.4301694  92.0839540  28.9766265   6.0394835  90.8661674  29.6381475
   9.2971299  87.4160721  30.6408752   9.0408233  87.0157357  31.4716959
   8.6724167  88.1304515  30.5158891  13.6083636  90.1556794  33.1480043
  13.0483194  90.2249983  33.9211605  13.0027140  89.9797779  32.4279539
   6.2201272  92.8175770  27.1111161   6.1650076  92.6520042  26.1699606
   5.5947327  93.5251803  27.2673351   3.5347179  95.1224682  46.4364724
   4.4038339  95.2965334  46.0751359   3.0553931  95.9419099  46.3140454
   3.3449517  78.9126656  30.9442417   2.5781913  78.3585143  31.0899099
   3.7560222  78.9848525  31.8056568  15.1939655 106.8313308  35.8409999
  15.8318065 106.7120055  35.1373339  15.0760498 107.7794152  35.8997951
  12.0029361 106.7840736  35.7771524  11.6647873 106.6681801  34.8892058
  12.8719129 106.3831901  35.7572530  12.4849144 107.9375588  41.7357729
  12.4737785 107.5428386  40.8638233  12.6469784 107.2041660  42.3291501
  14.7480923 104.5564762  32.9163207  15.5344013 104.1384185  32.5653624
  15.0119628 105.4610854  33.0844855  20.1489351 104.4939995  33.8196185
  20.8814522 103.9239212  34.0534015  19.3928706 104.1061596  34.2602691
  11.7665470 106.9167237  31.0159528  11.4023677 106.3897858  31.7272449
  12.6232586 106.5265706  30.8426013  17.6714771  98.2061569  38.2790794
  17.3398096  99.0756980  38.0552009  17.0760384  97.8897853  38.9584824
  17.5643434 102.9256655  35.3584144  16.6560312 102.8572064  35.0642905
  17.5131030 103.4028600  36.1865970  11.6384300 104.3446301  43.3019041
  10.8617634 104.9040221  43.2921906  12.2774863 104.8303084  43.8233912
  19.4305081 101.1273094  37.1362018  18.7879461 101.4205627  36.4901813
  18.9260009 101.0126014  37.9415215  17.0845244 104.8736267  27.8247877
  17.9963100 105.1063654  27.6495575  16.5754891 105.4573311  27.2622956
  11.7217082 104.2333502  38.8342727  12.5678277 104.6572915  38.9777376
  11.6615720 103.5767126  39.5281290  14.8716527 101.8937870  40.4923900
  14.6277459 102.6479930  39.9558176  15.1476458 102.2723218  41.3271148
  16.8254990 108.4376482  39.1701166  17.0371885 109.0808242  38.4935547
  16.7784738 107.6038799  38.7023096  14.4281219 101.0494303  36.0737738
  13.5665698 101.3475557  36.3654476  14.4543654 101.2664702  35.1418771
   8.6292036 104.3071403  43.6652318   7.9990697 104.9887683  43.8987715
   8.5228124 104.1954484  42.7205457  26.0306811 107.6587186  33.6908495
  25.2770519 107.0894584  33.5352499  26.1654352 107.6249851  34.6379130
   7.9072779  98.6092168  46.0277569   7.5139724  98.0558367  46.7025214
   8.7238919  98.9202747  46.4184087  10.8240740 100.0250047  43.6197826
  11.5650453 100.6257201  43.5402288  11.0558663  99.2827685  43.0615869
  14.7697903  96.0531150  37.8962108  14.4262172  96.9432792  37.8201218
  15.1376865  95.8632808  37.0331693  12.3195296 100.8889462  31.4619781
  11.4636893 100.4996313  31.2825420  12.7322248 100.9681423  30.6019567
  13.8494443  98.4235806  35.8611341  13.3459239  98.3865941  35.0479146
  14.1425050  99.3328548  35.9207998  10.0937329  98.5074535  34.8677523
  10.9590326  98.3117344  34.5083412  10.1614838  98.2784887  35.7946879
  19.7082460 108.7972116  28.3387716  18.9311902 108.4583276  27.8942878
  20.3873941 108.8024739  27.6642681  14.5234489 103.9166854  28.2294324
  14.2184624 104.2313003  29.0804467  15.4764931 103.9948273  28.2721657
  17.9473766 108.2706097  34.9954324  17.2897441 108.9605359  35.0834453
  18.7514166 108.6602529  35.3388311   7.6999648 100.7376743  32.2393889
   8.2743400 100.5151925  31.5067082   8.2870630 100.8065438  32.9922491
  16.7579225 106.6250470  33.0458266  17.2711107 107.2580462  33.5479976
  17.4080449 106.0251666  32.6801626  10.0022316  97.6117992  30.9668959
   9.3486728  97.2967009  30.3425574   9.9602790  96.9893733  31.6928782
  13.2360056 104.0999926  35.2916607  12.3182617 104.3214873  35.1338295
  13.6520200 104.1746236  34.4328314  14.0195104 105.4991341  30.4219287
  14.7666923 106.0112739  30.1126409  14.2886693 105.1775394  31.2823680
  16.4673941 102.5348458  32.4038076  15.7296698 102.0225844  32.7348319
  16.7200715 102.0948839  31.5921353  16.5685568  95.3124710  32.9979845
  16.8744445  94.4522073  32.7105760  17.2938173  95.9042330  32.7978839
  10.8406648 105.6078503  33.5056036  10.8955258 104.6552339  33.4298513
  10.0297850 105.7637942  33.9897335   8.7799008 104.2255562  31.2646415
   7.9666874 104.5249733  31.6711607   9.2758002 103.8311251  31.9820898
  14.3773220 104.6897387  40.0961309  14.7322607 104.9168860  40.9555775
  15.0245351 105.0215764  39.4738564  20.1070957 107.8115823  30.8010638
  19.9688855 108.0017419  29.8731827  19.7507175 108.5735206  31.2578689
   8.2713083 101.7973918  36.8807650   8.9112462 101.6562677  36.1830614
   7.4390613 101.5108431  36.5046252  20.1340336 109.8792350  35.8121910
  20.5676843 109.7867639  36.6604964  20.8471917 109.8549850  35.1741926
   5.2741699 101.7674243  31.6580637   5.5348516 102.6819576  31.5489798
   6.0958872 101.2998685  31.8077250   6.7466625 103.1812000  38.8279462
   7.4189678 102.9729362  38.1792110   5.9196411 102.9834086  38.3884694
  20.9955886 109.9216050  38.3454795  21.1891776 110.8261861  38.5914070
  20.8956504 109.4623469  39.1793380  12.6492197  99.8073941  40.8445122
  12.0020112 100.5063891  40.7509599  13.4193212 100.2410085  41.2121371
  12.8256331 107.6454706  38.9041942  13.7548391 107.7965866  38.7310909
  12.4047361 107.7338727  38.0490589   9.7776422 106.1674562  39.0765578
  10.4876041 105.5267755  39.0352197   9.7345731 106.4187457  39.9991759
   8.4905356 103.1539780  40.8961218   7.9542713 102.7030519  41.5482814
   7.9022065 103.2885689  40.1531682   4.2244478 102.2895788  37.9814212
   4.1402666 101.6821458  37.2464622   3.4027184 102.7804806  37.9823709
  14.3968192 100.7749351  33.3484407  14.8936891 100.0219314  33.0285478
  13.6255173 100.8113668  32.7827617  22.2497949 106.4789717  34.9902699
  22.2387825 107.3614432  34.6196632  21.3815328 106.1261268  34.7957236
  10.9803160 102.9166734  33.0756092  10.6100948 102.3637775  33.7636998
  11.4762253 102.3124868  32.5231092  18.8670524 105.3738358  31.4572865
  19.3330976 106.2066350  31.3833168  19.3178024 104.9083340  32.1618123
  16.8387186  97.7418945  35.4963766  15.9250266  97.9723172  35.6645973
  17.2680288  97.8257389  36.3477799  16.6093645 105.9308837  37.9963660
  15.9565095 106.1784744  37.3416113  16.9874025 105.1172975  37.6626138
  12.6581218 106.6728648  44.4829697  11.9821855 106.5722777  45.1532073
  13.4808852 106.5167862  44.9465695   6.3768494 100.3270725  39.3209198
   6.4409820 101.1885556  38.9086596   6.3135614  99.7144727  38.5881557
   5.8520766 102.3993858  42.9682232   6.4792805 102.0170935  43.5819757
   4.9948685 102.1808060  43.3337925   6.1580556 102.2826283  34.8828136
   5.4367142 102.8962251  34.7435609   6.9473812 102.8184048  34.8044782
   8.9606870  99.6180710  41.1568788   9.4841272  99.8643007  41.9195097
   8.7419203 100.4500745  40.7371925  10.1659415 100.5594405  38.8418458
   9.8256235  99.7602218  39.2439138   9.4598421 100.8596116  38.2695291
  10.8175887  97.6443717  37.2945781  11.6401956  97.1704196  37.1724671
  11.0613950  98.4234201  37.7944467  13.6015244 101.3777125  28.5267015
  13.8178858 102.2601763  28.2255843  13.1209311 100.9863338  27.7972657
   8.3414465 104.3362838  35.1037760   8.1959046 104.6503141  35.9962041
   7.8639669 104.9547738  34.5508658  10.2010848 101.3265386  35.1518649
  10.1872417 100.4306479  34.8150947  10.9183276 101.3336050  35.7856935
  12.0536979 101.7602726  37.1971777  11.7954757 102.6819797  37.1956107
  11.5222019 101.3633161  37.8872241   9.6047744 100.2079766  30.4206219
   9.7263655  99.2796413  30.6197107   9.3149787 100.2218452  29.5084535
  12.4738935  97.8934677  33.5572939  12.4960631  97.9574010  32.6024919
  12.8906994  97.0539185  33.7513445  22.8522559 107.6289936  31.5952162
  23.2953705 106.8797262  31.1971285  21.9749069 107.6200073  31.2125894
   9.0888824 101.7211764  44.6296152   9.1376979 102.5973887  44.2473922
   9.6311338 101.1789157  44.0567795  19.6941544 109.1145353  41.2230018
  19.7439549 108.9495361  42.1645540  19.5855468 108.2472612  40.8327898
  16.9845307 105.0976281  42.5389324  17.8855170 104.9582746  42.2473322
  17.0593281 105.2630736  43.4787502  11.3188112 102.4743136  41.3842511
  10.4491422 102.7676702  41.1125099  11.5547593 103.0583581  42.1049774
  22.3955424 109.0995175  33.9874609  23.2302315 109.5384979  34.1512170
  22.5314552 108.6233828  33.1682855  19.4446930 106.6574910  39.9352097
  19.9201051 106.8502556  39.1270949  18.5212495 106.7134095  39.6895481
  14.0227146  98.6922753  38.9007931  14.5409090  99.4283780  38.5754420
  13.6682279  98.9986746  39.7354690  14.2739740  95.1123036  34.4208828
  14.5541494  94.4446225  35.0469254  15.0590347  95.3052131  33.9083491
  18.1448599 103.5340670  38.1680403  19.0966021 103.6338767  38.1892627
  17.9752049 102.7418938  38.6778487  16.1662978 100.6196253  38.3539804
  15.5712910 100.9001266  37.6586292  15.8812675 101.1090154  39.1256545
  20.6236676 106.7546789  37.2822702  20.5912996 105.8162790  37.4682386
  21.2337300 106.8330826  36.5488527  20.7731165 103.5457833  37.3280986
  20.2570213 102.7616289  37.1410914  21.6571113 103.2176549  37.4927505
  18.4341892  97.2898848  33.2876798  18.2366713  96.9813937  34.1720130
  19.0441597  98.0160487  33.4174728  26.4413226 107.8162796  36.4228739
  27.1716615 107.5548084  36.9836443  25.8320172 107.0791518  36.4630807
  24.5228523 105.9570659  37.0203190  23.7961687 105.8226624  36.4119682
  24.1075810 106.2647487  37.8259908  12.2624990  98.0929708  29.4149033
  11.4525718  97.7476793  29.7904279  12.9509407  97.7837252  30.0036645
  14.1915538  97.1707755  31.0373330  14.7446577  97.5903209  31.6963353
  14.4285625  96.2443503  31.0796286  10.2148638 103.1594829  46.8176094
  10.1145364 104.1089186  46.7488185   9.9970180 102.8313068  45.9452164
  17.5694345  99.2808280  30.5451994  16.9893014  99.9393084  30.1630046
  17.3030278  98.4585625  30.1339411  16.0197912  98.6813338  32.7473314
  16.5197690  98.7929873  31.9387633  16.6633520  98.3774391  33.3874123
  16.3519223 101.4408371  29.6008342  15.4645078 101.7258021  29.3828537
  16.7673213 101.2802134  28.7535619  19.7033760 101.4654892  33.3162681
  20.4794150 101.9551344  33.5887298  18.9781894 101.8912946  33.7734551
  22.1406318 102.1782511  34.3736622  22.7350809 101.9378247  33.6629930
  22.2132902 101.4589642  35.0010158  16.3260247 106.9562907  29.8158632
  16.2695449 107.4131458  28.9766265  16.8788590 106.1953591  29.6381475
  20.1365053 102.7452639  30.6408752  19.8801987 102.3449274  31.4716959
  19.5117921 103.4596432  30.5158891  24.4477391 105.4848712  33.1480043
  23.8876949 105.5541901  33.9211605  23.8420894 105.3089696  32.4279539
  17.0595026 108.1467688  27.1111161  17.0043830 107.9811959  26.1699606
  16.4341082 108.8543721  27.2673351   1.8487541 103.3835752  40.9372584
   2.4946405 102.8734706  41.4259809   1.6404693 104.1204434  41.5116009
  10.3691152  97.6475797  26.6896480  10.3569822  98.5917637  26.8464751
  11.2614574  97.4645942  26.3955941  14.1843271  94.2418574  30.9442417
  13.4175667  93.6877060  31.0899099  14.5953976  94.3140442  31.8056568
   6.1885032 100.5303369  45.0347598   7.0516494 100.1740174  45.2450922
   5.6150443 100.1917264  45.7223002  25.6091657 111.3823068  37.8962108
  25.2655927 112.2724710  37.8201218  25.9770620 111.1924726  37.0331693
  27.4079323 110.6416627  32.9979845  27.7138200 109.7813991  32.7105760
  28.1331928 111.2334247  32.7978839  25.1133495 110.4414953  34.4208828
  25.3935248 109.7738142  35.0469254  25.8984102 110.6344049  33.9083491
  29.2735646 112.6190766  33.2876798  29.0760467 112.3105854  34.1720130
  29.8835352 113.3452405  33.4174728  25.0237026 109.5710491  30.9442417
  24.2569422 109.0168978  31.0899099  25.4347731 109.6432360  31.8056568
   4.3519303  54.0065473  20.4153802   3.5983012  53.4372872  20.2597806
   4.4866845  53.9728138  21.3624436   0.7167916  55.4473462  20.7119916
   1.5514807  55.8863266  20.8757476   0.8527045  54.9712115  19.8928162
   4.7625718  54.1641083  23.1474046   5.4929107  53.9026372  23.7081749
   4.1532664  53.4269805  23.1876114   2.8441016  52.3048946  23.7448497
   2.1174179  52.1704911  23.1364989   2.4288302  52.6125775  24.5505215
   0.4618810  48.5260798  21.0981929   1.0563301  48.2856534  20.3875237
   0.5345394  47.8067929  21.7255465   2.7689883  51.8326999  19.8725350
   2.2089441  51.9020188  20.6456912   2.1633387  51.6567984  19.1524846
   4.3545902  68.5083513  22.5655306   4.9924312  68.3890260  21.8618646
   4.2366745  69.4564357  22.6243258   1.1635608  68.4610941  22.5016830
   0.8254119  68.3452006  21.6137365   2.0325376  68.0602106  22.4817836
   1.6455391  69.6145793  28.4603036   1.6344032  69.2198591  27.5883539
   1.8076030  68.8811865  29.0536807   3.9087170  66.2334967  19.6408514
   4.6950259  65.8154390  19.2898931   4.1725874  67.1381059  19.8090162
   9.3095597  66.1710200  20.5441492  10.0420769  65.6009417  20.7779322
   8.5534953  65.7831800  20.9847998   0.9271717  68.5937442  17.7404835
   0.5629924  68.0668062  18.4517756   1.7838833  68.2035911  17.5671320
   6.8321018  59.8831774  25.0036101   6.5004342  60.7527185  24.7797316
   6.2366631  59.5668058  25.6830131   3.3252537  72.0844320  24.4032013
   3.0253260  72.9869359  24.2947821   2.9803597  71.8176503  25.2553166
   6.7249681  64.6026860  22.0829451   5.8166558  64.5342269  21.7888212
   6.6737277  65.0798805  22.9111276   8.5911327  62.8043299  23.8607325
   7.9485708  63.0975832  23.2147119   8.0866256  62.6896219  24.6660521
   6.2451491  66.5506472  14.5493184   7.1569347  66.7833859  14.3740881
   5.7361138  67.1343516  13.9868263   4.5292259  70.9731100  28.1854477
   4.9375615  70.5313510  27.4409109   3.8069520  70.3983727  28.4388669
   0.8823329  65.9103706  25.5588033   1.7284524  66.3343120  25.7022682
   0.8221966  65.2537331  26.2526597   4.8521073  71.5332290  21.9406765
   4.2229936  71.6978004  21.2382833   4.4646735  71.9473900  22.7117729
   8.7310305  72.4686728  19.2951129   8.0461343  72.8485630  18.7448162
   8.8154155  73.0782055  20.0283077   4.0322774  63.5708075  27.2169207
   3.7883706  64.3250135  26.6803483   4.3082705  63.9493422  28.0516454
   5.9861237  70.1146687  25.8946473   6.1978132  70.7578447  25.2180854
   5.9390985  69.2809004  25.4268403   3.5887466  62.7264508  22.7983045
   2.7271945  63.0245761  23.0899782   3.6149900  62.9434907  21.8664077
   7.1007065  72.9918643  24.0668830   7.9224509  72.5898830  23.7851512
   7.0969468  72.8886877  25.0184946  15.1913058  69.3357391  20.4153802
  14.4376766  68.7664789  20.2597806  15.3260599  69.3020056  21.3624436
   2.2080162  74.8294360  30.2208863   1.7644016  74.0430738  29.9029767
   2.8697376  75.0173510  29.5552754   4.3061400  75.1097160  28.2490264
   4.2879876  75.9306041  27.7570533   5.2281320  74.9851235  28.4740405
   3.9304149  57.7301355  24.6207414   3.5868419  58.6202997  24.5446525
   4.2983112  57.5403013  23.7576999   1.4801543  62.5659667  18.1865088
   0.6243140  62.1766518  18.0070727   1.8928495  62.6451628  17.3264873
   3.0100690  60.1006010  22.5856648   2.5065485  60.0636146  21.7724453
   3.3031297  61.0098753  22.6453304   8.8688706  70.4742321  15.0633023
   8.0918149  70.1353481  14.6188185   9.5480187  70.4794944  14.3887988
   3.6840735  65.5937059  14.9539631   3.3790871  65.9083208  15.8049774
   4.6371177  65.6718478  14.9966964   7.1080013  69.9476302  21.7199631
   6.4503688  70.6375564  21.8079760   7.9120412  70.3372734  22.0633617
   5.9185472  68.3020675  19.7703573   6.4317354  68.9350667  20.2725282
   6.5686696  67.7021871  19.4046933   2.3966303  65.7770131  22.0161913
   1.4788864  65.9985078  21.8583601   2.8126446  65.8516441  21.1573621
   3.1801351  67.1761546  17.1464593   3.9273170  67.6882943  16.8371715
   3.4492940  66.8545599  18.0068987   6.6847268  73.2826676  17.8982715
   6.2309595  72.4417586  17.9547906   6.0541235  73.9188075  18.2357495
   5.6280188  64.2118662  19.1283383   4.8902945  63.6996049  19.4593625
   5.8806961  63.7719044  18.3166660   5.1280207  75.1203173  18.8332533
   5.4203182  75.6808230  18.1144899   5.6378828  75.4131734  19.5885693
   5.7291815  56.9894914  19.7225152   6.0350692  56.1292278  19.4351067
   6.4544420  57.5812535  19.5224146   3.5379466  66.3667592  26.8206616
   3.8928854  66.5939065  27.6801082   4.1851598  66.6985969  26.1983871
   9.2677203  69.4886028  17.5255945   9.1295102  69.6787624  16.5977134
   8.9113422  70.2505410  17.9823996   9.2946583  71.5562555  22.5367216
   9.7283090  71.4637844  23.3850270  10.0078164  71.5320055  21.8987232
   3.0274478  75.1564649  24.0700317   3.0811500  75.7255585  24.8378033
   2.1589259  75.3266534  23.7054354  10.1562133  71.5986255  25.0700102
  10.3498023  72.5032066  25.3159377  10.0562751  71.1393674  25.9038687
   1.8098443  61.4844146  27.5690429   1.1626358  62.1834096  27.4754906
   2.5799459  61.9180290  27.9366677   5.2177241  71.7492998  30.6440982
   5.0662748  71.5203550  29.7271066   5.2081921  72.7063599  30.6572327
   1.9862578  69.3224911  25.6287249   2.9154638  69.4736070  25.4556216
   1.5653608  69.4108932  24.7735895   2.3356125  72.7257178  20.7874624
   2.0005957  72.6857948  21.6832274   1.8360070  72.0601894  20.3145034
   6.9269448  74.7812121  28.7217464   6.8681994  74.0971341  28.0548047
   7.3288966  75.5231111  28.2698090   6.9286855  72.7451705  26.9531444
   6.0413634  72.4077626  27.0757843   7.4985406  72.0134736  27.1900209
   3.5574438  62.4519556  20.0729714   4.0543138  61.6989519  19.7530784
   2.7861420  62.4883873  19.5072923  11.4104196  68.1559922  21.7148006
  11.3994072  69.0384637  21.3441939  10.5421575  67.8031473  21.5202543
   2.9186692  77.3039991  26.0750846   3.6314664  77.9387456  26.0026747
   2.4276721  77.4003857  25.2590848   4.6404219  71.2091244  17.6468137
   3.7060498  71.3292706  17.4772842   4.8180887  70.3063710  17.3828147
   8.0276770  67.0508563  18.1818172   8.4937223  67.8836554  18.1078474
   8.4784271  66.5853544  18.8863430   6.0953001  73.3952384  15.1804324
   6.3712845  73.2808979  16.0898198   5.2257500  72.9969869  15.1416497
   5.9993433  59.4189150  22.2209073   5.0856513  59.6493377  22.3891280
   6.4286535  59.5027594  23.0723105   5.7699892  67.6079042  24.7208967
   5.1171342  67.8554949  24.0661420   6.1480271  66.7943180  24.3871444
   1.8187465  68.3498853  31.2075004   1.1428102  68.2492982  31.8777379
   2.6415098  68.1938067  31.6711001   0.5610247  79.6565780  25.4432620
   1.1128556  79.8197402  26.2081705   0.9016441  80.2470218  24.7712645
   5.4121122  74.4827038  31.2981274   5.9561026  75.0956996  30.8036229
   4.8307967  75.0406616  31.8148287   3.6978635  77.6047756  22.4296302
   3.5729774  76.8037496  21.9207248   4.3557726  78.0993949  21.9410272
   5.7613543  75.4056776  24.0575852   4.8143879  75.2862127  23.9854179
   6.1096316  74.5179274  24.1402114   2.7659976  75.2009492  20.2580205
   2.6184939  74.2726200  20.4387775   3.5913470  75.2229583  19.7737280
   6.3694098  76.0238051  21.3445077   7.2940646  75.8180912  21.2069528
   6.2009402  75.7754452  22.2534419   2.7621491  63.0547330  15.2512322
   2.9785105  63.9371968  14.9501150   2.2815558  62.6633543  14.5217964
   1.2143226  63.4372931  23.9217083   0.9561004  64.3590002  23.9201414
   0.6828266  63.0403366  24.6117547   6.1589414  76.5423718  16.7007169
   6.3326292  75.9770141  15.9481021   6.6518306  77.3424613  16.5186659
   1.6345181  59.5704882  20.2818246   1.6566878  59.6344215  19.3270225
   2.0513240  58.7309390  20.4758752  12.0128806  69.3060141  18.3197468
  12.4559952  68.5567467  17.9216592  11.1355316  69.2970278  17.9371200
   9.0456010  73.3090188  15.3291398   9.5707334  73.6477461  14.6040718
   8.9578363  72.3737204  15.1454532   0.7076059  77.2224262  27.4581274
   1.0163185  76.9773409  28.3303974   1.5051541  77.4270900  26.9700145
   8.7349916  73.9423092  30.6342596   7.9445460  73.9247231  30.0947095
   8.4983271  74.4811386  31.3891632   8.8547791  70.7915558  27.9475324
   8.9045796  70.6265566  28.8890847   8.7461715  69.9242817  27.5573205
   6.1451554  66.7746486  29.2634631   7.0461416  66.6352951  28.9718629
   6.2199528  66.9400941  30.2032808  10.3565988  73.2112500  28.1917346
  10.0650796  73.5742480  29.0280807   9.7438119  72.4979508  28.0130678
  11.5561670  70.7765380  20.7119916  12.3908562  71.2155184  20.8757476
  11.6920799  70.3004033  19.8928162   8.6053176  68.3345114  26.6597404
   9.0807298  68.5272761  25.8516255   7.6818742  68.3904300  26.4140787
   3.1833393  60.3692958  25.6253238   3.7015337  61.1053985  25.2999726
   2.8288526  60.6756951  26.4599997   3.4345987  56.7893241  21.1454134
   3.7147741  56.1216430  21.7714561   4.2196594  56.9822336  20.6328798
   7.3054845  65.2110875  24.8925709   8.2572268  65.3108972  24.9137933
   7.1358296  64.4189143  25.4023794   5.3269225  62.2966458  25.0785110
   4.7319157  62.5771470  24.3831599   5.0418921  62.7860359  25.8501851
   9.7842923  68.4316994  24.0068009   9.7519243  67.4932995  24.1927693
  10.3943547  68.5101031  23.2733834   9.9337412  65.2228038  24.0526292
   9.4176460  64.4386494  23.8656221  10.8177360  64.8946754  24.2172812
   7.5948138  58.9669053  20.0122105   7.3972960  58.6584141  20.8965437
   8.2047844  59.6930692  20.1420035  15.6019473  69.4933001  23.1474046
  16.3322861  69.2318289  23.7081749  14.9926418  68.7561723  23.1876114
  13.6834770  67.6340864  23.7448497  12.9567934  67.4996829  23.1364989
  13.2682057  67.9417692  24.5505215   1.5064946  71.3530793  31.5095870
   2.4267956  71.5309392  31.7035917   1.4714529  70.4086839  31.3575569
   1.4231237  59.7699913  16.1394340   0.6131965  59.4246998  16.5149586
   2.1115654  59.4607457  16.7281951   3.3521785  58.8477960  17.7618636
   3.9052824  59.2673414  18.4208659   3.5891871  57.9213708  17.8041592
   6.7300592  60.9578485  17.2697301   6.1499261  61.6163289  16.8875353
   6.4636525  60.1355830  16.8584718   5.1804159  60.3583543  19.4718621
   5.6803937  60.4700078  18.6632940   5.8239766  60.0544596  20.1119429
   5.5125470  63.1178576  16.3253649   4.6251325  63.4028226  16.1073844
   5.9279459  62.9572339  15.4780926   8.8640006  63.1425097  20.0407988
   9.6400396  63.6321549  20.3132605   8.1388141  63.5683151  20.4979858
  11.3012565  63.8552716  21.0981929  11.8957056  63.6148452  20.3875237
  11.3739149  63.1359846  21.7255465   5.4866494  68.6333112  16.5403939
   5.4301695  69.0901663  15.7011571   6.0394836  67.8723796  16.3626782
   9.2971300  64.4222843  17.3654058   9.0408234  64.0219479  18.1962266
   8.6724168  65.1366637  17.2404198  13.6083638  67.1618917  19.8725350
  13.0483196  67.2312106  20.6456912  13.0027141  66.9859901  19.1524846
   6.2201273  69.8237893  13.8356468   6.1650077  69.6582164  12.8944912
   5.5947329  70.5313926  13.9918658   3.5347180  72.1286805  33.1610031
   4.4038340  72.3027457  32.7996666   3.0553932  72.9481222  33.0385760
   3.3449518  55.9188778  17.6687723   2.5781914  55.3647265  17.8144406
   3.7560223  55.9910647  18.5301875  15.1939656  83.8375431  22.5655306
  15.8318066  83.7182178  21.8618646  15.0760499  84.7856275  22.6243258
  12.0029362  83.7902859  22.5016830  11.6647874  83.6743923  21.6137365
  12.8719131  83.3894024  22.4817836  12.4849145  84.9437710  28.4603036
  12.4737786  84.5490509  27.5883539  12.6469785  84.2103783  29.0536807
   9.2056407  87.7274822  27.4082220   8.9146273  88.6320453  27.2928886
   9.8413391  87.7691350  28.1226289  10.1312613  85.1051671  23.9983579
  10.7276186  84.8807693  23.2840542  10.1887585  84.3636416  24.6009027
  14.7480925  81.5626884  19.6408514  15.5344014  81.1446308  19.2898931
  15.0119629  82.4672977  19.8090162  20.1489352  81.5002118  20.5441492
  20.8814524  80.9301335  20.7779322  19.3928707  81.1123718  20.9847998
  11.7665471  83.9229359  17.7404835  11.4023679  83.3959980  18.4517756
  12.6232587  83.5327828  17.5671320  17.6714772  75.2123692  25.0036101
  17.3398097  76.0819103  24.7797316  17.0760386  74.8959976  25.6830131
  14.1646292  87.4136238  24.4032013  13.8647015  88.3161277  24.2947821
  13.8197351  87.1468421  25.2553166   7.6158773  83.8650035  20.4368718
   6.6909270  83.7326249  20.6446410   7.8643186  84.6444254  20.9338660
  17.5643435  79.9318778  22.0829451  16.6560313  79.8634186  21.7888212
  17.5131031  80.4090723  22.9111276  11.6384301  81.3508424  30.0264348
  10.8617635  81.9102344  30.0167213  12.2774864  81.8365207  30.5479218
  19.4305082  78.1335216  23.8607325  18.7879462  78.4267750  23.2147119
  18.9260010  78.0188137  24.6660521  17.0845246  81.8798390  14.5493184
  17.9963102  82.1125776  14.3740881  16.5754893  82.4635434  13.9868263
   9.8930674  84.1593877  29.5882315  10.6345358  84.6978921  29.3117139
   9.1867659  84.7860166  29.7453867  15.3686013  86.3023017  28.1854477
  15.7769369  85.8605428  27.4409109  14.6463275  85.7275645  28.4388669
  11.7217083  81.2395624  25.5588033  12.5678278  81.6635038  25.7022682
  11.6615721  80.5829248  26.2526597  15.6914828  86.8624208  21.9406765
  15.0623690  87.0269922  21.2382833  15.3040490  87.2765818  22.7117729
  19.5704060  87.7978646  19.2951129  18.8855098  88.1777547  18.7448162
  19.6547909  88.4073973  20.0283077  14.8716529  78.8999993  27.2169207
  14.6277460  79.6542053  26.6803483  15.1476459  79.2785340  28.0516454
  16.8254991  85.4438605  25.8946473  17.0371887  86.0870365  25.2180854
  16.7784740  84.6100921  25.4268403  14.4281220  78.0556426  22.7983045
  13.5665699  78.3537679  23.0899782  14.4543655  78.2726824  21.8664077
  11.2442790  86.5998616  19.2056851  11.7081135  86.8786319  18.4161473
  10.9799588  85.6982061  19.0229941   8.1366871  86.1470098  22.1436614
   8.7068228  86.5757366  21.5054098   8.7274983  85.8652682  22.8420799
   8.6292037  81.3133525  30.3897625   7.9990698  81.9949806  30.6233022
   8.5228125  81.2016607  29.4450763  17.9400819  88.3210560  24.0668830
  18.7618263  87.9190748  23.7851512  17.9363222  88.2178794  25.0184946
  11.7057423  87.8694604  26.2229541  11.7701855  88.3315011  27.0587712
  10.9968347  87.2391969  26.3511850   2.2074713  81.2335812  23.7478540
   2.4582751  82.1182822  24.0136116   2.7434261  81.0540413  22.9753632
  26.0306812  84.6649309  20.4153802  25.2770521  84.0956707  20.2597806
  26.1654354  84.6311973  21.3624436   7.9072780  75.6154291  32.7522876
   7.5139726  75.0620490  33.4270520   8.7238920  75.9264869  33.1429394
  10.8240741  77.0312170  30.3443133  11.5650454  77.6319323  30.2647595
  11.0558664  76.2889808  29.7861175   5.9682079  82.2168537  28.6221362
   5.8535594  81.3153795  28.9228461   5.1126597  82.4632234  28.2706179
  13.0473917  90.1586278  30.2208863  12.6037771  89.3722656  29.9029767
  13.7091130  90.3465428  29.5552754   7.8061038  91.6882079  24.7469541
   8.3568463  91.5599143  23.9746535   6.9672514  91.9876968  24.3964434
  15.1455155  90.4389078  28.2490264  15.1273630  91.2597959  27.7570533
  16.0675075  90.3143153  28.4740405  11.6028209  87.9533207  29.0913773
  12.1356546  87.1921495  28.8613081  11.0742290  87.6606859  29.8337927
  14.7697904  73.0593273  24.6207414  14.4262173  73.9494915  24.5446525
  15.1376867  72.8694931  23.7576999  12.3195298  77.8951585  18.1865088
  11.4636894  77.5058435  18.0070727  12.7322249  77.9743546  17.3264873
  13.8494444  75.4297928  22.5856648  13.3459240  75.3928063  21.7724453
  14.1425051  76.3390671  22.6453304  10.0937330  75.5136658  21.5922829
  10.9590327  75.3179467  21.2328719  10.1614839  75.2847010  22.5192186
  19.7082461  85.8034239  15.0633023  18.9311904  85.4645398  14.6188185
  20.3873942  85.8086862  14.3887988  14.5234490  80.9228976  14.9539631
  14.2184625  81.2375125  15.8049774  15.4764932  81.0010396  14.9966964
  17.9473768  85.2768220  21.7199631  17.2897442  85.9667481  21.8079760
  18.7514167  85.6664652  22.0633617   7.6999649  77.7438866  18.9639196
   8.2743401  77.5214047  18.2312389   8.2870632  77.8127560  19.7167797
  16.7579227  83.6312593  19.7703573  17.2711108  84.2642585  20.2725282
  17.4080450  83.0313788  19.4046933  10.0022317  74.6180115  17.6914266
   9.3486729  74.3029132  17.0670880   9.9602791  73.9955855  18.4174088
  13.2360057  81.1062048  22.0161913  12.3182619  81.3276995  21.8583601
  13.6520201  81.1808359  21.1573621  14.0195105  82.5053464  17.1464593
  14.7666924  83.0174861  16.8371715  14.2886695  82.1837517  18.0068987
  17.5241023  88.6118594  17.8982715  17.0703350  87.7709504  17.9547906
  16.8934989  89.2479993  18.2357495  16.4673942  79.5410580  19.1283383
  15.7296699  79.0287966  19.4593625  16.7200716  79.1010962  18.3166660
  15.9673962  90.4495091  18.8332533  16.2596936  91.0100148  18.1144899
  16.4772583  90.7423652  19.5885693  16.5685570  72.3186832  19.7225152
  16.8744446  71.4584196  19.4351067  17.2938174  72.9104452  19.5224146
  10.8406649  82.6140625  20.2301343  10.8955259  81.6614462  20.1543820
  10.0297851  82.7700064  20.7142641   8.7799009  81.2317685  17.9891722
   7.9666875  81.5311856  18.3956914   9.2758003  80.8373374  18.7066204
  14.3773221  81.6959509  26.8206616  14.7322609  81.9230983  27.6801082
  15.0245352  82.0277886  26.1983871  20.1070958  84.8177945  17.5255945
  19.9688856  85.0079541  16.5977134  19.7507177  85.5797328  17.9823996
   8.2713084  78.8036041  23.6052957   8.9112463  78.6624800  22.9075920
   7.4390615  78.5170554  23.2291559  20.1340337  86.8854472  22.5367216
  20.5676844  86.7929761  23.3850270  20.8471918  86.8611973  21.8987232
  13.8668232  90.4856566  24.0700317  13.9205255  91.0547503  24.8378033
  12.9983014  90.6558451  23.7054354   5.2741700  78.7736365  18.3825944
   5.5348518  79.6881699  18.2735104   6.0958873  78.3060808  18.5322557
   6.7466626  80.1874123  25.5524768   7.4189679  79.9791485  24.9037417
   5.9196412  79.9896209  25.1130001  20.9955887  86.9278173  25.0700102
  21.1891777  87.8323984  25.3159377  20.8956505  86.4685592  25.9038687
  12.6492198  76.8136064  27.5690429  12.0020113  77.5126013  27.4754906
  13.4193213  77.2472208  27.9366677  16.0570996  87.0784916  30.6440982
  15.9056502  86.8495467  29.7271066  16.0475675  88.0355517  30.6572327
  12.8256332  84.6516828  25.6287249  13.7548392  84.8027988  25.4556216
  12.4047362  84.7400849  24.7735895  11.6244664  88.6767493  23.3985786
  11.4855750  88.3086277  24.2711725  10.8359260  89.1915132  23.2269744
  13.1749879  88.0549096  20.7874624  12.8399712  88.0149866  21.6832274
  12.6753825  87.3893812  20.3145034   7.1494123  83.4616726  26.3127205
   7.0113921  82.7296964  26.9138744   8.0599046  83.3725626  26.0311393
   9.7776424  83.1736685  25.8010885  10.4876042  82.5329877  25.7597503
   9.7345732  83.4249580  26.7237066  17.7663202  90.1104038  28.7217464
  17.7075749  89.4263258  28.0548047  18.1682721  90.8523028  28.2698090
   8.4905358  80.1601903  27.6206525   7.9542715  79.7092641  28.2728121
   7.9022066  80.2947812  26.8776989  17.7680610  88.0743622  26.9531444
  16.8807388  87.7369544  27.0757843  18.3379161  87.3426653  27.1900209
   4.2244479  79.2957911  24.7059519   4.1402668  78.6883580  23.9709929
   3.4027185  79.7866929  24.7069015  11.2981763  92.7345075  23.9192687
  11.2251935  93.5400046  24.4311992  10.8559156  92.9337040  23.0940709
  14.3968193  77.7811474  20.0729714  14.8936892  77.0281436  19.7530784
  13.6255174  77.8175791  19.5072923  22.2497950  83.4851840  21.7148006
  22.2387826  84.3676555  21.3441939  21.3815330  83.1323390  21.5202543
  13.7580447  92.6331909  26.0750846  14.4708419  93.2679373  26.0026747
  13.2670475  92.7295775  25.2590848  15.4797973  86.5383161  17.6468137
  14.5454252  86.6584624  17.4772842  15.6574642  85.6355628  17.3828147
  10.9803162  79.9228857  19.8001399  10.6100949  79.3699897  20.4882304
  11.4762254  79.3186991  19.2476399  18.8670525  82.3800481  18.1818172
  19.3330977  83.2128472  18.1078474  19.3178025  81.9145462  18.8863430
   8.8092360  90.3826352  26.8956417   9.5101820  91.0162835  27.0485811
   8.3387475  90.7241084  26.1352056  16.9346756  88.7244302  15.1804324
  17.2106600  88.6100896  16.0898198  16.0651255  88.3261787  15.1416497
  16.8387188  74.7481068  22.2209073  15.9250267  74.9785294  22.3891280
  17.2680289  74.8319512  23.0723105  16.6093646  82.9370960  24.7208967
  15.9565096  83.1846867  24.0661420  16.9874026  82.1235098  24.3871444
  12.6581219  83.6790771  31.2075004  11.9821856  83.5784900  31.8777379
  13.4808853  83.5229984  31.6711001  11.4004002  94.9857698  25.4432620
  11.9522310  95.1489320  26.2081705  11.7410195  95.5762136  24.7712645
   6.3768495  77.3332848  26.0454505   6.4409822  78.1947679  25.6331902
   6.3135615  76.7206849  25.3126863   5.8520768  79.4055980  29.6927539
   6.4792807  79.0233058  30.3065063   4.9948687  79.1870182  30.0583231
  16.2514876  89.8118956  31.2981274  16.7954780  90.4248914  30.8036229
  15.6701721  90.3698534  31.8148287  14.5372389  92.9339674  22.4296302
  14.4123529  92.1329413  21.9207248  15.1951480  93.4285867  21.9410272
   6.1580557  79.2888406  21.6073442   5.4367143  79.9024374  21.4680916
   6.9473813  79.8246171  21.5290088  16.6007298  90.7348694  24.0575852
  15.6537633  90.6154045  23.9854179  16.9490071  89.8471192  24.1402114
   8.9606871  76.6242833  27.8814094   9.4841273  76.8705129  28.6440403
   8.7419204  77.4562867  27.4617232  13.6053731  90.5301410  20.2580205
  13.4578693  89.6018117  20.4387775  14.4307224  90.5521501  19.7737280
  17.2087853  91.3529969  21.3445077  18.1334400  91.1472830  21.2069528
  17.0403156  91.1046370  22.2534419  10.1659416  77.5656528  25.5663765
   9.8256236  76.7664341  25.9684445   9.4598422  77.8658239  24.9940598
  10.8175888  74.6505840  24.0191088  11.6401957  74.1766318  23.8969978
  11.0613951  75.4296324  24.5189774  13.6015245  78.3839248  15.2512322
  13.8178860  79.2663885  14.9501150  13.1209312  77.9925461  14.5217964
   8.3414467  81.3424961  21.8283066   8.1959047  81.6565264  22.7207348
   7.8639670  81.9609861  21.2753965  10.2010849  78.3327509  21.8763956
  10.1872418  77.4368602  21.5396254  10.9183278  78.3398172  22.5102242
  12.0536980  78.7664849  23.9217083  11.7954758  79.6881920  23.9201414
  11.5222021  78.3695283  24.6117547  16.9983169  91.8715636  16.7007169
  17.1720047  91.3062059  15.9481021  17.4912060  92.6716531  16.5186659
   2.8160129  83.8830305  24.7670728   2.2713597  84.6590113  24.8991002
   3.6939479  84.2301110  24.6089849   9.6047745  77.2141889  17.1451526
   9.7263657  76.2858535  17.3442414   9.3149788  77.2280575  16.2329841
  12.4738936  74.8996799  20.2818246  12.4960633  74.9636133  19.3270225
  12.8906995  74.0601308  20.4758752  22.8522560  84.6352059  18.3197468
  23.2953706  83.8859384  17.9216592  21.9749070  84.6262195  17.9371200
   3.6026151  83.0100201  27.6600884   2.8607887  83.1582837  28.2465515
   3.2818895  83.2708467  26.7967634  19.8849765  88.6382106  15.3291398
  20.4101089  88.9769379  14.6040718  19.7972117  87.7029121  15.1454532
  11.5469813  92.5516180  27.4581274  11.8556940  92.3065326  28.3303974
  12.3445295  92.7562818  26.9700145   9.0888825  78.7273886  31.3541459
   9.1376980  79.6036009  30.9719228   9.6311339  78.1851279  30.7813102
  19.5743671  89.2715010  30.6342596  18.7839214  89.2539148  30.0947095
  19.3377025  89.8103303  31.3891632  19.6941546  86.1207476  27.9475324
  19.7439551  85.9557483  28.8890847  19.5855469  85.2534735  27.5573205
  16.9845308  82.1038404  29.2634631  17.8855171  81.9644869  28.9718629
  17.0593283  82.2692859  30.2032808  11.3188113  79.4805259  28.1087817
  10.4491423  79.7738825  27.8370406  11.5547594  80.0645704  28.8295081
  21.1959743  88.5404418  28.1917346  20.9044551  88.9034398  29.0280807
  20.5831874  87.8271426  28.0130678  22.3955425  86.1057297  20.7119916
  23.2302316  86.5447101  20.8757476  22.5314554  85.6295951  19.8928162
  19.4446931  83.6637032  26.6597404  19.9201052  83.8564678  25.8516255
  18.5212496  83.7196218  26.4140787  14.0227147  75.6984876  25.6253238
  14.5409091  76.4345903  25.2999726  13.6682280  76.0048869  26.4599997
  14.2739741  72.1185158  21.1454134  14.5541495  71.4508347  21.7714561
  15.0590348  72.3114254  20.6328798  18.1448600  80.5402792  24.8925709
  19.0966023  80.6400890  24.9137933  17.9752050  79.7481061  25.4023794
  16.1662979  77.6258375  25.0785110  15.5712911  77.9063388  24.3831599
  15.8812676  78.1152276  25.8501851  20.6236678  83.7608912  24.0068009
  20.5912998  82.8224913  24.1927693  21.2337301  83.8392949  23.2733834
  20.7731166  80.5519955  24.0526292  20.2570215  79.7678412  23.8656221
  21.6571115  80.2238672  24.2172812  18.4341893  74.2960971  20.0122105
  18.2366714  73.9876059  20.8965437  19.0441599  75.0222610  20.1420035
  26.4413227  84.8224919  23.1474046  27.1716616  84.5610207  23.7081749
  25.8320173  84.0853641  23.1876114  24.5228525  82.9632781  23.7448497
  23.7961688  82.8288746  23.1364989  24.1075811  83.2709610  24.5505215
  12.3458701  86.6822711  31.5095870  13.2661710  86.8601310  31.7035917
  12.3108284  85.7378756  31.3575569   5.3420773  84.5923746  24.1518651
   5.5606783  85.5240853  24.1706685   5.7546547  84.2331720  24.9373455
  12.2624991  75.0991831  16.1394340  11.4525720  74.7538916  16.5149586
  12.9509408  74.7899375  16.7281951  14.1915540  74.1769878  17.7618636
  14.7446578  74.5965331  18.4208659  14.4285626  73.2505626  17.8041592
  10.2148639  80.1656951  33.5421400  10.1145366  81.1151308  33.4733491
   9.9970181  79.8375190  32.6697470  17.5694347  76.2870403  17.2697301
  16.9893016  76.9455207  16.8875353  17.3030279  75.4647748  16.8584718
  16.0197913  75.6875461  19.4718621  16.5197691  75.7991995  18.6632940
  16.6633521  75.3836514  20.1119429  10.0779909  83.5954090  32.3586462
   9.5946991  84.3954450  32.5650351  10.1640848  83.6062035  31.4053906
   6.0053246  87.4858625  24.3954896   6.9596500  87.4542567  24.3284827
   5.8065770  87.0249249  25.2105121   6.5952628  86.0559741  26.9625693
   7.4145517  86.5503820  26.9860531   6.8689436  85.1391709  26.9343261
  16.3519225  78.4470493  16.3253649  15.4645080  78.7320144  16.1073844
  16.7673214  78.2864257  15.4780926  19.7033761  78.4717014  20.0407988
  20.4794151  78.9613467  20.3132605  18.9781895  78.8975069  20.4979858
  22.1406319  79.1844634  21.0981929  22.7350810  78.9440369  20.3875237
  22.2132903  78.4651764  21.7255465  16.3260248  83.9625029  16.5403939
  16.2695450  84.4193581  15.7011571  16.8788591  83.2015714  16.3626782
  20.1365054  79.7514761  17.3654058  19.8801989  79.3511397  18.1962266
  19.5117922  80.4658555  17.2404198  24.4477392  82.4910834  19.8725350
  23.8876950  82.5604024  20.6456912  23.8420896  82.3151819  19.1524846
  17.0595028  85.1529811  13.8356468  17.0043832  84.9874082  12.8944912
  16.4341083  85.8605843  13.9918658   1.8487543  80.3897875  27.6617890
   2.4946406  79.8796829  28.1505115   1.6404694  81.1266557  28.2361316
  14.3740935  87.4578722  33.1610031  15.2432095  87.6319375  32.7996666
  13.8947686  88.2773139  33.0385760  10.3691153  74.6537920  13.4141786
  10.3569823  75.5979759  13.5710057  11.2614575  74.4708065  13.1201248
   8.5427115  94.5775823  24.8399465   9.4454362  94.6099434  25.1565959
   8.3164485  93.6476274  24.8545800  14.1843273  71.2480696  17.6687723
  13.4175668  70.6939183  17.8144406  14.5953978  71.3202565  18.5301875
   6.1885034  77.5365492  31.7592905   7.0516495  77.1802297  31.9696229
   5.6150444  77.1979387  32.4468309  26.0333411  99.1667348  22.5655306
  26.6711821  99.0474096  21.8618646  25.9154254 100.1148192  22.6243258
  22.8423117  99.1194776  22.5016830  22.5041628  99.0035841  21.6137365
  23.7112885  98.7185942  22.4817836  23.3242900 100.2729628  28.4603036
  23.3131541  99.8782426  27.5883539  23.4863539  99.5395701  29.0536807
  20.0450161 103.0566740  27.4082220  19.7540027 103.9612371  27.2928886
  20.6807145 103.0983268  28.1226289  20.9706368 100.4343588  23.9983579
  21.5669940 100.2099611  23.2840542  21.0281339  99.6928334  24.6009027
  25.5874679  96.8918802  19.6408514  26.3737768  96.4738225  19.2898931
  25.8513383  97.7964894  19.8090162  30.9883106  96.8294035  20.5441492
  31.7208278  96.2593252  20.7779322  30.2322462  96.4415636  20.9847998
  22.6059226  99.2521277  17.7404835  22.2417433  98.7251898  18.4517756
  23.4626342  98.8619746  17.5671320  28.5108527  90.5415609  25.0036101
  28.1791851  91.4111020  24.7797316  27.9154140  90.2251893  25.6830131
  25.0040046 102.7428155  24.4032013  24.7040769 103.6453194  24.2947821
  24.6591106 102.4760339  25.2553166  18.4552528  99.1941952  20.4368718
  17.5303024  99.0618166  20.6446410  18.7036941  99.9736172  20.9338660
  28.4037190  95.2610696  22.0829451  27.4954067  95.1926104  21.7888212
  28.3524786  95.7382641  22.9111276  22.4778056  96.6800341  30.0264348
  21.7011390  97.2394261  30.0167213  23.1168619  97.1657124  30.5479218
  30.2698836  93.4627134  23.8607325  29.6273217  93.7559667  23.2147119
  29.7653765  93.3480054  24.6660521  27.9239000  97.2090307  14.5493184
  28.8356856  97.4417694  14.3740881  27.4148647  97.7927351  13.9868263
  20.7324428  99.4885795  29.5882315  21.4739112 100.0270839  29.3117139
  20.0261413 100.1152083  29.7453867  26.2079768 101.6314935  28.1854477
  26.6163124 101.1897346  27.4409109  25.4857029 101.0567563  28.4388669
  22.5610838  96.5687542  25.5588033  23.4072033  96.9926955  25.7022682
  22.5009475  95.9121166  26.2526597  26.5308582 102.1916126  21.9406765
  25.9017445 102.3561840  21.2382833  26.1434244 102.6057735  22.7117729
  30.4097814 103.1270564  19.2951129  29.7248852 103.5069465  18.7448162
  30.4941664 103.7365890  20.0283077  25.7110283  94.2291910  27.2169207
  25.4671215  94.9833971  26.6803483  25.9870214  94.6077258  28.0516454
  27.6648746 100.7730523  25.8946473  27.8765641 101.4162282  25.2180854
  27.6178494  99.9392839  25.4268403  25.2674975  93.3848343  22.7983045
  24.4059454  93.6829597  23.0899782  25.2937409  93.6018742  21.8664077
  22.0836544 101.9290534  19.2056851  22.5474890 102.2078237  18.4161473
  21.8193342 101.0273978  19.0229941  18.9760625 101.4762015  22.1436614
  19.5461982 101.9049284  21.5054098  19.5668737 101.1944600  22.8420799
  19.4685792  96.6425443  30.3897625  18.8384452  97.3241724  30.6233022
  19.3621880  96.5308524  29.4450763  28.7794574 103.6502478  24.0668830
  29.6012017 103.2482665  23.7851512  28.7756977 103.5470712  25.0184946
  22.5451177 103.1986521  26.2229541  22.6095610 103.6606929  27.0587712
  21.8362101 102.5683886  26.3511850  13.0468467  96.5627729  23.7478540
  13.2976506  97.4474739  24.0136116  13.5828016  96.3832331  22.9753632
  36.8700567  99.9941226  20.4153802  36.1164275  99.4248625  20.2597806
  37.0048108  99.9603891  21.3624436  18.7466534  90.9446209  32.7522876
  18.3533480  90.3912407  33.4270520  19.5632675  91.2556787  33.1429394
  21.6634495  92.3604088  30.3443133  22.4044209  92.9611241  30.2647595
  21.8952418  91.6181726  29.7861175  16.8075834  97.5460455  28.6221362
  16.6929349  96.6445712  28.9228461  15.9520351  97.7924152  28.2706179
  23.8867671 105.4878195  30.2208863  23.4431525 104.7014574  29.9029767
  24.5484885 105.6757346  29.5552754  18.6454792 107.0173997  24.7469541
  19.1962218 106.8891060  23.9746535  17.8066268 107.3168886  24.3964434
  25.9848909 105.7680995  28.2490264  25.9667385 106.5889876  27.7570533
  26.9068829 105.6435070  28.4740405  22.4421963 103.2825125  29.0913773
  22.9750300 102.5213413  28.8613081  21.9136045 102.9898777  29.8337927
  25.6091658  88.3885191  24.6207414  25.2655928  89.2786832  24.5446525
  25.9770621  88.1986848  23.7576999  23.1589052  93.2243503  18.1865088
  22.3030649  92.8350353  18.0070727  23.5716004  93.3035463  17.3264873
  24.6888199  90.7589846  22.5856648  24.1852994  90.7219981  21.7724453
  24.9818806  91.6682589  22.6453304  20.9331085  90.8428576  21.5922829
  21.7984081  90.6471384  21.2328719  21.0008594  90.6138927  22.5192186
  30.5476215 101.1326156  15.0633023  29.7705658 100.7937316  14.6188185
  31.2267696 101.1378780  14.3887988  25.3628244  96.2520894  14.9539631
  25.0578380  96.5667043  15.8049774  26.3158686  96.3302314  14.9966964
  28.7867522 100.6060138  21.7199631  28.1291197 101.2959399  21.8079760
  29.5907921 100.9956570  22.0633617  18.5393404  93.0730783  18.9639196
  19.1137156  92.8505965  18.2312389  19.1264386  93.1419478  19.7167797
  27.5972981  98.9604510  19.7703573  28.1104863  99.5934502  20.2725282
  28.2474205  98.3605706  19.4046933  20.8416071  89.9472032  17.6914266
  20.1880484  89.6321050  17.0670880  20.7996546  89.3247773  18.4174088
  24.0753812  96.4353966  22.0161913  23.1576373  96.6568913  21.8583601
  24.4913955  96.5100276  21.1573621  24.8588860  97.8345382  17.1464593
  25.6060679  98.3466779  16.8371715  25.1280449  97.5129434  18.0068987
  28.3634777 103.9410512  17.8982715  27.9097104 103.1001422  17.9547906
  27.7328744 104.5771910  18.2357495  27.3067697  94.8702498  19.1283383
  26.5690454  94.3579884  19.4593625  27.5594470  94.4302879  18.3166660
  26.8067716 105.7787008  18.8332533  27.0990691 106.3392066  18.1144899
  27.3166337 106.0715569  19.5885693  27.4079324  87.6478750  19.7225152
  27.7138201  86.7876113  19.4351067  28.1331929  88.2396370  19.5224146
  21.6800404  97.9432543  20.2301343  21.7349014  96.9906379  20.1543820
  20.8691606  98.0991982  20.7142641  19.6192764  96.5609603  17.9891722
  18.8060629  96.8603773  18.3956914  20.1151758  96.1665291  18.7066204
  25.2166975  97.0251427  26.8206616  25.5716363  97.2522900  27.6801082
  25.8639107  97.3569804  26.1983871  30.9464712 100.1469863  17.5255945
  30.8082611 100.3371459  16.5977134  30.5900931 100.9089246  17.9823996
  19.1106839  94.1327958  23.6052957  19.7506218  93.9916717  22.9075920
  18.2784369  93.8462472  23.2291559  30.9734092 102.2146390  22.5367216
  31.4070599 102.1221679  23.3850270  31.6865673 102.1903890  21.8987232
  24.7061987 105.8148484  24.0700317  24.7599009 106.3839420  24.8378033
  23.8376768 105.9850369  23.7054354  16.1135455  94.1028283  18.3825944
  16.3742272  95.0173616  18.2735104  16.9352627  93.6352726  18.5322557
  17.5860380  95.5166040  25.5524768  18.2583434  95.3083402  24.9037417
  16.7590167  95.3188126  25.1130001  31.8349642 102.2570091  25.0700102
  32.0285532 103.1615901  25.3159377  31.7350260 101.7977510  25.9038687
  23.4885952  92.1427981  27.5690429  22.8413867  92.8417931  27.4754906
  24.2586968  92.5764125  27.9366677  26.8964750 102.4076833  30.6440982
  26.7450257 102.1787385  29.7271066  26.8869430 103.3647435  30.6572327
  23.6650087  99.9808746  25.6287249  24.5942147 100.1319906  25.4556216
  23.2441117 100.0692767  24.7735895  22.4638418 104.0059411  23.3985786
  22.3249504 103.6378195  24.2711725  21.6753015 104.5207050  23.2269744
  24.0143634 103.3841013  20.7874624  23.6793466 103.3441783  21.6832274
  23.5147579 102.7185729  20.3145034  17.9887878  98.7908643  26.3127205
  17.8507675  98.0588882  26.9138744  18.8992801  98.7017543  26.0311393
  20.6170178  98.5028603  25.8010885  21.3269797  97.8621795  25.7597503
  20.5739486  98.7541497  26.7237066  28.6056957 105.4395956  28.7217464
  28.5469503 104.7555176  28.0548047  29.0076475 106.1814946  28.2698090
  19.3299112  95.4893821  27.6206525  18.7936469  95.0384559  28.2728121
  18.7415821  95.6239729  26.8776989  28.6074364 103.4035540  26.9531444
  27.7201143 103.0661462  27.0757843  29.1772915 102.6718571  27.1900209
  15.0638233  94.6249828  24.7059519  14.9796422  94.0175498  23.9709929
  14.2420940  95.1158847  24.7069015  22.1375518 108.0636992  23.9192687
  22.0645689 108.8691964  24.4311992  21.6952911 108.2628958  23.0940709
  25.2361947  93.1103392  20.0729714  25.7330647  92.3573354  19.7530784
  24.4648929  93.1467708  19.5072923  33.0891705  98.8143757  21.7148006
  33.0781581  99.6968473  21.3441939  32.2209084  98.4615308  21.5202543
  24.5974201 107.9623826  26.0750846  25.3102173 108.5971291  26.0026747
  24.1064230 108.0587692  25.2590848  26.3191728 101.8675079  17.6468137
  25.3848007 101.9876541  17.4772842  26.4968396 100.9647546  17.3828147
  21.8196916  95.2520775  19.8001399  21.4494704  94.6991815  20.4882304
  22.3156008  94.6478908  19.2476399  29.7064279  97.7092398  18.1818172
  30.1724732  98.5420390  18.1078474  30.1571780  97.2437380  18.8863430
  19.6486115 105.7118270  26.8956417  20.3495574 106.3454753  27.0485811
  19.1781230 106.0533001  26.1352056  27.7740510 104.0536220  15.1804324
  28.0500354 103.9392814  16.0898198  26.9045009 103.6553704  15.1416497
  27.6780942  90.0772985  22.2209073  26.7644022  90.3077212  22.3891280
  28.1074044  90.1611429  23.0723105  27.4487401  98.2662877  24.7208967
  26.7958851  98.5138785  24.0661420  27.8267780  97.4527015  24.3871444
  23.4974974  99.0082688  31.2075004  22.8215611  98.9076818  31.8777379
  24.3202607  98.8521902  31.6711001  22.2397756 110.3149616  25.4432620
  22.7916064 110.4781237  26.2081705  22.5803950 110.9054054  24.7712645
  17.2162250  92.6624766  26.0454505  17.2803576  93.5239596  25.6331902
  17.1529370  92.0498767  25.3126863  16.6914522  94.7347898  29.6927539
  17.3186561  94.3524975  30.3065063  15.8342441  94.5162100  30.0583231
  27.0908631 105.1410873  31.2981274  27.6348535 105.7540831  30.8036229
  26.5095476 105.6990452  31.8148287  25.3766144 108.2631591  22.4296302
  25.2517283 107.4621331  21.9207248  26.0345235 108.7577785  21.9410272
  16.9974312  94.6180324  21.6073442  16.2760898  95.2316291  21.4680916
  17.7867568  95.1538089  21.5290088  27.4401052 106.0640611  24.0575852
  26.4931388 105.9445963  23.9854179  27.7883825 105.1763109  24.1402114
  19.8000625  91.9534750  27.8814094  20.3235027  92.1997047  28.6440403
  19.5812959  92.7854785  27.4617232  24.4447485 105.8593328  20.2580205
  24.2972448 104.9310035  20.4387775  25.2700979 105.8813418  19.7737280
  28.0481607 106.6821886  21.3445077  28.9728155 106.4764748  21.2069528
  27.8796911 106.4338287  22.2534419  21.0053171  92.8948445  25.5663765
  20.6649991  92.0956258  25.9684445  20.2992177  93.1950156  24.9940598
  21.6569642  89.9797758  24.0191088  22.4795712  89.5058236  23.8969978
  21.9007706  90.7588242  24.5189774  24.4409000  93.7131165  15.2512322
  24.6572614  94.5955803  14.9501150  23.9603067  93.3217379  14.5217964
  19.1808221  96.6716878  21.8283066  19.0352802  96.9857181  22.7207348
  18.7033425  97.2901779  21.2753965  21.0404604  93.6619426  21.8763956
  21.0266173  92.7660520  21.5396254  21.7577032  93.6690090  22.5102242
  22.8930735  94.0956767  23.9217083  22.6348513  95.0173837  23.9201414
  22.3615775  93.6987201  24.6117547  27.8376923 107.2007554  16.7007169
  28.0113801 106.6353976  15.9481021  28.3305815 108.0008449  16.5186659
  13.6553883  99.2122223  24.7670728  13.1107351  99.9882031  24.8991002
  14.5333233  99.5593027  24.6089849  20.4441500  92.5433807  17.1451526
  20.5657411  91.6150453  17.3442414  20.1543542  92.5572493  16.2329841
  23.3132690  90.2288717  20.2818246  23.3354387  90.2928050  19.3270225
  23.7300749  89.3893226  20.4758752  33.6916315  99.9643977  18.3197468
  34.1347461  99.2151302  17.9216592  32.8142825  99.9554113  17.9371200
  14.4419905  98.3392119  27.6600884  13.7001641  98.4874754  28.2465515
  14.1212649  98.6000385  26.7967634  30.7243519 103.9674024  15.3291398
  31.2494843 104.3061296  14.6040718  30.6365872 103.0321039  15.1454532
  22.3863568 107.8808097  27.4581274  22.6950694 107.6357244  28.3303974
  23.1839050 108.0854736  26.9700145  19.9282579  94.0565804  31.3541459
  19.9770735  94.9327927  30.9719228  20.4705094  93.5143197  30.7813102
  30.4137425 104.6006927  30.6342596  29.6232969 104.5831066  30.0947095
  30.1770780 105.1395221  31.3891632  30.5335300 101.4499394  27.9475324
  30.5833305 101.2849401  28.8890847  30.4249224 100.5826653  27.5573205
  27.8239063  97.4330322  29.2634631  28.7248925  97.2936787  28.9718629
  27.8987037  97.5984777  30.2032808  22.1581868  94.8097176  28.1087817
  21.2885177  95.1030743  27.8370406  22.3941348  95.3937621  28.8295081
  32.0353497 103.8696335  28.1917346  31.7438305 104.2326316  29.0280807
  31.4225628 103.1563343  28.0130678  33.2349179 101.4349215  20.7119916
  34.0696071 101.8739019  20.8757476  33.3708308 100.9587868  19.8928162
  30.2840685  98.9928950  26.6597404  30.7594807  99.1856596  25.8516255
  29.3606251  99.0488136  26.4140787  24.8620902  91.0276793  25.6253238
  25.3802846  91.7637820  25.2999726  24.5076035  91.3340787  26.4599997
  25.1133496  87.4477076  21.1454134  25.3935250  86.7800265  21.7714561
  25.8984103  87.6406172  20.6328798  28.9842354  95.8694710  24.8925709
  29.9359777  95.9692808  24.9137933  28.8145805  95.0772978  25.4023794
  27.0056734  92.9550293  25.0785110  26.4106666  93.2355306  24.3831599
  26.7206430  93.4444194  25.8501851  31.4630432  99.0900830  24.0068009
  31.4306752  98.1516830  24.1927693  32.0731056  99.1684866  23.2733834
  31.6124921  95.8811873  24.0526292  31.0963969  95.0970330  23.8656221
  32.4964869  95.5530590  24.2172812  29.2735647  89.6252889  20.0122105
  29.0760469  89.3167977  20.8965437  29.8835353  90.3514528  20.1420035
  37.2806982 100.1516836  23.1474046  38.0110370  99.8902125  23.7081749
  36.6713927  99.4145558  23.1876114  35.3622279  98.2924699  23.7448497
  34.6355443  98.1580664  23.1364989  34.9469566  98.6001528  24.5505215
  23.1852455 102.0114629  31.5095870  24.1055465 102.1893228  31.7035917
  23.1502038 101.0670674  31.3575569  16.1814528  99.9215663  24.1518651
  16.4000538 100.8532771  24.1706685  16.5940302  99.5623638  24.9373455
  23.1018746  90.4283749  16.1394340  22.2919474  90.0830834  16.5149586
  23.7903163  90.1191292  16.7281951  25.0309294  89.5061795  17.7618636
  25.5840333  89.9257249  18.4208659  25.2679380  88.5797544  17.8041592
  21.0542393  95.4948869  33.5421400  20.9539120  96.4443226  33.4733491
  20.8363935  95.1667108  32.6697470  28.4088101  91.6162321  17.2697301
  27.8286770  92.2747125  16.8875353  28.1424034  90.7939665  16.8584718
  26.8591668  91.0167378  19.4718621  27.3591446  91.1283913  18.6632940
  27.5027275  90.7128431  20.1119429  20.9173663  98.9246008  32.3586462
  20.4340745  99.7246368  32.5650351  21.0034602  98.9353953  31.4053906
  16.8447001 102.8150543  24.3954896  17.7990254 102.7834485  24.3284827
  16.6459524 102.3541166  25.2105121  17.4346383 101.3851659  26.9625693
  18.2539272 101.8795737  26.9860531  17.7083191 100.4683627  26.9343261
  27.1912979  93.7762411  16.3253649  26.3038834  94.0612062  16.1073844
  27.6066968  93.6156174  15.4780926  30.5427515  93.8008932  20.0407988
  31.3187905  94.2905384  20.3132605  29.8175649  94.2266986  20.4979858
  32.9800074  94.5136551  21.0981929  33.5744565  94.2732287  20.3875237
  33.0526658  93.7943682  21.7255465  27.1654003  99.2916947  16.5403939
  27.1089204  99.7485498  15.7011571  27.7182345  98.5307632  16.3626782
  30.9758809  95.0806679  17.3654058  30.7195743  94.6803314  18.1962266
  30.3511677  95.7950473  17.2404198  35.2871147  97.8202752  19.8725350
  34.7270705  97.8895941  20.6456912  34.6814650  97.6443737  19.1524846
  27.8988782 100.4821728  13.8356468  27.8437586 100.3166000  12.8944912
  27.2734838 101.1897761  13.9918658  12.6881297  95.7189793  27.6617890
  13.3340161  95.2088747  28.1505115  12.4798448  96.4558474  28.2361316
  25.2134689 102.7870640  33.1610031  26.0825849 102.9611292  32.7996666
  24.7341441 103.6065057  33.0385760  21.2084908  89.9829837  13.4141786
  21.1963578  90.9271677  13.5710057  22.1008330  89.7999983  13.1201248
  19.3820870 109.9067741  24.8399465  20.2848116 109.9391351  25.1565959
  19.1558240 108.9768192  24.8545800  25.0237027  86.5772614  17.6687723
  24.2569423  86.0231101  17.8144406  25.4347732  86.6494483  18.5301875
  17.0278788  92.8657410  31.7592905  17.8910250  92.5094214  31.9696229
  16.4544199  92.5271304  32.4468309  36.8727165 114.4959266  22.5655306
  37.5105575 114.3766013  21.8618646  36.7548008 115.4440110  22.6243258
  33.6816871 114.4486694  22.5016830  33.3435383 114.3327759  21.6137365
  34.5506640 114.0477859  22.4817836  34.1636654 115.6021546  28.4603036
  34.1525295 115.2074344  27.5883539  34.3257294 114.8687618  29.0536807
  36.4268434 112.2210720  19.6408514  37.2131523 111.8030143  19.2898931
  36.6907138 113.1256812  19.8090162  41.8276861 112.1585953  20.5441492
  42.5602033 111.5885170  20.7779322  41.0716216 111.7707553  20.9847998
  33.4452980 114.5813195  17.7404835  33.0811188 114.0543816  18.4517756
  34.3020096 114.1911664  17.5671320  39.3502281 105.8707527  25.0036101
  39.0185606 106.7402938  24.7797316  38.7547894 105.5543811  25.6830131
  39.2430944 110.5902613  22.0829451  38.3347822 110.5218022  21.7888212
  39.1918540 111.0674558  22.9111276  33.3171810 112.0092259  30.0264348
  32.5405144 112.5686179  30.0167213  33.9562373 112.4949042  30.5479218
  41.1092591 108.7919052  23.8607325  40.4666971 109.0851585  23.2147119
  40.6047519 108.6771972  24.6660521  38.7632754 112.5382225  14.5493184
  39.6750611 112.7709612  14.3740881  38.2542402 113.1219269  13.9868263
  33.4004592 111.8979460  25.5588033  34.2465787 112.3218873  25.7022682
  33.3403230 111.2413084  26.2526597  36.5504038 109.5583828  27.2169207
  36.3064969 110.3125888  26.6803483  36.8263968 109.9369175  28.0516454
  38.5042500 116.1022440  25.8946473  38.7159396 116.7454200  25.2180854
  38.4572249 115.2684757  25.4268403  36.1068729 108.7140261  22.7983045
  35.2453208 109.0121514  23.0899782  36.1331164 108.9310660  21.8664077
  30.3079546 111.9717360  30.3897625  29.6778207 112.6533641  30.6233022
  30.2015634 111.8600442  29.4450763  47.7094321 115.3233144  20.4153802
  46.9558030 114.7540542  20.2597806  47.8441863 115.2895809  21.3624436
  29.5860289 106.2738126  32.7522876  29.1927235 105.7204325  33.4270520
  30.4026429 106.5848705  33.1429394  32.5028250 107.6896005  30.3443133
  33.2437963 108.2903159  30.2647595  32.7346173 106.9473643  29.7861175
  36.4485413 103.7177108  24.6207414  36.1049682 104.6078750  24.5446525
  36.8164376 103.5278766  23.7576999  33.9982807 108.5535420  18.1865088
  33.1424403 108.1642271  18.0070727  34.4109758 108.6327381  17.3264873
  35.5281953 106.0881763  22.5856648  35.0246749 106.0511899  21.7724453
  35.8212560 106.9974506  22.6453304  31.7724839 106.1720493  21.5922829
  32.6377836 105.9763302  21.2328719  31.8402348 105.9430845  22.5192186
  41.3869970 116.4618074  15.0633023  40.6099413 116.1229234  14.6188185
  42.0661451 116.4670697  14.3887988  36.2021999 111.5812812  14.9539631
  35.8972134 111.8958961  15.8049774  37.1552441 111.6594231  14.9966964
  39.6261277 115.9352055  21.7199631  38.9684951 116.6251317  21.8079760
  40.4301676 116.3248487  22.0633617  29.3787158 108.4022701  18.9639196
  29.9530910 108.1797883  18.2312389  29.9658141 108.4711396  19.7167797
  38.4366735 114.2896428  19.7703573  38.9498617 114.9226420  20.2725282
  39.0867959 113.6897624  19.4046933  31.6809826 105.2763950  17.6914266
  31.0274238 104.9612967  17.0670880  31.6390300 104.6539691  18.4174088
  34.9147566 111.7645884  22.0161913  33.9970128 111.9860831  21.8583601
  35.3307710 111.8392194  21.1573621  35.6982614 113.1637299  17.1464593
  36.4454433 113.6758696  16.8371715  35.9674204 112.8421352  18.0068987
  38.1461451 110.1994416  19.1283383  37.4084208 109.6871802  19.4593625
  38.3988225 109.7594797  18.3166660  38.2473079 102.9770668  19.7225152
  38.5531955 102.1168031  19.4351067  38.9725683 103.5688288  19.5224146
  32.5194158 113.2724461  20.2301343  32.5742768 112.3198297  20.1543820
  31.7085360 113.4283900  20.7142641  30.4586518 111.8901520  17.9891722
  29.6454384 112.1895691  18.3956914  30.9545512 111.4957209  18.7066204
  36.0560730 112.3543345  26.8206616  36.4110118 112.5814818  27.6801082
  36.7032861 112.6861722  26.1983871  41.7858467 115.4761781  17.5255945
  41.6476365 115.6663377  16.5977134  41.4294686 116.2381164  17.9823996
  29.9500593 109.4619876  23.6052957  30.5899972 109.3208635  22.9075920
  29.1178124 109.1754389  23.2291559  41.8127846 117.5438308  22.5367216
  42.2464353 117.4513597  23.3850270  42.5259427 117.5195808  21.8987232
  26.9529209 109.4320201  18.3825944  27.2136027 110.3465534  18.2735104
  27.7746382 108.9644643  18.5322557  28.4254135 110.8457958  25.5524768
  29.0977188 110.6375320  24.9037417  27.5983921 110.6480044  25.1130001
  42.6743396 117.5862008  25.0700102  42.8679286 118.4907819  25.3159377
  42.5744014 117.1269427  25.9038687  34.3279707 107.4719899  27.5690429
  33.6807622 108.1709849  27.4754906  35.0980722 107.9056043  27.9366677
  34.5043841 115.3100664  25.6287249  35.4335901 115.4611823  25.4556216
  34.0834871 115.3984685  24.7735895  31.4563933 113.8320520  25.8010885
  32.1663551 113.1913713  25.7597503  31.4133241 114.0833415  26.7237066
  30.1692867 110.8185738  27.6206525  29.6330224 110.3676477  28.2728121
  29.5809575 110.9531647  26.8776989  25.9031988 109.9541746  24.7059519
  25.8190177 109.3467415  23.9709929  25.0814694 110.4450764  24.7069015
  36.0755702 108.4395309  20.0729714  36.5724401 107.6865272  19.7530784
  35.3042683 108.4759626  19.5072923  43.9285459 114.1435675  21.7148006
  43.9175335 115.0260390  21.3441939  43.0602839 113.7907226  21.5202543
  32.6590671 110.5812692  19.8001399  32.2888458 110.0283733  20.4882304
  33.1549763 109.9770826  19.2476399  40.5458034 113.0384316  18.1818172
  41.0118486 113.8712308  18.1078474  40.9965534 112.5729298  18.8863430
  38.5174697 105.4064903  22.2209073  37.6037776 105.6369130  22.3891280
  38.9467798 105.4903347  23.0723105  38.2881155 113.5954795  24.7208967
  37.6352605 113.8430702  24.0661420  38.6661535 112.7818933  24.3871444
  34.3368728 114.3374606  31.2075004  33.6609365 114.2368735  31.8777379
  35.1596362 114.1813820  31.6711001  28.0556004 107.9916683  26.0454505
  28.1197331 108.8531514  25.6331902  27.9923124 107.3790685  25.3126863
  27.5308277 110.0639816  29.6927539  28.1580316 109.6816893  30.3065063
  26.6736196 109.8454018  30.0583231  27.8368066 109.9472241  21.6073442
  27.1154652 110.5608209  21.4680916  28.6261322 110.4830006  21.5290088
  30.6394380 107.2826668  27.8814094  31.1628782 107.5288964  28.6440403
  30.4206713 108.1146703  27.4617232  31.8446925 108.2240363  25.5663765
  31.5043745 107.4248176  25.9684445  31.1385931 108.5242074  24.9940598
  32.4963397 105.3089675  24.0191088  33.3189466 104.8350154  23.8969978
  32.7401460 106.0880159  24.5189774  35.2802754 109.0423083  15.2512322
  35.4966369 109.9247721  14.9501150  34.7996821 108.6509296  14.5217964
  30.0201976 112.0008796  21.8283066  29.8746556 112.3149099  22.7207348
  29.5427179 112.6193696  21.2753965  31.8798358 108.9911344  21.8763956
  31.8659927 108.0952437  21.5396254  32.5970787 108.9982008  22.5102242
  33.7324489 109.4248684  23.9217083  33.4742267 110.3465755  23.9201414
  33.2009530 109.0279119  24.6117547  31.2835254 107.8725724  17.1451526
  31.4051166 106.9442371  17.3442414  30.9937297 107.8864410  16.2329841
  34.1526445 105.5580635  20.2818246  34.1748142 105.6219968  19.3270225
  34.5694504 104.7185143  20.4758752  44.5310069 115.2935894  18.3197468
  44.9741215 114.5443220  17.9216592  43.6536579 115.2846031  17.9371200
  30.7676334 109.3857722  31.3541459  30.8164489 110.2619845  30.9719228
  31.3098848 108.8435115  30.7813102  41.3729055 116.7791311  27.9475324
  41.4227060 116.6141319  28.8890847  41.2642978 115.9118570  27.5573205
  38.6632817 112.7622239  29.2634631  39.5642680 112.6228704  28.9718629
  38.7380792 112.9276694  30.2032808  32.9975622 110.1389094  28.1087817
  32.1278932 110.4322660  27.8370406  33.2335103 110.7229539  28.8295081
  44.0742934 116.7641133  20.7119916  44.9089825 117.2030937  20.8757476
  44.2102063 116.2879786  19.8928162  41.1234440 114.3220867  26.6597404
  41.5988561 114.5148514  25.8516255  40.2000005 114.3780053  26.4140787
  35.7014656 106.3568711  25.6253238  36.2196600 107.0929738  25.2999726
  35.3469789 106.6632704  26.4599997  35.9527250 102.7768994  21.1454134
  36.2329004 102.1092183  21.7714561  36.7377857 102.9698089  20.6328798
  39.8236109 111.1986628  24.8925709  40.7753532 111.2984725  24.9137933
  39.6539559 110.4064896  25.4023794  37.8450488 108.2842211  25.0785110
  37.2500420 108.5647224  24.3831599  37.5600185 108.7736112  25.8501851
  42.3024187 114.4192747  24.0068009  42.2700507 113.4808748  24.1927693
  42.9124810 114.4976784  23.2733834  42.4518675 111.2103791  24.0526292
  41.9357724 110.4262247  23.8656221  43.3358624 110.8822507  24.2172812
  40.1129402 104.9544806  20.0122105  39.9154223 104.6459894  20.8965437
  40.7229108 105.6806445  20.1420035  48.1200736 115.4808754  23.1474046
  48.8504125 115.2194042  23.7081749  47.5107682 114.7437476  23.1876114
  46.2016034 113.6216617  23.7448497  45.4749197 113.4872582  23.1364989
  45.7863320 113.9293445  24.5505215  33.9412500 105.7575666  16.1394340
  33.1313229 105.4122751  16.5149586  34.6296917 105.4483210  16.7281951
  35.8703049 104.8353713  17.7618636  36.4234087 105.2549167  18.4208659
  36.1073135 103.9089461  17.8041592  31.8936148 110.8240787  33.5421400
  31.7932875 111.7735144  33.4733491  31.6757690 110.4959026  32.6697470
  39.2481856 106.9454238  17.2697301  38.6680525 107.6039042  16.8875353
  38.9817788 106.1231583  16.8584718  37.6985422 106.3459296  19.4718621
  38.1985200 106.4575831  18.6632940  38.3421030 106.0420349  20.1119429
  38.0306734 109.1054329  16.3253649  37.1432589 109.3903979  16.1073844
  38.4460723 108.9448092  15.4780926  41.3821270 109.1300850  20.0407988
  42.1581660 109.6197302  20.3132605  40.6569404 109.5558904  20.4979858
  43.8193828 109.8428469  21.0981929  44.4138319 109.6024205  20.3875237
  43.8920412 109.1235599  21.7255465  38.0047757 114.6208865  16.5403939
  37.9482959 115.0777416  15.7011571  38.5576100 113.8599549  16.3626782
  41.8152563 110.4098596  17.3654058  41.5589498 110.0095232  18.1962266
  41.1905431 111.1242390  17.2404198  46.1264901 113.1494670  19.8725350
  45.5664459 113.2187859  20.6456912  45.5208405 112.9735654  19.1524846
  38.7382537 115.8113646  13.8356468  38.6831341 115.6457917  12.8944912
  38.1128592 116.5189679  13.9918658  23.5275052 111.0481710  27.6617890
  24.1733915 110.5380664  28.1505115  23.3192203 111.7850392  28.2361316
  32.0478662 105.3121755  13.4141786  32.0357332 106.2563595  13.5710057
  32.9402084 105.1291900  13.1201248  35.8630782 101.9064532  17.6687723
  35.0963177 101.3523018  17.8144406  36.2741487 101.9786400  18.5301875
  27.8672543 108.1949327  31.7592905  28.7304004 107.8386132  31.9696229
  27.2937953 107.8563222  32.4468309  47.2879167 119.0469026  24.6207414
  46.9443437 119.9370668  24.5446525  47.6558130 118.8570684  23.7576999
  49.0866833 118.3062585  19.7225152  49.3925710 117.4459949  19.4351067
  49.8119438 118.8980205  19.5224146  46.7921005 118.1060911  21.1454134
  47.0722759 117.4384100  21.7714561  47.5771612 118.2990007  20.6328798
  50.9523156 120.2836724  20.0122105  50.7547978 119.9751812  20.8965437
  51.5622862 121.0098363  20.1420035  46.7024536 117.2356449  17.6687723
  45.9356932 116.6814936  17.8144406  47.1135241 117.3078318  18.5301875
   6.9269449  51.7874243  15.4462771   6.8681995  51.1033463  14.7793354
   7.3288968  52.5293233  14.9943397   5.4121123  51.4889160  18.0226581
   5.9561027  52.1019119  17.5281536   4.8307968  52.0468739  18.5393594
   8.7349917  50.9485215  17.3587902   7.9445461  50.9309353  16.8192402
   8.4983272  51.4873508  18.1136939  10.3565989  50.2174622  14.9162652
  10.0650798  50.5804603  15.7526113   9.7438121  49.5041631  14.7375984
   3.5347182  49.1348927  19.8855338   4.4038341  49.3089580  19.5241972
   3.0553933  49.9543344  19.7631067  15.1939657  60.8437553   9.2900612
  15.8318067  60.7244301   8.5863952  15.0760500  61.7918397   9.3488564
  12.0029364  60.7964981   9.2262137  11.6647875  60.6806046   8.3382672
  12.8719132  60.3956146   9.2063143  12.4849147  61.9499833  15.1848342
  12.4737787  61.5552631  14.3128846  12.6469786  61.2165906  15.7782114
   9.2056408  64.7336945  14.1327526   8.9146274  65.6382576  14.0174193
   9.8413392  64.7753472  14.8471596  10.1312615  62.1113793  10.7228886
  10.7276187  61.8869816  10.0085849  10.1887586  61.3698539  11.3254334
  20.1489353  58.5064240   7.2686799  20.8814525  57.9363457   7.5024628
  19.3928709  58.1185841   7.7093304  17.6714773  52.2185814  11.7281407
  17.3398098  53.0881225  11.5042622  17.0760387  51.9022098  12.4075438
  14.1646293  64.4198360  11.1277320  13.8647016  65.3223399  11.0193127
  13.8197352  64.1530544  11.9798473  17.5643437  56.9380901   8.8074757
  16.6560314  56.8696309   8.5133518  17.5131032  57.4152846   9.6356583
  11.6384302  58.3570546  16.7509655  10.8617637  58.9164466  16.7412519
  12.2774866  58.8427329  17.2724525  19.4305083  55.1397339  10.5852631
  18.7879463  55.4329872   9.9392426  18.9260012  55.0250259  11.3905828
   9.8930675  61.1656000  16.3127622  10.6345359  61.7041043  16.0362445
   9.1867660  61.7922288  16.4699173  15.3686014  63.3085140  14.9099783
  15.7769370  62.8667551  14.1654416  14.6463276  62.7337768  15.1633976
  11.7217084  58.2457747  12.2833340  12.5678280  58.6697160  12.4267989
  11.6615722  57.5891371  12.9771903  15.6914829  63.8686331   8.6652072
  15.0623692  64.0332045   7.9628140  15.3040491  64.2827940   9.4363036
  19.5704061  64.8040768   6.0196436  18.8855099  65.1839670   5.4693469
  19.6547910  65.4136095   6.7528384  14.8716530  55.9062115  13.9414514
  14.6277462  56.6604176  13.4048789  15.1476460  56.2847463  14.7761761
  16.8254993  62.4500727  12.6191779  17.0371888  63.0932487  11.9426160
  16.7784741  61.6163044  12.1513709   8.1366872  63.1532220   8.8681920
   8.7068229  63.5819489   8.2299405   8.7274984  62.8714805   9.5666106
   8.6292039  58.3195648  17.1142932   7.9990699  59.0011929  17.3478328
   8.5228126  58.2078729  16.1696070  17.9400821  65.3272683  10.7914137
  18.7618264  64.9252870  10.5096818  17.9363223  65.2240917  11.7430252
  11.7057424  64.8756726  12.9474847  11.7701856  65.3377133  13.7833019
  10.9968348  64.2454091  13.0757157  26.0306814  61.6711431   7.1399108
  25.2770522  61.1018829   6.9843113  26.1654355  61.6374096   8.0869743
   7.9072781  52.6216414  19.4768183   7.5139727  52.0682612  20.1515827
   8.7238922  52.9326992  19.8674700  10.8240742  54.0374293  17.0688439
  11.5650456  54.6381446  16.9892902  11.0558665  53.2951930  16.5106482
   5.9682080  59.2230660  15.3466669   5.8535595  58.3215917  15.6473768
   5.1126598  59.4694357  14.9951485  13.0473918  67.1648400  16.9454170
  12.6037772  66.3784779  16.6275074  13.7091132  67.3527551  16.2798060
   7.8061039  68.6944202  11.4714848   8.3568464  68.5661265  10.6991842
   6.9672515  68.9939091  11.1209741  15.1455156  67.4451200  14.9735571
  15.1273631  68.2660081  14.4815840  16.0675076  67.3205275  15.1985712
  11.6028210  64.9595330  15.8159079  12.1356547  64.1983618  15.5858387
  11.0742291  64.6668981  16.5583234  17.9473769  62.2830343   8.4444938
  17.2897443  62.9729604   8.5325066  18.7514168  62.6726775   8.7878924
  16.7579228  60.6374715   6.4948879  17.2711110  61.2704707   6.9970589
  17.4080452  60.0375911   6.1292239  13.2360059  58.1124171   8.7407220
  12.3182620  58.3339118   8.5828908  13.6520202  58.1870481   7.8818927
  17.5241024  65.6180717   4.6228022  17.0703351  64.7771627   4.6793212
  16.8934991  66.2542115   4.9602802  15.9673963  67.4557213   5.5577840
  16.2596938  68.0162271   4.8390206  16.4772584  67.7485774   6.3130999
  14.3773222  58.7021632  13.5451922  14.7322610  58.9293105  14.4046388
  15.0245353  59.0340009  12.9229178  20.1070959  61.8240068   4.2501251
  19.9688858  62.0141664   3.3222441  19.7507178  62.5859451   4.7069303
  20.1340339  63.8916595   9.2612523  20.5676845  63.7991884  10.1095577
  20.8471919  63.8674095   8.6232539  13.8668234  67.4918689  10.7945624
  13.9205256  68.0609625  11.5623339  12.9983015  67.6620574  10.4299661
   6.7466627  57.1936245  12.2770075   7.4189680  56.9853607  11.6282724
   5.9196414  56.9958331  11.8375307  20.9955888  63.9340296  11.7945408
  21.1891778  64.8386106  12.0404683  20.8956506  63.4747715  12.6283993
  12.6492199  53.8198186  14.2935736  12.0020114  54.5188136  14.2000212
  13.4193214  54.2534330  14.6611984  16.0570997  64.0847038  17.3686289
  15.9056503  63.8557590  16.4516373  16.0475676  65.0417640  17.3817634
  12.8256333  61.6578951  12.3532555  13.7548393  61.8090111  12.1801523
  12.4047363  61.7462972  11.4981202  11.6244665  65.6829616  10.1231093
  11.4855751  65.3148400  10.9957031  10.8359261  66.1977255   9.9515051
  13.1749880  65.0611218   7.5119931  12.8399713  65.0211988   8.4077581
  12.6753826  64.3955934   7.0390341   7.1494124  60.4678848  13.0372512
   7.0113922  59.7359087  13.6384051   8.0599048  60.3787748  12.7556700
   9.7776425  60.1798808  12.5256192  10.4876043  59.5392000  12.4842810
   9.7345733  60.4311702  13.4482372  17.7663204  67.1166161  15.4462771
  17.7075750  66.4325381  14.7793354  18.1682722  67.8585151  14.9943397
   8.4905359  57.1664025  14.3451831   7.9542716  56.7154764  14.9973427
   7.9022067  57.3009934  13.6022295  17.7680611  65.0805745  13.6776751
  16.8807390  64.7431667  13.8003149  18.3379162  64.3488776  13.9145516
  11.2981764  69.7407197  10.6437994  11.2251936  70.5462169  11.1557298
  10.8559157  69.9399163   9.8186015  22.2497951  60.4913962   8.4393312
  22.2387828  61.3738678   8.0687245  21.3815331  60.1385513   8.2447849
  13.7580448  69.6394031  12.7996152  14.4708420  70.2741496  12.7272054
  13.2670476  69.7357897  11.9836154   8.8092361  67.3888475  13.6201723
   9.5101821  68.0224958  13.7731117   8.3387476  67.7303206  12.8597362
  16.6093647  59.9433082  11.4454274  15.9565098  60.1908990  10.7906726
  16.9874027  59.1297220  11.1116751  12.6581220  60.6852893  17.9320311
  11.9821857  60.5847023  18.6022686  13.4808854  60.5292107  18.3956308
  11.4004003  71.9919821  12.1677927  11.9522311  72.1551442  12.9327012
  11.7410197  72.5824258  11.4957952   5.8520769  56.4118103  16.4172846
   6.4792808  56.0295180  17.0310370   4.9948688  56.1932305  16.7828538
  16.2514878  66.8181078  18.0226581  16.7954782  67.4311036  17.5281536
  15.6701722  67.3760657  18.5393594  14.5372390  69.9401796   9.1541609
  14.4123530  69.1391536   8.6452554  15.1951482  70.4347990   8.6655579
  16.6007299  67.7410816  10.7821159  15.6537634  67.6216167  10.7099486
  16.9490072  66.8533314  10.8647420   8.9606872  53.6304955  14.6059401
   9.4841274  53.8767252  15.3685710   8.7419206  54.4624990  14.1862538
  13.6053732  67.5363532   6.9825511  13.4578695  66.6080240   7.1633081
  14.4307226  67.5583623   6.4982586  17.2087854  68.3592091   8.0690384
  18.1334401  68.1534953   7.9314835  17.0403157  68.1108492   8.9779725
  10.1659417  54.5718650  12.2909071   9.8256238  53.7726463  12.6929751
   9.4598424  54.8720361  11.7185905  12.0536981  55.7726972  10.6462390
  11.7954759  56.6944042  10.6446720  11.5222022  55.3757406  11.3362854
  16.9983170  68.8777759   3.4252475  17.1720048  68.3124181   2.6726328
  17.4912061  69.6778654   3.2431965   2.8160130  60.8892428  11.4916034
   2.2713598  61.6652236  11.6236308   3.6939480  61.2363232  11.3335156
  22.8522561  61.6414182   5.0442775  23.2953707  60.8921507   4.6461898
  21.9749072  61.6324318   4.6616507   3.6026152  60.0162324  14.3846191
   2.8607888  60.1644959  14.9710821   3.2818896  60.2770590  13.5212940
  19.8849766  65.6444229   2.0536704  20.4101090  65.9831501   1.3286024
  19.7972118  64.7091244   1.8699839  11.5469815  69.5578302  14.1826581
  11.8556941  69.3127449  15.0549281  12.3445297  69.7624941  13.6945451
   9.0888826  55.7336009  18.0786765   9.1376982  56.6098132  17.6964535
   9.6311340  55.1913402  17.5058408  19.5743672  66.2777132  17.3587902
  18.7839216  66.2601271  16.8192402  19.3377026  66.8165426  18.1136939
  19.6941547  63.1269599  14.6720631  19.7439552  62.9619606  15.6136154
  19.5855470  62.2596858  14.2818512  16.9845309  59.1100527  15.9879938
  17.8855172  58.9706991  15.6963935  17.0593284  59.2754981  16.9278115
  11.3188115  56.4867381  14.8333124  10.4491424  56.7800947  14.5615712
  11.5547595  57.0707826  15.5540388  21.1959744  65.5466540  14.9162652
  20.9044552  65.9096521  15.7526113  20.5831875  64.8333548  14.7375984
  22.3955426  63.1119420   7.4365223  23.2302317  63.5509224   7.6002783
  22.5314555  62.6358073   6.6173468  19.4446932  60.6699155  13.3842710
  19.9201054  60.8626801  12.5761562  18.5212497  60.7258341  13.1386094
  14.0227149  52.7046998  12.3498544  14.5409092  53.4408025  12.0245033
  13.6682281  53.0110992  13.1845303  18.1448601  57.5464915  11.6171016
  19.0966024  57.6463012  11.6383240  17.9752051  56.7543183  12.1269100
  16.1662980  54.6320498  11.8030417  15.5712913  54.9125511  11.1076906
  15.8812677  55.1214399  12.5747158  20.6236679  60.7671035  10.7313316
  20.5912999  59.8287035  10.9172999  21.2337302  60.8455071   9.9979141
  20.7731167  57.5582078  10.7771599  20.2570216  56.7740535  10.5901528
  21.6571116  57.2300795  10.9418118  26.4413229  61.8287041   9.8719352
  27.1716617  61.5672329  10.4327056  25.8320174  61.0915763   9.9121420
  24.5228526  59.9694904  10.4693804  23.7961689  59.8350869   9.8610295
  24.1075813  60.2771733  11.2750522  12.3458702  63.6884834  18.2341177
  13.2661712  63.8663433  18.4281223  12.3108285  62.7440879  18.0820876
   5.3420775  61.5985868  10.8763958   5.5606785  62.5302976  10.8951992
   5.7546549  61.2393843  11.6618762  10.2148640  57.1719074  20.2666707
  10.1145367  58.1213431  20.1978798   9.9970182  56.8437313  19.3942777
  10.0779910  60.6016213  19.0831768   9.5946992  61.4016573  19.2895657
  10.1640849  60.6124158  18.1299212   6.0053248  64.4920748  11.1200202
   6.9596501  64.4604690  11.0530134   5.8065771  64.0311371  11.9350428
   6.5952630  63.0621864  13.6871000   7.4145519  63.5565942  13.7105837
   6.8689437  62.1453832  13.6588567  22.1406321  56.1906756   7.8227235
  22.7350812  55.9502492   7.1120543  22.2132904  55.4713887   8.4500772
  24.4477393  59.4972957   6.5970656  23.8876951  59.5666146   7.3702219
  23.8420897  59.3213942   5.8770153   1.8487544  57.3959997  14.3863197
   2.4946408  56.8858951  14.8750422   1.6404695  58.1328679  14.9606622
  14.3740936  64.4640845  19.8855338  15.2432096  64.6381497  19.5241972
  13.8947688  65.2835262  19.7631067   8.5427116  71.5837946  11.5644771
   9.4454363  71.6161556  11.8811266   8.3164486  70.6538397  11.5791107
   6.1885035  54.5427615  18.4838211   7.0516497  54.1864419  18.6941536
   5.6150446  54.2041509  19.1713615  26.0333412  76.1729471   9.2900612
  26.6711822  76.0536218   8.5863952  25.9154255  77.1210315   9.3488564
  22.8423118  76.1256899   9.2262137  22.5041630  76.0097964   8.3382672
  23.7112886  75.7248064   9.2063143  23.3242901  77.2791751  15.1848342
  23.3131542  76.8844549  14.3128846  23.4863541  76.5457823  15.7782114
  20.0450162  80.0628863  14.1327526  19.7540028  80.9674493  14.0174193
  20.6807147  80.1045390  14.8471596  20.9706369  77.4405711  10.7228886
  21.5669941  77.2161733  10.0085849  21.0281341  76.6990457  11.3254334
  25.5874680  73.8980925   6.3653820  26.3737770  73.4800348   6.0144237
  25.8513385  74.8027017   6.5335469  30.9883108  73.8356158   7.2686799
  31.7208279  73.2655375   7.5024628  30.2322463  73.4477758   7.7093304
  22.6059227  76.2583399   4.4650141  22.2417434  75.7314020   5.1763063
  23.4626343  75.8681869   4.2916627  28.5108528  67.5477732  11.7281407
  28.1791853  68.4173143  11.5042622  27.9154141  67.2314016  12.4075438
  25.0040047  79.7490278  11.1277320  24.7040770  80.6515317  11.0193127
  24.6591107  79.4822461  11.9798473  18.4552529  76.2004075   7.1614024
  17.5303025  76.0680289   7.3691716  18.7036942  76.9798294   7.6583967
  28.4037191  72.2672818   8.8074757  27.4954069  72.1988227   8.5133518
  28.3524787  72.7444763   9.6356583  22.4778057  73.6862464  16.7509655
  21.7011391  74.2456384  16.7412519  23.1168620  74.1719247  17.2724525
  30.2698838  70.4689257  10.5852631  29.6273218  70.7621790   9.9392426
  29.7653766  70.3542177  11.3905828  27.9239001  74.2152430   1.2738491
  28.8356857  74.4479817   1.0986188  27.4148648  74.7989474   0.7113569
  20.7324429  76.4947917  16.3127622  21.4739114  77.0332961  16.0362445
  20.0261415  77.1214206  16.4699173  26.2079769  78.6377058  14.9099783
  26.6163125  78.1959468  14.1654416  25.4857030  78.0629685  15.1633976
  22.5610839  73.5749664  12.2833340  23.4072034  73.9989078  12.4267989
  22.5009477  72.9183289  12.9771903  26.5308584  79.1978248   8.6652072
  25.9017446  79.3623962   7.9628140  26.1434246  79.6119858   9.4363036
  30.4097815  80.1332686   6.0196436  29.7248854  80.5131588   5.4693469
  30.4941665  80.7428013   6.7528384  25.7110284  71.2354033  13.9414514
  25.4671216  71.9896093  13.4048789  25.9870215  71.6139380  14.7761761
  27.6648747  77.7792645  12.6191779  27.8765642  78.4224405  11.9426160
  27.6178495  76.9454962  12.1513709  25.2674976  70.3910466   9.5228351
  24.4059455  70.6891719   9.8145089  25.2937411  70.6080865   8.5909384
  22.0836545  78.9352656   5.9302157  22.5474891  79.2140359   5.1406780
  21.8193344  78.0336101   5.7475248  18.9760627  78.4824138   8.8681920
  19.5461984  78.9111406   8.2299405  19.5668738  78.2006723   9.5666106
  19.4685793  73.6487565  17.1142932  18.8384454  74.3303846  17.3478328
  19.3621881  73.5370647  16.1696070  28.7794575  80.6564601  10.7914137
  29.6012019  80.2544788  10.5096818  28.7756978  80.5532835  11.7430252
  22.5451178  80.2048644  12.9474847  22.6095611  80.6669051  13.7833019
  21.8362102  79.5746009  13.0757157  13.0468468  73.5689852  10.4723847
  13.2976507  74.4536862  10.7381423  13.5828017  73.3894453   9.6998938
  36.8700568  77.0003349   7.1399108  36.1164276  76.4310747   6.9843113
  37.0048109  76.9666014   8.0869743  18.7466536  67.9508331  19.4768183
  18.3533481  67.3974530  20.1515827  19.5632676  68.2618910  19.8674700
  21.6634497  69.3666210  17.0688439  22.4044210  69.9673363  16.9892902
  21.8952420  68.6243848  16.5106482  16.8075835  74.5522578  15.3466669
  16.6929350  73.6507835  15.6473768  15.9520353  74.7986274  14.9951485
  23.8867673  82.4940318  16.9454170  23.4431527  81.7076696  16.6275074
  24.5484886  82.6819468  16.2798060  18.6454794  84.0236119  11.4714848
  19.1962219  83.8953183  10.6991842  17.8066270  84.3231008  11.1209741
  25.9848911  82.7743118  14.9735571  25.9667386  83.5951999  14.4815840
  26.9068831  82.6497193  15.1985712  22.4421965  80.2887247  15.8159079
  22.9750302  79.5275535  15.5858387  21.9136046  79.9960899  16.5583234
  25.6091660  65.3947313  11.3452721  25.2655929  66.2848955  11.2691832
  25.9770622  65.2048971  10.4822306  23.1589053  70.2305625   4.9110394
  22.3030650  69.8412476   4.7316033  23.5716005  70.3097586   4.0510180
  24.6888200  67.7651968   9.3101954  24.1852996  67.7282104   8.4969759
  24.9818807  68.6744711   9.3698611  20.9331086  67.8490698   8.3168136
  21.7984083  67.6533507   7.9574025  21.0008595  67.6201050   9.2437493
  30.5476217  78.1388279   1.7878330  29.7705659  77.7999439   1.3433492
  31.2267698  78.1440902   1.1133295  25.3628246  73.2583016   1.6784937
  25.0578381  73.5729166   2.5295080  26.3158688  73.3364436   1.7212270
  28.7867523  77.6122260   8.4444938  28.1291198  78.3021522   8.5325066
  29.5907923  78.0018692   8.7878924  18.5393405  70.0792906   5.6884503
  19.1137157  69.8568088   4.9557696  19.1264387  70.1481601   6.4413104
  27.5972982  75.9666633   6.4948879  28.1104864  76.5996625   6.9970589
  28.2474206  75.3667828   6.1292239  20.8416073  66.9534155   4.4159572
  20.1880485  66.6383172   3.7916187  20.7996547  66.3309895   5.1419395
  24.0753813  73.4416088   8.7407220  23.1576374  73.6631036   8.5828908
  24.4913957  73.5162399   7.8818927  24.8588861  74.8407504   3.8709900
  25.6060680  75.3528901   3.5617022  25.1280450  74.5191557   4.7314294
  28.3634778  80.9472634   4.6228022  27.9097106  80.1063544   4.6793212
  27.7328745  81.5834033   4.9602802  27.3067698  71.8764620   5.8528689
  26.5690455  71.3642007   6.1838932  27.5594472  71.4365002   5.0411966
  26.8067718  82.7849131   5.5577840  27.0990692  83.3454188   4.8390206
  27.3166338  83.0777692   6.3130999  27.4079325  64.6540872   6.4470459
  27.7138202  63.7938236   6.1596374  28.1331930  65.2458493   6.2469453
  21.6800405  74.9494666   6.9546650  21.7349015  73.9968502   6.8789126
  20.8691607  75.1054105   7.4387948  19.6192765  73.5671725   4.7137029
  18.8060631  73.8665896   5.1202221  20.1151759  73.1727414   5.4311511
  25.2166977  74.0313550  13.5451922  25.5716364  74.2585023  14.4046388
  25.8639108  74.3631927  12.9229178  30.9464714  77.1531986   4.2501251
  30.8082612  77.3433582   3.3222441  30.5900932  77.9151368   4.7069303
  19.1106840  71.1390081  10.3298264  19.7506219  70.9978840   9.6321227
  18.2784370  70.8524594   9.9536866  30.9734093  79.2208513   9.2612523
  31.4070600  79.1283802  10.1095577  31.6865674  79.1966013   8.6232539
  24.7061988  82.8210607  10.7945624  24.7599010  83.3901543  11.5623339
  23.8376770  82.9912492  10.4299661  16.1135456  71.1090406   5.1071250
  16.3742273  72.0235739   4.9980411  16.9352629  70.6414848   5.2567863
  17.5860382  72.5228163  12.2770075  18.2583435  72.3145525  11.6282724
  16.7590168  72.3250249  11.8375307  31.8349643  79.2632213  11.7945408
  32.0285533  80.1678024  12.0404683  31.7350261  78.8039632  12.6283993
  23.4885954  69.1490104  14.2935736  22.8413869  69.8480054  14.2000212
  24.2586969  69.5826248  14.6611984  26.8964751  79.4138956  17.3686289
  26.7450258  79.1849508  16.4516373  26.8869431  80.3709557  17.3817634
  23.6650088  76.9870869  12.3532555  24.5942148  77.1382028  12.1801523
  23.2441118  77.0754890  11.4981202  22.4638420  81.0121533  10.1231093
  22.3249505  80.6440318  10.9957031  21.6753016  81.5269173   9.9515051
  24.0143635  80.3903136   7.5119931  23.6793467  80.3503906   8.4077581
  23.5147580  79.7247852   7.0390341  17.9887879  75.7970766  13.0372512
  17.8507677  75.0651005  13.6384051  18.8992802  75.7079666  12.7556700
  20.6170179  75.5090725  12.5256192  21.3269798  74.8683917  12.4842810
  20.5739488  75.7603620  13.4482372  28.6056958  82.4458079  15.4462771
  28.5469504  81.7617299  14.7793354  29.0076477  83.1877069  14.9943397
  19.3299113  72.4955943  14.3451831  18.7936470  72.0446682  14.9973427
  18.7415822  72.6301852  13.6022295  28.6074365  80.4097663  13.6776751
  27.7201144  80.0723584  13.8003149  29.1772916  79.6780694  13.9145516
  15.0638235  71.6311951  11.4304826  14.9796423  71.0237620  10.6955236
  14.2420941  72.1220969  11.4314322  22.1375519  85.0699115  10.6437994
  22.0645690  85.8754086  11.1557298  21.6952912  85.2691081   9.8186015
  25.2361949  70.1165514   6.7975021  25.7330648  69.3635477   6.4776091
  24.4648930  70.1529831   6.2318230  33.0891706  75.8205880   8.4393312
  33.0781582  76.7030595   8.0687245  32.2209085  75.4677431   8.2447849
  24.5974202  84.9685949  12.7996152  25.3102175  85.6033414  12.7272054
  24.1064231  85.0649815  11.9836154  26.3191729  78.8737202   4.3713444
  25.3848008  78.9938664   4.2018148  26.4968398  77.9709668   4.1073454
  21.8196917  72.2582897   6.5246705  21.4494705  71.7053938   7.2127611
  22.3156010  71.6541031   5.9721705  29.7064281  74.7154521   4.9063478
  30.1724733  75.5482512   4.8323781  30.1571781  74.2499502   5.6108737
  19.6486116  82.7180392  13.6201723  20.3495575  83.3516875  13.7731117
  19.1781231  83.0595124  12.8597362  27.7740512  81.0598342   1.9049630
  28.0500356  80.9454937   2.8143504  26.9045010  80.6615827   1.8661803
  27.6780943  67.0835108   8.9454380  26.7644023  67.3139335   9.1136586
  28.1074045  67.1673552   9.7968412  27.4487402  75.2725000  11.4454274
  26.7958852  75.5200907  10.7906726  27.8267782  74.4589138  11.1116751
  23.4974975  76.0144811  17.9320311  22.8215612  75.9138940  18.6022686
  24.3202609  75.8584025  18.3956308  22.2397758  87.3211738  12.1677927
  22.7916066  87.4843360  12.9327012  22.5803951  87.9116176  11.4957952
  17.2162251  69.6686888  12.7699811  17.2803577  70.5301719  12.3577209
  17.1529371  69.0560890  12.0372170  16.6914523  71.7410021  16.4172846
  17.3186562  71.3587098  17.0310370  15.8342442  71.5224223  16.7828538
  27.0908632  82.1472996  18.0226581  27.6348536  82.7602954  17.5281536
  26.5095477  82.7052574  18.5393594  25.3766145  85.2693714   9.1541609
  25.2517284  84.4683454   8.6452554  26.0345236  85.7639907   8.6655579
  16.9974313  71.6242446   8.3318749  16.2760899  72.2378414   8.1926222
  17.7867569  72.1600211   8.2535395  27.4401053  83.0702734  10.7821159
  26.4931389  82.9508085  10.7099486  27.7883826  82.1825232  10.8647420
  19.8000627  68.9596873  14.6059401  20.3235029  69.2059169  15.3685710
  19.5812960  69.7916908  14.1862538  24.4447487  82.8655450   6.9825511
  24.2972449  81.9372158   7.1633081  25.2700980  82.8875541   6.4982586
  28.0481609  83.6884009   8.0690384  28.9728156  83.4826870   7.9314835
  27.8796912  83.4400410   8.9779725  21.0053172  69.9010568  12.2909071
  20.6649992  69.1018381  12.6929751  20.2992178  70.2012279  11.7185905
  21.6569644  66.9859880  10.7436394  22.4795713  66.5120359  10.6215285
  21.9007707  67.7650364  11.2435081  24.4409001  70.7193288   1.9757628
  24.6572615  71.6017926   1.6746457  23.9603068  70.3279501   1.2463270
  19.1808222  73.6779001   8.5528373  19.0352803  73.9919304   9.4452654
  18.7033426  74.2963901   7.9999272  21.0404605  70.6681549   8.6009263
  21.0266174  69.7722642   8.2641560  21.7577033  70.6752213   9.2347549
  22.8930736  71.1018889  10.6462390  22.6348514  72.0235960  10.6446720
  22.3615776  70.7049324  11.3362854  27.8376925  84.2069676   3.4252475
  28.0113802  83.6416099   2.6726328  28.3305816  85.0070571   3.2431965
  13.6553885  76.2184345  11.4916034  13.1107353  76.9944153  11.6236308
  14.5333234  76.5655150  11.3335156  20.4441501  69.5495929   3.8696833
  20.5657412  68.6212575   4.0687720  20.1543544  69.5634615   2.9575148
  23.3132692  67.2350840   7.0063553  23.3354388  67.2990173   6.0515532
  23.7300751  66.3955348   7.2004059  33.6916316  76.9706099   5.0442775
  34.1347462  76.2213424   4.6461898  32.8142826  76.9616236   4.6616507
  14.4419906  75.3454242  14.3846191  13.7001642  75.4936877  14.9710821
  14.1212651  75.6062507  13.5212940  30.7243520  80.9736146   2.0536704
  31.2494844  81.3123419   1.3286024  30.6365873  80.0383162   1.8699839
  22.3863569  84.8870220  14.1826581  22.6950695  84.6419367  15.0549281
  23.1839051  85.0916858  13.6945451  19.9282581  71.0627927  18.0786765
  19.9770736  71.9390049  17.6964535  20.4705095  70.5205320  17.5058408
  30.4137426  81.6069050  17.3587902  29.6232970  81.5893189  16.8192402
  30.1770781  82.1457344  18.1136939  30.5335301  78.4561516  14.6720631
  30.5833306  78.2911524  15.6136154  30.4249225  77.5888775  14.2818512
  27.8239064  74.4392444  15.9879938  28.7248927  74.2998909  15.6963935
  27.8987038  74.6046899  16.9278115  22.1581869  71.8159299  14.8333124
  21.2885179  72.1092865  14.5615712  22.3941350  72.3999744  15.5540388
  32.0353498  80.8758458  14.9162652  31.7438307  81.2388438  15.7526113
  31.4225630  80.1625466  14.7375984  33.2349181  78.4411338   7.4365223
  34.0696072  78.8801142   7.6002783  33.3708309  77.9649991   6.6173468
  30.2840687  75.9991072  13.3842710  30.7594808  76.1918719  12.5761562
  29.3606252  76.0550258  13.1386094  24.8620903  68.0338916  12.3498544
  25.3802847  68.7699943  12.0245033  24.5076036  68.3402909  13.1845303
  25.1133497  64.4539199   7.8699441  25.3935251  63.7862388   8.4959867
  25.8984104  64.6468294   7.3574105  28.9842356  72.8756832  11.6171016
  29.9359778  72.9754930  11.6383240  28.8145806  72.0835101  12.1269100
  27.0056735  69.9612416  11.8030417  26.4106667  70.2417428  11.1076906
  26.7206432  70.4506317  12.5747158  31.4630433  76.0962952  10.7313316
  31.4306753  75.1578953  10.9172999  32.0731057  76.1746989   9.9979141
  31.6124922  72.8873996  10.7771599  31.0963970  72.1032452  10.5901528
  32.4964870  72.5592712  10.9418118  29.2735649  66.6315011   6.7367412
  29.0760470  66.3230099   7.6210743  29.8835354  67.3576650   6.8665341
  37.2806983  77.1578959   9.8719352  38.0110372  76.8964247  10.4327056
  36.6713929  76.4207681   9.9121420  35.3622280  75.2986822  10.4693804
  34.6355444  75.1642787   9.8610295  34.9469567  75.6063650  11.2750522
  23.1852457  79.0176751  18.2341177  24.1055466  79.1955350  18.4281223
  23.1502040  78.0732797  18.0820876  16.1814529  76.9277786  10.8763958
  16.4000539  77.8594894  10.8951992  16.5940303  76.5685760  11.6618762
  23.1018747  67.4345871   2.8639646  22.2919475  67.0892956   3.2394892
  23.7903164  67.1253415   3.4527258  25.0309295  66.5123918   4.4863943
  25.5840334  66.9319371   5.1453966  25.2679382  65.5859666   4.5286899
  21.0542395  72.5010992  20.2666707  20.9539121  73.4505349  20.1978798
  20.8363937  72.1729231  19.3942777  28.4088102  68.6224443   3.9942607
  27.8286771  69.2809247   3.6120660  28.1424035  67.8001788   3.5830025
  26.8591669  68.0229501   6.1963927  27.3591447  68.1346035   5.3878246
  27.5027277  67.7190554   6.8364736  20.9173665  75.9308131  19.0831768
  20.4340746  76.7308491  19.2895657  21.0034604  75.9416075  18.1299212
  16.8447002  79.8212665  11.1200202  17.7990256  79.7896608  11.0530134
  16.6459526  79.3603289  11.9350428  17.4346384  78.3913781  13.6871000
  18.2539273  78.8857860  13.7105837  17.7083192  77.4745749  13.6588567
  27.1912980  70.7824534   3.0498955  26.3038835  71.0674184   2.8319150
  27.6066970  70.6218297   2.2026232  30.5427517  70.8071055   6.7653295
  31.3187907  71.2967507   7.0377911  29.8175651  71.2329109   7.2225164
  32.9800075  71.5198674   7.8227235  33.5744566  71.2794410   7.1120543
  33.0526659  70.8005804   8.4500772  27.1654004  76.2979070   3.2649246
  27.1089206  76.7547621   2.4256878  27.7182347  75.5369754   3.0872088
  30.9758810  72.0868801   4.0899365  30.7195744  71.6865437   4.9207573
  30.3511678  72.8012595   3.9649504  35.2871148  74.8264875   6.5970656
  34.7270706  74.8958064   7.3702219  34.6814651  74.6505859   5.8770153
  27.8988783  77.4883851   0.5601775  27.8437587  77.3228122  -0.3809781
  27.2734839  78.1959884   0.7163964  12.6881298  72.7251915  14.3863197
  13.3340162  72.2150869  14.8750422  12.4798450  73.4620597  14.9606622
  25.2134691  79.7932763  19.8855338  26.0825850  79.9673415  19.5241972
  24.7341442  80.6127179  19.7631067  21.2084909  66.9891960   0.1387093
  21.1963579  67.9333800   0.2955364  22.1008331  66.8062105  -0.1553446
  19.3820871  86.9129864  11.5644771  20.2848118  86.9453474  11.8811266
  19.1558241  85.9830315  11.5791107  25.0237028  63.5834736   4.3933030
  24.2569424  63.0293223   4.5389712  25.4347733  63.6556605   5.2547182
  17.0278789  69.8719532  18.4838211  17.8910251  69.5156337  18.6941536
  16.4544200  69.5333427  19.1713615  36.8727166  91.5021389   9.2900612
  37.5105576  91.3828136   8.5863952  36.7548009  92.4502233   9.3488564
  33.6816873  91.4548817   9.2262137  33.3435384  91.3389881   8.3382672
  34.5506641  91.0539982   9.2063143  34.1636656  92.6083668  15.1848342
  34.1525296  92.2136467  14.3128846  34.3257295  91.8749741  15.7782114
  30.8843917  95.3920780  14.1327526  30.5933783  96.2966411  14.0174193
  31.5200901  95.4337308  14.8471596  31.8100124  92.7697629  10.7228886
  32.4063696  92.5453651  10.0085849  31.8675095  92.0282374  11.3254334
  36.4268435  89.2272842   6.3653820  37.2131524  88.8092266   6.0144237
  36.6907139  90.1318935   6.5335469  41.8276862  89.1648076   7.2686799
  42.5602034  88.5947292   7.5024628  41.0716218  88.7769676   7.7093304
  33.4452982  91.5875317   4.4650141  33.0811189  91.0605938   5.1763063
  34.3020098  91.1973786   4.2916627  39.3502282  82.8769650  11.7281407
  39.0185607  83.7465061  11.5042622  38.7547896  82.5605934  12.4075438
  35.8433802  95.0782196  11.1277320  35.5434525  95.9807235  11.0193127
  35.4984861  94.8114379  11.9798473  29.2946283  91.5295993   7.1614024
  28.3696780  91.3972207   7.3691716  29.5430697  92.3090212   7.6583967
  39.2430946  87.5964736   8.8074757  38.3347823  87.5280144   8.5133518
  39.1918541  88.0736681   9.6356583  33.3171811  89.0154382  16.7509655
  32.5405146  89.5748302  16.7412519  33.9562375  89.5011164  17.2724525
  41.1092592  85.7981174  10.5852631  40.4666972  86.0913707   9.9392426
  40.6047521  85.6834095  11.3905828  38.7632756  89.5444348   1.2738491
  39.6750612  89.7771734   1.0986188  38.2542403  90.1281392   0.7113569
  31.5718184  91.8239835  16.3127622  32.3132868  92.3624879  16.0362445
  30.8655169  92.4506124  16.4699173  37.0473523  93.9668975  14.9099783
  37.4556879  93.5251386  14.1654416  36.3250785  93.3921603  15.1633976
  33.4004593  88.9041582  12.2833340  34.2465789  89.3280996  12.4267989
  33.3403231  88.2475206  12.9771903  37.3702338  94.5270166   8.6652072
  36.7411201  94.6915880   7.9628140  36.9828000  94.9411776   9.4363036
  41.2491570  95.4624604   6.0196436  40.5642608  95.8423505   5.4693469
  41.3335419  96.0719930   6.7528384  36.5504039  86.5645950  13.9414514
  36.3064971  87.3188011  13.4048789  36.8263969  86.9431298  14.7761761
  38.5042502  93.1084563  12.6191779  38.7159397  93.7516323  11.9426160
  38.4572250  92.2746879  12.1513709  36.1068731  85.7202383   9.5228351
  35.2453210  86.0183637   9.8145089  36.1331165  85.9372782   8.5909384
  32.9230300  94.2644574   5.9302157  33.3868645  94.5432277   5.1406780
  32.6587098  93.3628019   5.7475248  29.8154381  93.8116056   8.8681920
  30.3855738  94.2403324   8.2299405  30.4062493  93.5298640   9.5666106
  30.3079548  88.9779483  17.1142932  29.6778208  89.6595764  17.3478328
  30.2015635  88.8662565  16.1696070  39.6188330  95.9856518  10.7914137
  40.4405773  95.5836706  10.5096818  39.6150732  95.8824752  11.7430252
  33.3844933  95.5340562  12.9474847  33.4489365  95.9960969  13.7833019
  32.6755857  94.9037926  13.0757157  23.8862223  88.8981770  10.4723847
  24.1370261  89.7828779  10.7381423  24.4221771  88.7186371   9.6998938
  47.7094323  92.3295267   7.1399108  46.9558031  91.7602665   6.9843113
  47.8441864  92.2957931   8.0869743  29.5860290  83.2800249  19.4768183
  29.1927236  82.7266447  20.1515827  30.4026431  83.5910827  19.8674700
  32.5028251  84.6958128  17.0688439  33.2437965  85.2965281  16.9892902
  32.7346174  83.9535766  16.5106482  27.6469589  89.8814495  15.3466669
  27.5323104  88.9799752  15.6473768  26.7914107  90.1278192  14.9951485
  34.7261427  97.8232236  16.9454170  34.2825281  97.0368614  16.6275074
  35.3878641  98.0111386  16.2798060  29.4848548  99.3528037  11.4714848
  30.0355973  99.2245101  10.6991842  28.6460024  99.6522926  11.1209741
  36.8242665  98.1035035  14.9735571  36.8061140  98.9243917  14.4815840
  37.7462585  97.9789111  15.1985712  33.2815719  95.6179165  15.8159079
  33.8144056  94.8567453  15.5858387  32.7529800  95.3252817  16.5583234
  36.4485414  80.7239231  11.3452721  36.1049684  81.6140873  11.2691832
  36.8164377  80.5340889  10.4822306  33.9982808  85.5597543   4.9110394
  33.1424404  85.1704393   4.7316033  34.4109760  85.6389504   4.0510180
  35.5281955  83.0943886   9.3101954  35.0246750  83.0574021   8.4969759
  35.8212561  84.0036629   9.3698611  31.7724840  83.1782616   8.3168136
  32.6377837  82.9825424   7.9574025  31.8402349  82.9492968   9.2437493
  41.3869971  93.4680197   1.7878330  40.6099414  93.1291356   1.3433492
  42.0661452  93.4732820   1.1133295  36.2022000  88.5874934   1.6784937
  35.8972136  88.9021083   2.5295080  37.1552442  88.6656354   1.7212270
  39.6261278  92.9414178   8.4444938  38.9684952  93.6313439   8.5325066
  40.4301677  93.3310610   8.7878924  29.3787160  85.4084824   5.6884503
  29.9530911  85.1860005   4.9557696  29.9658142  85.4773518   6.4413104
  38.4366737  91.2958551   6.4948879  38.9498618  91.9288542   6.9970589
  39.0867961  90.6959746   6.1292239  31.6809827  82.2826073   4.4159572
  31.0274240  81.9675090   3.7916187  31.6390301  81.6601813   5.1419395
  34.9147568  88.7708006   8.7407220  33.9970129  88.9922953   8.5828908
  35.3307711  88.8454317   7.8818927  35.6982615  90.1699422   3.8709900
  36.4454434  90.6820819   3.5617022  35.9674205  89.8483475   4.7314294
  39.2028533  96.2764552   4.6228022  38.7490860  95.4355462   4.6793212
  38.5722500  96.9125950   4.9602802  38.1461453  87.2056538   5.8528689
  37.4084209  86.6933924   6.1838932  38.3988226  86.7656920   5.0411966
  37.6461472  98.1141049   5.5577840  37.9384447  98.6746106   4.8390206
  38.1560093  98.4069610   6.3130999  38.2473080  79.9832790   6.4470459
  38.5531957  79.1230154   6.1596374  38.9725685  80.5750410   6.2469453
  32.5194160  90.2786583   6.9546650  32.5742769  89.3260420   6.8789126
  31.7085362  90.4346022   7.4387948  30.4586519  88.8963643   4.7137029
  29.6454385  89.1957813   5.1202221  30.9545514  88.5019332   5.4311511
  36.0560731  89.3605467  13.5451922  36.4110119  89.5876941  14.4046388
  36.7032862  89.6923844  12.9229178  41.7858468  92.4823903   4.2501251
  41.6476367  92.6725499   3.3222441  41.4294687  93.2443286   4.7069303
  29.9500594  86.4681998  10.3298264  30.5899974  86.3270758   9.6321227
  29.1178125  86.1816512   9.9536866  41.8127848  94.5500430   9.2612523
  42.2464354  94.4575719  10.1095577  42.5259428  94.5257931   8.6232539
  35.5455743  98.1502524  10.7945624  35.5992765  98.7193461  11.5623339
  34.6770524  98.3204409  10.4299661  26.9529211  86.4382323   5.1071250
  27.2136028  87.3527657   4.9980411  27.7746383  85.9706766   5.2567863
  28.4254136  87.8520081  12.2770075  29.0977189  87.6437443  11.6282724
  27.5983923  87.6542167  11.8375307  42.6743397  94.5924131  11.7945408
  42.8679287  95.4969941  12.0404683  42.5744015  94.1331550  12.6283993
  34.3279708  84.4782022  14.2935736  33.6807623  85.1771971  14.2000212
  35.0980723  84.9118165  14.6611984  37.7358506  94.7430874  17.3686289
  37.5844012  94.5141425  16.4516373  37.7263185  95.7001475  17.3817634
  34.5043842  92.3162786  12.3532555  35.4335902  92.4673946  12.1801523
  34.0834872  92.4046807  11.4981202  33.3032174  96.3413451  10.1231093
  33.1643260  95.9732235  10.9957031  32.5146770  96.8561090   9.9515051
  34.8537389  95.7195054   7.5119931  34.5187222  95.6795824   8.4077581
  34.3541335  95.0539769   7.0390341  28.8281633  91.1262684  13.0372512
  28.6901431  90.3942922  13.6384051  29.7386557  91.0371584  12.7556700
  31.4563934  90.8382643  12.5256192  32.1663552  90.1975835  12.4842810
  31.4133242  91.0895538  13.4482372  39.4450713  97.7749996  15.4462771
  39.3863259  97.0909216  14.7793354  39.8470231  98.5168986  14.9943397
  30.1692868  87.8247861  14.3451831  29.6330225  87.3738599  14.9973427
  29.5809576  87.9593770  13.6022295  39.4468120  95.7389580  13.6776751
  38.5594899  95.4015502  13.8003149  40.0166671  95.0072611  13.9145516
  25.9031989  86.9603868  11.4304826  25.8190178  86.3529538  10.6955236
  25.0814696  87.4512887  11.4314322  32.9769273 100.3991033  10.6437994
  32.9039445 101.2046004  11.1557298  32.5346666 100.5982998   9.8186015
  36.0755703  85.4457432   6.7975021  36.5724403  84.6927394   6.4776091
  35.3042685  85.4821749   6.2318230  43.9285460  91.1497798   8.4393312
  43.9175337  92.0322513   8.0687245  43.0602840  90.7969348   8.2447849
  35.4367957 100.2977867  12.7996152  36.1495929 100.9325331  12.7272054
  34.9457985 100.3941733  11.9836154  37.1585484  94.2029119   4.3713444
  36.2241762  94.3230582   4.2018148  37.3362152  93.3001586   4.1073454
  32.6590672  87.5874815   6.5246705  32.2888459  87.0345855   7.2127611
  33.1549764  86.9832948   5.9721705  40.5458035  90.0446439   4.9063478
  41.0118487  90.8774430   4.8323781  40.9965536  89.5791420   5.6108737
  30.4879870  98.0472310  13.6201723  31.1889330  98.6808793  13.7731117
  30.0174985  98.3887042  12.8597362  38.6134266  96.3890260   1.9049630
  38.8894110  96.2746854   2.8143504  37.7438765  95.9907745   1.8661803
  38.5174698  82.4127026   8.9454380  37.6037778  82.6431252   9.1136586
  38.9467799  82.4965470   9.7968412  38.2881156  90.6016917  11.4454274
  37.6352607  90.8492825  10.7906726  38.6661536  89.7881056  11.1116751
  34.3368729  91.3436729  17.9320311  33.6609366  91.2430858  18.6022686
  35.1596363  91.1875942  18.3956308  33.0791512 102.6503656  12.1677927
  33.6309820 102.8135277  12.9327012  33.4197706 103.2408094  11.4957952
  28.0556005  84.9978806  12.7699811  28.1197332  85.8593637  12.3577209
  27.9923126  84.3852807  12.0372170  27.5308278  87.0701938  16.4172846
  28.1580317  86.6879016  17.0310370  26.6736197  86.8516140  16.7828538
  37.9302387  97.4764913  18.0226581  38.4742291  98.0894872  17.5281536
  37.3489231  98.0344492  18.5393594  36.2159899 100.5985632   9.1541609
  36.0911039  99.7975371   8.6452554  36.8738991 101.0931825   8.6655579
  27.8368068  86.9534364   8.3318749  27.1154653  87.5670332   8.1926222
  28.6261323  87.4892129   8.2535395  38.2794808  98.3994652  10.7821159
  37.3325143  98.2800003  10.7099486  38.6277581  97.5117150  10.8647420
  30.6394381  84.2888791  14.6059401  31.1628783  84.5351087  15.3685710
  30.4206714  85.1208825  14.1862538  35.2841241  98.1947368   6.9825511
  35.1366204  97.2664075   7.1633081  36.1094735  98.2167459   6.4982586
  38.8875363  99.0175927   8.0690384  39.8121910  98.8118788   7.9314835
  38.7190666  98.7692328   8.9779725  31.8446926  85.2302486  12.2909071
  31.5043747  84.4310299  12.6929751  31.1385933  85.5304196  11.7185905
  32.4963398  82.3151798  10.7436394  33.3189467  81.8412276  10.6215285
  32.7401462  83.0942282  11.2435081  35.2802755  86.0485205   1.9757628
  35.4966370  86.9309843   1.6746457  34.7996823  85.6571419   1.2463270
  30.0201977  89.0070919   8.5528373  29.8746558  89.3211222   9.4452654
  29.5427180  89.6255819   7.9999272  31.8798360  85.9973467   8.6009263
  31.8659928  85.1014560   8.2641560  32.5970788  86.0044130   9.2347549
  33.7324490  86.4310807  10.6462390  33.4742268  87.3527878  10.6446720
  33.2009531  86.0341241  11.3362854  38.6770679  99.5361594   3.4252475
  38.8507557  98.9708016   2.6726328  39.1699570 100.3362489   3.2431965
  24.4947639  91.5476263  11.4916034  23.9501107  92.3236071  11.6236308
  25.3726989  91.8947068  11.3335156  31.2835256  84.8787847   3.8696833
  31.4051167  83.9504493   4.0687720  30.9937298  84.8926533   2.9575148
  34.1526446  82.5642757   7.0063553  34.1748143  82.6282090   6.0515532
  34.5694505  81.7247266   7.2004059  44.5310070  92.2998017   5.0442775
  44.9741216  91.5505342   4.6461898  43.6536581  92.2908153   4.6616507
  25.2813661  90.6746159  14.3846191  24.5395397  90.8228795  14.9710821
  24.9606405  90.9354425  13.5212940  41.5637275  96.3028064   2.0536704
  42.0888599  96.6415337   1.3286024  41.4759627  95.3675079   1.8699839
  33.2257324 100.2162138  14.1826581  33.5344450  99.9711284  15.0549281
  34.0232806 100.4208776  13.6945451  30.7676335  86.3919844  18.0786765
  30.8164491  87.2681967  17.6964535  31.3098849  85.8497237  17.5058408
  41.2531181  96.9360968  17.3587902  40.4626725  96.9185106  16.8192402
  41.0164535  97.4749261  18.1136939  41.3729056  93.7853434  14.6720631
  41.4227061  93.6203441  15.6136154  41.2642979  92.9180693  14.2818512
  38.6632818  89.7684362  15.9879938  39.5642681  89.6290827  15.6963935
  38.7380793  89.9338817  16.9278115  32.9975624  87.1451217  14.8333124
  32.1278933  87.4384783  14.5615712  33.2335104  87.7291662  15.5540388
  42.8747253  96.2050375  14.9162652  42.5832061  96.5680356  15.7526113
  42.2619384  95.4917384  14.7375984  44.0742935  93.7703255   7.4365223
  44.9089826  94.2093059   7.6002783  44.2102064  93.2941908   6.6173468
  41.1234441  91.3282990  13.3842710  41.5988563  91.5210636  12.5761562
  40.2000006  91.3842176  13.1386094  35.7014657  83.3630834  12.3498544
  36.2196601  84.0991861  12.0245033  35.3469790  83.6694827  13.1845303
  35.9527252  79.7831116   7.8699441  36.2329005  79.1154305   8.4959867
  36.7377859  79.9760212   7.3574105  39.8236110  88.2048750  11.6171016
  40.7753533  88.3046848  11.6383240  39.6539560  87.4127019  12.1269100
  37.8450489  85.2904333  11.8030417  37.2500422  85.5709346  11.1076906
  37.5600186  85.7798234  12.5747158  42.3024188  91.4254870  10.7313316
  42.2700508  90.4870871  10.9172999  42.9124811  91.5038907   9.9979141
  42.4518676  88.2165913  10.7771599  41.9357725  87.4324370  10.5901528
  43.3358625  87.8884630  10.9418118  40.1129403  81.9606929   6.7367412
  39.9154224  81.6522017   7.6210743  40.7229109  82.6868568   6.8665341
  48.1200738  92.4870877   9.8719352  48.8504126  92.2256165  10.4327056
  47.5107683  91.7499599   9.9121420  46.2016035  90.6278739  10.4693804
  45.4749198  90.4934704   9.8610295  45.7863322  90.9355568  11.2750522
  34.0246211  94.3468669  18.2341177  34.9449221  94.5247268  18.4281223
  33.9895794  93.4024714  18.0820876  27.0208284  92.2569704  10.8763958
  27.2394294  93.1886811  10.8951992  27.4334058  91.8977678  11.6618762
  33.9412502  82.7637789   2.8639646  33.1313230  82.4184874   3.2394892
  34.6296918  82.4545333   3.4527258  35.8703050  81.8415836   4.4863943
  36.4234088  82.2611289   5.1453966  36.1073136  80.9151584   4.5286899
  31.8936149  87.8302909  20.2666707  31.7932876  88.7797266  20.1978798
  31.6757691  87.5021148  19.3942777  39.2481857  83.9516361   3.9942607
  38.6680526  84.6101165   3.6120660  38.9817790  83.1293706   3.5830025
  37.6985423  83.3521419   6.1963927  38.1985202  83.4637953   5.3878246
  38.3421031  83.0482471   6.8364736  31.7567419  91.2600048  19.0831768
  31.2734501  92.0600408  19.2895657  31.8428358  91.2707993  18.1299212
  27.6840757  95.1504583  11.1200202  28.6384010  95.1188525  11.0530134
  27.4853280  94.6895207  11.9350428  28.2740139  93.7205699  13.6871000
  29.0933028  94.2149778  13.7105837  28.5476946  92.8037667  13.6588567
  38.0306735  86.1116451   3.0498955  37.1432590  86.3966102   2.8319150
  38.4460724  85.9510215   2.2026232  41.3821271  86.1362972   6.7653295
  42.1581661  86.6259425   7.0377911  40.6569405  86.5621026   7.2225164
  43.8193830  86.8490591   7.8227235  44.4138320  86.6086327   7.1120543
  43.8920413  86.1297722   8.4500772  38.0047759  91.6270987   3.2649246
  37.9482960  92.0839539   2.4256878  38.5576101  90.8661672   3.0872088
  41.8152565  87.4160719   4.0899365  41.5589499  87.0157355   4.9207573
  41.1905433  88.1304513   3.9649504  46.1264902  90.1556792   6.5970656
  45.5664460  90.2249982   7.3702219  45.5208406  89.9797777   5.8770153
  38.7382538  92.8175768   0.5601775  38.6831342  92.6520040  -0.3809781
  38.1128593  93.5251801   0.7163964  23.5275053  88.0543833  14.3863197
  24.1733917  87.5442787  14.8750422  23.3192204  88.7912514  14.9606622
  36.0528445  95.1224680  19.8855338  36.9219605  95.2965333  19.5241972
  35.5735197  95.9419097  19.7631067  32.0478663  82.3183877   0.1387093
  32.0357333  83.2625717   0.2955364  32.9402085  82.1354023  -0.1553446
  30.2214625 102.2421781  11.5644771  31.1241872 102.2745392  11.8811266
  29.9951995 101.3122232  11.5791107  35.8630783  78.9126654   4.3933030
  35.0963179  78.3585141   4.5389712  36.2741488  78.9848523   5.2547182
  27.8672544  85.2011450  18.4838211  28.7304006  84.8448255  18.6941536
  27.2937955  84.8625345  19.1713615  47.7120921 106.8313306   9.2900612
  48.3499331 106.7120054   8.5863952  47.5941764 107.7794150   9.3488564
  44.5210627 106.7840734   9.2262137  44.1829139 106.6681799   8.3382672
  45.3900395 106.3831899   9.2063143  45.0030410 107.9375586  15.1848342
  44.9919051 107.5428384  14.3128846  45.1651050 107.2041659  15.7782114
  41.7237671 110.7212698  14.1327526  41.4327537 111.6258329  14.0174193
  42.3594656 110.7629226  14.8471596  42.6493878 108.0989546  10.7228886
  43.2457450 107.8745569  10.0085849  42.7068850 107.3574292  11.3254334
  50.1896037  98.2061567  11.7281407  49.8579362  99.0756978  11.5042622
  49.5941650  97.8897851  12.4075438  46.6827556 110.4074113  11.1277320
  46.3828279 111.3099152  11.0193127  46.3378616 110.1406297  11.9798473
  40.1340038 106.8587910   7.1614024  39.2090534 106.7264124   7.3691716
  40.3824451 107.6382130   7.6583967  50.0824700 102.9256654   8.8074757
  49.1741578 102.8572062   8.5133518  50.0312296 103.4028599   9.6356583
  44.1565566 104.3446299  16.7509655  43.3798900 104.9040219  16.7412519
  44.7956129 104.8303082  17.2724525  51.9486347 101.1273092  10.5852631
  51.3060727 101.4205625   9.9392426  51.4441275 101.0126012  11.3905828
  42.4111938 107.1531753  16.3127622  43.1526623 107.6916797  16.0362445
  41.7048924 107.7798041  16.4699173  47.8867278 109.2960893  14.9099783
  48.2950634 108.8543304  14.1654416  47.1644539 108.7213521  15.1633976
  44.2398348 104.2333500  12.2833340  45.0859543 104.6572913  12.4267989
  44.1796986 103.5767124  12.9771903  47.3897793 101.8937868  13.9414514
  47.1458725 102.6479929  13.4048789  47.6657724 102.2723216  14.7761761
  49.3436256 108.4376481  12.6191779  49.5553151 109.0808240  11.9426160
  49.2966004 107.6038797  12.1513709  46.9462485 101.0494301   9.5228351
  46.0846964 101.3475555   9.8145089  46.9724920 101.2664700   8.5909384
  40.6548135 109.1407973   8.8681920  41.2249493 109.5695242   8.2299405
  41.2456247 108.8590558   9.5666106  41.1473302 104.3071401  17.1142932
  40.5171963 104.9887682  17.3478328  41.0409390 104.1954482  16.1696070
  44.2238687 110.8632479  12.9474847  44.2883120 111.3252886  13.7833019
  43.5149611 110.2329844  13.0757157  34.7255977 104.2273687  10.4723847
  34.9764016 105.1120697  10.7381423  35.2615526 104.0478289   9.6998938
  40.4254045  98.6092167  19.4768183  40.0320990  98.0558365  20.1515827
  41.2420185  98.9202745  19.8674700  43.3422006 100.0250046  17.0688439
  44.0831719 100.6257199  16.9892902  43.5739929  99.2827683  16.5106482
  38.4863344 105.2106413  15.3466669  38.3716859 104.3091670  15.6473768
  37.6307861 105.4570110  14.9951485  45.5655181 113.1524153  16.9454170
  45.1219036 112.3660532  16.6275074  46.2272395 113.3403304  16.2798060
  40.3242303 114.6819955  11.4714848  40.8749728 114.5537018  10.6991842
  39.4853779 114.9814844  11.1209741  47.6636420 113.4326953  14.9735571
  47.6454895 114.2535834  14.4815840  48.5856340 113.3081028  15.1985712
  44.1209474 110.9471083  15.8159079  44.6537810 110.1859371  15.5858387
  43.5923555 110.6544734  16.5583234  47.2879169  96.0531149  11.3452721
  46.9443438  96.9432790  11.2691832  47.6558131  95.8632806  10.4822306
  44.8376562 100.8889460   4.9110394  43.9818159 100.4996311   4.7316033
  45.2503514 100.9681421   4.0510180  46.3675709  98.4235804   9.3101954
  45.8640505  98.3865939   8.4969759  46.6606316  99.3328546   9.3698611
  42.6118595  98.5074533   8.3168136  43.4771592  98.3117342   7.9574025
  42.6796104  98.2784885   9.2437493  40.2180914 100.7376741   5.6884503
  40.7924666 100.5151923   4.9557696  40.8051896 100.8065436   6.4413104
  42.5203582  97.6117990   4.4159572  41.8667994  97.2967007   3.7916187
  42.4784056  96.9893731   5.1419395  45.7541322 104.0999924   8.7407220
  44.8363883 104.3214871   8.5828908  46.1701466 104.1746234   7.8818927
  49.0866834  95.3124708   6.4470459  49.3925711  94.4522071   6.1596374
  49.8119439  95.9042328   6.2469453  43.3587914 105.6078501   6.9546650
  43.4136524 104.6552337   6.8789126  42.5479116 105.7637940   7.4387948
  41.2980274 104.2255561   4.7137029  40.4848140 104.5249731   5.1202221
  41.7939268 103.8311249   5.4311511  46.8954486 104.6897385  13.5451922
  47.2503873 104.9168858  14.4046388  47.5426617 105.0215762  12.9229178
  40.7894349 101.7973916  10.3298264  41.4293728 101.6562675   9.6321227
  39.9571879 101.5108430   9.9536866  37.7922965 101.7674241   5.1071250
  38.0529782 102.6819574   4.9980411  38.6140137 101.2998684   5.2567863
  39.2647890 103.1811998  12.2770075  39.9370944 102.9729360  11.6282724
  38.4377677 102.9834084  11.8375307  45.1673463  99.8073939  14.2935736
  44.5201378 100.5063889  14.2000212  45.9374478 100.2410083  14.6611984
  48.5752260 110.0722791  17.3686289  48.4237767 109.8433343  16.4516373
  48.5656940 111.0293393  17.3817634  45.3437597 107.6454704  12.3532555
  46.2729657 107.7965864  12.1801523  44.9228627 107.7338725  11.4981202
  44.1425929 111.6705369  10.1231093  44.0037014 111.3024153  10.9957031
  43.3540525 112.1853008   9.9515051  39.6675388 106.4554601  13.0372512
  39.5295186 105.7234840  13.6384051  40.5780311 106.3663501  12.7556700
  42.2957688 106.1674561  12.5256192  43.0057307 105.5267753  12.4842810
  42.2526997 106.4187455  13.4482372  50.2844467 113.1041914  15.4462771
  50.2257013 112.4201134  14.7793354  50.6863985 113.8460904  14.9943397
  41.0086622 103.1539778  14.3451831  40.4723979 102.7030517  14.9973427
  40.4203331 103.2885687  13.6022295  50.2861874 111.0681498  13.6776751
  49.3988653 110.7307420  13.8003149  50.8560425 110.3364529  13.9145516
  36.7425744 102.2895786  11.4304826  36.6583932 101.6821456  10.6955236
  35.9208450 102.7804804  11.4314322  46.9149457 100.7749350   6.7975021
  47.4118157 100.0219312   6.4776091  46.1436439 100.8113666   6.2318230
  43.4984426 102.9166733   6.5246705  43.1282214 102.3637773   7.2127611
  43.9943519 102.3124866   5.9721705  41.3273625 113.3764228  13.6201723
  42.0283084 114.0100711  13.7731117  40.8568740 113.7178959  12.8597362
  49.3568452  97.7418943   8.9454380  48.4431532  97.9723170   9.1136586
  49.7861554  97.8257387   9.7968412  49.1274911 105.9308835  11.4454274
  48.4746361 106.1784743  10.7906726  49.5055291 105.1172973  11.1116751
  45.1762484 106.6728646  17.9320311  44.5003121 106.5722776  18.6022686
  45.9990118 106.5167860  18.3956308  38.8949760 100.3270723  12.7699811
  38.9591086 101.1885554  12.3577209  38.8316880  99.7144725  12.0372170
  38.3702032 102.3993856  16.4172846  38.9974071 102.0170933  17.0310370
  37.5129951 102.1808058  16.7828538  48.7696141 112.8056831  18.0226581
  49.3136045 113.4186789  17.5281536  48.1882986 113.3636410  18.5393594
  38.6761822 102.2826282   8.3318749  37.9548408 102.8962249   8.1926222
  39.4655078 102.8184047   8.2535395  41.4788136  99.6180708  14.6059401
  42.0022538  99.8643005  15.3685710  41.2600469 100.4500743  14.1862538
  42.6840681 100.5594403  12.2909071  42.3437501  99.7602216  12.6929751
  41.9779687 100.8596114  11.7185905  43.3357153  97.6443716  10.7436394
  44.1583222  97.1704194  10.6215285  43.5795216  98.4234199  11.2435081
  40.8595731 104.3362836   8.5528373  40.7140312 104.6503139   9.4452654
  40.3820935 104.9547737   7.9999272  42.7192114 101.3265384   8.6009263
  42.7053683 100.4306478   8.2641560  43.4364542 101.3336048   9.2347549
  44.5718245 101.7602725  10.6462390  44.3136023 102.6819795  10.6446720
  44.0403285 101.3633159  11.3362854  35.3341393 106.8768181  11.4916034
  34.7894862 107.6527989  11.6236308  36.2120743 107.2238985  11.3335156
  42.1229010 100.2079765   3.8696833  42.2444921  99.2796411   4.0687720
  41.8331053 100.2218451   2.9575148  44.9920201  97.8934675   7.0063553
  45.0141897  97.9574008   6.0515532  45.4088260  97.0539184   7.2004059
  36.1207415 106.0038077  14.3846191  35.3789151 106.1520712  14.9710821
  35.8000160 106.2646343  13.5212940  44.0651078 115.5454055  14.1826581
  44.3738204 115.3003202  15.0549281  44.8626560 115.7500694  13.6945451
  41.6070090 101.7211762  18.0786765  41.6558245 102.5973885  17.6964535
  42.1492604 101.1789155  17.5058408  52.0924935 112.2652885  17.3587902
  51.3020479 112.2477024  16.8192402  51.8558290 112.8041179  18.1136939
  52.2122810 109.1145352  14.6720631  52.2620815 108.9495359  15.6136154
  52.1036734 108.2472611  14.2818512  49.5026573 105.0976280  15.9879938
  50.4036436 104.9582744  15.6963935  49.5774547 105.2630734  16.9278115
  43.8369378 102.4743134  14.8333124  42.9672688 102.7676700  14.5615712
  44.0728859 103.0583579  15.5540388  53.7141007 111.5342293  14.9162652
  53.4225816 111.8972274  15.7526113  53.1013139 110.8209301  14.7375984
  51.9628195 106.6574908  13.3842710  52.4382317 106.8502554  12.5761562
  51.0393761 106.7134094  13.1386094  46.5408412  98.6922751  12.3498544
  47.0590356  99.4283778  12.0245033  46.1863545  98.9986745  13.1845303
  46.7921006  95.1123034   7.8699441  47.0722760  94.4446223   8.4959867
  47.5771613  95.3052129   7.3574105  50.6629864 103.5340668  11.6171016
  51.6147287 103.6338766  11.6383240  50.4933315 102.7418936  12.1269100
  48.6844244 100.6196251  11.8030417  48.0894176 100.9001264  11.1076906
  48.3993941 101.1090152  12.5747158  53.2912431 103.5457831  10.7771599
  52.7751479 102.7616288  10.5901528  54.1752379 103.2176548  10.9418118
  50.9523158  97.2898847   6.7367412  50.7547979  96.9813935   7.6210743
  51.5622863  98.0160485   6.8665341  44.8639966 109.6760587  18.2341177
  45.7842975 109.8539186  18.4281223  44.8289549 108.7316632  18.0820876
  37.8602038 107.5861621  10.8763958  38.0788048 108.5178729  10.8951992
  38.2727812 107.2269596  11.6618762  44.7806256  98.0929707   2.8639646
  43.9706984  97.7476792   3.2394892  45.4690673  97.7837250   3.4527258
  46.7096804  97.1707753   4.4863943  47.2627843  97.5903207   5.1453966
  46.9466891  96.2443502   4.5286899  42.7329904 103.1594827  20.2666707
  42.6326630 104.1089184  20.1978798  42.5151446 102.8313066  19.3942777
  48.5379178  98.6813336   6.1963927  49.0378956  98.7929871   5.3878246
  49.1814786  98.3774389   6.8364736  42.5961174 106.5891966  19.0831768
  42.1128255 107.3892326  19.2895657  42.6822113 106.5999911  18.1299212
  38.5234511 110.4796501  11.1200202  39.4777765 110.4480443  11.0530134
  38.3247035 110.0187124  11.9350428  39.1133893 109.0497617  13.6871000
  39.9326782 109.5441695  13.7105837  39.3870701 108.1329585  13.6588567
  34.3668807 103.3835751  14.3863197  35.0127671 102.8734705  14.8750422
  34.1585959 104.1204432  14.9606622  46.8922200 110.4516598  19.8855338
  47.7613359 110.6257250  19.5241972  46.4128951 111.2711015  19.7631067
  41.0608380 117.5713699  11.5644771  41.9635627 117.6037309  11.8811266
  40.8345750 116.6414150  11.5791107  46.7024537  94.2418572   4.3933030
  45.9356933  93.6877058   4.5389712  47.1135242  94.3140441   5.2547182
  38.7066298 100.5303368  18.4838211  39.5697760 100.1740172  18.6941536
  38.1331709 100.1917262  19.1713615  51.2647799 113.9384084  19.4768183
  50.8714745 113.3850283  20.1515827  52.0813940 114.2494663  19.8674700
  54.1815760 115.3541963  17.0688439  54.9225474 115.9549116  16.9892902
  54.4133683 114.6119601  16.5106482  49.2095787 117.7285774  16.4172846
  49.8367826 117.3462851  17.0310370  48.3523706 117.5099976  16.7828538
  52.4463844 117.0503680  18.0786765  52.4952000 117.9265802  17.6964535
  52.9886358 116.5081073  17.5058408  53.5723658 118.4886745  20.2666707
  53.4720385 119.4381102  20.1978798  53.3545200 118.1604984  19.3942777
  45.2062562 118.7127668  14.3863197  45.8521426 118.2026622  14.8750422
  44.9979713 119.4496350  14.9606622  49.5460053 115.8595285  18.4838211
  50.4091514 115.5032090  18.6941536  48.9725464 115.5209180  19.1713615
  28.6056959  59.4520201   2.1708078  28.5469506  58.7679421   1.5038661
  29.0076478  60.1939191   1.7188704  27.0908633  59.1535118   4.7471888
  27.6348537  59.7665077   4.2526843  26.5095478  59.7114697   5.2638901
  30.4137428  58.6131172   4.0833209  29.6232971  58.5955311   3.5437708
  30.1770782  59.1519466   4.8382246  32.0353500  57.8820580   1.6407959
  31.7438308  58.2450561   2.4771420  31.4225631  57.1687589   1.4621291
  25.2134692  56.7994885   6.6100644  26.0825852  56.9735538   6.2487279
  24.7341443  57.6189302   6.4876374  36.8727168  68.5083511  -3.9854081
  37.5105578  68.3890259  -4.6890741  36.7548011  69.4564355  -3.9266129
  33.6816874  68.4610939  -4.0492556  33.3435385  68.3452004  -4.9372022
  34.5506642  68.0602104  -4.0691550  34.1636657  69.6145791   1.9093649
  34.1525298  69.2198589   1.0374153  34.3257296  68.8811864   2.5027420
  30.8843918  72.3982903   0.8572833  30.5933784  73.3028534   0.7419499
  31.5200902  72.4399430   1.5716903  31.8100125  69.7759751  -2.5525807
  32.4063697  69.5515774  -3.2668844  31.8675096  69.0344497  -1.9500359
  41.8276863  66.1710198  -6.0067895  42.5602035  65.6009415  -5.7730065
  41.0716219  65.7831799  -5.5661389  39.3502284  59.8831772  -1.5473286
  39.0185608  60.7527183  -1.7712071  38.7547897  59.5668056  -0.8679256
  35.8433803  72.0844318  -2.1477373  35.5434526  72.9869357  -2.2561566
  35.4984863  71.8176502  -1.2956220  39.2430947  64.6026859  -4.4679936
  38.3347824  64.5342267  -4.7621175  39.1918543  65.0798803  -3.6398110
  33.3171813  66.0216504   3.4754961  32.5405147  66.5810424   3.4657826
  33.9562376  66.5073287   3.9969831  41.1092593  62.8043297  -2.6902062
  40.4666974  63.0975830  -3.3362267  40.6047522  62.6896217  -1.8848865
  31.5718185  68.8301957   3.0372928  32.3132869  69.3687001   2.7607752
  30.8655170  69.4568246   3.1944480  37.0473525  70.9731098   1.6345090
  37.4556881  70.5313508   0.8899722  36.3250786  70.3983725   1.8879283
  33.4004595  65.9103705  -0.9921353  34.2465790  66.3343118  -0.8486704
  33.3403232  65.2537329  -0.2982790  37.3702339  71.5332289  -4.6102621
  36.7411202  71.6978003  -5.3126553  36.9828001  71.9473898  -3.8391657
  41.2491571  72.4686726  -7.2558258  40.5642609  72.8485628  -7.8061224
  41.3335421  73.0782053  -6.5226310  36.5504040  63.5708073   0.6659820
  36.3064972  64.3250134   0.1294096  36.8263971  63.9493421   1.5007067
  38.5042503  70.1146685  -0.6562914  38.7159398  70.7578445  -1.3328533
  38.4572251  69.2809002  -1.1240984  29.8154382  70.8178178  -4.4072773
  30.3855739  71.2465447  -5.0455288  30.4062494  70.5360763  -3.7088587
  30.3079549  65.9841606   3.8388238  29.6778209  66.6657887   4.0723635
  30.2015637  65.8724687   2.8941377  39.6188331  72.9918641  -2.4840557
  40.4405774  72.5898828  -2.7657875  39.6150734  72.8886875  -1.5324441
  33.3844934  72.5402684  -0.3279846  33.4489367  73.0023091   0.5078326
  32.6755858  71.9100049  -0.1997536  47.7094324  69.3357389  -6.1355585
  46.9558032  68.7664787  -6.2911581  47.8441865  69.3020054  -5.1884951
  29.5860292  60.2862371   6.2013489  29.1927237  59.7328570   6.8761134
  30.4026432  60.5972950   6.5920007  32.5028252  61.7020251   3.7933746
  33.2437966  62.3027404   3.7138208  32.7346175  60.9597888   3.2351788
  27.6469591  66.8876618   2.0711976  27.5323106  65.9861875   2.3719075
  26.7914108  67.1340315   1.7196792  34.7261428  74.8294358   3.6699476
  34.2825282  74.0430737   3.3520381  35.3878642  75.0173509   3.0043367
  29.4848549  76.3590160  -1.8039845  30.0355975  76.2307223  -2.5762851
  28.6460025  76.6585049  -2.1544952  36.8242666  75.1097158   1.6980877
  36.8061142  75.9306039   1.2061147  37.7462586  74.9851233   1.9231019
  33.2815720  72.6241288   2.5404386  33.8144057  71.8629576   2.3103694
  32.7529802  72.3314939   3.2828540  39.6261279  69.9476301  -4.8309756
  38.9684954  70.6375562  -4.7429627  40.4301678  70.3372732  -4.4875769
  38.4366738  68.3020673  -6.7805814  38.9498620  68.9350665  -6.2784104
  39.0867962  67.7021869  -7.1462454  34.9147569  65.7770129  -4.5347474
  33.9970130  65.9985076  -4.6925785  35.3307712  65.8516439  -5.3935766
  39.2028534  73.2826675  -8.6526671  38.7490861  72.4417585  -8.5961481
  38.5722501  73.9188073  -8.3151891  37.6461473  75.1203171  -7.7176853
  37.9384448  75.6808228  -8.4364488  38.1560094  75.4131732  -6.9623694
  36.0560732  66.3667590   0.2697229  36.4110120  66.5939063   1.1291695
  36.7032864  66.6985967  -0.3525516  41.7858469  69.4886026  -9.0253442
  41.6476368  69.6787622  -9.9532253  41.4294688  70.2505409  -8.5685391
  41.8127849  71.5562553  -4.0142170  42.2464356  71.4637842  -3.1659116
  42.5259430  71.5320053  -4.6522154  35.5455744  75.1564647  -2.4809070
  35.5992766  75.7255583  -1.7131354  34.6770525  75.3266532  -2.8455033
  28.4254137  64.8582203  -0.9984619  29.0977191  64.6499565  -1.6471970
  27.5983924  64.6604289  -1.4379386  42.6743399  71.5986254  -1.4809285
  42.8679289  72.5032064  -1.2350010  42.5744017  71.1393673  -0.6470700
  34.3279709  61.4844144   1.0181042  33.6807624  62.1834094   0.9245519
  35.0980725  61.9180288   1.3857291  37.7358507  71.7492996   4.0931596
  37.5844014  71.5203548   3.1761679  37.7263187  72.7063598   4.1062941
  34.5043844  69.3224909  -0.9222138  35.4335904  69.4736069  -1.0953171
  34.0834874  69.4108930  -1.7773491  33.3032175  73.3475573  -3.1523600
  33.1643261  72.9794358  -2.2797662  32.5146772  73.8623213  -3.3239642
  34.8537391  72.7257176  -5.7634763  34.5187223  72.6857946  -4.8677113
  34.3541336  72.0601892  -6.2364352  28.8281635  68.1324806  -0.2382181
  28.6901432  67.4005045   0.3629358  29.7386558  68.0433706  -0.5197994
  31.4563935  67.8444766  -0.7498502  32.1663554  67.2037958  -0.7911883
  31.4133243  68.0957660   0.1727679  39.4450714  74.7812119   2.1708078
  39.3863260  74.0971339   1.5038661  39.8470232  75.5231109   1.7188704
  30.1692869  64.8309983   1.0697138  29.6330226  64.3800722   1.7218734
  29.5809578  64.9655892   0.3267602  39.4468121  72.7451703   0.4022057
  38.5594900  72.4077625   0.5248456  40.0166672  72.0134734   0.6390823
  32.9769275  77.4053155  -2.6316700  32.9039446  78.2108127  -2.1197395
  32.5346668  77.6045121  -3.4568678  43.9285462  68.1559920  -4.8361381
  43.9175338  69.0384636  -5.2067448  43.0602841  67.8031471  -5.0306844
  35.4367958  77.3039989  -0.4758541  36.1495930  77.9387454  -0.5482639
  34.9457987  77.4003855  -1.2918539  30.4879872  75.0534433   0.3447030
  31.1889331  75.6870916   0.4976424  30.0174987  75.3949164  -0.4157331
  38.2881158  67.6079040  -1.8300420  37.6352608  67.8554948  -2.4847967
  38.6661537  66.7943178  -2.1637942  34.3368731  68.3498851   4.6565617
  33.6609368  68.2492980   5.3267993  35.1596364  68.1938065   5.1201615
  33.0791513  79.6565779  -1.1076767  33.6309821  79.8197400  -0.3427681
  33.4197707  80.2470216  -1.7796742  27.5308279  64.0764061   3.1418152
  28.1580318  63.6941138   3.7555677  26.6736198  63.8578263   3.5073845
  37.9302388  74.4827036   4.7471888  38.4742292  75.0956994   4.2526843
  37.3489233  75.0406615   5.2638901  36.2159901  77.6047754  -4.1213085
  36.0911040  76.8037494  -4.6302139  36.8738992  78.0993947  -4.6099115
  38.2794809  75.4056774  -2.4933534  37.3325145  75.2862125  -2.5655208
  38.6277582  74.5179272  -2.4107273  30.6394382  61.2950913   1.3304707
  31.1628784  61.5413210   2.0931017  30.4206716  62.1270948   0.9107845
  35.2841242  75.2009490  -6.2929182  35.1366205  74.2726198  -6.1121612
  36.1094736  75.2229581  -6.7772107  38.8875364  76.0238049  -5.2064309
  39.8121912  75.8180910  -5.3439858  38.7190668  75.7754450  -4.2974968
  31.8446928  62.2364608  -0.9845622  31.5043748  61.4372421  -0.5824942
  31.1385934  62.5366319  -1.5568789  33.7324492  63.4372929  -2.6292303
  33.4742270  64.3590000  -2.6307973  33.2009532  63.0403364  -1.9391839
  38.6770680  76.5423717  -9.8502218  38.8507558  75.9770139 -10.6028366
  39.1699572  77.3424611 -10.0322728  24.4947640  68.5538386  -1.7838659
  23.9501108  69.3298194  -1.6518385  25.3726990  68.9009190  -1.9419538
  44.5310072  69.3060140  -8.2311918  44.9741218  68.5567465  -8.6292795
  43.6536582  69.2970276  -8.6138186  25.2813662  67.6808282   1.1091498
  24.5395398  67.8290917   1.6956128  24.9606406  67.9416548   0.2458247
  41.5637276  73.3090187 -11.2217989  42.0888600  73.6477459 -11.9468669
  41.4759629  72.3737202 -11.4054854  33.2257325  77.2224260   0.9071888
  33.5344451  76.9773407   1.7794587  34.0232807  77.4270899   0.4190758
  30.7676336  63.3981967   4.8032072  30.8164492  64.2744090   4.4209842
  31.3098851  62.8559360   4.2303715  41.2531182  73.9423090   4.0833209
  40.4626726  73.9247229   3.5437708  41.0164537  74.4811384   4.8382246
  41.3729057  70.7915557   1.3965938  41.4227062  70.6265564   2.3381460
  41.2642981  69.9242816   1.0063818  38.6632820  66.7746485   2.7125244
  39.5642682  66.6352949   2.4209242  38.7380794  66.9400939   3.6523422
  32.9975625  64.1513339   1.5578431  32.1278934  64.4446905   1.2861019
  33.2335105  64.7353784   2.2785694  42.8747254  73.2112498   1.6407959
  42.5832062  73.5742479   2.4771420  42.2619385  72.4979506   1.4621291
  44.0742936  70.7765378  -5.8389471  44.9089828  71.2155182  -5.6751910
  44.2102065  70.3004031  -6.6581225  41.1234442  68.3345113   0.1088017
  41.5988564  68.5272759  -0.6993132  40.2000008  68.3904299  -0.1368599
  35.7014659  60.3692956  -0.9256149  36.2196603  61.1053983  -1.2509660
  35.3469792  60.6756950  -0.0909390  39.8236111  65.2110873  -1.6583677
  40.7753534  65.3108970  -1.6371453  39.6539562  64.4189141  -1.1485593
  37.8450491  62.2966456  -1.4724276  37.2500423  62.5771469  -2.1677788
  37.5600187  62.7860357  -0.7007535  42.3024189  68.4316992  -2.5441378
  42.2700509  67.4932993  -2.3581694  42.9124813  68.5101029  -3.2775553
  42.4518678  65.2228036  -2.4983094  41.9357726  64.4386493  -2.6853166
  43.3358626  64.8946753  -2.3336575  48.1200739  69.4932999  -3.4035341
  48.8504127  69.2318287  -2.8427638  47.5107684  68.7561721  -3.3633273
  46.2016036  67.6340862  -2.8060890  45.4749200  67.4996827  -3.4144398
  45.7863323  67.9417691  -2.0004172  34.0246212  71.3530792   4.9586483
  34.9449222  71.5309391   5.1526530  33.9895795  70.4086837   4.8066183
  27.0208285  69.2631826  -2.3990735  27.2394295  70.1948934  -2.3802702
  27.4334059  68.9039801  -1.6135932  31.8936150  64.8365032   6.9912013
  31.7932877  65.7859389   6.9224105  31.6757692  64.5083271   6.1188084
  31.7567420  68.2662171   5.8077075  31.2734502  69.0662531   6.0140964
  31.8428359  68.2770116   4.8544519  27.6840758  72.1566706  -2.1554491
  28.6384011  72.1250648  -2.2224560  27.4853281  71.6957329  -1.3404265
  28.2740140  70.7267822   0.4116307  29.0933029  71.2211900   0.4351144
  28.5476948  69.8099790   0.3833874  43.8193831  63.8552714  -5.4527458
  44.4138322  63.6148450  -6.1634150  43.8920415  63.1359845  -4.8253922
  46.1264904  67.1618915  -6.6784037  45.5664462  67.2312104  -5.9052475
  45.5208407  66.9859900  -7.3984541  23.5275054  65.0605955   1.1108504
  24.1733918  64.5504909   1.5995729  23.3192205  65.7974637   1.6851929
  36.0528446  72.1286803   6.6100644  36.9219606  72.3027455   6.2487279
  35.5735198  72.9481220   6.4876374  30.2214627  79.2483904  -1.7109922
  31.1241873  79.2807514  -1.3943427  29.9951997  78.3184355  -1.6963586
  27.8672545  62.2073573   5.2083518  28.7304007  61.8510377   5.4186842
  27.2937956  61.8687467   5.8958922  47.7120922  83.8375429  -3.9854081
  48.3499332  83.7182176  -4.6890741  47.5941765  84.7856273  -3.9266129
  44.5210628  83.7902857  -4.0492556  44.1829140  83.6743922  -4.9372022
  45.3900397  83.3894022  -4.0691550  45.0030411  84.9437709   1.9093649
  44.9919052  84.5490507   1.0374153  45.1651051  84.2103781   2.5027420
  41.7237673  87.7274821   0.8572833  41.4327539  88.6320451   0.7419499
  42.3594657  87.7691348   1.5716903  42.6493879  85.1051669  -2.5525807
  43.2457452  84.8807691  -3.2668844  42.7068851  84.3636415  -1.9500359
  50.1896038  75.2123690  -1.5473286  49.8579363  76.0819101  -1.7712071
  49.5941651  74.8959974  -0.8679256  46.6827558  87.4136236  -2.1477373
  46.3828281  88.3161275  -2.2561566  46.3378617  87.1468419  -1.2956220
  40.1340039  83.8650033  -6.1140669  39.2090536  83.7326247  -5.9062977
  40.3824452  84.6444252  -5.6170726  50.0824701  79.9318776  -4.4679936
  49.1741579  79.8634185  -4.7621175  50.0312297  80.4090721  -3.6398110
  44.1565567  81.3508422   3.4754961  43.3798901  81.9102342   3.4657826
  44.7956130  81.8365205   3.9969831  51.9486348  78.1335215  -2.6902062
  51.3060728  78.4267748  -3.3362267  51.4441276  78.0188135  -1.8848865
  42.4111940  84.1593875   3.0372928  43.1526624  84.6978919   2.7607752
  41.7048925  84.7860164   3.1944480  47.8867279  86.3023016   1.6345090
  48.2950635  85.8605426   0.8899722  47.1644541  85.7275643   1.8879283
  44.2398349  81.2395622  -0.9921353  45.0859544  81.6635036  -0.8486704
  44.1796987  80.5829247  -0.2982790  47.3897795  78.8999991   0.6659820
  47.1458726  79.6542051   0.1294096  47.6657725  79.2785338   1.5007067
  49.3436257  85.4438603  -0.6562914  49.5553153  86.0870363  -1.3328533
  49.2966006  84.6100920  -1.1240984  46.9462486  78.0556424  -3.7526342
  46.0846965  78.3537677  -3.4609604  46.9724921  78.2726823  -4.6845309
  40.6548137  86.1470096  -4.4072773  41.2249494  86.5757364  -5.0455288
  41.2456249  85.8652681  -3.7088587  41.1473303  81.3133523   3.8388238
  40.5171964  81.9949804   4.0723635  41.0409391  81.2016605   2.8941377
  44.2238689  87.8694602  -0.3279846  44.2883121  88.3315009   0.5078326
  43.5149613  87.2391967  -0.1997536  34.7255979  81.2335810  -2.8030847
  34.9764017  82.1182820  -2.5373271  35.2615527  81.0540411  -3.5755755
  40.4254046  75.6154289   6.2013489  40.0320992  75.0620488   6.8761134
  41.2420186  75.9264868   6.5920007  43.3422007  77.0312168   3.7933746
  44.0831720  77.6319321   3.7138208  43.5739930  76.2889806   3.2351788
  38.4863345  82.2168536   2.0711976  38.3716860  81.3153793   2.3719075
  37.6307863  82.4632232   1.7196792  45.5655183  90.1586276   3.6699476
  45.1219037  89.3722654   3.3520381  46.2272396  90.3465426   3.0043367
  40.3242304  91.6882077  -1.8039845  40.8749729  91.5599141  -2.5762851
  39.4853780  91.9876966  -2.1544952  47.6636421  90.4389076   1.6980877
  47.6454896  91.2597957   1.2061147  48.5856341  90.3143151   1.9231019
  44.1209475  87.9533205   2.5404386  44.6537812  87.1921493   2.3103694
  43.5923556  87.6606857   3.2828540  47.2879170  73.0593271  -1.9301972
  46.9443439  73.9494913  -2.0062862  47.6558133  72.8694929  -2.7932387
  44.8376564  77.8951583  -8.3644299  43.9818160  77.5058433  -8.5438660
  45.2503515  77.9743544  -9.2244513  46.3675710  75.4297926  -3.9652739
  45.8640506  75.3928062  -4.7784934  46.6606317  76.3390669  -3.9056082
  42.6118596  75.5136656  -4.9586557  43.4771593  75.3179465  -5.3180668
  42.6796105  75.2847008  -4.0317201  40.2180915  77.7438864  -7.5870191
  40.7924667  77.5214045  -8.3196998  40.8051898  77.8127559  -6.8341589
  42.5203583  74.6180113  -8.8595121  41.8667995  74.3029130  -9.4838506
  42.4784057  73.9955853  -8.1335298  45.7541323  81.1062046  -4.5347474
  44.8363885  81.3276993  -4.6925785  46.1701467  81.1808357  -5.3935766
  49.0866836  72.3186830  -6.8284235  49.3925712  71.4584194  -7.1158320
  49.8119440  72.9104451  -7.0285241  43.3587915  82.6140623  -6.3208044
  43.4136525  81.6614460  -6.3965567  42.5479117  82.7700063  -5.8366745
  41.2980275  81.2317683  -8.5617665  40.4848141  81.5311854  -8.1552473
  41.7939269  80.8373372  -7.8443183  46.8954487  81.6959508   0.2697229
  47.2503875  81.9230981   1.1291695  47.5426618  82.0277884  -0.3525516
  40.7894350  78.8036039  -2.9456430  41.4293729  78.6624798  -3.6433467
  39.9571881  78.5170552  -3.3217828  37.7922966  78.7736364  -8.1683443
  38.0529784  79.6881697  -8.2774283  38.6140139  78.3060806  -8.0186830
  39.2647892  80.1874121  -0.9984619  39.9370945  79.9791483  -1.6471970
  38.4377678  79.9896207  -1.4379386  45.1673464  76.8136062   1.0181042
  44.5201379  77.5126011   0.9245519  45.9374479  77.2472206   1.3857291
  48.5752262  87.0784914   4.0931596  48.4237768  86.8495466   3.1761679
  48.5656941  88.0355515   4.1062941  45.3437598  84.6516827  -0.9222138
  46.2729658  84.8027986  -1.0953171  44.9228628  84.7400848  -1.7773491
  44.1425930  88.6767491  -3.1523600  44.0037016  88.3086276  -2.2797662
  43.3540526  89.1915131  -3.3239642  39.6675389  83.4616724  -0.2382181
  39.5295187  82.7296963   0.3629358  40.5780312  83.3725624  -0.5197994
  42.2957690  83.1736683  -0.7498502  43.0057308  82.5329875  -0.7911883
  42.2526998  83.4249578   0.1727679  50.2844468  90.1104037   2.1708078
  50.2257015  89.4263257   1.5038661  50.6863987  90.8523027   1.7188704
  41.0086624  80.1601901   1.0697138  40.4723981  79.7092640   1.7218734
  40.4203332  80.2947810   0.3267602  50.2861876  88.0743620   0.4022057
  49.3988654  87.7369542   0.5248456  50.8560427  87.3426652   0.6390823
  36.7425745  79.2957909  -1.8449868  36.6583934  78.6883578  -2.5799458
  35.9208451  79.7866927  -1.8440371  46.9149459  77.7811472  -6.4779673
  47.4118158  77.0281435  -6.7978602  46.1436440  77.8175789  -7.0436463
  43.4984428  79.9228855  -6.7507988  43.1282215  79.3699896  -6.0627082
  43.9943520  79.3186989  -7.3032988  41.3273626  90.3826350   0.3447030
  42.0283086  91.0162833   0.4976424  40.8568741  90.7241082  -0.4157331
  49.3568454  74.7481066  -4.3300314  48.4431533  74.9785293  -4.1618107
  49.7861555  74.8319510  -3.4786281  49.1274912  82.9370958  -1.8300420
  48.4746362  83.1846865  -2.4847967  49.5055292  82.1235096  -2.1637942
  45.1762485  83.6790769   4.6565617  44.5003122  83.5784898   5.3267993
  45.9990119  83.5229983   5.1201615  38.8949761  77.3332846  -0.5054882
  38.9591088  78.1947677  -0.9177484  38.8316881  76.7206848  -1.2382523
  38.3702034  79.4055979   3.1418152  38.9974073  79.0233056   3.7555677
  37.5129953  79.1870181   3.5073845  48.7696142  89.8118954   4.7471888
  49.3136046  90.4248912   4.2526843  48.1882987  90.3698532   5.2638901
  38.6761823  79.2888404  -4.9435944  37.9548409  79.9024372  -5.0828471
  39.4655079  79.8246169  -5.0219298  41.4788137  76.6242831   1.3304707
  42.0022539  76.8705127   2.0931017  41.2600470  77.4562866   0.9107845
  42.6840682  77.5656526  -0.9845622  42.3437502  76.7664339  -0.5824942
  41.9779688  77.8658237  -1.5568789  43.3357154  74.6505838  -2.5318299
  44.1583223  74.1766317  -2.6539409  43.5795217  75.4296322  -2.0319613
  40.8595733  81.3424959  -4.7226320  40.7140313  81.6565262  -3.8302039
  40.3820936  81.9609859  -5.2755422  42.7192115  78.3327507  -4.6745431
  42.7053684  77.4368600  -5.0113133  43.4364544  78.3398171  -4.0407145
  44.5718246  78.7664847  -2.6292303  44.3136024  79.6881918  -2.6307973
  44.0403287  78.3695282  -1.9391839  35.3341395  83.8830303  -1.7838659
  34.7894863  84.6590111  -1.6518385  36.2120745  84.2301108  -1.9419538
  42.1229011  77.2141887  -9.4057861  42.2444923  76.2858533  -9.2066973
  41.8331054  77.2280573 -10.3179545  44.9920202  74.8996798  -6.2691141
  45.0141899  74.9636131  -7.2239161  45.4088261  74.0601306  -6.0750635
  36.1207417  83.0100200   1.1091498  35.3789153  83.1582835   1.6956128
  35.8000161  83.2708465   0.2458247  44.0651079  92.5516178   0.9071888
  44.3738206  92.3065325   1.7794587  44.8626561  92.7562816   0.4190758
  41.6070091  78.7273885   4.8032072  41.6558246  79.6036007   4.4209842
  42.1492605  78.1851278   4.2303715  52.0924937  89.2715008   4.0833209
  51.3020480  89.2539147   3.5437708  51.8558291  89.8103302   4.8382246
  52.2122812  86.1207474   1.3965938  52.2620817  85.9557482   2.3381460
  52.1036735  85.2534733   1.0063818  49.5026574  82.1038402   2.7125244
  50.4036437  81.9644867   2.4209242  49.5774549  82.2692857   3.6523422
  43.8369379  79.4805257   1.5578431  42.9672689  79.7738823   1.2861019
  44.0728860  80.0645702   2.2785694  53.7141009  88.5404416   1.6407959
  53.4225817  88.9034396   2.4771420  53.1013140  87.8271424   1.4621291
  51.9628197  83.6637030   0.1088017  52.4382318  83.8564677  -0.6993132
  51.0393762  83.7196216  -0.1368599  46.5408413  75.6984874  -0.9256149
  47.0590357  76.4345901  -1.2509660  46.1863546  76.0048867  -0.0909390
  46.7921007  72.1185156  -5.4055252  47.0722761  71.4508346  -4.7794826
  47.5771614  72.3114252  -5.9180589  50.6629866  80.5402790  -1.6583677
  51.6147289  80.6400888  -1.6371453  50.4933316  79.7481059  -1.1485593
  48.6844245  77.6258374  -1.4724276  48.0894177  77.9063386  -2.1677788
  48.3993942  78.1152275  -0.7007535  53.2912432  80.5519954  -2.4983094
  52.7751481  79.7678410  -2.6853166  54.1752381  80.2238670  -2.3336575
  50.9523159  74.2960969  -6.5387282  50.7547980  73.9876057  -5.6543950
  51.5622865  75.0222608  -6.4089352  44.8639967  86.6822709   4.9586483
  45.7842976  86.8601308   5.1526530  44.8289550  85.7378755   4.8066183
  37.8602039  84.5923744  -2.3990735  38.0788049  85.5240852  -2.3802702
  38.2727813  84.2331718  -1.6135932  44.7806257  75.0991829 -10.4115047
  43.9706986  74.7538914 -10.0359801  45.4690674  74.7899373  -9.8227436
  46.7096806  74.1769876  -8.7890750  47.2627844  74.5965329  -8.1300727
  46.9466892  73.2505624  -8.7467794  42.7329905  80.1656950   6.9912013
  42.6326632  81.1151307   6.9224105  42.5151447  79.8375189   6.1188084
  48.5379179  75.6875459  -7.0790766  49.0378957  75.7991993  -7.8876447
  49.1814787  75.3836512  -6.4389957  42.5961175  83.5954089   5.8077075
  42.1128257  84.3954449   6.0140964  42.6822114  83.6062033   4.8544519
  38.5234512  87.4858623  -2.1554491  39.4777766  87.4542566  -2.2224560
  38.3247036  87.0249247  -1.3404265  39.1133894  86.0559739   0.4116307
  39.9326783  86.5503818   0.4351144  39.3870702  85.1391707   0.3833874
  34.3668809  80.3897873   1.1108504  35.0127672  79.8796827   1.5995729
  34.1585960  81.1266555   1.6851929  46.8922201  87.4578721   6.6100644
  47.7613361  87.6319373   6.2487279  46.4128952  88.2773137   6.4876374
  41.0608381  94.5775822  -1.7109922  41.9635628  94.6099432  -1.3943427
  40.8345751  93.6476273  -1.6963586  46.7024539  71.2480694  -8.8821663
  45.9356934  70.6939181  -8.7364981  47.1135244  71.3202563  -8.0207512
  38.7066300  77.5365490   5.2083518  39.5697761  77.1802295   5.4186842
  38.1331710  77.1979385   5.8958922  51.2647800  90.9446207   6.2013489
  50.8714746  90.3912405   6.8761134  52.0813941  91.2556785   6.5920007
  54.1815761  92.3604086   3.7933746  54.9225475  92.9611239   3.7138208
  54.4133684  91.6181724   3.2351788  49.2095788  94.7347896   3.1418152
  49.8367827  94.3524974   3.7555677  48.3523707  94.5162098   3.5073845
  52.4463845  94.0565802   4.8032072  52.4952001  94.9327925   4.4209842
  52.9886360  93.5143195   4.2303715  53.5723659  95.4948867   6.9912013
  53.4720386  96.4443224   6.9224105  53.3545201  95.1667106   6.1188084
  45.2062563  95.7189791   1.1108504  45.8521427  95.2088745   1.5995729
  44.9979714  96.4558472   1.6851929  49.5460054  92.8657408   5.2083518
  50.4091516  92.5094213   5.4186842  48.9725465  92.5271303   5.8958922
  50.2844470  67.1166159 -11.1046616  50.2257016  66.4325379 -11.7716033
  50.6863988  67.8585149 -11.5565990  48.7696144  66.8181076  -8.5282806
  49.3136048  67.4311035  -9.0227851  48.1882988  67.3760655  -8.0115793
  52.0924938  66.2777130  -9.1921484  51.3020482  66.2601269  -9.7316985
  51.8558292  66.8165424  -8.4372448  53.7141010  65.5466538 -11.6346734
  53.4225818  65.9096519 -10.7983273  53.1013141  64.8333547 -11.8133402
  46.8922202  64.4640843  -6.6654049  47.7613362  64.6381495  -7.0267414
  46.4128954  65.2835260  -6.7878320  51.2647802  67.9508329  -7.0741204
  50.8714747  67.3974528  -6.3993560  52.0813942  68.2618908  -6.6834686
  54.1815763  69.3666209  -9.4820947  54.9225476  69.9673362  -9.5616485
  54.4133686  68.6243846 -10.0402905  49.2095789  71.7410019 -10.1336541
  49.8367828  71.3587096  -9.5199017  48.3523708  71.5224221  -9.7680849
  52.4463847  71.0627925  -8.4722621  52.4952002  71.9390048  -8.8544852
  52.9886361  70.5205318  -9.0450978  53.5723661  72.5010990  -6.2842680
  53.4720387  73.4505347  -6.3530589  53.3545203  72.1729229  -7.1566610
  45.2062564  72.7251913 -12.1646190  45.8521428  72.2150867 -11.6758965
  44.9979716  73.4620595 -11.5902765  49.5460055  69.8719530  -8.0671176
  50.4091517  69.5156335  -7.8567851  48.9725466  69.5333425  -7.3795771
 122.0032730 122.0032730 122.0032730 109.4712190 109.4712190 109.4712190
